 Entering Gaussian System, Link 0=g16
 Input=MN_38_fch3fcomp_BH76_B97DBJ_631Gs.in
 Output=MN_38_fch3fcomp_BH76_B97DBJ_631Gs.log
 Initial command:
 /udrive/faculty/rpeverati/g16/g16/l1.exe "/udrive/scratch-directories/gaussian09/rpeverati/Gau-10204.inp" -scrdir="/udrive/scratch-directories/gaussian09/rpeverati/"
 Entering Link 1 = /udrive/faculty/rpeverati/g16/g16/l1.exe PID=     10221.
  
 Copyright (c) 1988,1990,1992,1993,1995,1998,2003,2009,2016,
            Gaussian, Inc.  All Rights Reserved.
  
 This is part of the Gaussian(R) 16 program.  It is based on
 the Gaussian(R) 09 system (copyright 2009, Gaussian, Inc.),
 the Gaussian(R) 03 system (copyright 2003, Gaussian, Inc.),
 the Gaussian(R) 98 system (copyright 1998, Gaussian, Inc.),
 the Gaussian(R) 94 system (copyright 1995, Gaussian, Inc.),
 the Gaussian 92(TM) system (copyright 1992, Gaussian, Inc.),
 the Gaussian 90(TM) system (copyright 1990, Gaussian, Inc.),
 the Gaussian 88(TM) system (copyright 1988, Gaussian, Inc.),
 the Gaussian 86(TM) system (copyright 1986, Carnegie Mellon
 University), and the Gaussian 82(TM) system (copyright 1983,
 Carnegie Mellon University). Gaussian is a federally registered
 trademark of Gaussian, Inc.
  
 This software contains proprietary and confidential information,
 including trade secrets, belonging to Gaussian, Inc.
  
 This software is provided under written license and may be
 used, copied, transmitted, or stored only in accord with that
 written license.
  
 The following legend is applicable only to US Government
 contracts under FAR:
  
                    RESTRICTED RIGHTS LEGEND
  
 Use, reproduction and disclosure by the US Government is
 subject to restrictions as set forth in subparagraphs (a)
 and (c) of the Commercial Computer Software - Restricted
 Rights clause in FAR 52.227-19.
  
 Gaussian, Inc.
 340 Quinnipiac St., Bldg. 40, Wallingford CT 06492
  
  
 ---------------------------------------------------------------
 Warning -- This program may not be used in any manner that
 competes with the business of Gaussian, Inc. or will provide
 assistance to any competitor of Gaussian, Inc.  The licensee
 of this program is prohibited from giving any competitor of
 Gaussian, Inc. access to this program.  By using this program,
 the user acknowledges that Gaussian, Inc. is engaged in the
 business of creating and licensing software in the field of
 computational chemistry and represents and warrants to the
 licensee that it is not a competitor of Gaussian, Inc. and that
 it will not use this program in any manner prohibited above.
 ---------------------------------------------------------------
  

 Cite this work as:
 Gaussian 16, Revision A.03,
 M. J. Frisch, G. W. Trucks, H. B. Schlegel, G. E. Scuseria, 
 M. A. Robb, J. R. Cheeseman, G. Scalmani, V. Barone, 
 G. A. Petersson, H. Nakatsuji, X. Li, M. Caricato, A. V. Marenich, 
 J. Bloino, B. G. Janesko, R. Gomperts, B. Mennucci, H. P. Hratchian, 
 J. V. Ortiz, A. F. Izmaylov, J. L. Sonnenberg, D. Williams-Young, 
 F. Ding, F. Lipparini, F. Egidi, J. Goings, B. Peng, A. Petrone, 
 T. Henderson, D. Ranasinghe, V. G. Zakrzewski, J. Gao, N. Rega, 
 G. Zheng, W. Liang, M. Hada, M. Ehara, K. Toyota, R. Fukuda, 
 J. Hasegawa, M. Ishida, T. Nakajima, Y. Honda, O. Kitao, H. Nakai, 
 T. Vreven, K. Throssell, J. A. Montgomery, Jr., J. E. Peralta, 
 F. Ogliaro, M. J. Bearpark, J. J. Heyd, E. N. Brothers, K. N. Kudin, 
 V. N. Staroverov, T. A. Keith, R. Kobayashi, J. Normand, 
 K. Raghavachari, A. P. Rendell, J. C. Burant, S. S. Iyengar, 
 J. Tomasi, M. Cossi, J. M. Millam, M. Klene, C. Adamo, R. Cammi, 
 J. W. Ochterski, R. L. Martin, K. Morokuma, O. Farkas, 
 J. B. Foresman, and D. J. Fox, Gaussian, Inc., Wallingford CT, 2016.
 
 ******************************************
 Gaussian 16:  ES64L-G16RevA.03 25-Dec-2016
                 7-Oct-2020 
 ******************************************
 %NoSave
 %nproc=12
 Will use up to   12 processors via shared memory.
 %mem=20GB
 %chk=MN_38_fch3fcomp_BH76_B97DBJ_631Gs
 ----------------------------------------------------------------------
 #P Opt(MaxCyc=100) B97D3/6-31G* 5D 7F Integral=UltraFineGrid SCF=(NoSy
 mm,XQC,MaxCyc=120) IOp(1/33=1)
 ----------------------------------------------------------------------
 1/6=100,18=20,19=15,26=4,33=1,38=1/1,3;
 2/9=110,12=2,17=6,18=5,40=1/2;
 3/5=1,6=6,7=1,8=11,11=2,25=1,30=1,71=1,74=-59,75=-5/1,2,3;
 4/9=2/1;
 5/5=2,7=120,8=3,13=1,38=5/2,8;
 6/7=2,8=2,9=2,10=2,28=1/1;
 7//1,2,3,16;
 1/6=100,18=20,19=15,26=4,33=1/3(2);
 2/9=110/2;
 99//99;
 2/9=110/2;
 3/5=1,6=6,7=1,8=11,11=2,25=1,30=1,71=1,74=-59,75=-5/1,2,3;
 4/5=5,9=2,16=3,69=1/1;
 5/5=2,7=120,8=3,13=1,38=5/2,8;
 7//1,2,3,16;
 1/6=100,18=20,19=15,26=4,33=1/3(-5);
 2/9=110/2;
 6/7=2,8=2,9=2,10=2,19=2,28=1/1;
 99/9=1/99;
 Leave Link    1 at Wed Oct  7 14:01:22 2020, MaxMem=  2684354560 cpu:               5.6 elap:               0.6
 (Enter /udrive/faculty/rpeverati/g16/g16/l101.exe)
 ONIOM data not found on unit 2.
 ------------------
 TS search on BH76.
 ------------------
 TstMul:  ICh=    -1
 TstMul:  Mul=     1
 TstMul:  ICh=    -1
 TstMul:  Mul=     1
 Symbolic Z-matrix:
 Charge = -1 Multiplicity = 1
 F                     0.        0.       -1.79137 
 C                     0.        0.       -0.36562 
 H                    -0.51179   0.88645  -0.01759 
 H                    -0.51179  -0.88645  -0.01759 
 H                     1.02358   0.       -0.01759 
 F                     0.        0.        2.20975 
 
 RdStrC is calling ZToCFu for IStruc=1 NZ=     6.
 PrtBox:  NBox=     1 Levels=  1 BoxLen=    8.00 SMaxX=        7.56
          Shift=            0.967145            1.675144            3.385201
 Box      1 Number                   0 centers from      1 to      6:
 After GenITR:
 ITRead=  0  0  0  0  0  0
 MicOpt= -1 -1 -1 -1 -1 -1
 Add virtual bond connecting atoms F6         and C2         Dist= 4.87D+00.
 Add virtual bond connecting atoms F6         and H3         Dist= 4.63D+00.
 Add virtual bond connecting atoms F6         and H4         Dist= 4.63D+00.
 Add virtual bond connecting atoms F6         and H5         Dist= 4.63D+00.
 Add atom      6 valence  4 ND=      0 dihedral       4      3      6      2
 Add atom      6 valence  4 ND=      0 dihedral       5      3      6      2
 Add atom      6 valence  4 ND=      0 dihedral       5      4      6      2
 ITRead=  0  0  0  0  0  0
 MicOpt= -1 -1 -1 -1 -1 -1
 NAtoms=      6 NQM=        6 NQMF=       0 NMMI=      0 NMMIF=      0
                NMic=       0 NMicF=      0.
                    Isotopes and Nuclear Properties:
 (Nuclear quadrupole moments (NQMom) in fm**2, nuclear magnetic moments (NMagM)
  in nuclear magnetons)

  Atom         1           2           3           4           5           6
 IAtWgt=          19          12           1           1           1          19
 AtmWgt=  18.9984033  12.0000000   1.0078250   1.0078250   1.0078250  18.9984033
 NucSpn=           1           0           1           1           1           1
 AtZEff=   0.0000000   0.0000000   0.0000000   0.0000000   0.0000000   0.0000000
 NQMom=    0.0000000   0.0000000   0.0000000   0.0000000   0.0000000   0.0000000
 NMagM=    2.6288670   0.0000000   2.7928460   2.7928460   2.7928460   2.6288670
 AtZNuc=   9.0000000   6.0000000   1.0000000   1.0000000   1.0000000   9.0000000
 No MM parameters found.
 Leave Link  101 at Wed Oct  7 14:01:23 2020, MaxMem=  2684354560 cpu:               9.9 elap:               1.0
 (Enter /udrive/faculty/rpeverati/g16/g16/l103.exe)

 GradGradGradGradGradGradGradGradGradGradGradGradGradGradGradGradGradGrad
 Berny optimization.
 Optmz: redundant internal coordinate code flag= 1
 Initialization pass.
                           ----------------------------
                           !    Initial Parameters    !
                           ! (Angstroms and Degrees)  !
 --------------------------                            --------------------------
 ! Name  Definition              Value          Derivative Info.                !
 --------------------------------------------------------------------------------
 ! R1    R(1,2)                  1.4258         estimate D2E/DX2                !
 ! R2    R(2,3)                  1.0811         estimate D2E/DX2                !
 ! R3    R(2,4)                  1.0811         estimate D2E/DX2                !
 ! R4    R(2,5)                  1.0811         estimate D2E/DX2                !
 ! R5    R(2,6)                  2.5754         estimate D2E/DX2                !
 ! R6    R(3,6)                  2.4513         estimate D2E/DX2                !
 ! R7    R(4,6)                  2.4513         estimate D2E/DX2                !
 ! R8    R(5,6)                  2.4513         estimate D2E/DX2                !
 ! A1    A(1,2,3)              108.7787         estimate D2E/DX2                !
 ! A2    A(1,2,4)              108.7787         estimate D2E/DX2                !
 ! A3    A(1,2,5)              108.7787         estimate D2E/DX2                !
 ! A4    A(3,2,4)              110.1548         estimate D2E/DX2                !
 ! A5    A(3,2,5)              110.1548         estimate D2E/DX2                !
 ! A6    A(4,2,5)              110.1548         estimate D2E/DX2                !
 ! A7    A(3,6,4)               42.4004         estimate D2E/DX2                !
 ! A8    A(3,6,5)               42.4004         estimate D2E/DX2                !
 ! A9    A(4,6,5)               42.4004         estimate D2E/DX2                !
 ! A10   L(1,2,6,3,-1)         180.0            estimate D2E/DX2                !
 ! A11   L(1,2,6,3,-2)         180.0            estimate D2E/DX2                !
 ! D1    D(3,2,5,4)            121.7146         estimate D2E/DX2                !
 ! D2    D(4,3,6,2)             32.4318         estimate D2E/DX2                !
 ! D3    D(5,3,6,2)            -32.4318         estimate D2E/DX2                !
 ! D4    D(5,4,6,2)             32.4318         estimate D2E/DX2                !
 --------------------------------------------------------------------------------
 Maximum allowed force set to 1.00D+20.
 Trust Radius=3.00D-01 FncErr=1.00D-07 GrdErr=1.00D-06 EigMax=2.50D+02 EigMin=1.00D-04
 Number of steps in this run=    100 maximum allowed number of steps=    100.
 GradGradGradGradGradGradGradGradGradGradGradGradGradGradGradGradGradGrad

 Leave Link  103 at Wed Oct  7 14:01:24 2020, MaxMem=  2684354560 cpu:               1.6 elap:               0.6
 (Enter /udrive/faculty/rpeverati/g16/g16/l202.exe)
                          Input orientation:                          
 ---------------------------------------------------------------------
 Center     Atomic      Atomic             Coordinates (Angstroms)
 Number     Number       Type             X           Y           Z
 ---------------------------------------------------------------------
      1          9           0        0.000000    0.000000   -1.791371
      2          6           0        0.000000    0.000000   -0.365617
      3          1           0       -0.511791    0.886448   -0.017587
      4          1           0       -0.511791   -0.886448   -0.017587
      5          1           0        1.023582    0.000000   -0.017587
      6          9           0        0.000000    0.000000    2.209748
 ---------------------------------------------------------------------
                    Distance matrix (angstroms):
                    1          2          3          4          5
     1  F    0.000000
     2  C    1.425754   0.000000
     3  H    2.047934   1.081132   0.000000
     4  H    2.047934   1.081132   1.772896   0.000000
     5  H    2.047934   1.081132   1.772896   1.772896   0.000000
     6  F    4.001119   2.575365   2.451273   2.451273   2.451273
                    6
     6  F    0.000000
 Stoichiometry    CH3F2(1-)
 Framework group  C3V[C3(FCF),3SGV(H)]
 Deg. of freedom     4
 Full point group                 C3V     NOp   6
 Largest Abelian subgroup         CS      NOp   2
 Largest concise Abelian subgroup CS      NOp   2
                         Standard orientation:                         
 ---------------------------------------------------------------------
 Center     Atomic      Atomic             Coordinates (Angstroms)
 Number     Number       Type             X           Y           Z
 ---------------------------------------------------------------------
      1          9           0        0.000000    0.000000   -1.847628
      2          6           0        0.000000    0.000000   -0.421874
      3          1           0       -0.000000    1.023582   -0.073843
      4          1           0       -0.886448   -0.511791   -0.073843
      5          1           0        0.886448   -0.511791   -0.073843
      6          9           0        0.000000    0.000000    2.153492
 ---------------------------------------------------------------------
 Rotational constants (GHZ):         159.5384480           3.2253044           3.2253044
 Leave Link  202 at Wed Oct  7 14:01:25 2020, MaxMem=  2684354560 cpu:               1.8 elap:               0.7
 (Enter /udrive/faculty/rpeverati/g16/g16/l301.exe)
 Standard basis: 6-31G(d) (5D, 7F)
 Ernie: Thresh=  0.10000D-02 Tol=  0.10000D-05 Strict=F.
 There are    37 symmetry adapted cartesian basis functions of A'  symmetry.
 There are    14 symmetry adapted cartesian basis functions of A"  symmetry.
 There are    34 symmetry adapted basis functions of A'  symmetry.
 There are    14 symmetry adapted basis functions of A"  symmetry.
    48 basis functions,    96 primitive gaussians,    51 cartesian basis functions
    14 alpha electrons       14 beta electrons
       nuclear repulsion energy        64.3622347508 Hartrees.
 IExCor= 3630 DFT=T Ex+Corr=B97D3 ExCW=0 ScaHFX=  0.000000
 ScaDFX=  1.000000  1.000000  1.000000  1.000000 ScalE2=  1.000000  1.000000
 IRadAn=      5 IRanWt=     -1 IRanGd=            0 ICorTp=0 IEmpDi=141
 NAtoms=    6 NActive=    6 NUniq=    4 SFac= 2.25D+00 NAtFMM=   60 NAOKFM=F Big=F
 Integral buffers will be    131072 words long.
 Raffenetti 2 integral format.
 Two-electron integral symmetry is turned on.
 R6Disp:  Grimme-D3(BJ) Dispersion energy=       -0.0061267398 Hartrees.
 Nuclear repulsion after empirical dispersion term =       64.3561080110 Hartrees.
 Leave Link  301 at Wed Oct  7 14:01:26 2020, MaxMem=  2684354560 cpu:               1.9 elap:               0.5
 (Enter /udrive/faculty/rpeverati/g16/g16/l302.exe)
 NPDir=0 NMtPBC=     1 NCelOv=     1 NCel=       1 NClECP=     1 NCelD=      1
         NCelK=      1 NCelE2=     1 NClLst=     1 CellRange=     0.0.
 One-electron integrals computed using PRISM.
 One-electron integral symmetry used in STVInt
 NBasis=    48 RedAO= T EigKep=  1.87D-02  NBF=    34    14
 NBsUse=    48 1.00D-06 EigRej= -1.00D+00 NBFU=    34    14
 Precomputing XC quadrature grid using
 IXCGrd= 4 IRadAn=           5 IRanWt=          -1 IRanGd=           0 AccXCQ= 0.00D+00.
 Generated NRdTot=       0 NPtTot=           0 NUsed=           0 NTot=          32
 NSgBfM=    51    51    51    51    51 MxSgAt=     6 MxSgA2=     6.
 Leave Link  302 at Wed Oct  7 14:01:27 2020, MaxMem=  2684354560 cpu:               4.0 elap:               0.7
 (Enter /udrive/faculty/rpeverati/g16/g16/l303.exe)
 DipDrv:  MaxL=1.
 Leave Link  303 at Wed Oct  7 14:01:28 2020, MaxMem=  2684354560 cpu:               1.9 elap:               0.5
 (Enter /udrive/faculty/rpeverati/g16/g16/l401.exe)
 SCF N**3 symmetry information disabled.
 ExpMin= 1.61D-01 ExpMax= 7.00D+03 ExpMxC= 1.05D+03 IAcc=3 IRadAn=         5 AccDes= 0.00D+00
 Harris functional with IExCor= 3630 and IRadAn=       5 diagonalized for initial guess.
 HarFok:  IExCor= 3630 AccDes= 0.00D+00 IRadAn=         5 IDoV= 1 UseB2=F ITyADJ=14
 ICtDFT=  3500011 ScaDFX=  1.000000  1.000000  1.000000  1.000000
 FoFCou: FMM=F IPFlag=           0 FMFlag=      100000 FMFlg1=           0
         NFxFlg=           0 DoJE=T BraDBF=F KetDBF=T FulRan=T
         wScrn=  0.000000 ICntrl=       500 IOpCl=  0 I1Cent=   200000004 NGrid=           0
         NMat0=    1 NMatS0=      1 NMatT0=    0 NMatD0=    1 NMtDS0=    0 NMtDT0=    0
 Petite list used in FoFCou.
 Harris En= -239.707344120622    
 JPrj=0 DoOrth=F DoCkMO=F.
 Initial guess orbital symmetries:
       Occupied  (A1) (A1) (A1) (A1) (A1) (A1) (A1) (E) (E) (E)
                 (E) (A1) (E) (E)
       Virtual   (A1) (A1) (E) (E) (A1) (E) (E) (A1) (E) (E) (A1)
                 (E) (E) (A1) (E) (E) (A1) (E) (E) (A1) (E) (E)
                 (E) (E) (E) (E) (A1) (A1) (A1) (E) (E) (E) (E)
                 (A1)
 The electronic state of the initial guess is 1-A1.
 Leave Link  401 at Wed Oct  7 14:01:29 2020, MaxMem=  2684354560 cpu:               5.7 elap:               0.8
 (Enter /udrive/faculty/rpeverati/g16/g16/l502.exe)
 Keep J ints in memory in symmetry-blocked form, NReq=11153107.
 FoFCou: FMM=F IPFlag=           0 FMFlag=           0 FMFlg1=           0
         NFxFlg=           0 DoJE=F BraDBF=F KetDBF=F FulRan=T
         wScrn=  0.000000 ICntrl=       600 IOpCl=  0 I1Cent=           0 NGrid=           0
         NMat0=    1 NMatS0=   1176 NMatT0=    0 NMatD0=    1 NMtDS0=    0 NMtDT0=    0
 Petite list used in FoFCou.
 Closed shell SCF:
 Using DIIS extrapolation, IDIIS=  1040.
 NGot=  2684354560 LenX=  2683985987 LenY=  2683982945
 Requested convergence on RMS density matrix=1.00D-08 within 120 cycles.
 Requested convergence on MAX density matrix=1.00D-06.
 Requested convergence on             energy=1.00D-06.
 No special actions if energy rises.
 Integral accuracy reduced to 1.0D-05 until final iterations.

 Cycle   1  Pass 0  IDiag  1:
 E= -239.242637315003    
 DIIS: error= 1.04D-01 at cycle   1 NSaved=   1.
 NSaved= 1 IEnMin= 1 EnMin= -239.242637315003     IErMin= 1 ErrMin= 1.04D-01
 ErrMax= 1.04D-01  0.00D+00 EMaxC= 1.00D-01 BMatC= 2.31D-01 BMatP= 2.31D-01
 IDIUse=3 WtCom= 0.00D+00 WtEn= 1.00D+00
 Coeff-Com:  0.100D+01
 Coeff-En:   0.100D+01
 Coeff:      0.100D+01
 Gap=     0.155 Goal=   None    Shift=    0.000
 GapD=    0.155 DampG=1.000 DampE=0.250 DampFc=0.2500 IDamp=-1.
 Damping current iteration by 2.50D-01
 RMSDP=2.32D-01 MaxDP=5.48D+00              OVMax= 9.56D-01

 Cycle   2  Pass 0  IDiag  1:
 Density matrix breaks symmetry, PCut= 1.00D-04
 Density matrix has no symmetry -- integrals replicated.
 E= -238.900350615856     Delta-E=        0.342286699147 Rises=F Damp=T
 DIIS: error= 4.42D-02 at cycle   2 NSaved=   2.
 NSaved= 2 IEnMin= 1 EnMin= -239.242637315003     IErMin= 2 ErrMin= 4.42D-02
 ErrMax= 4.42D-02  0.00D+00 EMaxC= 1.00D-01 BMatC= 8.85D-02 BMatP= 2.31D-01
 IDIUse=3 WtCom= 5.58D-01 WtEn= 4.42D-01
 Coeff-Com:  0.307D+00 0.693D+00
 Coeff-En:   0.838D+00 0.162D+00
 Coeff:      0.541D+00 0.459D+00
 Gap=    -0.002 Goal=   None    Shift=    0.000
 RMSDP=5.88D-02 MaxDP=1.42D+00 DE= 3.42D-01 OVMax= 9.75D-01

 Cycle   3  Pass 0  IDiag  1:
 Density matrix breaks symmetry, PCut= 1.00D-04
 Density matrix has no symmetry -- integrals replicated.
 E= -239.315236640240     Delta-E=       -0.414886024384 Rises=F Damp=F
 DIIS: error= 5.60D-02 at cycle   3 NSaved=   3.
 NSaved= 3 IEnMin= 3 EnMin= -239.315236640240     IErMin= 2 ErrMin= 4.42D-02
 ErrMax= 5.60D-02  0.00D+00 EMaxC= 1.00D-01 BMatC= 8.96D-02 BMatP= 8.85D-02
 IDIUse=3 WtCom= 4.40D-01 WtEn= 5.60D-01
 EnCoef did     2 forward-backward iterations
 Coeff-Com:  0.157D+00 0.409D+00 0.434D+00
 Coeff-En:   0.293D+00 0.145D-01 0.693D+00
 Coeff:      0.233D+00 0.188D+00 0.579D+00
 Gap=     0.153 Goal=   None    Shift=    0.000
 RMSDP=1.10D-02 MaxDP=9.46D-02 DE=-4.15D-01 OVMax= 1.55D-01

 Cycle   4  Pass 0  IDiag  1:
 Density matrix breaks symmetry, PCut= 1.00D-04
 Density matrix has no symmetry -- integrals replicated.
 E= -239.390859472265     Delta-E=       -0.075622832025 Rises=F Damp=F
 DIIS: error= 2.04D-02 at cycle   4 NSaved=   4.
 NSaved= 4 IEnMin= 4 EnMin= -239.390859472265     IErMin= 4 ErrMin= 2.04D-02
 ErrMax= 2.04D-02  0.00D+00 EMaxC= 1.00D-01 BMatC= 2.23D-02 BMatP= 8.85D-02
 IDIUse=3 WtCom= 7.96D-01 WtEn= 2.04D-01
 Coeff-Com:  0.110D+00 0.409D-01 0.314D+00 0.535D+00
 Coeff-En:   0.000D+00 0.000D+00 0.151D+00 0.849D+00
 Coeff:      0.877D-01 0.325D-01 0.281D+00 0.599D+00
 Gap=     0.165 Goal=   None    Shift=    0.000
 RMSDP=3.82D-03 MaxDP=3.14D-02 DE=-7.56D-02 OVMax= 7.35D-02

 Cycle   5  Pass 0  IDiag  1:
 Density matrix breaks symmetry, PCut= 1.00D-04
 Density matrix has no symmetry -- integrals replicated.
 E= -239.407403840837     Delta-E=       -0.016544368572 Rises=F Damp=F
 DIIS: error= 8.32D-03 at cycle   5 NSaved=   5.
 NSaved= 5 IEnMin= 5 EnMin= -239.407403840837     IErMin= 5 ErrMin= 8.32D-03
 ErrMax= 8.32D-03  0.00D+00 EMaxC= 1.00D-01 BMatC= 2.09D-03 BMatP= 2.23D-02
 IDIUse=3 WtCom= 9.17D-01 WtEn= 8.32D-02
 Coeff-Com:  0.282D-02 0.148D-01 0.741D-01 0.271D+00 0.637D+00
 Coeff-En:   0.000D+00 0.000D+00 0.000D+00 0.620D-01 0.938D+00
 Coeff:      0.259D-02 0.136D-01 0.680D-01 0.254D+00 0.662D+00
 Gap=     0.144 Goal=   None    Shift=    0.000
 RMSDP=1.27D-03 MaxDP=1.07D-02 DE=-1.65D-02 OVMax= 2.41D-02

 Cycle   6  Pass 0  IDiag  1:
 E= -239.408882474613     Delta-E=       -0.001478633775 Rises=F Damp=F
 DIIS: error= 1.86D-03 at cycle   1 NSaved=   1.
 NSaved= 1 IEnMin= 1 EnMin= -239.408882474613     IErMin= 1 ErrMin= 1.86D-03
 ErrMax= 1.86D-03  0.00D+00 EMaxC= 1.00D-01 BMatC= 2.00D-04 BMatP= 2.00D-04
 IDIUse=3 WtCom= 9.81D-01 WtEn= 1.86D-02
 Coeff-Com:  0.100D+01
 Coeff-En:   0.100D+01
 Coeff:      0.100D+01
 Gap=     0.145 Goal=   None    Shift=    0.000
 RMSDP=5.23D-04 MaxDP=8.42D-03 DE=-1.48D-03 OVMax= 1.08D-02

 Cycle   7  Pass 0  IDiag  1:
 E= -239.408563279126     Delta-E=        0.000319195487 Rises=F Damp=F
 DIIS: error= 3.47D-03 at cycle   2 NSaved=   2.
 NSaved= 2 IEnMin= 1 EnMin= -239.408882474613     IErMin= 1 ErrMin= 1.86D-03
 ErrMax= 3.47D-03  0.00D+00 EMaxC= 1.00D-01 BMatC= 6.67D-04 BMatP= 2.00D-04
 IDIUse=3 WtCom= 1.45D-01 WtEn= 8.55D-01
 Coeff-Com:  0.647D+00 0.353D+00
 Coeff-En:   0.727D+00 0.273D+00
 Coeff:      0.715D+00 0.285D+00
 Gap=     0.144 Goal=   None    Shift=    0.000
 RMSDP=2.99D-04 MaxDP=4.48D-03 DE= 3.19D-04 OVMax= 5.69D-03

 Cycle   8  Pass 0  IDiag  1:
 E= -239.409002616764     Delta-E=       -0.000439337638 Rises=F Damp=F
 DIIS: error= 6.70D-04 at cycle   3 NSaved=   3.
 NSaved= 3 IEnMin= 3 EnMin= -239.409002616764     IErMin= 3 ErrMin= 6.70D-04
 ErrMax= 6.70D-04  0.00D+00 EMaxC= 1.00D-01 BMatC= 2.35D-05 BMatP= 2.00D-04
 IDIUse=3 WtCom= 9.93D-01 WtEn= 6.70D-03
 Coeff-Com:  0.406D+00 0.137D+00 0.457D+00
 Coeff-En:   0.122D+00 0.000D+00 0.878D+00
 Coeff:      0.404D+00 0.136D+00 0.460D+00
 Gap=     0.144 Goal=   None    Shift=    0.000
 RMSDP=6.09D-05 MaxDP=1.03D-03 DE=-4.39D-04 OVMax= 1.40D-03

 Cycle   9  Pass 0  IDiag  1:
 E= -239.409019351009     Delta-E=       -0.000016734245 Rises=F Damp=F
 DIIS: error= 4.96D-05 at cycle   4 NSaved=   4.
 NSaved= 4 IEnMin= 4 EnMin= -239.409019351009     IErMin= 4 ErrMin= 4.96D-05
 ErrMax= 4.96D-05  0.00D+00 EMaxC= 1.00D-01 BMatC= 8.03D-08 BMatP= 2.35D-05
 IDIUse=1 WtCom= 1.00D+00 WtEn= 0.00D+00
 Coeff-Com:  0.180D+00 0.561D-01 0.239D+00 0.526D+00
 Coeff:      0.180D+00 0.561D-01 0.239D+00 0.526D+00
 Gap=     0.144 Goal=   None    Shift=    0.000
 RMSDP=6.36D-06 MaxDP=6.56D-05 DE=-1.67D-05 OVMax= 8.87D-05

 Initial convergence to 1.0D-05 achieved.  Increase integral accuracy.
 Cycle  10  Pass 1  IDiag  1:
 E= -239.409014575226     Delta-E=        0.000004775782 Rises=F Damp=F
 DIIS: error= 2.05D-05 at cycle   1 NSaved=   1.
 NSaved= 1 IEnMin= 1 EnMin= -239.409014575226     IErMin= 1 ErrMin= 2.05D-05
 ErrMax= 2.05D-05  0.00D+00 EMaxC= 1.00D-01 BMatC= 9.32D-09 BMatP= 9.32D-09
 IDIUse=1 WtCom= 1.00D+00 WtEn= 0.00D+00
 Coeff-Com:  0.100D+01
 Coeff:      0.100D+01
 Gap=     0.144 Goal=   None    Shift=    0.000
 RMSDP=6.36D-06 MaxDP=6.56D-05 DE= 4.78D-06 OVMax= 1.54D-04

 Cycle  11  Pass 1  IDiag  1:
 E= -239.409014563176     Delta-E=        0.000000012051 Rises=F Damp=F
 DIIS: error= 3.94D-05 at cycle   2 NSaved=   2.
 NSaved= 2 IEnMin= 1 EnMin= -239.409014575226     IErMin= 1 ErrMin= 2.05D-05
 ErrMax= 3.94D-05  0.00D+00 EMaxC= 1.00D-01 BMatC= 3.09D-08 BMatP= 9.32D-09
 IDIUse=1 WtCom= 1.00D+00 WtEn= 0.00D+00
 Coeff-Com:  0.658D+00 0.342D+00
 Coeff:      0.658D+00 0.342D+00
 Gap=     0.144 Goal=   None    Shift=    0.000
 RMSDP=4.65D-06 MaxDP=4.34D-05 DE= 1.21D-08 OVMax= 8.75D-05

 Cycle  12  Pass 1  IDiag  1:
 E= -239.409014584921     Delta-E=       -0.000000021746 Rises=F Damp=F
 DIIS: error= 3.26D-06 at cycle   3 NSaved=   3.
 NSaved= 3 IEnMin= 3 EnMin= -239.409014584921     IErMin= 3 ErrMin= 3.26D-06
 ErrMax= 3.26D-06  0.00D+00 EMaxC= 1.00D-01 BMatC= 4.25D-10 BMatP= 9.32D-09
 IDIUse=1 WtCom= 1.00D+00 WtEn= 0.00D+00
 Coeff-Com:  0.191D+00 0.120D+00 0.689D+00
 Coeff:      0.191D+00 0.120D+00 0.689D+00
 Gap=     0.144 Goal=   None    Shift=    0.000
 RMSDP=7.52D-07 MaxDP=7.04D-06 DE=-2.17D-08 OVMax= 1.29D-05

 Cycle  13  Pass 1  IDiag  1:
 E= -239.409014585093     Delta-E=       -0.000000000172 Rises=F Damp=F
 DIIS: error= 2.05D-06 at cycle   4 NSaved=   4.
 NSaved= 4 IEnMin= 4 EnMin= -239.409014585093     IErMin= 4 ErrMin= 2.05D-06
 ErrMax= 2.05D-06  0.00D+00 EMaxC= 1.00D-01 BMatC= 2.10D-10 BMatP= 4.25D-10
 IDIUse=1 WtCom= 1.00D+00 WtEn= 0.00D+00
 Coeff-Com:  0.223D-02 0.124D-02 0.413D+00 0.584D+00
 Coeff:      0.223D-02 0.124D-02 0.413D+00 0.584D+00
 Gap=     0.144 Goal=   None    Shift=    0.000
 RMSDP=4.06D-07 MaxDP=3.08D-06 DE=-1.72D-10 OVMax= 7.52D-06

 Cycle  14  Pass 1  IDiag  1:
 E= -239.409014585284     Delta-E=       -0.000000000191 Rises=F Damp=F
 DIIS: error= 2.34D-07 at cycle   5 NSaved=   5.
 NSaved= 5 IEnMin= 5 EnMin= -239.409014585284     IErMin= 5 ErrMin= 2.34D-07
 ErrMax= 2.34D-07  0.00D+00 EMaxC= 1.00D-01 BMatC= 3.68D-12 BMatP= 2.10D-10
 IDIUse=1 WtCom= 1.00D+00 WtEn= 0.00D+00
 Coeff-Com: -0.612D-03 0.157D-02 0.218D+00 0.336D+00 0.445D+00
 Coeff:     -0.612D-03 0.157D-02 0.218D+00 0.336D+00 0.445D+00
 Gap=     0.144 Goal=   None    Shift=    0.000
 RMSDP=3.12D-08 MaxDP=4.14D-07 DE=-1.91D-10 OVMax= 5.63D-07

 Cycle  15  Pass 1  IDiag  1:
 E= -239.409014585286     Delta-E=       -0.000000000002 Rises=F Damp=F
 DIIS: error= 1.22D-07 at cycle   6 NSaved=   6.
 NSaved= 6 IEnMin= 6 EnMin= -239.409014585286     IErMin= 6 ErrMin= 1.22D-07
 ErrMax= 1.22D-07  0.00D+00 EMaxC= 1.00D-01 BMatC= 4.75D-13 BMatP= 3.68D-12
 IDIUse=1 WtCom= 1.00D+00 WtEn= 0.00D+00
 Coeff-Com: -0.205D-03 0.255D-02 0.250D-01 0.604D-01 0.207D+00 0.705D+00
 Coeff:     -0.205D-03 0.255D-02 0.250D-01 0.604D-01 0.207D+00 0.705D+00
 Gap=     0.144 Goal=   None    Shift=    0.000
 RMSDP=2.65D-08 MaxDP=2.52D-07 DE=-1.93D-12 OVMax= 5.23D-07

 Cycle  16  Pass 1  IDiag  1:
 E= -239.409014585287     Delta-E=       -0.000000000001 Rises=F Damp=F
 DIIS: error= 1.05D-08 at cycle   7 NSaved=   7.
 NSaved= 7 IEnMin= 7 EnMin= -239.409014585287     IErMin= 7 ErrMin= 1.05D-08
 ErrMax= 1.05D-08  0.00D+00 EMaxC= 1.00D-01 BMatC= 3.77D-15 BMatP= 4.75D-13
 IDIUse=1 WtCom= 1.00D+00 WtEn= 0.00D+00
 Coeff-Com: -0.540D-04 0.223D-03 0.248D-02 0.537D-02 0.331D-01 0.111D+00
 Coeff-Com:  0.847D+00
 Coeff:     -0.540D-04 0.223D-03 0.248D-02 0.537D-02 0.331D-01 0.111D+00
 Coeff:      0.847D+00
 Gap=     0.144 Goal=   None    Shift=    0.000
 RMSDP=2.68D-09 MaxDP=2.49D-08 DE=-7.96D-13 OVMax= 5.34D-08

 SCF Done:  E(RB97D3) =  -239.409014585     A.U. after   16 cycles
            NFock= 16  Conv=0.27D-08     -V/T= 2.0027
 KE= 2.387693161945D+02 PE=-7.073372339550D+02 EE= 1.648027951641D+02
 Leave Link  502 at Wed Oct  7 14:01:31 2020, MaxMem=  2684354560 cpu:              23.2 elap:               2.4
 (Enter /udrive/faculty/rpeverati/g16/g16/l508.exe)
 QCSCF skips out because SCF is already converged.
 Leave Link  508 at Wed Oct  7 14:01:32 2020, MaxMem=  2684354560 cpu:               0.1 elap:               0.3
 (Enter /udrive/faculty/rpeverati/g16/g16/l601.exe)
 Copying SCF densities to generalized density rwf, IOpCl= 0 IROHF=0.

 **********************************************************************

            Population analysis using the SCF density.

 **********************************************************************

 Orbital symmetries:
       Occupied  (A1) (A1) (A1) (A1) (A1) (A1) (A1) (E) (E) (E)
                 (E) (A1) (E) (E)
       Virtual   (A1) (A1) (E) (E) (E) (E) (A1) (E) (E) (A1) (A1)
                 (A1) (E) (E) (E) (E) (A1) (E) (E) (A1) (E) (E)
                 (A1) (A1) (E) (E) (E) (E) (E) (E) (A1) (E) (E)
                 (A1)
 The electronic state is 1-A1.
 Alpha  occ. eigenvalues --  -24.02300 -23.74275  -9.75205  -0.86502  -0.53958
 Alpha  occ. eigenvalues --   -0.41393  -0.20967  -0.20401  -0.20401  -0.07892
 Alpha  occ. eigenvalues --   -0.07892   0.13238   0.14279   0.14279
 Alpha virt. eigenvalues --    0.28671   0.32436   0.35424   0.35424   0.71901
 Alpha virt. eigenvalues --    0.71901   0.72488   1.01980   1.01980   1.04398
 Alpha virt. eigenvalues --    1.16089   1.37689   1.37986   1.37986   1.54629
 Alpha virt. eigenvalues --    1.54629   1.60467   1.65721   1.65721   1.86713
 Alpha virt. eigenvalues --    1.95831   1.95831   2.04680   2.17954   2.21240
 Alpha virt. eigenvalues --    2.21240   2.21945   2.21945   2.32869   2.32869
 Alpha virt. eigenvalues --    2.34158   2.51667   2.51667   3.11525
          Condensed to atoms (all electrons):
               1          2          3          4          5          6
     1  F    9.376001   0.124314  -0.029729  -0.029729  -0.029729   0.000099
     2  C    0.124314   4.920877   0.355958   0.355958   0.355958   0.029254
     3  H   -0.029729   0.355958   0.626307  -0.044025  -0.044025   0.013943
     4  H   -0.029729   0.355958  -0.044025   0.626307  -0.044025   0.013943
     5  H   -0.029729   0.355958  -0.044025  -0.044025   0.626307   0.013943
     6  F    0.000099   0.029254   0.013943   0.013943   0.013943   9.739991
 Mulliken charges:
               1
     1  F   -0.411226
     2  C   -0.142318
     3  H    0.121573
     4  H    0.121573
     5  H    0.121573
     6  F   -0.811174
 Sum of Mulliken charges =  -1.00000
 Mulliken charges with hydrogens summed into heavy atoms:
               1
     1  F   -0.411226
     2  C    0.222400
     6  F   -0.811174
 Electronic spatial extent (au):  <R**2>=            331.3155
 Charge=             -1.0000 electrons
 Dipole moment (field-independent basis, Debye):
    X=             -0.0000    Y=             -0.0000    Z=             -5.8412  Tot=              5.8412
 Quadrupole moment (field-independent basis, Debye-Ang):
   XX=            -17.7039   YY=            -17.7039   ZZ=            -41.8714
   XY=             -0.0000   XZ=             -0.0000   YZ=              0.0000
 Traceless Quadrupole moment (field-independent basis, Debye-Ang):
   XX=              8.0558   YY=              8.0558   ZZ=            -16.1117
   XY=             -0.0000   XZ=             -0.0000   YZ=              0.0000
 Octapole moment (field-independent basis, Debye-Ang**2):
  XXX=             -0.0000  YYY=              0.3746  ZZZ=            -30.3512  XYY=              0.0000
  XXY=             -0.3746  XXZ=             -0.6058  XZZ=              0.0000  YZZ=              0.0000
  YYZ=             -0.6058  XYZ=             -0.0000
 Hexadecapole moment (field-independent basis, Debye-Ang**3):
 XXXX=            -20.1021 YYYY=            -20.1021 ZZZZ=           -370.4711 XXXY=              0.0000
 XXXZ=             -0.0000 YYYX=              0.0000 YYYZ=              0.0100 ZZZX=             -0.0000
 ZZZY=              0.0000 XXYY=             -6.7007 XXZZ=            -48.9193 YYZZ=            -48.9193
 XXYZ=             -0.0100 YYXZ=             -0.0000 ZZXY=              0.0000
 N-N= 6.435610801103D+01 E-N=-7.073372339137D+02  KE= 2.387693161945D+02
 No NMR shielding tensors so no spin-rotation constants.
 Leave Link  601 at Wed Oct  7 14:01:32 2020, MaxMem=  2684354560 cpu:               3.2 elap:               0.5
 (Enter /udrive/faculty/rpeverati/g16/g16/l701.exe)
 ... and contract with generalized density number  0.
 Compute integral first derivatives.
 R6Disp: Adding Grimme-D3(BJ) dispersion energy 1st derivatives to the gradient.
 Leave Link  701 at Wed Oct  7 14:01:33 2020, MaxMem=  2684354560 cpu:               3.9 elap:               0.7
 (Enter /udrive/faculty/rpeverati/g16/g16/l702.exe)
 L702 exits ... SP integral derivatives will be done elsewhere.
 Leave Link  702 at Wed Oct  7 14:01:34 2020, MaxMem=  2684354560 cpu:               1.1 elap:               0.5
 (Enter /udrive/faculty/rpeverati/g16/g16/l703.exe)
 Integral derivatives from FoFJK, PRISM(SPDF).
 Compute integral first derivatives, UseDBF=F ICtDFT=           0.
 Calling FoFJK, ICntrl=      2527 FMM=F ISym2X=1 I1Cent= 0 IOpClX= 0 NMat=1 NMatS=1 NMatT=0.
 FoFJK:  IHMeth= 1 ICntrl=    2527 DoSepK=F KAlg= 0 I1Cent=           0 FoldK=F
 IRaf=         0 NMat=       1 IRICut=       1 DoRegI=T DoRafI=F ISym2E= 1 IDoP0=0 IntGTp=1.
 FoFCou: FMM=F IPFlag=           0 FMFlag=      100000 FMFlg1=         800
         NFxFlg=           0 DoJE=F BraDBF=F KetDBF=F FulRan=T
         wScrn=  0.000000 ICntrl=      2527 IOpCl=  0 I1Cent=           0 NGrid=           0
         NMat0=    1 NMatS0=      1 NMatT0=    0 NMatD0=    1 NMtDS0=    0 NMtDT0=    0
 Petite list used in FoFCou.
 Leave Link  703 at Wed Oct  7 14:01:35 2020, MaxMem=  2684354560 cpu:               6.8 elap:               0.9
 (Enter /udrive/faculty/rpeverati/g16/g16/l716.exe)
 Dipole        =-4.44089210D-16-1.11022302D-16-2.29808866D+00
 ***** Axes restored to original set *****
 -------------------------------------------------------------------
 Center     Atomic                   Forces (Hartrees/Bohr)
 Number     Number              X              Y              Z
 -------------------------------------------------------------------
      1        9          -0.000000000    0.000000000   -0.020305341
      2        6          -0.000000000   -0.000000000    0.004002540
      3        1          -0.003279002    0.005679397    0.007763828
      4        1          -0.003279002   -0.005679397    0.007763828
      5        1           0.006558003    0.000000000    0.007763828
      6        9          -0.000000000   -0.000000000   -0.006988681
 -------------------------------------------------------------------
 Cartesian Forces:  Max     0.020305341 RMS     0.006612371
 Leave Link  716 at Wed Oct  7 14:01:36 2020, MaxMem=  2684354560 cpu:               1.8 elap:               0.5
 (Enter /udrive/faculty/rpeverati/g16/g16/l103.exe)

 GradGradGradGradGradGradGradGradGradGradGradGradGradGradGradGradGradGrad
 Berny optimization.
 Optmz: redundant internal coordinate code flag= 1
 FormGI is forming the generalized inverse of G from B-inverse, IUseBI=4.
 Internal  Forces:  Max     0.020305341 RMS     0.005385893
 Search for a local minimum.
 Step number   1 out of a maximum of  100
 All quantities printed in internal units (Hartrees-Bohrs-Radians)
 RMS Force = .53859D-02 SwitMx=.10000D-02 MixMth= 1
 Mixed Optimization -- RFO/linear search
 Second derivative matrix not updated -- first step.
 The second derivative matrix:
                          R1        R2        R3        R4        R5
           R1           0.41605
           R2           0.00000   0.35858
           R3           0.00000   0.00000   0.35858
           R4           0.00000   0.00000   0.00000   0.35858
           R5           0.00000   0.00000   0.00000   0.00000   0.03206
           R6           0.00000   0.00000   0.00000   0.00000   0.00000
           R7           0.00000   0.00000   0.00000   0.00000   0.00000
           R8           0.00000   0.00000   0.00000   0.00000   0.00000
           A1           0.00000   0.00000   0.00000   0.00000   0.00000
           A2           0.00000   0.00000   0.00000   0.00000   0.00000
           A3           0.00000   0.00000   0.00000   0.00000   0.00000
           A4           0.00000   0.00000   0.00000   0.00000   0.00000
           A5           0.00000   0.00000   0.00000   0.00000   0.00000
           A6           0.00000   0.00000   0.00000   0.00000   0.00000
           A7           0.00000   0.00000   0.00000   0.00000   0.00000
           A8           0.00000   0.00000   0.00000   0.00000   0.00000
           A9           0.00000   0.00000   0.00000   0.00000   0.00000
           A10          0.00000   0.00000   0.00000   0.00000   0.00000
           A11          0.00000   0.00000   0.00000   0.00000   0.00000
           D1           0.00000   0.00000   0.00000   0.00000   0.00000
           D2           0.00000   0.00000   0.00000   0.00000   0.00000
           D3           0.00000   0.00000   0.00000   0.00000   0.00000
           D4           0.00000   0.00000   0.00000   0.00000   0.00000
                          R6        R7        R8        A1        A2
           R6           0.02211
           R7           0.00000   0.02211
           R8           0.00000   0.00000   0.02211
           A1           0.00000   0.00000   0.00000   0.16000
           A2           0.00000   0.00000   0.00000   0.00000   0.16000
           A3           0.00000   0.00000   0.00000   0.00000   0.00000
           A4           0.00000   0.00000   0.00000   0.00000   0.00000
           A5           0.00000   0.00000   0.00000   0.00000   0.00000
           A6           0.00000   0.00000   0.00000   0.00000   0.00000
           A7           0.00000   0.00000   0.00000   0.00000   0.00000
           A8           0.00000   0.00000   0.00000   0.00000   0.00000
           A9           0.00000   0.00000   0.00000   0.00000   0.00000
           A10          0.00000   0.00000   0.00000   0.00000   0.00000
           A11          0.00000   0.00000   0.00000   0.00000   0.00000
           D1           0.00000   0.00000   0.00000   0.00000   0.00000
           D2           0.00000   0.00000   0.00000   0.00000   0.00000
           D3           0.00000   0.00000   0.00000   0.00000   0.00000
           D4           0.00000   0.00000   0.00000   0.00000   0.00000
                          A3        A4        A5        A6        A7
           A3           0.16000
           A4           0.00000   0.16000
           A5           0.00000   0.00000   0.16000
           A6           0.00000   0.00000   0.00000   0.16000
           A7           0.00000   0.00000   0.00000   0.00000   0.16000
           A8           0.00000   0.00000   0.00000   0.00000   0.00000
           A9           0.00000   0.00000   0.00000   0.00000   0.00000
           A10          0.00000   0.00000   0.00000   0.00000   0.00000
           A11          0.00000   0.00000   0.00000   0.00000   0.00000
           D1           0.00000   0.00000   0.00000   0.00000   0.00000
           D2           0.00000   0.00000   0.00000   0.00000   0.00000
           D3           0.00000   0.00000   0.00000   0.00000   0.00000
           D4           0.00000   0.00000   0.00000   0.00000   0.00000
                          A8        A9        A10       A11       D1
           A8           0.16000
           A9           0.00000   0.16000
           A10          0.00000   0.00000   0.00230
           A11          0.00000   0.00000   0.00000   0.00230
           D1           0.00000   0.00000   0.00000   0.00000   0.00352
           D2           0.00000   0.00000   0.00000   0.00000   0.00000
           D3           0.00000   0.00000   0.00000   0.00000   0.00000
           D4           0.00000   0.00000   0.00000   0.00000   0.00000
                          D2        D3        D4
           D2           0.00230
           D3           0.00000   0.00230
           D4           0.00000   0.00000   0.00230
 ITU=  0
 Eigenvectors of the second derivative matrix:
                           1         2         3         4         5
     Eigenvalues --     0.01937   0.01957   0.02718   0.06332   0.10012
   1         R1        -0.00000  -0.00000   0.00000  -0.00000   0.00000
   2         R2        -0.00050   0.00294  -0.01151   0.00368  -0.00014
   3         R3         0.00388  -0.00003  -0.01126   0.01113  -0.01082
   4         R4        -0.00336  -0.00286  -0.01124  -0.00431   0.01086
   5         R5        -0.00030  -0.00049  -0.49552   0.38914   0.02315
   6         R6        -0.12003   0.72762  -0.49469  -0.09943  -0.00598
   7         R7         0.68591  -0.25935  -0.49378  -0.09494  -0.20605
   8         R8        -0.56526  -0.46864  -0.49371  -0.08258   0.19067
   9         A1        -0.00544   0.03181   0.02094   0.21705   0.00695
  10         A2         0.03289  -0.01097   0.02100   0.21784   0.56552
  11         A3        -0.02816  -0.02132   0.02101   0.22391  -0.53092
  12         A4         0.00768   0.00499  -0.02430  -0.41432   0.03489
  13         A5        -0.00736   0.00244  -0.01850  -0.11357  -0.07149
  14         A6         0.00037  -0.00697  -0.01850  -0.11376  -0.00388
  15         A7        -0.04466  -0.03731   0.07186  -0.09312   0.02512
  16         A8         0.05465  -0.02101   0.07343  -0.01564  -0.03279
  17         A9        -0.00990   0.05852   0.07340  -0.01465   0.00024
  18         A10       -0.06434   0.38993  -0.00034  -0.00606  -0.00633
  19         A11        0.41244   0.06903  -0.00003  -0.00789   0.55025
  20         D1         0.00502   0.00327  -0.05479  -0.66846  -0.00592
  21         D2         0.06788   0.08163   0.01140   0.12127  -0.05898
  22         D3         0.09105  -0.05482  -0.00774   0.06959  -0.06471
  23         D4         0.03607  -0.10125   0.00786  -0.06980  -0.00942
                           6         7         8         9        10
     Eigenvalues --     0.10324   0.11592   0.11812   0.32840   0.33561
   1         R1         0.00000  -0.00000   0.00000   0.00000   0.00000
   2         R2        -0.00357  -0.01043   0.01970  -0.16511   0.66405
   3         R3        -0.00368   0.04544  -0.01732   0.11063   0.67122
   4         R4         0.00704  -0.03131  -0.00219   0.92151   0.02186
   5         R5         0.01997  -0.22239  -0.01422  -0.00703  -0.00330
   6         R6        -0.21056   0.01817   0.08542   0.00778   0.01690
   7         R7         0.09234   0.04840  -0.07930   0.01619   0.01721
   8         R8         0.09950   0.14652   0.00748   0.02084   0.01310
   9         A1         0.65301  -0.07351  -0.09341  -0.00683   0.01933
  10         A2        -0.30240  -0.11020   0.07463  -0.00182   0.01986
  11         A3        -0.31462  -0.21926  -0.00699   0.02105   0.00181
  12         A4         0.03296  -0.47242  -0.03116  -0.02515   0.02443
  13         A5         0.03377   0.40117   0.60571   0.02293  -0.03177
  14         A6        -0.10178   0.46373  -0.54945  -0.00986  -0.03260
  15         A7         0.01745  -0.12687  -0.00850  -0.01916   0.25727
  16         A8         0.01910   0.08693   0.15958   0.14742   0.11911
  17         A9        -0.04299   0.11195  -0.14649   0.19018   0.12022
  18         A10        0.54065   0.03539  -0.04601   0.00849  -0.00448
  19         A11        0.00563   0.03469   0.02420   0.00968  -0.00780
  20         D1        -0.00350  -0.02223  -0.00199  -0.02289  -0.01178
  21         D2        -0.04899   0.38114   0.02174   0.06237   0.00102
  22         D3         0.04687   0.16997   0.36684  -0.15993   0.06598
  23         D4         0.08868  -0.21253   0.34150   0.14260  -0.06643
                          11        12
     Eigenvalues --     0.33920   0.41605
   1         R1         0.00000   1.00000
   2         R2         0.66583  -0.00000
   3         R3        -0.66525  -0.00000
   4         R4         0.19305  -0.00000
   5         R5        -0.01796   0.00000
   6         R6         0.03196   0.00000
   7         R7        -0.00513  -0.00000
   8         R8        -0.00334  -0.00000
   9         A1         0.00170  -0.00000
  10         A2        -0.02618   0.00000
  11         A3        -0.00137   0.00000
  12         A4        -0.07509  -0.00000
  13         A5        -0.02841  -0.00000
  14         A6         0.12868   0.00000
  15         A7        -0.02247  -0.00000
  16         A8         0.15297  -0.00000
  17         A9        -0.05409  -0.00000
  18         A10       -0.00823  -0.00000
  19         A11        0.01082   0.00000
  20         D1        -0.02803  -0.00000
  21         D2        -0.14246   0.00000
  22         D3         0.03695  -0.00000
  23         D4         0.04805  -0.00000
 Iter=   1 RLamda= 0.00000000D+00 Sum=-2.54686995D-03.
 Iter=   2 RLamda=-2.54686995D-03 Sum=-2.47614195D-03.
 Iter=   3 RLamda=-2.47614195D-03 Sum=-2.47798301D-03.
 Iter=   4 RLamda=-2.47798301D-03 Sum=-2.47793500D-03.
 Iter=   5 RLamda=-2.47793500D-03 Sum=-2.47793626D-03.
 RFO step:  Lambda=-2.47793500D-03 EMin= 1.93662982D-02
 Linear search not attempted -- first point.
 Iteration  1 RMS(Cart)=  0.02075175 RMS(Int)=  0.00039543
 Iteration  2 RMS(Cart)=  0.00023432 RMS(Int)=  0.00026724
 Iteration  3 RMS(Cart)=  0.00000008 RMS(Int)=  0.00026724
 ITry= 1 IFail=0 DXMaxC= 5.92D-02 DCOld= 1.00D+10 DXMaxT= 3.00D-01 DXLimC= 3.00D+00 Rises=F
 ClnCor:  largest displacement from symmetrization is 3.95D-04 for atom     4.
 Variable       Old X    -DE/DX   Delta X   Delta X   Delta X     New X
                                 (Linear)    (Quad)   (Total)
    R1        2.69428   0.02031   0.00000   0.04852   0.04852   2.74280
    R2        2.04304   0.00790   0.00000   0.02221   0.02231   2.06535
    R3        2.04304   0.00796   0.00000   0.02221   0.02231   2.06535
    R4        2.04304   0.00772   0.00000   0.02222   0.02231   2.06535
    R5        4.86673   0.00032   0.00000  -0.03312  -0.03285   4.83389
    R6        4.63224  -0.00214   0.00000  -0.07086  -0.07094   4.56129
    R7        4.63224  -0.00214   0.00000  -0.07085  -0.07094   4.56129
    R8        4.63224  -0.00226   0.00000  -0.07100  -0.07094   4.56129
    A1        1.89855   0.00161   0.00000   0.02121   0.02118   1.91973
    A2        1.89855   0.00161   0.00000   0.02121   0.02118   1.91973
    A3        1.89855   0.00163   0.00000   0.02121   0.02118   1.91973
    A4        1.92256  -0.00062   0.00000  -0.01994  -0.02111   1.90145
    A5        1.92256  -0.00204   0.00000  -0.02101  -0.02111   1.90145
    A6        1.92256  -0.00205   0.00000  -0.02101  -0.02111   1.90145
    A7        0.74003   0.00320   0.00000   0.01490   0.01478   0.75480
    A8        0.74003   0.00278   0.00000   0.01462   0.01478   0.75480
    A9        0.74003   0.00279   0.00000   0.01462   0.01478   0.75480
   A10        3.14159   0.00001   0.00000   0.00002   0.00000   3.14159
   A11        3.14159   0.00002   0.00000   0.00004  -0.00000   3.14159
    D1        2.12432  -0.00347   0.00000  -0.05264  -0.05203   2.07229
    D2        0.56604  -0.00022   0.00000   0.00138   0.00184   0.56789
    D3       -0.56604  -0.00063   0.00000  -0.00203  -0.00184  -0.56789
    D4        0.56604   0.00062   0.00000   0.00204   0.00184   0.56789
         Item               Value     Threshold  Converged?
 Maximum Force            0.020305     0.000450     NO 
 RMS     Force            0.005386     0.000300     NO 
 Maximum Displacement     0.059185     0.001800     NO 
 RMS     Displacement     0.020772     0.001200     NO 
 Predicted change in Energy=-1.266091D-03
 Lowest energy point so far.  Saving SCF results.
 Largest change from initial coordinates is atom    1       0.023 Angstoms.
 GradGradGradGradGradGradGradGradGradGradGradGradGradGradGradGradGradGrad

 Leave Link  103 at Wed Oct  7 14:01:37 2020, MaxMem=  2684354560 cpu:               3.7 elap:               0.7
 (Enter /udrive/faculty/rpeverati/g16/g16/l202.exe)
                          Input orientation:                          
 ---------------------------------------------------------------------
 Center     Atomic      Atomic             Coordinates (Angstroms)
 Number     Number       Type             X           Y           Z
 ---------------------------------------------------------------------
      1          9           0        0.000000    0.000000   -1.822691
      2          6           0        0.000000    0.000000   -0.371263
      3          1           0       -0.513537    0.889473    0.002408
      4          1           0       -0.513537   -0.889473    0.002408
      5          1           0        1.027075   -0.000000    0.002408
      6          9           0        0.000000    0.000000    2.186719
 ---------------------------------------------------------------------
                    Distance matrix (angstroms):
                    1          2          3          4          5
     1  F    0.000000
     2  C    1.451428   0.000000
     3  H    2.094246   1.092938   0.000000
     4  H    2.094246   1.092938   1.778946   0.000000
     5  H    2.094246   1.092938   1.778946   1.778946   0.000000
     6  F    4.009410   2.557982   2.413731   2.413731   2.413731
                    6
     6  F    0.000000
 Stoichiometry    CH3F2(1-)
 Framework group  C3V[C3(FCF),3SGV(H)]
 Deg. of freedom     4
 Full point group                 C3V     NOp   6
 RotChk:  IX=0 Diff= 0.00D+00
 Largest Abelian subgroup         CS      NOp   2
 Largest concise Abelian subgroup CS      NOp   2
                         Standard orientation:                         
 ---------------------------------------------------------------------
 Center     Atomic      Atomic             Coordinates (Angstroms)
 Number     Number       Type             X           Y           Z
 ---------------------------------------------------------------------
      1          9           0        0.000000    0.000000   -1.861798
      2          6           0        0.000000    0.000000   -0.410370
      3          1           0       -0.000000    1.027075   -0.036700
      4          1           0       -0.889473   -0.513537   -0.036700
      5          1           0        0.889473   -0.513537   -0.036700
      6          9           0        0.000000    0.000000    2.147612
 ---------------------------------------------------------------------
 Rotational constants (GHZ):         158.4552497           3.2170115           3.2170115
 Leave Link  202 at Wed Oct  7 14:01:38 2020, MaxMem=  2684354560 cpu:               1.6 elap:               0.5
 (Enter /udrive/faculty/rpeverati/g16/g16/l301.exe)
 Standard basis: 6-31G(d) (5D, 7F)
 Ernie: Thresh=  0.10000D-02 Tol=  0.10000D-05 Strict=F.
 There are    37 symmetry adapted cartesian basis functions of A'  symmetry.
 There are    14 symmetry adapted cartesian basis functions of A"  symmetry.
 There are    34 symmetry adapted basis functions of A'  symmetry.
 There are    14 symmetry adapted basis functions of A"  symmetry.
    48 basis functions,    96 primitive gaussians,    51 cartesian basis functions
    14 alpha electrons       14 beta electrons
       nuclear repulsion energy        63.8991297169 Hartrees.
 IExCor= 3630 DFT=T Ex+Corr=B97D3 ExCW=0 ScaHFX=  0.000000
 ScaDFX=  1.000000  1.000000  1.000000  1.000000 ScalE2=  1.000000  1.000000
 IRadAn=      5 IRanWt=     -1 IRanGd=            0 ICorTp=0 IEmpDi=141
 NAtoms=    6 NActive=    6 NUniq=    4 SFac= 2.25D+00 NAtFMM=   60 NAOKFM=F Big=F
 Integral buffers will be    131072 words long.
 Raffenetti 2 integral format.
 Two-electron integral symmetry is turned on.
 R6Disp:  Grimme-D3(BJ) Dispersion energy=       -0.0061452328 Hartrees.
 Nuclear repulsion after empirical dispersion term =       63.8929844841 Hartrees.
 Leave Link  301 at Wed Oct  7 14:01:38 2020, MaxMem=  2684354560 cpu:               1.8 elap:               0.5
 (Enter /udrive/faculty/rpeverati/g16/g16/l302.exe)
 NPDir=0 NMtPBC=     1 NCelOv=     1 NCel=       1 NClECP=     1 NCelD=      1
         NCelK=      1 NCelE2=     1 NClLst=     1 CellRange=     0.0.
 One-electron integrals computed using PRISM.
 One-electron integral symmetry used in STVInt
 NBasis=    48 RedAO= T EigKep=  1.96D-02  NBF=    34    14
 NBsUse=    48 1.00D-06 EigRej= -1.00D+00 NBFU=    34    14
 Precomputing XC quadrature grid using
 IXCGrd= 4 IRadAn=           5 IRanWt=          -1 IRanGd=           0 AccXCQ= 0.00D+00.
 Generated NRdTot=       0 NPtTot=           0 NUsed=           0 NTot=          32
 NSgBfM=    51    51    51    51    51 MxSgAt=     6 MxSgA2=     6.
 Leave Link  302 at Wed Oct  7 14:01:39 2020, MaxMem=  2684354560 cpu:               3.9 elap:               0.8
 (Enter /udrive/faculty/rpeverati/g16/g16/l303.exe)
 DipDrv:  MaxL=1.
 Leave Link  303 at Wed Oct  7 14:01:40 2020, MaxMem=  2684354560 cpu:               1.8 elap:               0.6
 (Enter /udrive/faculty/rpeverati/g16/g16/l401.exe)
 Initial guess from the checkpoint file:  "MN_38_fch3fcomp_BH76_B97DBJ_631Gs.chk"
 SCF N**3 symmetry information disabled.
 B after Tr=     0.000000    0.000000    0.000000
         Rot=    1.000000    0.000000    0.000000    0.000000 Ang=   0.00 deg.
 Guess basis will be translated and rotated to current coordinates.
 JPrj=2 DoOrth=T DoCkMO=T.
 Initial guess orbital symmetries:
       Occupied  (A1) (A1) (A1) (A1) (A1) (A1) (A1) (E) (E) (E)
                 (E) (A1) (E) (E)
       Virtual   (A1) (A1) (E) (E) (E) (E) (A1) (E) (E) (A1) (A1)
                 (A1) (E) (E) (E) (E) (A1) (E) (E) (A1) (E) (E)
                 (A1) (A1) (E) (E) (E) (E) (E) (E) (A1) (E) (E)
                 (A1)
 The electronic state of the initial guess is 1-A1.
 Generating alternative initial guess.
 ExpMin= 1.61D-01 ExpMax= 7.00D+03 ExpMxC= 1.05D+03 IAcc=2 IRadAn=         4 AccDes= 0.00D+00
 Harris functional with IExCor= 3630 and IRadAn=       4 diagonalized for initial guess.
 HarFok:  IExCor= 3630 AccDes= 0.00D+00 IRadAn=         4 IDoV= 1 UseB2=F ITyADJ=14
 ICtDFT=  3500011 ScaDFX=  1.000000  1.000000  1.000000  1.000000
 FoFCou: FMM=F IPFlag=           0 FMFlag=      100000 FMFlg1=           0
         NFxFlg=           0 DoJE=T BraDBF=F KetDBF=T FulRan=T
         wScrn=  0.000000 ICntrl=       500 IOpCl=  0 I1Cent=   200000004 NGrid=           0
         NMat0=    1 NMatS0=      1 NMatT0=    0 NMatD0=    1 NMtDS0=    0 NMtDT0=    0
 Petite list used in FoFCou.
 Harris En= -239.702972581401    
 Leave Link  401 at Wed Oct  7 14:01:41 2020, MaxMem=  2684354560 cpu:               9.1 elap:               1.2
 (Enter /udrive/faculty/rpeverati/g16/g16/l502.exe)
 Keep J ints in memory in symmetry-blocked form, NReq=11153107.
 FoFCou: FMM=F IPFlag=           0 FMFlag=           0 FMFlg1=           0
         NFxFlg=           0 DoJE=F BraDBF=F KetDBF=F FulRan=T
         wScrn=  0.000000 ICntrl=       600 IOpCl=  0 I1Cent=           0 NGrid=           0
         NMat0=    1 NMatS0=   1176 NMatT0=    0 NMatD0=    1 NMtDS0=    0 NMtDT0=    0
 Petite list used in FoFCou.
 Closed shell SCF:
 Using DIIS extrapolation, IDIIS=  1040.
 NGot=  2684354560 LenX=  2683985987 LenY=  2683982945
 Requested convergence on RMS density matrix=1.00D-08 within 120 cycles.
 Requested convergence on MAX density matrix=1.00D-06.
 Requested convergence on             energy=1.00D-06.
 No special actions if energy rises.
 Integral accuracy reduced to 1.0D-05 until final iterations.

 Cycle   1  Pass 0  IDiag  1:
 E= -239.410248098580    
 DIIS: error= 2.16D-03 at cycle   1 NSaved=   1.
 NSaved= 1 IEnMin= 1 EnMin= -239.410248098580     IErMin= 1 ErrMin= 2.16D-03
 ErrMax= 2.16D-03  0.00D+00 EMaxC= 1.00D-01 BMatC= 2.90D-04 BMatP= 2.90D-04
 IDIUse=3 WtCom= 9.78D-01 WtEn= 2.16D-02
 Coeff-Com:  0.100D+01
 Coeff-En:   0.100D+01
 Coeff:      0.100D+01
 Gap=     0.150 Goal=   None    Shift=    0.000
 GapD=    0.150 DampG=1.000 DampE=1.000 DampFc=1.0000 IDamp=-1.
 RMSDP=6.03D-04 MaxDP=7.30D-03              OVMax= 7.07D-03

 Cycle   2  Pass 0  IDiag  1:
 E= -239.410515920733     Delta-E=       -0.000267822153 Rises=F Damp=F
 DIIS: error= 1.65D-03 at cycle   2 NSaved=   2.
 NSaved= 2 IEnMin= 2 EnMin= -239.410515920733     IErMin= 2 ErrMin= 1.65D-03
 ErrMax= 1.65D-03  0.00D+00 EMaxC= 1.00D-01 BMatC= 7.56D-05 BMatP= 2.90D-04
 IDIUse=3 WtCom= 9.83D-01 WtEn= 1.65D-02
 Coeff-Com:  0.288D+00 0.712D+00
 Coeff-En:   0.000D+00 0.100D+01
 Coeff:      0.283D+00 0.717D+00
 Gap=     0.145 Goal=   None    Shift=    0.000
 RMSDP=3.61D-04 MaxDP=3.65D-03 DE=-2.68D-04 OVMax= 6.14D-03

 Cycle   3  Pass 0  IDiag  1:
 E= -239.410511688440     Delta-E=        0.000004232293 Rises=F Damp=F
 DIIS: error= 1.36D-03 at cycle   3 NSaved=   3.
 NSaved= 3 IEnMin= 2 EnMin= -239.410515920733     IErMin= 3 ErrMin= 1.36D-03
 ErrMax= 1.36D-03  0.00D+00 EMaxC= 1.00D-01 BMatC= 8.06D-05 BMatP= 7.56D-05
 IDIUse=3 WtCom= 9.86D-01 WtEn= 1.36D-02
 Coeff-Com:  0.313D-01 0.506D+00 0.463D+00
 Coeff-En:   0.000D+00 0.511D+00 0.489D+00
 Coeff:      0.308D-01 0.506D+00 0.463D+00
 Gap=     0.148 Goal=   None    Shift=    0.000
 RMSDP=2.73D-04 MaxDP=2.19D-03 DE= 4.23D-06 OVMax= 5.28D-03

 Cycle   4  Pass 0  IDiag  1:
 E= -239.410583893658     Delta-E=       -0.000072205217 Rises=F Damp=F
 DIIS: error= 5.14D-04 at cycle   4 NSaved=   4.
 NSaved= 4 IEnMin= 4 EnMin= -239.410583893658     IErMin= 4 ErrMin= 5.14D-04
 ErrMax= 5.14D-04  0.00D+00 EMaxC= 1.00D-01 BMatC= 5.52D-06 BMatP= 7.56D-05
 IDIUse=3 WtCom= 9.95D-01 WtEn= 5.14D-03
 Coeff-Com:  0.118D-01 0.296D+00 0.308D+00 0.384D+00
 Coeff-En:   0.000D+00 0.000D+00 0.000D+00 0.100D+01
 Coeff:      0.118D-01 0.295D+00 0.306D+00 0.387D+00
 Gap=     0.148 Goal=   None    Shift=    0.000
 RMSDP=5.62D-05 MaxDP=5.26D-04 DE=-7.22D-05 OVMax= 1.03D-03

 Cycle   5  Pass 0  IDiag  1:
 E= -239.410587936532     Delta-E=       -0.000004042875 Rises=F Damp=F
 DIIS: error= 6.45D-05 at cycle   5 NSaved=   5.
 NSaved= 5 IEnMin= 5 EnMin= -239.410587936532     IErMin= 5 ErrMin= 6.45D-05
 ErrMax= 6.45D-05  0.00D+00 EMaxC= 1.00D-01 BMatC= 1.84D-07 BMatP= 5.52D-06
 IDIUse=1 WtCom= 1.00D+00 WtEn= 0.00D+00
 Coeff-Com:  0.242D-02 0.121D+00 0.140D+00 0.170D+00 0.567D+00
 Coeff:      0.242D-02 0.121D+00 0.140D+00 0.170D+00 0.567D+00
 Gap=     0.148 Goal=   None    Shift=    0.000
 RMSDP=6.73D-06 MaxDP=1.19D-04 DE=-4.04D-06 OVMax= 1.32D-04

 Initial convergence to 1.0D-05 achieved.  Increase integral accuracy.
 Cycle   6  Pass 1  IDiag  1:
 E= -239.410579345136     Delta-E=        0.000008591396 Rises=F Damp=F
 DIIS: error= 2.85D-05 at cycle   1 NSaved=   1.
 NSaved= 1 IEnMin= 1 EnMin= -239.410579345136     IErMin= 1 ErrMin= 2.85D-05
 ErrMax= 2.85D-05  0.00D+00 EMaxC= 1.00D-01 BMatC= 4.31D-08 BMatP= 4.31D-08
 IDIUse=1 WtCom= 1.00D+00 WtEn= 0.00D+00
 Coeff-Com:  0.100D+01
 Coeff:      0.100D+01
 Gap=     0.147 Goal=   None    Shift=    0.000
 RMSDP=6.73D-06 MaxDP=1.19D-04 DE= 8.59D-06 OVMax= 3.62D-04

 Cycle   7  Pass 1  IDiag  1:
 E= -239.410579222259     Delta-E=        0.000000122877 Rises=F Damp=F
 DIIS: error= 6.46D-05 at cycle   2 NSaved=   2.
 NSaved= 2 IEnMin= 1 EnMin= -239.410579345136     IErMin= 1 ErrMin= 2.85D-05
 ErrMax= 6.46D-05  0.00D+00 EMaxC= 1.00D-01 BMatC= 2.08D-07 BMatP= 4.31D-08
 IDIUse=1 WtCom= 1.00D+00 WtEn= 0.00D+00
 Coeff-Com:  0.693D+00 0.307D+00
 Coeff:      0.693D+00 0.307D+00
 Gap=     0.148 Goal=   None    Shift=    0.000
 RMSDP=1.13D-05 MaxDP=9.13D-05 DE= 1.23D-07 OVMax= 2.31D-04

 Cycle   8  Pass 1  IDiag  1:
 E= -239.410579386507     Delta-E=       -0.000000164247 Rises=F Damp=F
 DIIS: error= 7.11D-06 at cycle   3 NSaved=   3.
 NSaved= 3 IEnMin= 3 EnMin= -239.410579386507     IErMin= 3 ErrMin= 7.11D-06
 ErrMax= 7.11D-06  0.00D+00 EMaxC= 1.00D-01 BMatC= 1.81D-09 BMatP= 4.31D-08
 IDIUse=1 WtCom= 1.00D+00 WtEn= 0.00D+00
 Coeff-Com:  0.309D+00 0.130D+00 0.562D+00
 Coeff:      0.309D+00 0.130D+00 0.562D+00
 Gap=     0.148 Goal=   None    Shift=    0.000
 RMSDP=1.08D-06 MaxDP=9.77D-06 DE=-1.64D-07 OVMax= 1.20D-05

 Cycle   9  Pass 1  IDiag  1:
 E= -239.410579387444     Delta-E=       -0.000000000937 Rises=F Damp=F
 DIIS: error= 4.08D-06 at cycle   4 NSaved=   4.
 NSaved= 4 IEnMin= 4 EnMin= -239.410579387444     IErMin= 4 ErrMin= 4.08D-06
 ErrMax= 4.08D-06  0.00D+00 EMaxC= 1.00D-01 BMatC= 4.16D-10 BMatP= 1.81D-09
 IDIUse=1 WtCom= 1.00D+00 WtEn= 0.00D+00
 Coeff-Com:  0.179D-01-0.496D-02 0.313D+00 0.674D+00
 Coeff:      0.179D-01-0.496D-02 0.313D+00 0.674D+00
 Gap=     0.148 Goal=   None    Shift=    0.000
 RMSDP=6.46D-07 MaxDP=5.51D-06 DE=-9.37D-10 OVMax= 1.21D-05

 Cycle  10  Pass 1  IDiag  1:
 E= -239.410579387695     Delta-E=       -0.000000000252 Rises=F Damp=F
 DIIS: error= 1.24D-06 at cycle   5 NSaved=   5.
 NSaved= 5 IEnMin= 5 EnMin= -239.410579387695     IErMin= 5 ErrMin= 1.24D-06
 ErrMax= 1.24D-06  0.00D+00 EMaxC= 1.00D-01 BMatC= 4.52D-11 BMatP= 4.16D-10
 IDIUse=1 WtCom= 1.00D+00 WtEn= 0.00D+00
 Coeff-Com:  0.353D-02-0.389D-02 0.157D+00 0.405D+00 0.439D+00
 Coeff:      0.353D-02-0.389D-02 0.157D+00 0.405D+00 0.439D+00
 Gap=     0.148 Goal=   None    Shift=    0.000
 RMSDP=1.49D-07 MaxDP=1.61D-06 DE=-2.52D-10 OVMax= 2.42D-06

 Cycle  11  Pass 1  IDiag  1:
 E= -239.410579387741     Delta-E=       -0.000000000046 Rises=F Damp=F
 DIIS: error= 1.79D-07 at cycle   6 NSaved=   6.
 NSaved= 6 IEnMin= 6 EnMin= -239.410579387741     IErMin= 6 ErrMin= 1.79D-07
 ErrMax= 1.79D-07  0.00D+00 EMaxC= 1.00D-01 BMatC= 1.65D-12 BMatP= 4.52D-11
 IDIUse=1 WtCom= 1.00D+00 WtEn= 0.00D+00
 Coeff-Com: -0.448D-03 0.121D-03 0.352D-01 0.109D+00 0.176D+00 0.680D+00
 Coeff:     -0.448D-03 0.121D-03 0.352D-01 0.109D+00 0.176D+00 0.680D+00
 Gap=     0.148 Goal=   None    Shift=    0.000
 RMSDP=2.70D-08 MaxDP=2.53D-07 DE=-4.58D-11 OVMax= 5.03D-07

 Cycle  12  Pass 1  IDiag  1:
 E= -239.410579387743     Delta-E=       -0.000000000002 Rises=F Damp=F
 DIIS: error= 1.78D-08 at cycle   7 NSaved=   7.
 NSaved= 7 IEnMin= 7 EnMin= -239.410579387743     IErMin= 7 ErrMin= 1.78D-08
 ErrMax= 1.78D-08  0.00D+00 EMaxC= 1.00D-01 BMatC= 1.73D-14 BMatP= 1.65D-12
 IDIUse=1 WtCom= 1.00D+00 WtEn= 0.00D+00
 Coeff-Com: -0.188D-03 0.296D-03 0.458D-02 0.169D-01 0.337D-01 0.148D+00
 Coeff-Com:  0.797D+00
 Coeff:     -0.188D-03 0.296D-03 0.458D-02 0.169D-01 0.337D-01 0.148D+00
 Coeff:      0.797D+00
 Gap=     0.148 Goal=   None    Shift=    0.000
 RMSDP=4.77D-09 MaxDP=4.10D-08 DE=-1.65D-12 OVMax= 9.62D-08

 SCF Done:  E(RB97D3) =  -239.410579388     A.U. after   12 cycles
            NFock= 12  Conv=0.48D-08     -V/T= 2.0031
 KE= 2.386782982718D+02 PE=-7.063533707787D+02 EE= 1.643715086351D+02
 Leave Link  502 at Wed Oct  7 14:01:44 2020, MaxMem=  2684354560 cpu:              19.7 elap:               2.3
 (Enter /udrive/faculty/rpeverati/g16/g16/l508.exe)
 QCSCF skips out because SCF is already converged.
 Leave Link  508 at Wed Oct  7 14:01:45 2020, MaxMem=  2684354560 cpu:               0.3 elap:               0.5
 (Enter /udrive/faculty/rpeverati/g16/g16/l701.exe)
 ... and contract with generalized density number  0.
 Compute integral first derivatives.
 R6Disp: Adding Grimme-D3(BJ) dispersion energy 1st derivatives to the gradient.
 Leave Link  701 at Wed Oct  7 14:01:46 2020, MaxMem=  2684354560 cpu:               4.2 elap:               0.9
 (Enter /udrive/faculty/rpeverati/g16/g16/l702.exe)
 L702 exits ... SP integral derivatives will be done elsewhere.
 Leave Link  702 at Wed Oct  7 14:01:47 2020, MaxMem=  2684354560 cpu:               1.7 elap:               0.7
 (Enter /udrive/faculty/rpeverati/g16/g16/l703.exe)
 Integral derivatives from FoFJK, PRISM(SPDF).
 Compute integral first derivatives, UseDBF=F ICtDFT=           0.
 Calling FoFJK, ICntrl=      2527 FMM=F ISym2X=1 I1Cent= 0 IOpClX= 0 NMat=1 NMatS=1 NMatT=0.
 FoFJK:  IHMeth= 1 ICntrl=    2527 DoSepK=F KAlg= 0 I1Cent=           0 FoldK=F
 IRaf=         0 NMat=       1 IRICut=       1 DoRegI=T DoRafI=F ISym2E= 1 IDoP0=0 IntGTp=1.
 FoFCou: FMM=F IPFlag=           0 FMFlag=      100000 FMFlg1=         800
         NFxFlg=           0 DoJE=F BraDBF=F KetDBF=F FulRan=T
         wScrn=  0.000000 ICntrl=      2527 IOpCl=  0 I1Cent=           0 NGrid=           0
         NMat0=    1 NMatS0=      1 NMatT0=    0 NMatD0=    1 NMtDS0=    0 NMtDT0=    0
 Petite list used in FoFCou.
 Leave Link  703 at Wed Oct  7 14:01:48 2020, MaxMem=  2684354560 cpu:               7.7 elap:               1.1
 (Enter /udrive/faculty/rpeverati/g16/g16/l716.exe)
 Dipole        = 0.00000000D+00 1.11022302D-16-2.19407414D+00
 ***** Axes restored to original set *****
 -------------------------------------------------------------------
 Center     Atomic                   Forces (Hartrees/Bohr)
 Number     Number              X              Y              Z
 -------------------------------------------------------------------
      1        9          -0.000000000    0.000000000   -0.004450891
      2        6          -0.000000000   -0.000000000    0.005754519
      3        1          -0.000028329    0.000049068    0.001762591
      4        1          -0.000028329   -0.000049068    0.001762591
      5        1           0.000056659    0.000000000    0.001762591
      6        9          -0.000000000    0.000000000   -0.006591403
 -------------------------------------------------------------------
 Cartesian Forces:  Max     0.006591403 RMS     0.002423282
 Leave Link  716 at Wed Oct  7 14:01:49 2020, MaxMem=  2684354560 cpu:               1.0 elap:               0.5
 (Enter /udrive/faculty/rpeverati/g16/g16/l103.exe)

 GradGradGradGradGradGradGradGradGradGradGradGradGradGradGradGradGradGrad
 Berny optimization.
 Optmz: redundant internal coordinate code flag= 1
 Using GEDIIS/GDIIS optimizer.
 Red2BG:  D1=  5.09D-01 OD1=  8.64D-02 B2RMS=  0.00D+00 IAprox=0
 FormGI is forming the generalized inverse of G from B-inverse, IUseBI=4.
 Internal  Forces:  Max     0.004450891 RMS     0.001204905
 Search for a local minimum.
 Step number   2 out of a maximum of  100
 All quantities printed in internal units (Hartrees-Bohrs-Radians)
 RMS Force = .12049D-02 SwitMx=.10000D-02 MixMth= 1
 Mixed Optimization -- RFO/linear search
 Update second derivatives using D2CorX and points    1    2
 DE= -1.56D-03 DEPred=-1.27D-03 R= 1.24D+00
 TightC=F SS=  1.41D+00  RLast= 1.61D-01 DXNew= 5.0454D-01 4.8449D-01
 Trust test= 1.24D+00 RLast= 1.61D-01 DXMaxT set to 4.84D-01
 The second derivative matrix:
                          R1        R2        R3        R4        R5
           R1           0.38859
           R2          -0.00216   0.36172
           R3          -0.00144   0.00347   0.36238
           R4          -0.00342   0.00257   0.00289   0.36058
           R5           0.02830   0.01243   0.01253   0.01226   0.03432
           R6           0.00862   0.00314   0.00312   0.00318  -0.00130
           R7           0.00858   0.00312   0.00310   0.00316  -0.00130
           R8           0.00751   0.00263   0.00260   0.00268  -0.00145
           A1          -0.01391  -0.00462  -0.00455  -0.00475   0.00346
           A2          -0.01389  -0.00462  -0.00454  -0.00474   0.00346
           A3          -0.01371  -0.00453  -0.00446  -0.00466   0.00349
           A4           0.02254   0.00859   0.00856   0.00864  -0.00224
           A5           0.00993   0.00281   0.00272   0.00297  -0.00399
           A6           0.00986   0.00278   0.00268   0.00294  -0.00400
           A7           0.00404   0.00307   0.00320   0.00286   0.00432
           A8           0.00034   0.00138   0.00148   0.00120   0.00381
           A9           0.00046   0.00143   0.00154   0.00125   0.00383
           A10          0.00011   0.00005   0.00005   0.00005   0.00002
           A11          0.00015   0.00007   0.00007   0.00007   0.00002
           D1          -0.02938  -0.01356  -0.01372  -0.01329  -0.00438
           D2          -0.00253  -0.00116  -0.00117  -0.00114  -0.00035
           D3          -0.00498  -0.00229  -0.00231  -0.00224  -0.00070
           D4           0.00492   0.00226   0.00228   0.00221   0.00069
                          R6        R7        R8        A1        A2
           R6           0.02124
           R7          -0.00087   0.02124
           R8          -0.00084  -0.00084   0.02132
           A1           0.00174   0.00174   0.00163   0.15672
           A2           0.00174   0.00174   0.00163  -0.00328   0.15672
           A3           0.00173   0.00173   0.00162  -0.00326  -0.00326
           A4          -0.00201  -0.00201  -0.00196   0.00415   0.00415
           A5          -0.00161  -0.00161  -0.00147   0.00287   0.00287
           A6          -0.00161  -0.00160  -0.00146   0.00286   0.00286
           A7           0.00078   0.00077   0.00059  -0.00089  -0.00089
           A8           0.00090   0.00089   0.00074  -0.00127  -0.00126
           A9           0.00089   0.00089   0.00073  -0.00125  -0.00125
           A10         -0.00000  -0.00000  -0.00000   0.00001   0.00001
           A11         -0.00000  -0.00000  -0.00001   0.00002   0.00002
           D1           0.00086   0.00087   0.00110  -0.00289  -0.00289
           D2           0.00008   0.00008   0.00010  -0.00026  -0.00026
           D3           0.00016   0.00016   0.00020  -0.00050  -0.00051
           D4          -0.00015  -0.00016  -0.00019   0.00050   0.00050
                          A3        A4        A5        A6        A7
           A3           0.15676
           A4           0.00414   0.15552
           A5           0.00284  -0.00398   0.15765
           A6           0.00284  -0.00398  -0.00234   0.15767
           A7          -0.00086   0.00235   0.00022   0.00021   0.16170
           A8          -0.00124   0.00250   0.00070   0.00069   0.00107
           A9          -0.00123   0.00249   0.00069   0.00068   0.00109
           A10          0.00001  -0.00000  -0.00001  -0.00001   0.00002
           A11          0.00002  -0.00001  -0.00002  -0.00002   0.00003
           D1          -0.00293   0.00097   0.00374   0.00376  -0.00504
           D2          -0.00026   0.00010   0.00033   0.00033  -0.00043
           D3          -0.00051   0.00019   0.00064   0.00065  -0.00084
           D4           0.00051  -0.00019  -0.00064  -0.00064   0.00083
                          A8        A9        A10       A11       D1
           A8           0.16055
           A9           0.00056   0.16058
           A10          0.00002   0.00002   0.00230
           A11          0.00002   0.00002   0.00000   0.00230
           D1          -0.00422  -0.00425  -0.00002  -0.00003   0.01031
           D2          -0.00036  -0.00036  -0.00000  -0.00000   0.00055
           D3          -0.00071  -0.00072  -0.00000  -0.00001   0.00110
           D4           0.00070   0.00071   0.00000   0.00001  -0.00109
                          D2        D3        D4
           D2           0.00234
           D3           0.00009   0.00248
           D4          -0.00009  -0.00018   0.00247
 ITU=  1  0
 Use linear search instead of GDIIS.
 Eigenvectors of the second derivative matrix:
                           1         2         3         4         5
     Eigenvalues --     0.01895   0.01941   0.01966   0.06967   0.09950
   1         R1         0.06872   0.00045  -0.00059  -0.02274  -0.00170
   2         R2         0.01734   0.00048   0.00315  -0.01474  -0.00171
   3         R3         0.01755  -0.00417  -0.00037  -0.00367  -0.01122
   4         R4         0.01736   0.00385  -0.00307  -0.02587   0.00842
   5         R5        -0.45317  -0.00398   0.00462   0.40547   0.03068
   6         R6        -0.49184   0.08545   0.73794  -0.05837  -0.00529
   7         R7        -0.49511  -0.67863  -0.28254  -0.05295  -0.20536
   8         R8        -0.50839   0.57911  -0.43951  -0.03369   0.19091
   9         A1         0.04399   0.00440   0.03144   0.19642   0.00705
  10         A2         0.04390  -0.03231  -0.01262   0.19699   0.56773
  11         A3         0.04327   0.02950  -0.02046   0.21033  -0.52489
  12         A4        -0.04993  -0.00856   0.00551  -0.46408   0.02366
  13         A5        -0.04184   0.00748   0.00339  -0.07548  -0.07411
  14         A6        -0.04189  -0.00054  -0.00723  -0.07570  -0.00039
  15         A7         0.07833   0.04842  -0.03748  -0.12521   0.02252
  16         A8         0.08174  -0.05481  -0.02496  -0.02116  -0.03582
  17         A9         0.08205   0.00844   0.06005  -0.01957   0.00061
  18         A10        0.00349   0.04767   0.38804  -0.00971  -0.00894
  19         A11        0.00435  -0.41343   0.05163  -0.01455   0.55344
  20         D1        -0.10874  -0.00630   0.00442  -0.64719  -0.01466
  21         D2         0.01534  -0.07753   0.08038   0.16007  -0.05689
  22         D3        -0.00815  -0.09544  -0.05861   0.09228  -0.06689
  23         D4         0.00758  -0.02998  -0.10934  -0.09276  -0.01388
                           6         7         8         9        10
     Eigenvalues --     0.10306   0.11661   0.11698   0.32981   0.33941
   1         R1        -0.00136   0.01379   0.00538   0.00125   0.00447
   2         R2        -0.00382  -0.00216   0.01997  -0.40448   0.57525
   3         R3        -0.00522   0.06045   0.00294  -0.13886  -0.75585
   4         R4         0.00520  -0.01539  -0.00621   0.84641   0.14632
   5         R5         0.02523  -0.26041  -0.10146   0.00537  -0.01922
   6         R6        -0.20628  -0.01292   0.09174   0.00628   0.02808
   7         R7         0.08915   0.06721  -0.06805   0.01380  -0.00730
   8         R8         0.10027   0.13586   0.05047   0.01698  -0.00732
   9         A1         0.65313  -0.06029  -0.12947  -0.01004  -0.00317
  10         A2        -0.29606  -0.15007   0.03779  -0.00616  -0.02677
  11         A3        -0.31574  -0.22390  -0.07755   0.01861  -0.00349
  12         A4         0.02378  -0.38566  -0.15149  -0.03149  -0.07403
  13         A5         0.04254   0.21140   0.69737   0.03019  -0.02395
  14         A6        -0.10843   0.61682  -0.37342  -0.00115   0.13205
  15         A7         0.01517  -0.10269  -0.04054  -0.11494  -0.05742
  16         A8         0.02152   0.04578   0.18766   0.09134   0.12991
  17         A9        -0.04716   0.16558  -0.10479   0.13280  -0.07834
  18         A10        0.54191   0.04809  -0.04111   0.00843  -0.00636
  19         A11        0.00905   0.02281   0.03521   0.01045   0.01008
  20         D1        -0.00952   0.01507   0.00512  -0.02114  -0.02661
  21         D2        -0.04595   0.34688   0.13274   0.05663  -0.14282
  22         D3         0.05483   0.04179   0.40119  -0.17311   0.03243
  23         D4         0.09387  -0.29933   0.26710   0.15741   0.04735
                          11        12
     Eigenvalues --     0.34838   0.39058
   1         R1         0.01482   0.99714
   2         R2         0.64547  -0.01328
   3         R3         0.55935  -0.00692
   4         R4         0.38444  -0.00895
   5         R5         0.04489   0.04413
   6         R6         0.04510   0.03156
   7         R7         0.04302   0.03164
   8         R8         0.04063   0.03147
   9         A1         0.02440   0.00356
  10         A2         0.02298   0.00369
  11         A3         0.01918   0.00369
  12         A4        -0.00091  -0.00053
  13         A5        -0.03848  -0.00495
  14         A6        -0.02844  -0.00568
  15         A7         0.22332  -0.00952
  16         A8         0.17933  -0.01115
  17         A9         0.16582  -0.01014
  18         A10       -0.00181   0.00007
  19         A11       -0.00168  -0.00000
  20         D1        -0.03989  -0.00679
  21         D2        -0.00126  -0.00241
  22         D3         0.00496  -0.00011
  23         D4         0.00026  -0.00030
 Iter=   1 RLamda= 0.00000000D+00 Sum=-6.41104539D-04.
 Iter=   2 RLamda=-6.41104539D-04 Sum=-6.24550838D-04.
 Iter=   3 RLamda=-6.24550838D-04 Sum=-6.24965158D-04.
 Iter=   4 RLamda=-6.24965158D-04 Sum=-6.24954780D-04.
 Iter=   5 RLamda=-6.24954780D-04 Sum=-6.24955040D-04.
 RFO step:  Lambda=-6.24954780D-04 EMin= 1.89532136D-02
 Quartic linear search produced a step of  0.42425.
 Iteration  1 RMS(Cart)=  0.02138850 RMS(Int)=  0.00023123
 Iteration  2 RMS(Cart)=  0.00008703 RMS(Int)=  0.00020141
 Iteration  3 RMS(Cart)=  0.00000001 RMS(Int)=  0.00020141
 ITry= 1 IFail=0 DXMaxC= 8.75D-02 DCOld= 1.00D+10 DXMaxT= 4.84D-01 DXLimC= 3.00D+00 Rises=F
 ClnCor:  largest displacement from symmetrization is 3.99D-04 for atom     3.
 Variable       Old X    -DE/DX   Delta X   Delta X   Delta X     New X
                                 (Linear)    (Quad)   (Total)
    R1        2.74280   0.00445   0.02058   0.00525   0.02584   2.76864
    R2        2.06535   0.00063   0.00947  -0.00389   0.00539   2.07074
    R3        2.06535   0.00061   0.00947  -0.00389   0.00539   2.07074
    R4        2.06535   0.00059   0.00947  -0.00390   0.00539   2.07074
    R5        4.83389  -0.00189  -0.01394  -0.08650  -0.10037   4.73352
    R6        4.56129  -0.00164  -0.03010  -0.07528  -0.10539   4.45590
    R7        4.56129  -0.00164  -0.03010  -0.07527  -0.10539   4.45590
    R8        4.56129  -0.00164  -0.03010  -0.07542  -0.10539   4.45590
    A1        1.91973  -0.00001   0.00899  -0.00161   0.00743   1.92716
    A2        1.91973  -0.00001   0.00899  -0.00161   0.00743   1.92716
    A3        1.91973  -0.00001   0.00899  -0.00161   0.00743   1.92716
    A4        1.90145   0.00000  -0.00896   0.00133  -0.00763   1.89382
    A5        1.90145   0.00001  -0.00896   0.00179  -0.00763   1.89382
    A6        1.90145   0.00001  -0.00896   0.00179  -0.00763   1.89382
    A7        0.75480   0.00052   0.00627   0.01197   0.01868   0.77348
    A8        0.75480   0.00052   0.00627   0.01211   0.01868   0.77348
    A9        0.75480   0.00052   0.00627   0.01211   0.01868   0.77348
   A10        3.14159  -0.00000   0.00000   0.00002   0.00000   3.14159
   A11        3.14159  -0.00000   0.00000   0.00004  -0.00000   3.14159
    D1        2.07229   0.00002  -0.02207   0.00368  -0.01778   2.05451
    D2        0.56789   0.00007   0.00078   0.00174   0.00240   0.57029
    D3       -0.56789  -0.00006  -0.00078  -0.00142  -0.00240  -0.57029
    D4        0.56789   0.00006   0.00078   0.00142   0.00240   0.57029
         Item               Value     Threshold  Converged?
 Maximum Force            0.004451     0.000450     NO 
 RMS     Force            0.001205     0.000300     NO 
 Maximum Displacement     0.087474     0.001800     NO 
 RMS     Displacement     0.021405     0.001200     NO 
 Predicted change in Energy=-3.990966D-04
 Lowest energy point so far.  Saving SCF results.
 Largest change from initial coordinates is atom    3       0.052 Angstoms.
 GradGradGradGradGradGradGradGradGradGradGradGradGradGradGradGradGradGrad

 Leave Link  103 at Wed Oct  7 14:01:50 2020, MaxMem=  2684354560 cpu:               2.4 elap:               0.6
 (Enter /udrive/faculty/rpeverati/g16/g16/l202.exe)
                          Input orientation:                          
 ---------------------------------------------------------------------
 Center     Atomic      Atomic             Coordinates (Angstroms)
 Number     Number       Type             X           Y           Z
 ---------------------------------------------------------------------
      1          9           0        0.000000   -0.000000   -1.829539
      2          6           0        0.000000   -0.000000   -0.364440
      3          1           0       -0.513472    0.889360    0.017844
      4          1           0       -0.513472   -0.889360    0.017844
      5          1           0        1.026944   -0.000000    0.017844
      6          9           0        0.000000   -0.000000    2.140430
 ---------------------------------------------------------------------
                    Distance matrix (angstroms):
                    1          2          3          4          5
     1  F    0.000000
     2  C    1.465099   0.000000
     3  H    2.113632   1.095790   0.000000
     4  H    2.113632   1.095790   1.778719   0.000000
     5  H    2.113632   1.095790   1.778719   1.778719   0.000000
     6  F    3.969969   2.504870   2.357962   2.357962   2.357962
                    6
     6  F    0.000000
 Stoichiometry    CH3F2(1-)
 Framework group  C3V[C3(FCF),3SGV(H)]
 Deg. of freedom     4
 Full point group                 C3V     NOp   6
 RotChk:  IX=0 Diff= 0.00D+00
 Largest Abelian subgroup         CS      NOp   2
 Largest concise Abelian subgroup CS      NOp   2
                         Standard orientation:                         
 ---------------------------------------------------------------------
[...]
           A9          -0.00064   0.00217  -0.00006  -0.00008  -0.00430
           A10          0.00001   0.00001  -0.00002  -0.00002   0.00003
           A11          0.00001   0.00002  -0.00003  -0.00003   0.00004
           D1          -0.00104  -0.00394   0.00333   0.00339  -0.00740
           D2          -0.00039  -0.00022   0.00068   0.00069  -0.00090
           D3          -0.00012  -0.00057   0.00044   0.00045  -0.00106
           D4           0.00011   0.00057  -0.00042  -0.00043   0.00104
                          A8        A9        A10       A11       D1
           A8           0.15496
           A9          -0.00501   0.15503
           A10          0.00002   0.00002   0.00230
           A11          0.00003   0.00003   0.00000   0.00230
           D1          -0.00509  -0.00520  -0.00008  -0.00010   0.02050
           D2          -0.00061  -0.00062  -0.00001  -0.00001   0.00212
           D3          -0.00074  -0.00075  -0.00001  -0.00001   0.00237
           D4           0.00072   0.00074   0.00001   0.00001  -0.00232
                          D2        D3        D4
           D2           0.00257
           D3           0.00029   0.00264
           D4          -0.00028  -0.00033   0.00262
 ITU=  0  1  1  1  1  1  0
 Eigenvectors of the second derivative matrix:
                           1         2         3         4         5
     Eigenvalues --     0.00810   0.01964   0.01986   0.03341   0.09954
   1         R1         0.03390  -0.00060   0.00044  -0.12728  -0.00950
   2         R2        -0.00804   0.00107   0.00372   0.03710   0.00236
   3         R3        -0.00796  -0.00454  -0.00038   0.03827  -0.01365
   4         R4        -0.00789   0.00428  -0.00380   0.03400   0.01750
   5         R5        -0.53330   0.00201  -0.00122   0.38349   0.02286
   6         R6        -0.47885   0.13966   0.72442  -0.14830  -0.01005
   7         R7        -0.47889  -0.69312  -0.23779  -0.14553  -0.20268
   8         R8        -0.47968   0.54972  -0.48310  -0.15330   0.18543
   9         A1         0.00123   0.00767   0.03106   0.24213   0.02167
  10         A2         0.00123  -0.03267  -0.01098   0.24244   0.55101
  11         A3         0.00122   0.02949  -0.02343   0.24163  -0.52910
  12         A4        -0.00120  -0.01254   0.00910  -0.31305   0.08744
  13         A5        -0.00126   0.01025   0.00434  -0.21015  -0.09947
  14         A6        -0.00127  -0.00226  -0.01006  -0.21019  -0.03199
  15         A7         0.09130   0.05037  -0.04481  -0.05003   0.04522
  16         A8         0.09137  -0.06415  -0.02263  -0.01901  -0.04339
  17         A9         0.09139   0.01348   0.06757  -0.01905  -0.00717
  18         A10        0.00015   0.07495   0.38519   0.00039   0.00666
  19         A11        0.00024  -0.41016   0.08100   0.00266   0.54742
  20         D1        -0.00296  -0.01047   0.00765  -0.63050   0.02797
  21         D2         0.01266  -0.06445   0.08800   0.04123  -0.09582
  22         D3        -0.01260  -0.09353  -0.05672   0.02723  -0.08377
  23         D4         0.01259  -0.04345  -0.10192  -0.02688   0.00856
                           6         7         8         9        10
     Eigenvalues --     0.10297   0.10829   0.11718   0.31627   0.33011
   1         R1        -0.01112   0.05601   0.00062  -0.34171   0.09712
   2         R2        -0.00174  -0.02115   0.01904   0.32223  -0.57227
   3         R3        -0.00512   0.02826  -0.01884   0.47524  -0.40465
   4         R4         0.01394  -0.04316  -0.00064   0.64503   0.63242
   5         R5         0.02637  -0.13028  -0.00140  -0.05395   0.01115
   6         R6        -0.20412  -0.02348   0.08954   0.03697  -0.01259
   7         R7         0.09583   0.02217  -0.08726   0.04305  -0.00703
   8         R8         0.07674   0.15607  -0.00069   0.04747   0.00256
   9         A1         0.64442   0.05201  -0.09683  -0.01900  -0.01309
  10         A2        -0.31826  -0.05083   0.08789  -0.01549  -0.00975
  11         A3        -0.27586  -0.24921   0.00630  -0.01057   0.02480
  12         A4         0.10295  -0.52188  -0.00573   0.00272  -0.03428
  13         A5        -0.00321   0.39267   0.57488   0.03079   0.02639
  14         A6        -0.15054   0.37971  -0.56650   0.01200   0.00592
  15         A7         0.04047  -0.15630  -0.00192   0.15743  -0.20999
  16         A8         0.01418   0.09239   0.16892   0.20052   0.02139
  17         A9        -0.06083   0.09413  -0.16669   0.22580   0.04923
  18         A10        0.53335   0.09858  -0.05364   0.00297   0.01070
  19         A11       -0.01958   0.07890   0.02479   0.00199   0.01462
  20         D1         0.03354  -0.17418  -0.00197   0.02877  -0.02241
  21         D2        -0.09786   0.38432   0.00212   0.05573   0.03370
  22         D3         0.02866   0.20140   0.35954  -0.06480  -0.15855
  23         D4         0.11989  -0.19205   0.35493   0.05624   0.14890
                          11        12
     Eigenvalues --     0.33859   0.46992
   1         R1        -0.02003   0.92342
   2         R2         0.65685   0.20036
   3         R3        -0.68111   0.20731
   4         R4         0.15531   0.18350
   5         R5        -0.01914   0.05934
   6         R6         0.03499   0.01145
   7         R7        -0.00718   0.01148
   8         R8        -0.00282   0.00767
   9         A1         0.00376   0.03264
  10         A2        -0.03079   0.03284
  11         A3        -0.00222   0.03306
  12         A4        -0.07175  -0.00626
  13         A5        -0.03063  -0.04623
  14         A6         0.13192  -0.04704
  15         A7        -0.02947   0.07994
  16         A8         0.15511   0.06332
  17         A9        -0.06758   0.06450
  18         A10       -0.01076   0.00020
  19         A11        0.01237   0.00012
  20         D1        -0.02687  -0.06313
  21         D2        -0.14313  -0.00637
  22         D3         0.03784  -0.01527
  23         D4         0.04012   0.01482
 DoSqrt=T IScMMF=    -3 MM Scaling Factor =       0.00000
 En-DIIS/RFO-DIIS/Sim-DIIS IScMMF=       -3 using points:     7    6    5
 Iter=   1 RLamda=-4.18954649D-02 Sum=-2.61405906D-07.
 Iter=   2 RLamda=-2.61405906D-07 Sum=-3.97678679D-07.
 Iter=   3 RLamda=-3.97678679D-07 Sum=-3.97677637D-07.
 RFO step:  Lambda=-3.97678679D-07.
 NNeg= 0 NGDIIS= 3 SimSw=  2.50D-01 Rises=F DC= -7.55D-07 SmlDif=  1.00D-05
 NRisDI= 0 DoIntr=F SqrtH=F CThrHd= 10.0 CDAdj=  3.0
 RMS Error=  0.5765105437D-03 NUsed= 3 OKEnD=F EnDIS=F
 Total RFO-DIIS matrix:
                 1             2             3             4 
      1   0.000000D+00 -0.100000D+01 -0.100000D+01 -0.100000D+01
      2  -0.100000D+01  0.764438D-05  0.241280D-04  0.749637D-04
      3  -0.100000D+01  0.241280D-04  0.980011D-04  0.135175D-03
      4  -0.100000D+01  0.749637D-04  0.135175D-03  0.160377D-02
 InvSVX:  RCond= 9.54D-06 Info=           0 Equed=N FErr=  2.32D-15 BErr=  8.56D-17
 DidBck=F Rises=F RFO-DIIS coefs:    1.29635   -0.25801   -0.03834
 Iteration  1 RMS(Cart)=  0.00026019 RMS(Int)=  0.00000172
 Iteration  2 RMS(Cart)=  0.00000011 RMS(Int)=  0.00000172
 ITry= 1 IFail=0 DXMaxC= 7.11D-04 DCOld= 1.00D+10 DXMaxT= 8.81D-01 DXLimC= 3.00D+00 Rises=F
 ClnCor:  largest displacement from symmetrization is 5.73D-06 for atom     4.
 Variable       Old X    -DE/DX   Delta X   Delta X   Delta X     New X
                                 (Linear)    (Quad)   (Total)
    R1        2.78896   0.00029  -0.00008   0.00086   0.00078   2.78974
    R2        2.06342   0.00002  -0.00022   0.00014  -0.00008   2.06334
    R3        2.06342   0.00002  -0.00022   0.00014  -0.00008   2.06334
    R4        2.06342   0.00002  -0.00022   0.00014  -0.00008   2.06334
    R5        4.52643  -0.00001  -0.00016  -0.00002  -0.00017   4.52626
    R6        4.29383   0.00002   0.00096   0.00001   0.00097   4.29480
    R7        4.29383   0.00002   0.00096   0.00001   0.00097   4.29480
    R8        4.29383   0.00002   0.00096   0.00001   0.00097   4.29480
    A1        1.91533  -0.00001  -0.00055  -0.00000  -0.00055   1.91478
    A2        1.91533  -0.00001  -0.00055  -0.00000  -0.00055   1.91478
    A3        1.91533  -0.00001  -0.00055  -0.00000  -0.00055   1.91478
    A4        1.90591   0.00001   0.00056  -0.00000   0.00056   1.90647
    A5        1.90591   0.00002   0.00056   0.00001   0.00056   1.90647
    A6        1.90591   0.00002   0.00056   0.00001   0.00056   1.90647
    A7        0.80499   0.00001  -0.00011   0.00006  -0.00006   0.80494
    A8        0.80499   0.00001  -0.00011   0.00006  -0.00006   0.80494
    A9        0.80499   0.00001  -0.00011   0.00006  -0.00006   0.80494
   A10        3.14159  -0.00000   0.00000  -0.00000   0.00000   3.14159
   A11        3.14159  -0.00000  -0.00000  -0.00000   0.00000   3.14159
    D1        2.08293   0.00003   0.00133   0.00001   0.00135   2.08428
    D2        0.57451   0.00001  -0.00002   0.00001  -0.00001   0.57451
    D3       -0.57451   0.00000   0.00002  -0.00001   0.00001  -0.57451
    D4        0.57451  -0.00000  -0.00002   0.00001  -0.00001   0.57451
         Item               Value     Threshold  Converged?
 Maximum Force            0.000294     0.000450     YES
 RMS     Force            0.000063     0.000300     YES
 Maximum Displacement     0.000711     0.001800     YES
 RMS     Displacement     0.000260     0.001200     YES
 Predicted change in Energy=-1.956798D-07
 Optimization completed.
    -- Stationary point found.
                           ----------------------------
                           !   Optimized Parameters   !
                           ! (Angstroms and Degrees)  !
 --------------------------                            --------------------------
 ! Name  Definition              Value          Derivative Info.                !
 --------------------------------------------------------------------------------
 ! R1    R(1,2)                  1.4759         -DE/DX =    0.0003              !
 ! R2    R(2,3)                  1.0919         -DE/DX =    0.0                 !
 ! R3    R(2,4)                  1.0919         -DE/DX =    0.0                 !
 ! R4    R(2,5)                  1.0919         -DE/DX =    0.0                 !
 ! R5    R(2,6)                  2.3953         -DE/DX =    0.0                 !
 ! R6    R(3,6)                  2.2722         -DE/DX =    0.0                 !
 ! R7    R(4,6)                  2.2722         -DE/DX =    0.0                 !
 ! R8    R(5,6)                  2.2722         -DE/DX =    0.0                 !
 ! A1    A(1,2,3)              109.7406         -DE/DX =    0.0                 !
 ! A2    A(1,2,4)              109.7406         -DE/DX =    0.0                 !
 ! A3    A(1,2,5)              109.7406         -DE/DX =    0.0                 !
 ! A4    A(3,2,4)              109.2005         -DE/DX =    0.0                 !
 ! A5    A(3,2,5)              109.2005         -DE/DX =    0.0                 !
 ! A6    A(4,2,5)              109.2005         -DE/DX =    0.0                 !
 ! A7    A(3,6,4)               46.1226         -DE/DX =    0.0                 !
 ! A8    A(3,6,5)               46.1226         -DE/DX =    0.0                 !
 ! A9    A(4,6,5)               46.1226         -DE/DX =    0.0                 !
 ! A10   L(1,2,6,3,-1)         180.0            -DE/DX =    0.0                 !
 ! A11   L(1,2,6,3,-2)         180.0            -DE/DX =    0.0                 !
 ! D1    D(3,2,5,4)            119.343          -DE/DX =    0.0                 !
 ! D2    D(4,3,6,2)             32.9173         -DE/DX =    0.0                 !
 ! D3    D(5,3,6,2)            -32.9173         -DE/DX =    0.0                 !
 ! D4    D(5,4,6,2)             32.9173         -DE/DX =    0.0                 !
 --------------------------------------------------------------------------------
 Lowest energy point so far.  Saving SCF results.
 Largest change from initial coordinates is atom    6       0.106 Angstoms.
 GradGradGradGradGradGradGradGradGradGradGradGradGradGradGradGradGradGrad

 Leave Link  103 at Wed Oct  7 14:02:54 2020, MaxMem=  2684354560 cpu:               3.1 elap:               0.8
 (Enter /udrive/faculty/rpeverati/g16/g16/l202.exe)
                          Input orientation:                          
 ---------------------------------------------------------------------
 Center     Atomic      Atomic             Coordinates (Angstroms)
 Number     Number       Type             X           Y           Z
 ---------------------------------------------------------------------
      1          9           0        0.000000   -0.000000   -1.813472
      2          6           0        0.000000   -0.000000   -0.337618
      3          1           0       -0.513873    0.890054    0.031190
      4          1           0       -0.513873   -0.890054    0.031190
      5          1           0        1.027746   -0.000000    0.031190
      6          9           0        0.000000   -0.000000    2.057666
 ---------------------------------------------------------------------
                    Distance matrix (angstroms):
                    1          2          3          4          5
     1  F    0.000000
     2  C    1.475855   0.000000
     3  H    2.111644   1.091916   0.000000
     4  H    2.111644   1.091916   1.780109   0.000000
     5  H    2.111644   1.091916   1.780109   1.780109   0.000000
     6  F    3.871138   2.395283   2.272194   2.272194   2.272194
                    6
     6  F    0.000000
 Stoichiometry    CH3F2(1-)
 Framework group  C3V[C3(FCF),3SGV(H)]
 Deg. of freedom     4
 Full point group                 C3V     NOp   6
 RotChk:  IX=0 Diff= 0.00D+00
 Largest Abelian subgroup         CS      NOp   2
 Largest concise Abelian subgroup CS      NOp   2
                         Standard orientation:                         
 ---------------------------------------------------------------------
 Center     Atomic      Atomic             Coordinates (Angstroms)
 Number     Number       Type             X           Y           Z
 ---------------------------------------------------------------------
      1          9           0        0.000000    0.000000   -1.823309
      2          6           0        0.000000    0.000000   -0.347455
      3          1           0       -0.000000    1.027746    0.021353
      4          1           0       -0.890054   -0.513873    0.021353
      5          1           0        0.890054   -0.513873    0.021353
      6          9           0        0.000000    0.000000    2.047829
 ---------------------------------------------------------------------
 Rotational constants (GHZ):         158.2482956           3.4644067           3.4644067
 Leave Link  202 at Wed Oct  7 14:02:54 2020, MaxMem=  2684354560 cpu:               1.2 elap:               0.5
 (Enter /udrive/faculty/rpeverati/g16/g16/l601.exe)
 Copying SCF densities to generalized density rwf, IOpCl= 0 IROHF=0.

 **********************************************************************

            Population analysis using the SCF density.

 **********************************************************************

 Orbital symmetries:
       Occupied  (A1) (A1) (A1) (A1) (A1) (A1) (A1) (E) (E) (E)
                 (E) (A1) (E) (E)
       Virtual   (A1) (A1) (E) (E) (E) (E) (A1) (E) (E) (A1) (A1)
                 (E) (E) (A1) (E) (E) (A1) (E) (E) (A1) (E) (E)
                 (A1) (A1) (E) (E) (E) (E) (E) (E) (A1) (E) (E)
                 (A1)
 The electronic state is 1-A1.
 Alpha  occ. eigenvalues --  -24.00467 -23.75930  -9.74396  -0.83444  -0.55770
 Alpha  occ. eigenvalues --   -0.39903  -0.18796  -0.18128  -0.18128  -0.06673
 Alpha  occ. eigenvalues --   -0.06673   0.11643   0.12679   0.12679
 Alpha virt. eigenvalues --    0.29244   0.31500   0.36038   0.36038   0.73092
 Alpha virt. eigenvalues --    0.73092   0.74268   1.02430   1.02430   1.05512
 Alpha virt. eigenvalues --    1.19310   1.39090   1.39090   1.39799   1.53893
 Alpha virt. eigenvalues --    1.53893   1.58715   1.67886   1.67886   1.91423
 Alpha virt. eigenvalues --    1.98055   1.98055   2.02938   2.14407   2.19677
 Alpha virt. eigenvalues --    2.19677   2.20710   2.20710   2.30710   2.30710
 Alpha virt. eigenvalues --    2.38061   2.49905   2.49905   3.09458
          Condensed to atoms (all electrons):
               1          2          3          4          5          6
     1  F    9.394522   0.121276  -0.028052  -0.028052  -0.028052   0.000187
     2  C    0.121276   4.943763   0.353352   0.353352   0.353352   0.030226
     3  H   -0.028052   0.353352   0.628439  -0.045050  -0.045050   0.015812
     4  H   -0.028052   0.353352  -0.045050   0.628439  -0.045050   0.015812
     5  H   -0.028052   0.353352  -0.045050  -0.045050   0.628439   0.015812
     6  F    0.000187   0.030226   0.015812   0.015812   0.015812   9.696646
 Mulliken charges:
               1
     1  F   -0.431829
     2  C   -0.155321
     3  H    0.120549
     4  H    0.120549
     5  H    0.120549
     6  F   -0.774496
 Sum of Mulliken charges =  -1.00000
 Mulliken charges with hydrogens summed into heavy atoms:
               1
     1  F   -0.431829
     2  C    0.206325
     6  F   -0.774496
 Electronic spatial extent (au):  <R**2>=            311.6644
 Charge=             -1.0000 electrons
 Dipole moment (field-independent basis, Debye):
    X=             -0.0000    Y=             -0.0000    Z=             -4.7539  Tot=              4.7539
 Quadrupole moment (field-independent basis, Debye-Ang):
   XX=            -17.8194   YY=            -17.8194   ZZ=            -39.8574
   XY=             -0.0000   XZ=              0.0000   YZ=             -0.0000
 Traceless Quadrupole moment (field-independent basis, Debye-Ang):
   XX=              7.3460   YY=              7.3460   ZZ=            -14.6920
   XY=             -0.0000   XZ=              0.0000   YZ=             -0.0000
 Octapole moment (field-independent basis, Debye-Ang**2):
  XXX=              0.0000  YYY=              0.3746  ZZZ=            -23.3083  XYY=              0.0000
  XXY=             -0.3746  XXZ=             -0.4485  XZZ=              0.0000  YZZ=              0.0000
  YYZ=             -0.4485  XYZ=             -0.0000
 Hexadecapole moment (field-independent basis, Debye-Ang**3):
 XXXX=            -20.4324 YYYY=            -20.4324 ZZZZ=           -333.6834 XXXY=              0.0000
 XXXZ=             -0.0000 YYYX=              0.0000 YYYZ=              0.0533 ZZZX=             -0.0000
 ZZZY=              0.0000 XXYY=             -6.8108 XXZZ=            -45.8246 YYZZ=            -45.8246
 XXYZ=             -0.0533 YYXZ=              0.0000 ZZXY=              0.0000
 N-N= 6.502769854784D+01 E-N=-7.087749010959D+02  KE= 2.386765916757D+02
 No NMR shielding tensors so no spin-rotation constants.
 Leave Link  601 at Wed Oct  7 14:02:56 2020, MaxMem=  2684354560 cpu:               4.6 elap:               0.8
 (Enter /udrive/faculty/rpeverati/g16/g16/l9999.exe)

 Test job not archived.
 1\1\GINC-NODE06\FOpt\RB97D3\6-31G(d)\C1H3F2(1-)\RPEVERATI\07-Oct-2020\
 0\\#P Opt(MaxCyc=100) B97D3/6-31G* 5D 7F Integral=UltraFineGrid SCF=(N
 oSymm,XQC,MaxCyc=120) IOp(1/33=1)\\TS search on BH76.\\-1,1\F,0.,0.,-1
 .8134721596\C,0.,0.,-0.3376175627\H,-0.5138731007,0.8900543191,0.03118
 98599\H,-0.5138731007,-0.8900543191,0.0311898599\H,1.0277462015,0.,0.0
 311898599\F,0.,0.,2.0576658958\\Version=ES64L-G16RevA.03\State=1-A1\HF
 =-239.4117501\RMSD=1.404e-09\RMSF=1.095e-04\Dipole=0.,0.,-1.8703318\Qu
 adrupole=5.4615859,5.4615859,-10.9231718,0.,0.,0.\PG=C03V [C3(F1C1F1),
 3SGV(H1)]\\@


 SIC AS THE CAWSE OF EWERY THING IS, SIC WILBE THE EFFECT.
 -- PROVERBS AND REASONS OF THE YEAR 1585
           AS REPRINTED IN PAISLEY MAGAZINE 1828.
 Job cpu time:       0 days  0 hours  6 minutes 46.3 seconds.
 Elapsed time:       0 days  0 hours  1 minutes 13.0 seconds.
 File lengths (MBytes):  RWF=      5 Int=      0 D2E=      0 Chk=      1 Scr=      1
 Normal termination of Gaussian 16 at Wed Oct  7 14:02:57 2020.
