 Entering Gaussian System, Link 0=g16
 Input=MN_33_f-_BH76_B97DBJ_631Gs.in
 Output=MN_33_f-_BH76_B97DBJ_631Gs.log
 Initial command:
 /udrive/faculty/rpeverati/g16/g16/l1.exe "/udrive/scratch-directories/gaussian09/rpeverati/Gau-12680.inp" -scrdir="/udrive/scratch-directories/gaussian09/rpeverati/"
 Entering Link 1 = /udrive/faculty/rpeverati/g16/g16/l1.exe PID=     12681.
  
 Copyright (c) 1988,1990,1992,1993,1995,1998,2003,2009,2016,
            Gaussian, Inc.  All Rights Reserved.
  
 This is part of the Gaussian(R) 16 program.  It is based on
 the Gaussian(R) 09 system (copyright 2009, Gaussian, Inc.),
 the Gaussian(R) 03 system (copyright 2003, Gaussian, Inc.),
 the Gaussian(R) 98 system (copyright 1998, Gaussian, Inc.),
 the Gaussian(R) 94 system (copyright 1995, Gaussian, Inc.),
 the Gaussian 92(TM) system (copyright 1992, Gaussian, Inc.),
 the Gaussian 90(TM) system (copyright 1990, Gaussian, Inc.),
 the Gaussian 88(TM) system (copyright 1988, Gaussian, Inc.),
 the Gaussian 86(TM) system (copyright 1986, Carnegie Mellon
 University), and the Gaussian 82(TM) system (copyright 1983,
 Carnegie Mellon University). Gaussian is a federally registered
 trademark of Gaussian, Inc.
  
 This software contains proprietary and confidential information,
 including trade secrets, belonging to Gaussian, Inc.
  
 This software is provided under written license and may be
 used, copied, transmitted, or stored only in accord with that
 written license.
  
 The following legend is applicable only to US Government
 contracts under FAR:
  
                    RESTRICTED RIGHTS LEGEND
  
 Use, reproduction and disclosure by the US Government is
 subject to restrictions as set forth in subparagraphs (a)
 and (c) of the Commercial Computer Software - Restricted
 Rights clause in FAR 52.227-19.
  
 Gaussian, Inc.
 340 Quinnipiac St., Bldg. 40, Wallingford CT 06492
  
  
 ---------------------------------------------------------------
 Warning -- This program may not be used in any manner that
 competes with the business of Gaussian, Inc. or will provide
 assistance to any competitor of Gaussian, Inc.  The licensee
 of this program is prohibited from giving any competitor of
 Gaussian, Inc. access to this program.  By using this program,
 the user acknowledges that Gaussian, Inc. is engaged in the
 business of creating and licensing software in the field of
 computational chemistry and represents and warrants to the
 licensee that it is not a competitor of Gaussian, Inc. and that
 it will not use this program in any manner prohibited above.
 ---------------------------------------------------------------
  

 Cite this work as:
 Gaussian 16, Revision A.03,
 M. J. Frisch, G. W. Trucks, H. B. Schlegel, G. E. Scuseria, 
 M. A. Robb, J. R. Cheeseman, G. Scalmani, V. Barone, 
 G. A. Petersson, H. Nakatsuji, X. Li, M. Caricato, A. V. Marenich, 
 J. Bloino, B. G. Janesko, R. Gomperts, B. Mennucci, H. P. Hratchian, 
 J. V. Ortiz, A. F. Izmaylov, J. L. Sonnenberg, D. Williams-Young, 
 F. Ding, F. Lipparini, F. Egidi, J. Goings, B. Peng, A. Petrone, 
 T. Henderson, D. Ranasinghe, V. G. Zakrzewski, J. Gao, N. Rega, 
 G. Zheng, W. Liang, M. Hada, M. Ehara, K. Toyota, R. Fukuda, 
 J. Hasegawa, M. Ishida, T. Nakajima, Y. Honda, O. Kitao, H. Nakai, 
 T. Vreven, K. Throssell, J. A. Montgomery, Jr., J. E. Peralta, 
 F. Ogliaro, M. J. Bearpark, J. J. Heyd, E. N. Brothers, K. N. Kudin, 
 V. N. Staroverov, T. A. Keith, R. Kobayashi, J. Normand, 
 K. Raghavachari, A. P. Rendell, J. C. Burant, S. S. Iyengar, 
 J. Tomasi, M. Cossi, J. M. Millam, M. Klene, C. Adamo, R. Cammi, 
 J. W. Ochterski, R. L. Martin, K. Morokuma, O. Farkas, 
 J. B. Foresman, and D. J. Fox, Gaussian, Inc., Wallingford CT, 2016.
 
 ******************************************
 Gaussian 16:  ES64L-G16RevA.03 25-Dec-2016
                 7-Oct-2020 
 ******************************************
 %NoSave
 %nproc=12
 Will use up to   12 processors via shared memory.
 %mem=20GB
 %chk=MN_33_f-_BH76_B97DBJ_631Gs
 ----------------------------------------------------------------------
 #P B97D3/6-31G* 5D 7F Integral=UltraFineGrid SCF=(NoSymm,XQC,MaxCyc=12
 0) IOp(1/33=1) Stable=Opt
 ----------------------------------------------------------------------
 1/33=1,38=1,172=1/1;
 2/12=2,17=6,18=5,40=1/2;
 3/5=1,6=6,7=1,8=11,11=2,25=1,30=1,74=-59,75=-5/1,2,3;
 4/9=2/1;
 5/5=2,7=120,8=3,13=1,38=5/2,8;
 6/7=2,8=2,9=2,10=2,28=1/1;
 8/6=1,10=90,11=11/1;
 9/8=-3,42=1,46=1/14;
 5/5=2,7=120,8=3,17=40,38=5/8(-2);
 6/7=2,8=2,9=2,10=2,28=1/1;
 99/5=1,9=1/99;
 Leave Link    1 at Wed Oct  7 14:00:50 2020, MaxMem=  2684354560 cpu:               7.9 elap:               0.8
 (Enter /udrive/faculty/rpeverati/g16/g16/l101.exe)
 ONIOM data not found on unit 2.
 ------------------
 TS search on BH76.
 ------------------
 TstMul:  ICh=    -1
 TstMul:  Mul=     1
 TstMul:  ICh=    -1
 TstMul:  Mul=     1
 Symbolic Z-matrix:
 Charge = -1 Multiplicity = 1
 F                     0.        0.        0. 
 
 RdStrC is calling ZToCFu for IStruc=1 NZ=     1.
 PrtBox:  NBox=     1 Levels=  0 BoxLen=    8.00 SMaxX=        0.00
          Shift=            0.000000            0.000000            0.000000
 Box      1 Number                   0 centers from      1 to      1:
 After GenITR:
 ITRead=  0
 MicOpt= -1
 ITRead=  0
 MicOpt= -1
 NAtoms=      1 NQM=        1 NQMF=       0 NMMI=      0 NMMIF=      0
                NMic=       0 NMicF=      0.
                    Isotopes and Nuclear Properties:
 (Nuclear quadrupole moments (NQMom) in fm**2, nuclear magnetic moments (NMagM)
  in nuclear magnetons)

  Atom         1
 IAtWgt=          19
 AtmWgt=  18.9984033
 NucSpn=           1
 AtZEff=   0.0000000
 NQMom=    0.0000000
 NMagM=    2.6288670
 AtZNuc=   9.0000000
 No MM parameters found.
 Leave Link  101 at Wed Oct  7 14:00:51 2020, MaxMem=  2684354560 cpu:               1.2 elap:               0.4
 (Enter /udrive/faculty/rpeverati/g16/g16/l202.exe)
                          Input orientation:                          
 ---------------------------------------------------------------------
 Center     Atomic      Atomic             Coordinates (Angstroms)
 Number     Number       Type             X           Y           Z
 ---------------------------------------------------------------------
      1          9           0        0.000000    0.000000    0.000000
 ---------------------------------------------------------------------
 Stoichiometry    F(1-)
 Framework group  OH[O(F)]
 Deg. of freedom     0
 Full point group                 OH      NOp  48
 Largest Abelian subgroup         D2H     NOp   8
 Largest concise Abelian subgroup C1      NOp   1
                         Standard orientation:                         
 ---------------------------------------------------------------------
 Center     Atomic      Atomic             Coordinates (Angstroms)
 Number     Number       Type             X           Y           Z
 ---------------------------------------------------------------------
      1          9           0        0.000000    0.000000    0.000000
 ---------------------------------------------------------------------
 Leave Link  202 at Wed Oct  7 14:00:52 2020, MaxMem=  2684354560 cpu:               1.0 elap:               0.6
 (Enter /udrive/faculty/rpeverati/g16/g16/l301.exe)
 Standard basis: 6-31G(d) (5D, 7F)
 Ernie: Thresh=  0.10000D-02 Tol=  0.10000D-05 Strict=F.
 There are     6 symmetry adapted cartesian basis functions of AG  symmetry.
 There are     1 symmetry adapted cartesian basis functions of B1G symmetry.
 There are     1 symmetry adapted cartesian basis functions of B2G symmetry.
 There are     1 symmetry adapted cartesian basis functions of B3G symmetry.
 There are     0 symmetry adapted cartesian basis functions of AU  symmetry.
 There are     2 symmetry adapted cartesian basis functions of B1U symmetry.
 There are     2 symmetry adapted cartesian basis functions of B2U symmetry.
 There are     2 symmetry adapted cartesian basis functions of B3U symmetry.
 There are     5 symmetry adapted basis functions of AG  symmetry.
 There are     1 symmetry adapted basis functions of B1G symmetry.
 There are     1 symmetry adapted basis functions of B2G symmetry.
 There are     1 symmetry adapted basis functions of B3G symmetry.
 There are     0 symmetry adapted basis functions of AU  symmetry.
 There are     2 symmetry adapted basis functions of B1U symmetry.
 There are     2 symmetry adapted basis functions of B2U symmetry.
 There are     2 symmetry adapted basis functions of B3U symmetry.
    14 basis functions,    28 primitive gaussians,    15 cartesian basis functions
     5 alpha electrons        5 beta electrons
       nuclear repulsion energy         0.0000000000 Hartrees.
 IExCor= 3630 DFT=T Ex+Corr=B97D3 ExCW=0 ScaHFX=  0.000000
 ScaDFX=  1.000000  1.000000  1.000000  1.000000 ScalE2=  1.000000  1.000000
 IRadAn=      5 IRanWt=     -1 IRanGd=            0 ICorTp=0 IEmpDi=141
 NAtoms=    1 NActive=    1 NUniq=    1 SFac= 1.00D+00 NAtFMM=   60 NAOKFM=F Big=F
 Integral buffers will be    131072 words long.
 Raffenetti 2 integral format.
 Two-electron integral symmetry is turned on.
 R6Disp:  Grimme-D3(BJ) Dispersion energy=        0.0000000000 Hartrees.
 Nuclear repulsion after empirical dispersion term =        0.0000000000 Hartrees.
 Leave Link  301 at Wed Oct  7 14:00:53 2020, MaxMem=  2684354560 cpu:               2.9 elap:               0.8
 (Enter /udrive/faculty/rpeverati/g16/g16/l302.exe)
 NPDir=0 NMtPBC=     1 NCelOv=     1 NCel=       1 NClECP=     1 NCelD=      1
         NCelK=      1 NCelE2=     1 NClLst=     1 CellRange=     0.0.
 One-electron integrals computed using PRISM.
 One-electron integral symmetry used in STVInt
 NBasis=    14 RedAO= T EigKep=  2.33D-01  NBF=     5     1     1     1     0     2     2     2
 NBsUse=    14 1.00D-06 EigRej= -1.00D+00 NBFU=     5     1     1     1     0     2     2     2
 Precomputing XC quadrature grid using
 IXCGrd= 4 IRadAn=           5 IRanWt=          -1 IRanGd=           0 AccXCQ= 0.00D+00.
 Generated NRdTot=       0 NPtTot=           0 NUsed=           0 NTot=          32
 NSgBfM=    15    15    15    15    15 MxSgAt=     1 MxSgA2=     1.
 Leave Link  302 at Wed Oct  7 14:00:54 2020, MaxMem=  2684354560 cpu:               3.1 elap:               0.8
 (Enter /udrive/faculty/rpeverati/g16/g16/l303.exe)
 DipDrv:  MaxL=1.
 Leave Link  303 at Wed Oct  7 14:00:55 2020, MaxMem=  2684354560 cpu:               1.5 elap:               0.6
 (Enter /udrive/faculty/rpeverati/g16/g16/l401.exe)
 SCF N**3 symmetry information disabled.
 ExpMin= 3.58D-01 ExpMax= 7.00D+03 ExpMxC= 1.05D+03 IAcc=3 IRadAn=         5 AccDes= 0.00D+00
 Harris functional with IExCor= 3630 and IRadAn=       5 diagonalized for initial guess.
 HarFok:  IExCor= 3630 AccDes= 0.00D+00 IRadAn=         5 IDoV= 1 UseB2=F ITyADJ=14
 ICtDFT=  3500011 ScaDFX=  1.000000  1.000000  1.000000  1.000000
 FoFCou: FMM=F IPFlag=           0 FMFlag=      100000 FMFlg1=           0
         NFxFlg=           0 DoJE=T BraDBF=F KetDBF=T FulRan=T
         wScrn=  0.000000 ICntrl=       500 IOpCl=  0 I1Cent=   200000004 NGrid=           0
         NMat0=    1 NMatS0=      1 NMatT0=    0 NMatD0=    1 NMtDS0=    0 NMtDT0=    0
 Petite list used in FoFCou.
 Harris En= -100.020683271270    
 JPrj=0 DoOrth=F DoCkMO=F.
 Initial guess orbital symmetries:
       Occupied  (A1G) (A1G) (T1U) (T1U) (T1U)
       Virtual   (T1U) (T1U) (T1U) (A1G) (T2G) (T2G) (T2G) (EG)
                 (EG)
 The electronic state of the initial guess is 1-A1G.
 Leave Link  401 at Wed Oct  7 14:00:57 2020, MaxMem=  2684354560 cpu:               9.0 elap:               1.4
 (Enter /udrive/faculty/rpeverati/g16/g16/l502.exe)
 Keep J ints in memory in symmetry-blocked form, NReq=10344075.
 FoFCou: FMM=F IPFlag=           0 FMFlag=           0 FMFlg1=           0
         NFxFlg=           0 DoJE=F BraDBF=F KetDBF=F FulRan=T
         wScrn=  0.000000 ICntrl=       600 IOpCl=  0 I1Cent=           0 NGrid=           0
         NMat0=    1 NMatS0=    105 NMatT0=    0 NMatD0=    1 NMtDS0=    0 NMtDT0=    0
 Petite list used in FoFCou.
 Closed shell SCF:
 Using DIIS extrapolation, IDIIS=  1040.
 NGot=  2684354560 LenX=  2684350175 LenY=  2684349293
 Requested convergence on RMS density matrix=1.00D-08 within 120 cycles.
 Requested convergence on MAX density matrix=1.00D-06.
 Requested convergence on             energy=1.00D-06.
 No special actions if energy rises.
 Integral accuracy reduced to 1.0D-05 until final iterations.

 Cycle   1  Pass 0  IDiag  1:
 E= -99.5829344047499    
 DIIS: error= 1.16D-01 at cycle   1 NSaved=   1.
 NSaved= 1 IEnMin= 1 EnMin= -99.5829344047499     IErMin= 1 ErrMin= 1.16D-01
 ErrMax= 1.16D-01  0.00D+00 EMaxC= 1.00D-01 BMatC= 2.00D-01 BMatP= 2.00D-01
 IDIUse=3 WtCom= 0.00D+00 WtEn= 1.00D+00
 Coeff-Com:  0.100D+01
 Coeff-En:   0.100D+01
 Coeff:      0.100D+01
 Gap=     1.298 Goal=   None    Shift=    0.000
 GapD=    1.298 DampG=2.000 DampE=0.250 DampFc=0.5000 IDamp=-1.
 Damping current iteration by 5.00D-01
 RMSDP=3.79D-02 MaxDP=2.04D-01              OVMax= 1.71D-01

 Cycle   2  Pass 0  IDiag  1:
 E= -99.6310977880050     Delta-E=       -0.048163383255 Rises=F Damp=T
 DIIS: error= 1.73D-02 at cycle   2 NSaved=   2.
 NSaved= 2 IEnMin= 2 EnMin= -99.6310977880050     IErMin= 2 ErrMin= 1.73D-02
 ErrMax= 1.73D-02  0.00D+00 EMaxC= 1.00D-01 BMatC= 5.28D-03 BMatP= 2.00D-01
 IDIUse=3 WtCom= 8.27D-01 WtEn= 1.73D-01
 Coeff-Com:  0.137D+00 0.863D+00
 Coeff-En:   0.234D+00 0.766D+00
 Coeff:      0.154D+00 0.846D+00
 Gap=     1.350 Goal=   None    Shift=    0.000
 RMSDP=2.87D-03 MaxDP=1.52D-02 DE=-4.82D-02 OVMax= 9.41D-02

 Cycle   3  Pass 0  IDiag  1:
 E= -99.7035212168888     Delta-E=       -0.072423428884 Rises=F Damp=F
 DIIS: error= 3.09D-03 at cycle   3 NSaved=   3.
 NSaved= 3 IEnMin= 3 EnMin= -99.7035212168888     IErMin= 3 ErrMin= 3.09D-03
 ErrMax= 3.09D-03  0.00D+00 EMaxC= 1.00D-01 BMatC= 1.47D-04 BMatP= 5.28D-03
 IDIUse=3 WtCom= 9.69D-01 WtEn= 3.09D-02
 Coeff-Com:  0.171D-01-0.723D-01 0.106D+01
 Coeff-En:   0.000D+00 0.000D+00 0.100D+01
 Coeff:      0.166D-01-0.700D-01 0.105D+01
 Gap=     1.374 Goal=   None    Shift=    0.000
 RMSDP=4.43D-04 MaxDP=2.41D-03 DE=-7.24D-02 OVMax= 1.99D-03

 Cycle   4  Pass 0  IDiag  1:
 E= -99.7036051640169     Delta-E=       -0.000083947128 Rises=F Damp=F
 DIIS: error= 5.91D-05 at cycle   4 NSaved=   4.
 NSaved= 4 IEnMin= 4 EnMin= -99.7036051640169     IErMin= 4 ErrMin= 5.91D-05
 ErrMax= 5.91D-05  0.00D+00 EMaxC= 1.00D-01 BMatC= 5.87D-08 BMatP= 1.47D-04
 IDIUse=1 WtCom= 1.00D+00 WtEn= 0.00D+00
 Coeff-Com:  0.105D-02-0.878D-03 0.621D-01 0.938D+00
 Coeff:      0.105D-02-0.878D-03 0.621D-01 0.938D+00
 Gap=     1.374 Goal=   None    Shift=    0.000
 RMSDP=8.65D-06 MaxDP=4.63D-05 DE=-8.39D-05 OVMax= 3.83D-05

 Initial convergence to 1.0D-05 achieved.  Increase integral accuracy.
 Cycle   5  Pass 1  IDiag  1:
 E= -99.7036051671923     Delta-E=       -0.000000003175 Rises=F Damp=F
 DIIS: error= 2.09D-06 at cycle   1 NSaved=   1.
 NSaved= 1 IEnMin= 1 EnMin= -99.7036051671923     IErMin= 1 ErrMin= 2.09D-06
 ErrMax= 2.09D-06  0.00D+00 EMaxC= 1.00D-01 BMatC= 6.48D-11 BMatP= 6.48D-11
 IDIUse=1 WtCom= 1.00D+00 WtEn= 0.00D+00
 Coeff-Com:  0.100D+01
 Coeff:      0.100D+01
 Gap=     1.374 Goal=   None    Shift=    0.000
 RMSDP=8.65D-06 MaxDP=4.63D-05 DE=-3.18D-09 OVMax= 3.05D-06

 Cycle   6  Pass 1  IDiag  1:
 E= -99.7036051671657     Delta-E=        0.000000000027 Rises=F Damp=F
 DIIS: error= 2.71D-06 at cycle   2 NSaved=   2.
 NSaved= 2 IEnMin= 1 EnMin= -99.7036051671923     IErMin= 1 ErrMin= 2.09D-06
 ErrMax= 2.71D-06  0.00D+00 EMaxC= 1.00D-01 BMatC= 1.12D-10 BMatP= 6.48D-11
 IDIUse=1 WtCom= 1.00D+00 WtEn= 0.00D+00
 Coeff-Com:  0.568D+00 0.432D+00
 Coeff:      0.568D+00 0.432D+00
 Gap=     1.374 Goal=   None    Shift=    0.000
 RMSDP=3.80D-07 MaxDP=2.06D-06 DE= 2.66D-11 OVMax= 1.70D-06

 Cycle   7  Pass 1  IDiag  1:
 E= -99.7036051672302     Delta-E=       -0.000000000065 Rises=F Damp=F
 DIIS: error= 1.36D-08 at cycle   3 NSaved=   3.
 NSaved= 3 IEnMin= 3 EnMin= -99.7036051672302     IErMin= 3 ErrMin= 1.36D-08
 ErrMax= 1.36D-08  0.00D+00 EMaxC= 1.00D-01 BMatC= 2.82D-15 BMatP= 6.48D-11
 IDIUse=1 WtCom= 1.00D+00 WtEn= 0.00D+00
 Coeff-Com:  0.396D-02-0.199D-02 0.998D+00
 Coeff:      0.396D-02-0.199D-02 0.998D+00
 Gap=     1.374 Goal=   None    Shift=    0.000
 RMSDP=1.91D-09 MaxDP=1.03D-08 DE=-6.46D-11 OVMax= 8.52D-09

 SCF Done:  E(RB97D3) =  -99.7036051672     A.U. after    7 cycles
            NFock=  7  Conv=0.19D-08     -V/T= 2.0005
 KE= 9.965580999336D+01 PE=-2.446930434940D+02 EE= 4.533362833338D+01
 Leave Link  502 at Wed Oct  7 14:00:59 2020, MaxMem=  2684354560 cpu:              10.1 elap:               1.4
 (Enter /udrive/faculty/rpeverati/g16/g16/l508.exe)
 QCSCF skips out because SCF is already converged.
 Leave Link  508 at Wed Oct  7 14:01:00 2020, MaxMem=  2684354560 cpu:               0.7 elap:               0.6
 (Enter /udrive/faculty/rpeverati/g16/g16/l601.exe)
 Copying SCF densities to generalized density rwf, IOpCl= 0 IROHF=0.

 **********************************************************************

            Population analysis using the SCF density.

 **********************************************************************

 Orbital symmetries:
       Occupied  (A1G) (A1G) (T1U) (T1U) (T1U)
       Virtual   (T1U) (T1U) (T1U) (A1G) (T2G) (T2G) (T2G) (EG)
                 (EG)
 The electronic state is 1-A1G.
 Alpha  occ. eigenvalues --  -23.63804  -0.44361   0.23350   0.23350   0.23350
 Alpha virt. eigenvalues --    1.60764   1.60764   1.60764   1.77538   2.29699
 Alpha virt. eigenvalues --    2.29699   2.29699   2.29699   2.29699
          Condensed to atoms (all electrons):
               1
     1  F   10.000000
 Mulliken charges:
               1
     1  F   -1.000000
 Sum of Mulliken charges =  -1.00000
 Mulliken charges with hydrogens summed into heavy atoms:
               1
     1  F   -1.000000
 Electronic spatial extent (au):  <R**2>=             12.7968
 Charge=             -1.0000 electrons
 Dipole moment (field-independent basis, Debye):
    X=              0.0000    Y=             -0.0000    Z=             -0.0000  Tot=              0.0000
 Quadrupole moment (field-independent basis, Debye-Ang):
   XX=             -5.7374   YY=             -5.7374   ZZ=             -5.7374
   XY=             -0.0000   XZ=             -0.0000   YZ=              0.0000
 Traceless Quadrupole moment (field-independent basis, Debye-Ang):
   XX=              0.0000   YY=              0.0000   ZZ=              0.0000
   XY=             -0.0000   XZ=             -0.0000   YZ=              0.0000
 Octapole moment (field-independent basis, Debye-Ang**2):
  XXX=              0.0000  YYY=             -0.0000  ZZZ=             -0.0000  XYY=              0.0000
  XXY=             -0.0000  XXZ=             -0.0000  XZZ=              0.0000  YZZ=              0.0000
  YYZ=             -0.0000  XYZ=             -0.0000
 Hexadecapole moment (field-independent basis, Debye-Ang**3):
 XXXX=             -3.2173 YYYY=             -3.2173 ZZZZ=             -3.2173 XXXY=             -0.0000
 XXXZ=             -0.0000 YYYX=             -0.0000 YYYZ=              0.0000 ZZZX=             -0.0000
 ZZZY=              0.0000 XXYY=             -1.0724 XXZZ=             -1.0724 YYZZ=             -1.0724
 XXYZ=              0.0000 YYXZ=             -0.0000 ZZXY=             -0.0000
 N-N= 0.000000000000D+00 E-N=-2.446930431870D+02  KE= 9.965580999336D+01
 No NMR shielding tensors so no spin-rotation constants.
 Leave Link  601 at Wed Oct  7 14:01:01 2020, MaxMem=  2684354560 cpu:               3.5 elap:               0.7
 (Enter /udrive/faculty/rpeverati/g16/g16/l801.exe)
 DoSCS=F DFT=T ScalE2(SS,OS)=  1.000000  1.000000
 Range of M.O.s used for correlation:     1    14
 NBasis=    14 NAE=     5 NBE=     5 NFC=     0 NFV=     0
 NROrb=     14 NOA=     5 NOB=     5 NVA=     9 NVB=     9
 Leave Link  801 at Wed Oct  7 14:01:02 2020, MaxMem=  2684354560 cpu:               1.7 elap:               0.7
 (Enter /udrive/faculty/rpeverati/g16/g16/l914.exe)
 RHF ground state
 Doing stability rather than CIS.
 Keep J ints in memory in symmetry-blocked form, NReq=13506355.
 FoFCou: FMM=F IPFlag=           0 FMFlag=           0 FMFlg1=           0
         NFxFlg=           0 DoJE=F BraDBF=F KetDBF=F FulRan=T
         wScrn=  0.000000 ICntrl=       600 IOpCl=  0 I1Cent=           0 NGrid=           0
         NMat0=    1 NMatS0=    105 NMatT0=    0 NMatD0=    1 NMtDS0=    0 NMtDT0=    0
 Petite list used in FoFCou.
 MDV=  2684354560 DFT=T DoStab=T Mixed=F DoRPA=F DoScal=F NonHer=F
 Making orbital integer symmetry assigments:
 Orbital symmetries:
       Occupied  (A1G) (A1G) (T1U) (T1U) (T1U)
       Virtual   (T1U) (T1U) (T1U) (A1G) (T2G) (T2G) (T2G) (EG)
                 (EG)
    48 initial guesses have been made.
 Convergence on wavefunction:    0.001000000000000
 Davidson Disk Diagonalization:  ConvIn= 1.00D-03 SkipCon=T Conv= 1.00D-03.
 Max sub-space:   180 roots to seek:    48 dimension of matrix:           90
 Iteration     1 Dimension    48 NMult     0 NNew     48
 CISAX will form    48 AO SS matrices at one time.
 NMat=    48 NSing=    24 JSym2X= 2.
 New state      1 was old state      6
 Excitation Energies [eV] at current iteration:
 Root      1 :    28.611776132988980
 Root      2 :    33.429118064321150
 Root      3 :    33.429118064321200
 Root      4 :    33.429118064321220
 Root      5 :    33.429118064501680
 Root      6 :    33.429118064501740
 Root      7 :    37.258244728578330
 Root      8 :    37.258244728578380
 Root      9 :    37.258244728578400
 Root     10 :    37.258244728840980
 Root     11 :    37.258244728841100
 Root     12 :    37.392123963663710
 Root     13 :    37.392123963663730
 Root     14 :    37.392123963663760
 Root     15 :    37.392123963663760
 Root     16 :    37.392123963663810
 Root     17 :    37.392123963663840
 Root     18 :    38.082932523972870
 Root     19 :    38.082933072585820
 Root     20 :    38.082933398116110
 Root     21 :    43.941304803275930
 Root     22 :    43.941304807105010
 Root     23 :    43.941304809377200
 Root     24 :    51.450517915739470
 Root     25 :    51.450523689747390
 Root     26 :    51.450527115844440
 Root     27 :    52.120243321338330
 Root     28 :    53.463636924079340
 Root     29 :    53.463657685208320
 Root     30 :    53.463692674688380
 Root     31 :    53.649484609240640
 Root     32 :    53.649484628357920
 Root     33 :    53.649484660577410
 Root     34 :    56.150500640688730
 Root     35 :    56.150500641003300
 Root     36 :    56.150500641062320
 Root     37 :    56.150500641065190
 Root     38 :    56.166467404256150
 Root     39 :    56.166467612186390
 Root     40 :    56.166467735562720
 Root     41 :    56.174451055542460
 Root     42 :    58.123061864271690
 Root     43 :    58.123062467647370
 Root     44 :    58.123063484491420
 Root     45 :    69.158495641080520
 Root     46 :    69.158558505019120
 Root     47 :    69.158664448668150
 Root     48 :    79.419251062305290
 Vector  12 has DEMin= 4.44D-16 removing all elements with DE> 1.00D-12.
 Vector  13 has DEMin= 6.66D-16 removing all elements with DE> 1.00D-12.
 Vector  14 has DEMin= 2.22D-16 removing all elements with DE> 1.00D-12.
 Vector  15 has DEMin= 2.22D-16 removing all elements with DE> 1.00D-12.
 Vector  16 has DEMin= 8.88D-16 removing all elements with DE> 1.00D-12.
 Vector  17 has DEMin= 4.44D-16 removing all elements with DE> 1.00D-12.
 Vector  36 has DEMin= 1.15D-14 removing all elements with DE> 1.00D-12.
 Vector  37 has DEMin= 1.17D-13 removing all elements with DE> 1.00D-12.
 Iteration     2 Dimension    78 NMult    48 NNew     30
 CISAX will form    30 AO SS matrices at one time.
 NMat=    30 NSing=    15 JSym2X= 2.
 Vector  12 SDiff=9.79D-01 TDiff=1.08D-03 assumed to be triplet.
 Vector  13 SDiff=2.57D-02 TDiff=8.71D-01 assumed to be singlet.
 Vector  14 SDiff=7.50D-01 TDiff=1.49D-03 assumed to be triplet.
 Vector  15 SDiff=5.97D-01 TDiff=3.82D-01 assumed to be triplet.
 Vector  16 SDiff=3.41D-01 TDiff=5.09D-01 assumed to be singlet.
 Vector  17 SDiff=1.61D-01 TDiff=8.33D-01 assumed to be singlet.
 Vector  38 SDiff=2.68D-03 TDiff=8.75D-01 assumed to be singlet.
 Vector  39 SDiff=2.32D-02 TDiff=7.70D-01 assumed to be singlet.
 Vector  40 SDiff=8.28D-01 TDiff=1.96D-02 assumed to be triplet.
 Vector  42 SDiff=1.73D-02 TDiff=9.01D-01 assumed to be singlet.
 Vector  43 SDiff=7.12D-01 TDiff=4.52D-01 assumed to be triplet.
 Vector  45 SDiff=1.68D-01 TDiff=6.68D-01 assumed to be singlet.
 Vector  46 SDiff=2.68D-01 TDiff=7.91D-01 assumed to be singlet.
 Vector  47 SDiff=6.83D-01 TDiff=1.14D-01 assumed to be triplet.
 Root      1 not converged, maximum delta is    0.108337978231029
 Excitation Energies [eV] at current iteration:
 Root      1 :    27.899285504624340   Change is   -0.712490628364638
 Root      2 :    33.427676374905640   Change is   -0.001441689415519
 Root      3 :    33.427676374905790   Change is   -0.001441689415434
 Root      4 :    33.427676374905840   Change is   -0.001441689415362
 Root      5 :    33.427676375086980   Change is   -0.001441689414751
 Root      6 :    33.427676375087050   Change is   -0.001441689414631
 Root      7 :    37.244641053211400   Change is   -0.013603675366975
 Root      8 :    37.244641056148230   Change is   -0.013603672430101
 Root      9 :    37.244641056666560   Change is   -0.013603672174422
 Root     10 :    37.244641056666710   Change is   -0.013603672174386
 Root     11 :    37.244641060784670   Change is   -0.013603667793743
 Root     12 :    37.392123963663640   Change is   -0.000000000000121
 Root     13 :    37.392123963663710   Change is    0.000000000000006
 Root     14 :    37.392123963663750   Change is    0.000000000000018
 Root     15 :    37.392123963663750   Change is   -0.000000000000097
 Root     16 :    37.392123963663780   Change is   -0.000000000000024
 Root     17 :    37.392123963663800   Change is    0.000000000000042
 Root     18 :    38.038751409795470   Change is   -0.044181662790354
 Root     19 :    38.038751409795540   Change is   -0.044181988320562
 Root     20 :    38.038751409795570   Change is   -0.044181114177307
 Root     21 :    43.936856832968090   Change is   -0.004447976409111
 Root     22 :    43.936856832968220   Change is   -0.004447970307714
 Root     23 :    43.936856832968300   Change is   -0.004447974136716
 Root     24 :    51.008945350686660   Change is   -0.441581765157782
 Root     25 :    51.008945350686810   Change is   -0.441572565052664
 Root     26 :    51.008945350686860   Change is   -0.441578339060532
 Root     27 :    52.120243321338300   Change is   -0.000000000000030
 Root     28 :    52.120243322082490   Change is   -1.343393601996842
 Root     29 :    52.120243322082620   Change is   -1.343449352605758
 Root     30 :    52.120243322082670   Change is   -1.343414363125647
 Root     31 :    52.120243323198320
 Root     32 :    52.120243323198390
 Root     33 :    52.120243323198420
 Root     34 :    53.425601445738060   Change is  -25.993649616567240
 Root     35 :    53.651148756814710   Change is    0.001664096237302
 Root     36 :    53.651148756814810   Change is    0.001664128456888
 Root     37 :    56.150500641061750   Change is   -0.000000000000556
 Root     38 :    56.150500641061800   Change is   -0.000000000003384
 Root     39 :    56.150500642660120   Change is   -0.015966969526277
 Root     40 :    56.150500642660210   Change is   -0.015966761595944
 Root     41 :    56.150500642660260   Change is   -0.015967092902451
 Root     42 :    56.174451055542390   Change is   -0.000000000000060
 Root     43 :    56.174451056271630
 Root     44 :    56.174451056271640
 Root     45 :    56.174451056271800
 Root     46 :    56.174451057442380   Change is  -12.984044583638140
 Root     47 :    56.174451057442430   Change is  -12.984107447576690
 Root     48 :    56.174451057442500   Change is  -12.984213391225640
 Iteration     3 Dimension    83 NMult    78 NNew      5
 CISAX will form     5 AO SS matrices at one time.
 NMat=     5 NSing=     2 JSym2X= 2.
 Vector  12 SDiff=6.90D-02 TDiff=9.84D-01 assumed to be singlet.
 Vector  14 SDiff=7.00D-01 TDiff=6.39D-03 assumed to be triplet.
 Vector  15 SDiff=5.83D-01 TDiff=5.77D-01 assumed to be triplet.
 Vector  16 SDiff=4.28D-01 TDiff=7.84D-01 assumed to be singlet.
 Vector  17 SDiff=5.33D-02 TDiff=9.27D-01 assumed to be singlet.
 Vector  39 SDiff=3.66D-03 TDiff=8.75D-01 assumed to be singlet.
 Vector  40 SDiff=6.29D-03 TDiff=7.68D-01 assumed to be singlet.
 Vector  41 SDiff=8.27D-01 TDiff=4.07D-03 assumed to be triplet.
 Vector  42 SDiff=4.21D-02 TDiff=7.40D-01 assumed to be singlet.
 Vector  43 SDiff=5.49D-02 TDiff=8.76D-01 assumed to be singlet.
 Vector  44 SDiff=5.72D-01 TDiff=8.18D-01 assumed to be singlet.
 Vector  45 SDiff=7.68D-01 TDiff=3.01D-02 assumed to be triplet.
 Vector  46 SDiff=8.04D-01 TDiff=5.82D-01 assumed to be triplet.
 Vector  47 SDiff=9.61D-01 TDiff=3.78D-04 assumed to be triplet.
 Root      1 has converged.
 Excitation Energies [eV] at current iteration:
 Root      1 :    27.899269283859130   Change is   -0.000016220765209
 Root      2 :    33.427675883339470   Change is   -0.000000491566316
 Root      3 :    33.427675883339610   Change is   -0.000000491566026
 Root      4 :    37.244641051316100   Change is   -0.000000004832130
 Root      5 :    37.244641051581650   Change is   -0.000000005084909
 Root      6 :    37.244641053581620   Change is    0.000000000370220
 Convergence achieved on expansion vectors.
 ***********************************************************************
 Stability analysis using <AA,BB:AA,BB> singles matrix:
 ***********************************************************************
 1PDM for each excited state written to RWF  633
 Ground to excited state transition densities written to RWF  633

 Eigenvectors of the stability matrix:
 
 Excited state symmetry could not be determined.
 Eigenvector   1:      Triplet-?Sym  Eigenvalue= 1.0252793  <S**2>=2.000
       2 ->  9        -0.10838
       3 ->  7         0.38439
       3 ->  8        -0.12028
       4 ->  6         0.40071
       5 ->  7         0.12208
       5 ->  8         0.38235
 The wavefunction is stable under the perturbations considered.
 Leave Link  914 at Wed Oct  7 14:01:05 2020, MaxMem=  2684354560 cpu:              17.9 elap:               2.2
 (Enter /udrive/faculty/rpeverati/g16/g16/l508.exe)
 The wavefunction is already stable.
 Leave Link  508 at Wed Oct  7 14:01:06 2020, MaxMem=  2684354560 cpu:               0.4 elap:               0.4
 (Enter /udrive/faculty/rpeverati/g16/g16/l601.exe)
 Copying SCF densities to generalized density rwf, IOpCl= 0 IROHF=0.

 **********************************************************************

            Population analysis using the SCF density.

 **********************************************************************

 Orbital symmetries:
       Occupied  (A1G) (A1G) (T1U) (T1U) (T1U)
       Virtual   (T1U) (T1U) (T1U) (A1G) (T2G) (T2G) (T2G) (EG)
                 (EG)
 The electronic state is 1-A1G.
 Alpha  occ. eigenvalues --  -23.63804  -0.44361   0.23350   0.23350   0.23350
 Alpha virt. eigenvalues --    1.60764   1.60764   1.60764   1.77538   2.29699
 Alpha virt. eigenvalues --    2.29699   2.29699   2.29699   2.29699
          Condensed to atoms (all electrons):
               1
     1  F   10.000000
 Mulliken charges:
               1
     1  F   -1.000000
 Sum of Mulliken charges =  -1.00000
 Mulliken charges with hydrogens summed into heavy atoms:
               1
     1  F   -1.000000
 Electronic spatial extent (au):  <R**2>=             12.7968
 Charge=             -1.0000 electrons
 Dipole moment (field-independent basis, Debye):
    X=              0.0000    Y=             -0.0000    Z=             -0.0000  Tot=              0.0000
 Quadrupole moment (field-independent basis, Debye-Ang):
   XX=             -5.7374   YY=             -5.7374   ZZ=             -5.7374
   XY=             -0.0000   XZ=             -0.0000   YZ=              0.0000
 Traceless Quadrupole moment (field-independent basis, Debye-Ang):
   XX=              0.0000   YY=              0.0000   ZZ=              0.0000
   XY=             -0.0000   XZ=             -0.0000   YZ=              0.0000
 Octapole moment (field-independent basis, Debye-Ang**2):
  XXX=              0.0000  YYY=             -0.0000  ZZZ=             -0.0000  XYY=              0.0000
  XXY=             -0.0000  XXZ=             -0.0000  XZZ=              0.0000  YZZ=              0.0000
  YYZ=             -0.0000  XYZ=             -0.0000
 Hexadecapole moment (field-independent basis, Debye-Ang**3):
 XXXX=             -3.2173 YYYY=             -3.2173 ZZZZ=             -3.2173 XXXY=             -0.0000
 XXXZ=             -0.0000 YYYX=             -0.0000 YYYZ=              0.0000 ZZZX=             -0.0000
 ZZZY=              0.0000 XXYY=             -1.0724 XXZZ=             -1.0724 YYZZ=             -1.0724
 XXYZ=              0.0000 YYXZ=             -0.0000 ZZXY=             -0.0000
 N-N= 0.000000000000D+00 E-N=-2.446930431870D+02  KE= 9.965580999336D+01
 No NMR shielding tensors so no spin-rotation constants.
 Leave Link  601 at Wed Oct  7 14:01:07 2020, MaxMem=  2684354560 cpu:               3.7 elap:               0.6
 (Enter /udrive/faculty/rpeverati/g16/g16/l9999.exe)

 Test job not archived.
 1\1\GINC-NODE52\Stability\RB97D3\6-31G(d)\F1(1-)\RPEVERATI\07-Oct-2020
 \0\\#P B97D3/6-31G* 5D 7F Integral=UltraFineGrid SCF=(NoSymm,XQC,MaxCy
 c=120) IOp(1/33=1) Stable=Opt\\TS search on BH76.\\-1,1\F,0,0.,0.,0.\\
 Version=ES64L-G16RevA.03\State=1-A1G\HF=-99.7036052\RMSD=1.911e-09\Dip
 ole=0.,0.,0.\Quadrupole=0.,0.,0.,0.,0.,0.\PG=OH [O(F1)]\\@


 In the beginning the Universe was created.
 This has made a lot of people very angry
 and been widely regarded as a bad move.
                               -D.Adams
 Job cpu time:       0 days  0 hours  1 minutes  6.6 seconds.
 Elapsed time:       0 days  0 hours  0 minutes 12.8 seconds.
 File lengths (MBytes):  RWF=      5 Int=      0 D2E=      0 Chk=      1 Scr=      1
 Normal termination of Gaussian 16 at Wed Oct  7 14:01:08 2020.
