 Entering Gaussian System, Link 0=g16
 Input=MN_48_hcn_BH76_B97DBJ_631Gs.in
 Output=MN_48_hcn_BH76_B97DBJ_631Gs.log
 Initial command:
 /udrive/faculty/rpeverati/g16/g16/l1.exe "/udrive/scratch-directories/gaussian09/rpeverati/Gau-22656.inp" -scrdir="/udrive/scratch-directories/gaussian09/rpeverati/"
 Entering Link 1 = /udrive/faculty/rpeverati/g16/g16/l1.exe PID=     22657.
  
 Copyright (c) 1988,1990,1992,1993,1995,1998,2003,2009,2016,
            Gaussian, Inc.  All Rights Reserved.
  
 This is part of the Gaussian(R) 16 program.  It is based on
 the Gaussian(R) 09 system (copyright 2009, Gaussian, Inc.),
 the Gaussian(R) 03 system (copyright 2003, Gaussian, Inc.),
 the Gaussian(R) 98 system (copyright 1998, Gaussian, Inc.),
 the Gaussian(R) 94 system (copyright 1995, Gaussian, Inc.),
 the Gaussian 92(TM) system (copyright 1992, Gaussian, Inc.),
 the Gaussian 90(TM) system (copyright 1990, Gaussian, Inc.),
 the Gaussian 88(TM) system (copyright 1988, Gaussian, Inc.),
 the Gaussian 86(TM) system (copyright 1986, Carnegie Mellon
 University), and the Gaussian 82(TM) system (copyright 1983,
 Carnegie Mellon University). Gaussian is a federally registered
 trademark of Gaussian, Inc.
  
 This software contains proprietary and confidential information,
 including trade secrets, belonging to Gaussian, Inc.
  
 This software is provided under written license and may be
 used, copied, transmitted, or stored only in accord with that
 written license.
  
 The following legend is applicable only to US Government
 contracts under FAR:
  
                    RESTRICTED RIGHTS LEGEND
  
 Use, reproduction and disclosure by the US Government is
 subject to restrictions as set forth in subparagraphs (a)
 and (c) of the Commercial Computer Software - Restricted
 Rights clause in FAR 52.227-19.
  
 Gaussian, Inc.
 340 Quinnipiac St., Bldg. 40, Wallingford CT 06492
  
  
 ---------------------------------------------------------------
 Warning -- This program may not be used in any manner that
 competes with the business of Gaussian, Inc. or will provide
 assistance to any competitor of Gaussian, Inc.  The licensee
 of this program is prohibited from giving any competitor of
 Gaussian, Inc. access to this program.  By using this program,
 the user acknowledges that Gaussian, Inc. is engaged in the
 business of creating and licensing software in the field of
 computational chemistry and represents and warrants to the
 licensee that it is not a competitor of Gaussian, Inc. and that
 it will not use this program in any manner prohibited above.
 ---------------------------------------------------------------
  

 Cite this work as:
 Gaussian 16, Revision A.03,
 M. J. Frisch, G. W. Trucks, H. B. Schlegel, G. E. Scuseria, 
 M. A. Robb, J. R. Cheeseman, G. Scalmani, V. Barone, 
 G. A. Petersson, H. Nakatsuji, X. Li, M. Caricato, A. V. Marenich, 
 J. Bloino, B. G. Janesko, R. Gomperts, B. Mennucci, H. P. Hratchian, 
 J. V. Ortiz, A. F. Izmaylov, J. L. Sonnenberg, D. Williams-Young, 
 F. Ding, F. Lipparini, F. Egidi, J. Goings, B. Peng, A. Petrone, 
 T. Henderson, D. Ranasinghe, V. G. Zakrzewski, J. Gao, N. Rega, 
 G. Zheng, W. Liang, M. Hada, M. Ehara, K. Toyota, R. Fukuda, 
 J. Hasegawa, M. Ishida, T. Nakajima, Y. Honda, O. Kitao, H. Nakai, 
 T. Vreven, K. Throssell, J. A. Montgomery, Jr., J. E. Peralta, 
 F. Ogliaro, M. J. Bearpark, J. J. Heyd, E. N. Brothers, K. N. Kudin, 
 V. N. Staroverov, T. A. Keith, R. Kobayashi, J. Normand, 
 K. Raghavachari, A. P. Rendell, J. C. Burant, S. S. Iyengar, 
 J. Tomasi, M. Cossi, J. M. Millam, M. Klene, C. Adamo, R. Cammi, 
 J. W. Ochterski, R. L. Martin, K. Morokuma, O. Farkas, 
 J. B. Foresman, and D. J. Fox, Gaussian, Inc., Wallingford CT, 2016.
 
 ******************************************
 Gaussian 16:  ES64L-G16RevA.03 25-Dec-2016
                 7-Oct-2020 
 ******************************************
 %NoSave
 %nproc=12
 Will use up to   12 processors via shared memory.
 %mem=20GB
 %chk=MN_48_hcn_BH76_B97DBJ_631Gs
 ----------------------------------------------------------------------
 #P Opt(MaxCyc=100) B97D3/6-31G* 5D 7F Integral=UltraFineGrid SCF=(NoSy
 mm,XQC,MaxCyc=120) IOp(1/33=1)
 ----------------------------------------------------------------------
 1/6=100,18=20,19=15,26=4,33=1,38=1/1,3;
 2/9=110,12=2,17=6,18=5,40=1/2;
 3/5=1,6=6,7=1,8=11,11=2,25=1,30=1,71=1,74=-59,75=-5/1,2,3;
 4/9=2/1;
 5/5=2,7=120,8=3,13=1,38=5/2,8;
 6/7=2,8=2,9=2,10=2,28=1/1;
 7//1,2,3,16;
 1/6=100,18=20,19=15,26=4,33=1/3(2);
 2/9=110/2;
 99//99;
 2/9=110/2;
 3/5=1,6=6,7=1,8=11,11=2,25=1,30=1,71=1,74=-59,75=-5/1,2,3;
 4/5=5,9=2,16=3,69=1/1;
 5/5=2,7=120,8=3,13=1,38=5/2,8;
 7//1,2,3,16;
 1/6=100,18=20,19=15,26=4,33=1/3(-5);
 2/9=110/2;
 6/7=2,8=2,9=2,10=2,19=2,28=1/1;
 99/9=1/99;
 Leave Link    1 at Wed Oct  7 14:02:21 2020, MaxMem=  2684354560 cpu:               7.1 elap:               0.7
 (Enter /udrive/faculty/rpeverati/g16/g16/l101.exe)
 ONIOM data not found on unit 2.
 ------------------
 TS search on BH76.
 ------------------
 TstMul:  ICh=     0
 TstMul:  Mul=     1
 TstMul:  ICh=     0
 TstMul:  Mul=     1
 Symbolic Z-matrix:
 Charge =  0 Multiplicity = 1
 C                     0.        0.       -0.50037 
 N                     0.        0.        0.65264 
 H                     0.        0.       -1.56629 
 
 RdStrC is calling ZToCFu for IStruc=1 NZ=     3.
 PrtBox:  NBox=     1 Levels=  1 BoxLen=    8.00 SMaxX=        4.19
          Shift=            0.000000            0.000000            2.959860
 Box      1 Number                   0 centers from      1 to      3:
 After GenITR:
 ITRead=  0  0  0
 MicOpt= -1 -1 -1
 ITRead=  0  0  0
 MicOpt= -1 -1 -1
 NAtoms=      3 NQM=        3 NQMF=       0 NMMI=      0 NMMIF=      0
                NMic=       0 NMicF=      0.
                    Isotopes and Nuclear Properties:
 (Nuclear quadrupole moments (NQMom) in fm**2, nuclear magnetic moments (NMagM)
  in nuclear magnetons)

  Atom         1           2           3
 IAtWgt=          12          14           1
 AtmWgt=  12.0000000  14.0030740   1.0078250
 NucSpn=           0           2           1
 AtZEff=   0.0000000   0.0000000   0.0000000
 NQMom=    0.0000000   2.0440000   0.0000000
 NMagM=    0.0000000   0.4037610   2.7928460
 AtZNuc=   6.0000000   7.0000000   1.0000000
 No MM parameters found.
 Leave Link  101 at Wed Oct  7 14:02:22 2020, MaxMem=  2684354560 cpu:              14.1 elap:               1.4
 (Enter /udrive/faculty/rpeverati/g16/g16/l103.exe)

 GradGradGradGradGradGradGradGradGradGradGradGradGradGradGradGradGradGrad
 Berny optimization.
 Optmz: redundant internal coordinate code flag= 1
 Initialization pass.
                           ----------------------------
                           !    Initial Parameters    !
                           ! (Angstroms and Degrees)  !
 --------------------------                            --------------------------
 ! Name  Definition              Value          Derivative Info.                !
 --------------------------------------------------------------------------------
 ! R1    R(1,2)                  1.153          estimate D2E/DX2                !
 ! R2    R(1,3)                  1.0659         estimate D2E/DX2                !
 ! A1    L(2,1,3,-1,-1)        180.0            estimate D2E/DX2                !
 ! A2    L(2,1,3,-2,-2)        180.0            estimate D2E/DX2                !
 --------------------------------------------------------------------------------
 Maximum allowed force set to 1.00D+20.
 Trust Radius=3.00D-01 FncErr=1.00D-07 GrdErr=1.00D-06 EigMax=2.50D+02 EigMin=1.00D-04
 Number of steps in this run=    100 maximum allowed number of steps=    100.
 GradGradGradGradGradGradGradGradGradGradGradGradGradGradGradGradGradGrad

 Leave Link  103 at Wed Oct  7 14:02:23 2020, MaxMem=  2684354560 cpu:               1.3 elap:               0.5
 (Enter /udrive/faculty/rpeverati/g16/g16/l202.exe)
                          Input orientation:                          
 ---------------------------------------------------------------------
 Center     Atomic      Atomic             Coordinates (Angstroms)
 Number     Number       Type             X           Y           Z
 ---------------------------------------------------------------------
      1          6           0        0.000000    0.000000   -0.500365
      2          7           0        0.000000    0.000000    0.652640
      3          1           0        0.000000    0.000000   -1.566290
 ---------------------------------------------------------------------
                    Distance matrix (angstroms):
                    1          2          3
     1  C    0.000000
     2  N    1.153005   0.000000
     3  H    1.065925   2.218930   0.000000
 Stoichiometry    CHN
 Framework group  C*V[C*(HCN)]
 Deg. of freedom     2
 Full point group                 C*V     NOp   4
 Largest Abelian subgroup         C2V     NOp   4
 Largest concise Abelian subgroup C1      NOp   1
                         Standard orientation:                         
 ---------------------------------------------------------------------
 Center     Atomic      Atomic             Coordinates (Angstroms)
 Number     Number       Type             X           Y           Z
 ---------------------------------------------------------------------
      1          6           0        0.000000    0.000000   -0.500365
      2          7           0        0.000000    0.000000    0.652640
      3          1           0        0.000000    0.000000   -1.566290
 ---------------------------------------------------------------------
 Rotational constants (GHZ):           0.0000000          44.5203015          44.5203015
 Leave Link  202 at Wed Oct  7 14:02:24 2020, MaxMem=  2684354560 cpu:               1.6 elap:               0.5
 (Enter /udrive/faculty/rpeverati/g16/g16/l301.exe)
 Standard basis: 6-31G(d) (5D, 7F)
 Ernie: Thresh=  0.10000D-02 Tol=  0.10000D-05 Strict=F.
 There are    18 symmetry adapted cartesian basis functions of A1  symmetry.
 There are     2 symmetry adapted cartesian basis functions of A2  symmetry.
 There are     6 symmetry adapted cartesian basis functions of B1  symmetry.
 There are     6 symmetry adapted cartesian basis functions of B2  symmetry.
 There are    16 symmetry adapted basis functions of A1  symmetry.
 There are     2 symmetry adapted basis functions of A2  symmetry.
 There are     6 symmetry adapted basis functions of B1  symmetry.
 There are     6 symmetry adapted basis functions of B2  symmetry.
    30 basis functions,    60 primitive gaussians,    32 cartesian basis functions
     7 alpha electrons        7 beta electrons
       nuclear repulsion energy        23.9241820166 Hartrees.
 IExCor= 3630 DFT=T Ex+Corr=B97D3 ExCW=0 ScaHFX=  0.000000
 ScaDFX=  1.000000  1.000000  1.000000  1.000000 ScalE2=  1.000000  1.000000
 IRadAn=      5 IRanWt=     -1 IRanGd=            0 ICorTp=0 IEmpDi=141
 NAtoms=    3 NActive=    3 NUniq=    3 SFac= 1.00D+00 NAtFMM=   60 NAOKFM=F Big=F
 Integral buffers will be    131072 words long.
 Raffenetti 2 integral format.
 Two-electron integral symmetry is turned on.
 R6Disp:  Grimme-D3(BJ) Dispersion energy=       -0.0026760244 Hartrees.
 Nuclear repulsion after empirical dispersion term =       23.9215059922 Hartrees.
 Leave Link  301 at Wed Oct  7 14:02:25 2020, MaxMem=  2684354560 cpu:               2.1 elap:               0.6
 (Enter /udrive/faculty/rpeverati/g16/g16/l302.exe)
 NPDir=0 NMtPBC=     1 NCelOv=     1 NCel=       1 NClECP=     1 NCelD=      1
         NCelK=      1 NCelE2=     1 NClLst=     1 CellRange=     0.0.
 One-electron integrals computed using PRISM.
 One-electron integral symmetry used in STVInt
 NBasis=    30 RedAO= T EigKep=  4.30D-03  NBF=    16     2     6     6
 NBsUse=    30 1.00D-06 EigRej= -1.00D+00 NBFU=    16     2     6     6
 Precomputing XC quadrature grid using
 IXCGrd= 4 IRadAn=           5 IRanWt=          -1 IRanGd=           0 AccXCQ= 0.00D+00.
 Generated NRdTot=       0 NPtTot=           0 NUsed=           0 NTot=          32
 NSgBfM=    32    32    32    32    32 MxSgAt=     3 MxSgA2=     3.
 Leave Link  302 at Wed Oct  7 14:02:26 2020, MaxMem=  2684354560 cpu:               3.6 elap:               0.7
 (Enter /udrive/faculty/rpeverati/g16/g16/l303.exe)
 DipDrv:  MaxL=1.
 Leave Link  303 at Wed Oct  7 14:02:27 2020, MaxMem=  2684354560 cpu:               2.2 elap:               0.7
 (Enter /udrive/faculty/rpeverati/g16/g16/l401.exe)
 SCF N**3 symmetry information disabled.
 ExpMin= 1.61D-01 ExpMax= 4.17D+03 ExpMxC= 6.27D+02 IAcc=3 IRadAn=         5 AccDes= 0.00D+00
 Harris functional with IExCor= 3630 and IRadAn=       5 diagonalized for initial guess.
 HarFok:  IExCor= 3630 AccDes= 0.00D+00 IRadAn=         5 IDoV= 1 UseB2=F ITyADJ=14
 ICtDFT=  3500011 ScaDFX=  1.000000  1.000000  1.000000  1.000000
 FoFCou: FMM=F IPFlag=           0 FMFlag=      100000 FMFlg1=           0
         NFxFlg=           0 DoJE=T BraDBF=F KetDBF=T FulRan=T
         wScrn=  0.000000 ICntrl=       500 IOpCl=  0 I1Cent=   200000004 NGrid=           0
         NMat0=    1 NMatS0=      1 NMatT0=    0 NMatD0=    1 NMtDS0=    0 NMtDT0=    0
 Petite list used in FoFCou.
 Harris En= -93.3742722516167    
 JPrj=0 DoOrth=F DoCkMO=F.
 Initial guess orbital symmetries:
       Occupied  (SG) (SG) (SG) (SG) (SG) (PI) (PI)
       Virtual   (PI) (PI) (SG) (SG) (PI) (PI) (SG) (SG) (PI) (PI)
                 (SG) (SG) (SG) (DLTA) (DLTA) (PI) (PI) (DLTA)
                 (DLTA) (PI) (PI) (SG) (SG)
 The electronic state of the initial guess is 1-SG.
 Leave Link  401 at Wed Oct  7 14:02:28 2020, MaxMem=  2684354560 cpu:               4.3 elap:               0.8
 (Enter /udrive/faculty/rpeverati/g16/g16/l502.exe)
 Keep J ints in memory in symmetry-blocked form, NReq=10459988.
 FoFCou: FMM=F IPFlag=           0 FMFlag=           0 FMFlg1=           0
         NFxFlg=           0 DoJE=F BraDBF=F KetDBF=F FulRan=T
         wScrn=  0.000000 ICntrl=       600 IOpCl=  0 I1Cent=           0 NGrid=           0
         NMat0=    1 NMatS0=    465 NMatT0=    0 NMatD0=    1 NMtDS0=    0 NMtDT0=    0
 Petite list used in FoFCou.
 Closed shell SCF:
 Using DIIS extrapolation, IDIIS=  1040.
 NGot=  2684354560 LenX=  2684318858 LenY=  2684317393
 Requested convergence on RMS density matrix=1.00D-08 within 120 cycles.
 Requested convergence on MAX density matrix=1.00D-06.
 Requested convergence on             energy=1.00D-06.
 No special actions if energy rises.
 Integral accuracy reduced to 1.0D-05 until final iterations.

 Cycle   1  Pass 0  IDiag  1:
 E= -93.3190091441236    
 DIIS: error= 3.16D-02 at cycle   1 NSaved=   1.
 NSaved= 1 IEnMin= 1 EnMin= -93.3190091441236     IErMin= 1 ErrMin= 3.16D-02
 ErrMax= 3.16D-02  0.00D+00 EMaxC= 1.00D-01 BMatC= 3.62D-02 BMatP= 3.62D-02
 IDIUse=3 WtCom= 6.84D-01 WtEn= 3.16D-01
 Coeff-Com:  0.100D+01
 Coeff-En:   0.100D+01
 Coeff:      0.100D+01
 Gap=     0.277 Goal=   None    Shift=    0.000
 GapD=    0.277 DampG=1.000 DampE=0.500 DampFc=0.5000 IDamp=-1.
 Damping current iteration by 5.00D-01
 RMSDP=1.73D-02 MaxDP=1.38D-01              OVMax= 2.41D-01

 Cycle   2  Pass 0  IDiag  1:
 E= -93.3016066527649     Delta-E=        0.017402491359 Rises=F Damp=T
 DIIS: error= 3.95D-02 at cycle   2 NSaved=   2.
 NSaved= 2 IEnMin= 1 EnMin= -93.3190091441236     IErMin= 1 ErrMin= 3.16D-02
 ErrMax= 3.95D-02  0.00D+00 EMaxC= 1.00D-01 BMatC= 2.83D-02 BMatP= 3.62D-02
 IDIUse=3 WtCom= 6.05D-01 WtEn= 3.95D-01
 Coeff-Com:  0.463D+00 0.537D+00
 Coeff-En:   0.612D+00 0.388D+00
 Coeff:      0.522D+00 0.478D+00
 Gap=     0.371 Goal=   None    Shift=    0.000
 RMSDP=4.46D-03 MaxDP=4.52D-02 DE= 1.74D-02 OVMax= 1.85D-01

 Cycle   3  Pass 0  IDiag  1:
 E= -93.3538206234138     Delta-E=       -0.052213970649 Rises=F Damp=F
 DIIS: error= 1.12D-02 at cycle   3 NSaved=   3.
 NSaved= 3 IEnMin= 3 EnMin= -93.3538206234138     IErMin= 3 ErrMin= 1.12D-02
 ErrMax= 1.12D-02  0.00D+00 EMaxC= 1.00D-01 BMatC= 4.26D-03 BMatP= 2.83D-02
 IDIUse=3 WtCom= 8.88D-01 WtEn= 1.12D-01
 Coeff-Com:  0.224D+00 0.246D+00 0.530D+00
 Coeff-En:   0.000D+00 0.000D+00 0.100D+01
 Coeff:      0.199D+00 0.219D+00 0.582D+00
 Gap=     0.308 Goal=   None    Shift=    0.000
 RMSDP=2.39D-03 MaxDP=1.86D-02 DE=-5.22D-02 OVMax= 2.63D-02

 Cycle   4  Pass 0  IDiag  1:
 E= -93.3582633654154     Delta-E=       -0.004442742002 Rises=F Damp=F
 DIIS: error= 3.38D-03 at cycle   4 NSaved=   4.
 NSaved= 4 IEnMin= 4 EnMin= -93.3582633654154     IErMin= 4 ErrMin= 3.38D-03
 ErrMax= 3.38D-03  0.00D+00 EMaxC= 1.00D-01 BMatC= 2.54D-04 BMatP= 4.26D-03
 IDIUse=3 WtCom= 9.66D-01 WtEn= 3.38D-02
 Coeff-Com:  0.281D-01-0.189D-01 0.175D+00 0.816D+00
 Coeff-En:   0.000D+00 0.000D+00 0.000D+00 0.100D+01
 Coeff:      0.272D-01-0.183D-01 0.169D+00 0.822D+00
 Gap=     0.307 Goal=   None    Shift=    0.000
 RMSDP=3.86D-04 MaxDP=3.90D-03 DE=-4.44D-03 OVMax= 5.61D-03

 Cycle   5  Pass 0  IDiag  1:
 E= -93.3585122361870     Delta-E=       -0.000248870772 Rises=F Damp=F
 DIIS: error= 1.60D-04 at cycle   5 NSaved=   5.
 NSaved= 5 IEnMin= 5 EnMin= -93.3585122361870     IErMin= 5 ErrMin= 1.60D-04
 ErrMax= 1.60D-04  0.00D+00 EMaxC= 1.00D-01 BMatC= 9.78D-07 BMatP= 2.54D-04
 IDIUse=3 WtCom= 9.98D-01 WtEn= 1.60D-03
 Coeff-Com:  0.620D-02-0.432D-02 0.406D-01 0.226D+00 0.731D+00
 Coeff-En:   0.000D+00 0.000D+00 0.000D+00 0.000D+00 0.100D+01
 Coeff:      0.619D-02-0.432D-02 0.405D-01 0.226D+00 0.732D+00
 Gap=     0.307 Goal=   None    Shift=    0.000
 RMSDP=2.67D-05 MaxDP=2.13D-04 DE=-2.49D-04 OVMax= 3.29D-04

 Cycle   6  Pass 0  IDiag  1:
 E= -93.3585131015034     Delta-E=       -0.000000865316 Rises=F Damp=F
 DIIS: error= 6.45D-06 at cycle   6 NSaved=   6.
 NSaved= 6 IEnMin= 6 EnMin= -93.3585131015034     IErMin= 6 ErrMin= 6.45D-06
 ErrMax= 6.45D-06  0.00D+00 EMaxC= 1.00D-01 BMatC= 1.04D-09 BMatP= 9.78D-07
 IDIUse=1 WtCom= 1.00D+00 WtEn= 0.00D+00
 Coeff-Com:  0.765D-04-0.126D-03 0.402D-04 0.372D-02 0.295D-01 0.967D+00
 Coeff:      0.765D-04-0.126D-03 0.402D-04 0.372D-02 0.295D-01 0.967D+00
 Gap=     0.307 Goal=   None    Shift=    0.000
 RMSDP=1.47D-06 MaxDP=9.64D-06 DE=-8.65D-07 OVMax= 1.07D-05

 Initial convergence to 1.0D-05 achieved.  Increase integral accuracy.
 Cycle   7  Pass 1  IDiag  1:
 E= -93.3585159626315     Delta-E=       -0.000002861128 Rises=F Damp=F
 DIIS: error= 1.96D-06 at cycle   1 NSaved=   1.
 NSaved= 1 IEnMin= 1 EnMin= -93.3585159626315     IErMin= 1 ErrMin= 1.96D-06
 ErrMax= 1.96D-06  0.00D+00 EMaxC= 1.00D-01 BMatC= 1.44D-10 BMatP= 1.44D-10
 IDIUse=1 WtCom= 1.00D+00 WtEn= 0.00D+00
 Coeff-Com:  0.100D+01
 Coeff:      0.100D+01
 Gap=     0.307 Goal=   None    Shift=    0.000
 RMSDP=1.47D-06 MaxDP=9.64D-06 DE=-2.86D-06 OVMax= 3.44D-06

 Cycle   8  Pass 1  IDiag  1:
 E= -93.3585159627113     Delta-E=       -0.000000000080 Rises=F Damp=F
 DIIS: error= 1.00D-06 at cycle   2 NSaved=   2.
 NSaved= 2 IEnMin= 2 EnMin= -93.3585159627113     IErMin= 2 ErrMin= 1.00D-06
 ErrMax= 1.00D-06  0.00D+00 EMaxC= 1.00D-01 BMatC= 2.15D-11 BMatP= 1.44D-10
 IDIUse=1 WtCom= 1.00D+00 WtEn= 0.00D+00
 Coeff-Com:  0.174D+00 0.826D+00
 Coeff:      0.174D+00 0.826D+00
 Gap=     0.307 Goal=   None    Shift=    0.000
 RMSDP=3.14D-07 MaxDP=3.28D-06 DE=-7.98D-11 OVMax= 5.82D-06

 Cycle   9  Pass 1  IDiag  1:
 E= -93.3585159626086     Delta-E=        0.000000000103 Rises=F Damp=F
 DIIS: error= 2.79D-06 at cycle   3 NSaved=   3.
 NSaved= 3 IEnMin= 2 EnMin= -93.3585159627113     IErMin= 2 ErrMin= 1.00D-06
 ErrMax= 2.79D-06  0.00D+00 EMaxC= 1.00D-01 BMatC= 1.34D-10 BMatP= 2.15D-11
 IDIUse=1 WtCom= 1.00D+00 WtEn= 0.00D+00
 Coeff-Com:  0.305D-01 0.700D+00 0.270D+00
 Coeff:      0.305D-01 0.700D+00 0.270D+00
 Gap=     0.307 Goal=   None    Shift=    0.000
 RMSDP=2.43D-07 MaxDP=2.42D-06 DE= 1.03D-10 OVMax= 4.39D-06

 Cycle  10  Pass 1  IDiag  1:
 E= -93.3585159627308     Delta-E=       -0.000000000122 Rises=F Damp=F
 DIIS: error= 1.09D-07 at cycle   4 NSaved=   4.
 NSaved= 4 IEnMin= 4 EnMin= -93.3585159627308     IErMin= 4 ErrMin= 1.09D-07
 ErrMax= 1.09D-07  0.00D+00 EMaxC= 1.00D-01 BMatC= 2.38D-13 BMatP= 2.15D-11
 IDIUse=1 WtCom= 1.00D+00 WtEn= 0.00D+00
 Coeff-Com: -0.176D-03 0.156D+00 0.844D-01 0.760D+00
 Coeff:     -0.176D-03 0.156D+00 0.844D-01 0.760D+00
 Gap=     0.307 Goal=   None    Shift=    0.000
 RMSDP=1.97D-08 MaxDP=1.25D-07 DE=-1.22D-10 OVMax= 1.93D-07

 Cycle  11  Pass 1  IDiag  1:
 E= -93.3585159627311     Delta-E=       -0.000000000000 Rises=F Damp=F
 DIIS: error= 1.57D-08 at cycle   5 NSaved=   5.
 NSaved= 5 IEnMin= 5 EnMin= -93.3585159627311     IErMin= 5 ErrMin= 1.57D-08
 ErrMax= 1.57D-08  0.00D+00 EMaxC= 1.00D-01 BMatC= 9.68D-15 BMatP= 2.38D-13
 IDIUse=1 WtCom= 1.00D+00 WtEn= 0.00D+00
 Coeff-Com: -0.554D-03 0.575D-01 0.292D-01 0.315D+00 0.599D+00
 Coeff:     -0.554D-03 0.575D-01 0.292D-01 0.315D+00 0.599D+00
 Gap=     0.307 Goal=   None    Shift=    0.000
 RMSDP=3.15D-09 MaxDP=1.75D-08 DE=-3.41D-13 OVMax= 3.11D-08

 SCF Done:  E(RB97D3) =  -93.3585159627     A.U. after   11 cycles
            NFock= 11  Conv=0.31D-08     -V/T= 2.0055
 KE= 9.284507053301D+01 PE=-2.657842809709D+02 EE= 5.565918848299D+01
 Leave Link  502 at Wed Oct  7 14:02:30 2020, MaxMem=  2684354560 cpu:              10.8 elap:               1.4
 (Enter /udrive/faculty/rpeverati/g16/g16/l508.exe)
 QCSCF skips out because SCF is already converged.
 Leave Link  508 at Wed Oct  7 14:02:30 2020, MaxMem=  2684354560 cpu:               0.6 elap:               0.4
 (Enter /udrive/faculty/rpeverati/g16/g16/l601.exe)
 Copying SCF densities to generalized density rwf, IOpCl= 0 IROHF=0.

 **********************************************************************

            Population analysis using the SCF density.

 **********************************************************************

 Orbital symmetries:
       Occupied  (SG) (SG) (SG) (SG) (SG) (PI) (PI)
       Virtual   (PI) (PI) (SG) (SG) (PI) (PI) (SG) (SG) (PI) (PI)
                 (SG) (SG) (SG) (DLTA) (DLTA) (PI) (PI) (DLTA)
                 (DLTA) (PI) (PI) (SG) (SG)
 The electronic state is 1-SG.
 Alpha  occ. eigenvalues --  -14.02962  -9.96012  -0.84072  -0.55276  -0.32354
 Alpha  occ. eigenvalues --   -0.31727  -0.31727
 Alpha virt. eigenvalues --   -0.01044  -0.01044   0.06180   0.25839   0.49191
 Alpha virt. eigenvalues --    0.49191   0.61242   0.65802   0.73351   0.73351
 Alpha virt. eigenvalues --    0.78379   1.03996   1.43177   1.43808   1.43808
 Alpha virt. eigenvalues --    1.45817   1.45817   1.87397   1.87397   2.47204
 Alpha virt. eigenvalues --    2.47204   2.55875   2.91248
          Condensed to atoms (all electrons):
               1          2          3
     1  C    4.747069   0.894538   0.332390
     2  N    0.894538   6.409629  -0.035330
     3  H    0.332390  -0.035330   0.460106
 Mulliken charges:
               1
     1  C    0.026003
     2  N   -0.268836
     3  H    0.242834
 Sum of Mulliken charges =   0.00000
 Mulliken charges with hydrogens summed into heavy atoms:
               1
     1  C    0.268836
     2  N   -0.268836
 Electronic spatial extent (au):  <R**2>=             48.6690
 Charge=              0.0000 electrons
 Dipole moment (field-independent basis, Debye):
    X=              0.0000    Y=             -0.0000    Z=             -2.8278  Tot=              2.8278
 Quadrupole moment (field-independent basis, Debye-Ang):
   XX=            -11.3034   YY=            -11.3034   ZZ=             -9.5348
   XY=             -0.0000   XZ=              0.0000   YZ=             -0.0000
 Traceless Quadrupole moment (field-independent basis, Debye-Ang):
   XX=             -0.5895   YY=             -0.5895   ZZ=              1.1791
   XY=             -0.0000   XZ=              0.0000   YZ=             -0.0000
 Octapole moment (field-independent basis, Debye-Ang**2):
  XXX=              0.0000  YYY=             -0.0000  ZZZ=             -6.6158  XYY=              0.0000
  XXY=              0.0000  XXZ=             -0.1148  XZZ=              0.0000  YZZ=             -0.0000
  YYZ=             -0.1148  XYZ=              0.0000
 Hexadecapole moment (field-independent basis, Debye-Ang**3):
 XXXX=            -10.1282 YYYY=            -10.1282 ZZZZ=            -34.7125 XXXY=             -0.0000
 XXXZ=              0.0000 YYYX=             -0.0000 YYYZ=              0.0000 ZZZX=              0.0000
 ZZZY=             -0.0000 XXYY=             -3.3761 XXZZ=             -8.5046 YYZZ=             -8.5046
 XXYZ=             -0.0000 YYXZ=              0.0000 ZZXY=             -0.0000
 N-N= 2.392150599221D+01 E-N=-2.657842816979D+02  KE= 9.284507053301D+01
 No NMR shielding tensors so no spin-rotation constants.
 Leave Link  601 at Wed Oct  7 14:02:31 2020, MaxMem=  2684354560 cpu:               3.3 elap:               0.7
 (Enter /udrive/faculty/rpeverati/g16/g16/l701.exe)
 ... and contract with generalized density number  0.
 Compute integral first derivatives.
 R6Disp: Adding Grimme-D3(BJ) dispersion energy 1st derivatives to the gradient.
 Leave Link  701 at Wed Oct  7 14:02:32 2020, MaxMem=  2684354560 cpu:               3.8 elap:               0.7
 (Enter /udrive/faculty/rpeverati/g16/g16/l702.exe)
 L702 exits ... SP integral derivatives will be done elsewhere.
 Leave Link  702 at Wed Oct  7 14:02:33 2020, MaxMem=  2684354560 cpu:               1.5 elap:               0.6
 (Enter /udrive/faculty/rpeverati/g16/g16/l703.exe)
 Integral derivatives from FoFJK, PRISM(SPDF).
 Compute integral first derivatives, UseDBF=F ICtDFT=           0.
 Calling FoFJK, ICntrl=      2527 FMM=F ISym2X=1 I1Cent= 0 IOpClX= 0 NMat=1 NMatS=1 NMatT=0.
 FoFJK:  IHMeth= 1 ICntrl=    2527 DoSepK=F KAlg= 0 I1Cent=           0 FoldK=F
 IRaf=         0 NMat=       1 IRICut=       1 DoRegI=T DoRafI=F ISym2E= 1 IDoP0=0 IntGTp=1.
 FoFCou: FMM=F IPFlag=           0 FMFlag=      100000 FMFlg1=         800
         NFxFlg=           0 DoJE=F BraDBF=F KetDBF=F FulRan=T
         wScrn=  0.000000 ICntrl=      2527 IOpCl=  0 I1Cent=           0 NGrid=           0
         NMat0=    1 NMatS0=      1 NMatT0=    0 NMatD0=    1 NMtDS0=    0 NMtDT0=    0
 Petite list used in FoFCou.
 Leave Link  703 at Wed Oct  7 14:02:34 2020, MaxMem=  2684354560 cpu:               4.7 elap:               0.8
 (Enter /udrive/faculty/rpeverati/g16/g16/l716.exe)
 Dipole        = 0.00000000D+00-5.46575281D-32-1.11254032D+00
 ***** Axes restored to original set *****
 -------------------------------------------------------------------
 Center     Atomic                   Forces (Hartrees/Bohr)
 Number     Number              X              Y              Z
 -------------------------------------------------------------------
      1        6          -0.000000000   -0.000000000   -0.025097906
      2        7           0.000000000    0.000000000    0.031752910
      3        1           0.000000000    0.000000000   -0.006655003
 -------------------------------------------------------------------
 Cartesian Forces:  Max     0.031752910 RMS     0.013672524
 Leave Link  716 at Wed Oct  7 14:02:35 2020, MaxMem=  2684354560 cpu:               1.8 elap:               0.5
 (Enter /udrive/faculty/rpeverati/g16/g16/l103.exe)

 GradGradGradGradGradGradGradGradGradGradGradGradGradGradGradGradGradGrad
 Berny optimization.
 Optmz: redundant internal coordinate code flag= 1
 FormGI is forming the generalized inverse of G from B-inverse, IUseBI=4.
 Internal  Forces:  Max     0.031752910 RMS     0.016221408
 Search for a local minimum.
 Step number   1 out of a maximum of  100
 All quantities printed in internal units (Hartrees-Bohrs-Radians)
 RMS Force = .16221D-01 SwitMx=.10000D-02 MixMth= 1
 Mixed Optimization -- RFO/linear search
 Second derivative matrix not updated -- first step.
 The second derivative matrix:
                          R1        R2        A1        A2
           R1           1.32483
           R2           0.00000   0.37750
           A1           0.00000   0.00000   0.00553
           A2           0.00000   0.00000   0.00000   0.00553
 ITU=  0
 Eigenvectors of the second derivative matrix:
                           1         2         3         4
     Eigenvalues --     0.00553   0.00553   0.37750   1.32483
   1         R1         0.00000   0.00000   0.00000  -1.00000
   2         R2         0.00000   0.00000   1.00000  -0.00000
   3         A1         0.00000  -1.00000   0.00000   0.00000
   4         A2         1.00000   0.00000  -0.00000  -0.00000
 Iter=   1 RLamda= 0.00000000D+00 Sum=-8.78361175D-04.
 Iter=   2 RLamda=-8.78361175D-04 Sum=-8.77584590D-04.
 Iter=   3 RLamda=-8.77584590D-04 Sum=-8.77585276D-04.
 RFO step:  Lambda=-8.77584590D-04 EMin= 5.53291456D-03
 Linear search not attempted -- first point.
 Iteration  1 RMS(Cart)=  0.01474393 RMS(Int)=  0.00000000
 Iteration  2 RMS(Cart)=  0.00000000 RMS(Int)=  0.00000000
 ITry= 1 IFail=0 DXMaxC= 2.18D-02 DCOld= 1.00D+10 DXMaxT= 3.00D-01 DXLimC= 3.00D+00 Rises=F
 ClnCor:  largest displacement from symmetrization is 1.31D-14 for atom     1.
 Variable       Old X    -DE/DX   Delta X   Delta X   Delta X     New X
                                 (Linear)    (Quad)   (Total)
    R1        2.17886   0.03175   0.00000   0.02395   0.02395   2.20281
    R2        2.01431   0.00666   0.00000   0.01759   0.01759   2.03190
    A1        3.14159  -0.00000   0.00000  -0.00000   0.00000   3.14159
    A2        3.14159   0.00000   0.00000   0.00000   0.00000   3.14159
         Item               Value     Threshold  Converged?
 Maximum Force            0.031753     0.000450     NO 
 RMS     Force            0.016221     0.000300     NO 
 Maximum Displacement     0.021831     0.001800     NO 
 RMS     Displacement     0.014744     0.001200     NO 
 Predicted change in Energy=-4.391801D-04
 Lowest energy point so far.  Saving SCF results.
 Largest change from initial coordinates is atom    2       0.010 Angstoms.
 GradGradGradGradGradGradGradGradGradGradGradGradGradGradGradGradGradGrad

 Leave Link  103 at Wed Oct  7 14:02:36 2020, MaxMem=  2684354560 cpu:               2.2 elap:               0.5
 (Enter /udrive/faculty/rpeverati/g16/g16/l202.exe)
                          Input orientation:                          
 ---------------------------------------------------------------------
 Center     Atomic      Atomic             Coordinates (Angstroms)
 Number     Number       Type             X           Y           Z
 ---------------------------------------------------------------------
      1          6           0        0.000000    0.000000   -0.501488
      2          7           0        0.000000    0.000000    0.664192
      3          1           0        0.000000    0.000000   -1.576720
 ---------------------------------------------------------------------
                    Distance matrix (angstroms):
                    1          2          3
     1  C    0.000000
     2  N    1.165679   0.000000
     3  H    1.075233   2.240912   0.000000
 Stoichiometry    CHN
 Framework group  C*V[C*(HCN)]
 Deg. of freedom     2
 Full point group                 C*V     NOp   4
 RotChk:  IX=0 Diff= 0.00D+00
 Largest Abelian subgroup         C2V     NOp   4
 Largest concise Abelian subgroup C1      NOp   1
                         Standard orientation:                         
 ---------------------------------------------------------------------
 Center     Atomic      Atomic             Coordinates (Angstroms)
 Number     Number       Type             X           Y           Z
 ---------------------------------------------------------------------
      1          6           0        0.000000    0.000000   -0.506037
      2          7           0        0.000000    0.000000    0.659642
      3          1           0        0.000000    0.000000   -1.581270
 ---------------------------------------------------------------------
 Rotational constants (GHZ):           0.0000000          43.5873481          43.5873481
 Leave Link  202 at Wed Oct  7 14:02:37 2020, MaxMem=  2684354560 cpu:               1.4 elap:               0.4
 (Enter /udrive/faculty/rpeverati/g16/g16/l301.exe)
 Standard basis: 6-31G(d) (5D, 7F)
 Ernie: Thresh=  0.10000D-02 Tol=  0.10000D-05 Strict=F.
 There are    18 symmetry adapted cartesian basis functions of A1  symmetry.
 There are     2 symmetry adapted cartesian basis functions of A2  symmetry.
 There are     6 symmetry adapted cartesian basis functions of B1  symmetry.
 There are     6 symmetry adapted cartesian basis functions of B2  symmetry.
 There are    16 symmetry adapted basis functions of A1  symmetry.
 There are     2 symmetry adapted basis functions of A2  symmetry.
 There are     6 symmetry adapted basis functions of B1  symmetry.
 There are     6 symmetry adapted basis functions of B2  symmetry.
    30 basis functions,    60 primitive gaussians,    32 cartesian basis functions
     7 alpha electrons        7 beta electrons
       nuclear repulsion energy        23.6724293411 Hartrees.
 IExCor= 3630 DFT=T Ex+Corr=B97D3 ExCW=0 ScaHFX=  0.000000
 ScaDFX=  1.000000  1.000000  1.000000  1.000000 ScalE2=  1.000000  1.000000
 IRadAn=      5 IRanWt=     -1 IRanGd=            0 ICorTp=0 IEmpDi=141
 NAtoms=    3 NActive=    3 NUniq=    3 SFac= 1.00D+00 NAtFMM=   60 NAOKFM=F Big=F
 Integral buffers will be    131072 words long.
 Raffenetti 2 integral format.
 Two-electron integral symmetry is turned on.
 R6Disp:  Grimme-D3(BJ) Dispersion energy=       -0.0026705331 Hartrees.
 Nuclear repulsion after empirical dispersion term =       23.6697588080 Hartrees.
 Leave Link  301 at Wed Oct  7 14:02:37 2020, MaxMem=  2684354560 cpu:               1.8 elap:               0.5
 (Enter /udrive/faculty/rpeverati/g16/g16/l302.exe)
 NPDir=0 NMtPBC=     1 NCelOv=     1 NCel=       1 NClECP=     1 NCelD=      1
         NCelK=      1 NCelE2=     1 NClLst=     1 CellRange=     0.0.
 One-electron integrals computed using PRISM.
 One-electron integral symmetry used in STVInt
 NBasis=    30 RedAO= T EigKep=  4.48D-03  NBF=    16     2     6     6
 NBsUse=    30 1.00D-06 EigRej= -1.00D+00 NBFU=    16     2     6     6
 Precomputing XC quadrature grid using
 IXCGrd= 4 IRadAn=           5 IRanWt=          -1 IRanGd=           0 AccXCQ= 0.00D+00.
 Generated NRdTot=       0 NPtTot=           0 NUsed=           0 NTot=          32
 NSgBfM=    32    32    32    32    32 MxSgAt=     3 MxSgA2=     3.
 Leave Link  302 at Wed Oct  7 14:02:38 2020, MaxMem=  2684354560 cpu:               3.2 elap:               0.6
 (Enter /udrive/faculty/rpeverati/g16/g16/l303.exe)
 DipDrv:  MaxL=1.
 Leave Link  303 at Wed Oct  7 14:02:39 2020, MaxMem=  2684354560 cpu:               1.7 elap:               0.5
 (Enter /udrive/faculty/rpeverati/g16/g16/l401.exe)
 Initial guess from the checkpoint file:  "MN_48_hcn_BH76_B97DBJ_631Gs.chk"
 SCF N**3 symmetry information disabled.
 B after Tr=     0.000000    0.000000   -0.000000
         Rot=    1.000000    0.000000    0.000000    0.000000 Ang=   0.00 deg.
 Guess basis will be translated and rotated to current coordinates.
 JPrj=2 DoOrth=T DoCkMO=T.
 Initial guess orbital symmetries:
       Occupied  (SG) (SG) (SG) (SG) (SG) (PI) (PI)
       Virtual   (PI) (PI) (SG) (SG) (PI) (PI) (SG) (SG) (PI) (PI)
                 (SG) (SG) (SG) (DLTA) (DLTA) (PI) (PI) (DLTA)
                 (DLTA) (PI) (PI) (SG) (SG)
 The electronic state of the initial guess is 1-SG.
 Generating alternative initial guess.
 ExpMin= 1.61D-01 ExpMax= 4.17D+03 ExpMxC= 6.27D+02 IAcc=2 IRadAn=         4 AccDes= 0.00D+00
 Harris functional with IExCor= 3630 and IRadAn=       4 diagonalized for initial guess.
 HarFok:  IExCor= 3630 AccDes= 0.00D+00 IRadAn=         4 IDoV= 1 UseB2=F ITyADJ=14
 ICtDFT=  3500011 ScaDFX=  1.000000  1.000000  1.000000  1.000000
 FoFCou: FMM=F IPFlag=           0 FMFlag=      100000 FMFlg1=           0
         NFxFlg=           0 DoJE=T BraDBF=F KetDBF=T FulRan=T
         wScrn=  0.000000 ICntrl=       500 IOpCl=  0 I1Cent=   200000004 NGrid=           0
         NMat0=    1 NMatS0=      1 NMatT0=    0 NMatD0=    1 NMtDS0=    0 NMtDT0=    0
 Petite list used in FoFCou.
 Harris En= -93.3712507722018    
 Leave Link  401 at Wed Oct  7 14:02:40 2020, MaxMem=  2684354560 cpu:               5.0 elap:               0.7
 (Enter /udrive/faculty/rpeverati/g16/g16/l502.exe)
 Keep J ints in memory in symmetry-blocked form, NReq=10459988.
 FoFCou: FMM=F IPFlag=           0 FMFlag=           0 FMFlg1=           0
         NFxFlg=           0 DoJE=F BraDBF=F KetDBF=F FulRan=T
         wScrn=  0.000000 ICntrl=       600 IOpCl=  0 I1Cent=           0 NGrid=           0
         NMat0=    1 NMatS0=    465 NMatT0=    0 NMatD0=    1 NMtDS0=    0 NMtDT0=    0
 Petite list used in FoFCou.
 Closed shell SCF:
 Using DIIS extrapolation, IDIIS=  1040.
 NGot=  2684354560 LenX=  2684318858 LenY=  2684317393
 Requested convergence on RMS density matrix=1.00D-08 within 120 cycles.
 Requested convergence on MAX density matrix=1.00D-06.
 Requested convergence on             energy=1.00D-06.
 No special actions if energy rises.
 Integral accuracy reduced to 1.0D-05 until final iterations.

 Cycle   1  Pass 0  IDiag  1:
 E= -93.3588590132894    
 DIIS: error= 1.50D-03 at cycle   1 NSaved=   1.
 NSaved= 1 IEnMin= 1 EnMin= -93.3588590132894     IErMin= 1 ErrMin= 1.50D-03
 ErrMax= 1.50D-03  0.00D+00 EMaxC= 1.00D-01 BMatC= 8.50D-05 BMatP= 8.50D-05
 IDIUse=3 WtCom= 9.85D-01 WtEn= 1.50D-02
 Coeff-Com:  0.100D+01
 Coeff-En:   0.100D+01
 Coeff:      0.100D+01
 Gap=     0.300 Goal=   None    Shift=    0.000
 GapD=    0.300 DampG=1.000 DampE=1.000 DampFc=1.0000 IDamp=-1.
 RMSDP=6.16D-04 MaxDP=5.65D-03              OVMax= 5.52D-03

 Cycle   2  Pass 0  IDiag  1:
 E= -93.3589280344174     Delta-E=       -0.000069021128 Rises=F Damp=F
 DIIS: error= 1.04D-03 at cycle   2 NSaved=   2.
 NSaved= 2 IEnMin= 2 EnMin= -93.3589280344174     IErMin= 2 ErrMin= 1.04D-03
 ErrMax= 1.04D-03  0.00D+00 EMaxC= 1.00D-01 BMatC= 3.46D-05 BMatP= 8.50D-05
 IDIUse=3 WtCom= 9.90D-01 WtEn= 1.04D-02
 Coeff-Com:  0.370D+00 0.630D+00
 Coeff-En:   0.594D-01 0.941D+00
 Coeff:      0.366D+00 0.634D+00
 Gap=     0.300 Goal=   None    Shift=    0.000
 RMSDP=2.52D-04 MaxDP=1.91D-03 DE=-6.90D-05 OVMax= 2.71D-03

 Cycle   3  Pass 0  IDiag  1:
 E= -93.3589495691044     Delta-E=       -0.000021534687 Rises=F Damp=F
 DIIS: error= 9.07D-04 at cycle   3 NSaved=   3.
 NSaved= 3 IEnMin= 3 EnMin= -93.3589495691044     IErMin= 3 ErrMin= 9.07D-04
 ErrMax= 9.07D-04  0.00D+00 EMaxC= 1.00D-01 BMatC= 1.58D-05 BMatP= 3.46D-05
 IDIUse=3 WtCom= 9.91D-01 WtEn= 9.07D-03
 Coeff-Com:  0.163D+00 0.412D+00 0.425D+00
 Coeff-En:   0.000D+00 0.267D+00 0.733D+00
 Coeff:      0.161D+00 0.411D+00 0.428D+00
 Gap=     0.300 Goal=   None    Shift=    0.000
 RMSDP=1.45D-04 MaxDP=1.44D-03 DE=-2.15D-05 OVMax= 2.58D-03

 Cycle   4  Pass 0  IDiag  1:
 E= -93.3589547166870     Delta-E=       -0.000005147583 Rises=F Damp=F
 DIIS: error= 7.81D-04 at cycle   4 NSaved=   4.
 NSaved= 4 IEnMin= 4 EnMin= -93.3589547166870     IErMin= 4 ErrMin= 7.81D-04
 ErrMax= 7.81D-04  0.00D+00 EMaxC= 1.00D-01 BMatC= 1.04D-05 BMatP= 1.58D-05
 IDIUse=3 WtCom= 9.92D-01 WtEn= 7.81D-03
 Coeff-Com:  0.180D-01 0.148D+00 0.420D+00 0.414D+00
 Coeff-En:   0.000D+00 0.000D+00 0.427D+00 0.573D+00
 Coeff:      0.179D-01 0.147D+00 0.421D+00 0.415D+00
 Gap=     0.300 Goal=   None    Shift=    0.000
 RMSDP=6.44D-05 MaxDP=6.64D-04 DE=-5.15D-06 OVMax= 1.17D-03

 Cycle   5  Pass 0  IDiag  1:
 E= -93.3589644206860     Delta-E=       -0.000009703999 Rises=F Damp=F
 DIIS: error= 2.15D-05 at cycle   5 NSaved=   5.
 NSaved= 5 IEnMin= 5 EnMin= -93.3589644206860     IErMin= 5 ErrMin= 2.15D-05
 ErrMax= 2.15D-05  0.00D+00 EMaxC= 1.00D-01 BMatC= 8.47D-09 BMatP= 1.04D-05
 IDIUse=1 WtCom= 1.00D+00 WtEn= 0.00D+00
 Coeff-Com:  0.454D-03 0.219D-01 0.941D-01 0.935D-01 0.790D+00
 Coeff:      0.454D-03 0.219D-01 0.941D-01 0.935D-01 0.790D+00
 Gap=     0.300 Goal=   None    Shift=    0.000
 RMSDP=4.68D-06 MaxDP=4.20D-05 DE=-9.70D-06 OVMax= 6.17D-05

 Initial convergence to 1.0D-05 achieved.  Increase integral accuracy.
 Cycle   6  Pass 1  IDiag  1:
 E= -93.3589672499788     Delta-E=       -0.000002829293 Rises=F Damp=F
 DIIS: error= 5.33D-06 at cycle   1 NSaved=   1.
 NSaved= 1 IEnMin= 1 EnMin= -93.3589672499788     IErMin= 1 ErrMin= 5.33D-06
 ErrMax= 5.33D-06  0.00D+00 EMaxC= 1.00D-01 BMatC= 4.95D-10 BMatP= 4.95D-10
 IDIUse=1 WtCom= 1.00D+00 WtEn= 0.00D+00
 Coeff-Com:  0.100D+01
 Coeff:      0.100D+01
 Gap=     0.300 Goal=   None    Shift=    0.000
 RMSDP=4.68D-06 MaxDP=4.20D-05 DE=-2.83D-06 OVMax= 3.58D-05

 Cycle   7  Pass 1  IDiag  1:
 E= -93.3589672453756     Delta-E=        0.000000004603 Rises=F Damp=F
 DIIS: error= 1.81D-05 at cycle   2 NSaved=   2.
 NSaved= 2 IEnMin= 1 EnMin= -93.3589672499788     IErMin= 1 ErrMin= 5.33D-06
 ErrMax= 1.81D-05  0.00D+00 EMaxC= 1.00D-01 BMatC= 5.48D-09 BMatP= 4.95D-10
 IDIUse=1 WtCom= 1.00D+00 WtEn= 0.00D+00
 Coeff-Com:  0.779D+00 0.221D+00
 Coeff:      0.779D+00 0.221D+00
 Gap=     0.300 Goal=   None    Shift=    0.000
 RMSDP=1.51D-06 MaxDP=1.51D-05 DE= 4.60D-09 OVMax= 2.75D-05

 Cycle   8  Pass 1  IDiag  1:
 E= -93.3589672504877     Delta-E=       -0.000000005112 Rises=F Damp=F
 DIIS: error= 4.05D-07 at cycle   3 NSaved=   3.
 NSaved= 3 IEnMin= 3 EnMin= -93.3589672504877     IErMin= 3 ErrMin= 4.05D-07
 ErrMax= 4.05D-07  0.00D+00 EMaxC= 1.00D-01 BMatC= 3.57D-12 BMatP= 4.95D-10
 IDIUse=1 WtCom= 1.00D+00 WtEn= 0.00D+00
 Coeff-Com:  0.121D+00 0.371D-01 0.842D+00
 Coeff:      0.121D+00 0.371D-01 0.842D+00
 Gap=     0.300 Goal=   None    Shift=    0.000
 RMSDP=1.11D-07 MaxDP=9.76D-07 DE=-5.11D-09 OVMax= 1.38D-06

 Cycle   9  Pass 1  IDiag  1:
 E= -93.3589672504920     Delta-E=       -0.000000000004 Rises=F Damp=F
 DIIS: error= 1.33D-07 at cycle   4 NSaved=   4.
 NSaved= 4 IEnMin= 4 EnMin= -93.3589672504920     IErMin= 4 ErrMin= 1.33D-07
 ErrMax= 1.33D-07  0.00D+00 EMaxC= 1.00D-01 BMatC= 3.91D-13 BMatP= 3.57D-12
 IDIUse=1 WtCom= 1.00D+00 WtEn= 0.00D+00
 Coeff-Com:  0.577D-02 0.770D-02 0.173D+00 0.814D+00
 Coeff:      0.577D-02 0.770D-02 0.173D+00 0.814D+00
 Gap=     0.300 Goal=   None    Shift=    0.000
 RMSDP=2.70D-08 MaxDP=2.14D-07 DE=-4.26D-12 OVMax= 3.01D-07

 Cycle  10  Pass 1  IDiag  1:
 E= -93.3589672504926     Delta-E=       -0.000000000001 Rises=F Damp=F
 DIIS: error= 2.51D-08 at cycle   5 NSaved=   5.
 NSaved= 5 IEnMin= 5 EnMin= -93.3589672504926     IErMin= 5 ErrMin= 2.51D-08
 ErrMax= 2.51D-08  0.00D+00 EMaxC= 1.00D-01 BMatC= 2.60D-14 BMatP= 3.91D-13
 IDIUse=1 WtCom= 1.00D+00 WtEn= 0.00D+00
 Coeff-Com: -0.128D-02 0.235D-02 0.544D-01 0.367D+00 0.578D+00
 Coeff:     -0.128D-02 0.235D-02 0.544D-01 0.367D+00 0.578D+00
 Gap=     0.300 Goal=   None    Shift=    0.000
 RMSDP=5.29D-09 MaxDP=3.52D-08 DE=-6.39D-13 OVMax= 5.23D-08

 SCF Done:  E(RB97D3) =  -93.3589672505     A.U. after   10 cycles
            NFock= 10  Conv=0.53D-08     -V/T= 2.0064
 KE= 9.276970035092D+01 PE=-2.652209667962D+02 EE= 5.542254038671D+01
 Leave Link  502 at Wed Oct  7 14:02:42 2020, MaxMem=  2684354560 cpu:              13.8 elap:               1.6
 (Enter /udrive/faculty/rpeverati/g16/g16/l508.exe)
 QCSCF skips out because SCF is already converged.
 Leave Link  508 at Wed Oct  7 14:02:43 2020, MaxMem=  2684354560 cpu:               0.4 elap:               0.5
 (Enter /udrive/faculty/rpeverati/g16/g16/l701.exe)
 ... and contract with generalized density number  0.
 Compute integral first derivatives.
 R6Disp: Adding Grimme-D3(BJ) dispersion energy 1st derivatives to the gradient.
 Leave Link  701 at Wed Oct  7 14:02:44 2020, MaxMem=  2684354560 cpu:               3.2 elap:               0.7
 (Enter /udrive/faculty/rpeverati/g16/g16/l702.exe)
 L702 exits ... SP integral derivatives will be done elsewhere.
 Leave Link  702 at Wed Oct  7 14:02:45 2020, MaxMem=  2684354560 cpu:               1.8 elap:               0.7
 (Enter /udrive/faculty/rpeverati/g16/g16/l703.exe)
 Integral derivatives from FoFJK, PRISM(SPDF).
 Compute integral first derivatives, UseDBF=F ICtDFT=           0.
 Calling FoFJK, ICntrl=      2527 FMM=F ISym2X=1 I1Cent= 0 IOpClX= 0 NMat=1 NMatS=1 NMatT=0.
 FoFJK:  IHMeth= 1 ICntrl=    2527 DoSepK=F KAlg= 0 I1Cent=           0 FoldK=F
 IRaf=         0 NMat=       1 IRICut=       1 DoRegI=T DoRafI=F ISym2E= 1 IDoP0=0 IntGTp=1.
 FoFCou: FMM=F IPFlag=           0 FMFlag=      100000 FMFlg1=         800
         NFxFlg=           0 DoJE=F BraDBF=F KetDBF=F FulRan=T
         wScrn=  0.000000 ICntrl=      2527 IOpCl=  0 I1Cent=           0 NGrid=           0
         NMat0=    1 NMatS0=      1 NMatT0=    0 NMatD0=    1 NMtDS0=    0 NMtDT0=    0
 Petite list used in FoFCou.
 Leave Link  703 at Wed Oct  7 14:02:46 2020, MaxMem=  2684354560 cpu:               4.3 elap:               0.8
 (Enter /udrive/faculty/rpeverati/g16/g16/l716.exe)
 Dipole        = 0.00000000D+00-1.91267529D-31-1.11514272D+00
 ***** Axes restored to original set *****
 -------------------------------------------------------------------
 Center     Atomic                   Forces (Hartrees/Bohr)
 Number     Number              X              Y              Z
 -------------------------------------------------------------------
      1        6          -0.000000000   -0.000000000   -0.001708920
      2        7           0.000000000    0.000000000    0.001590669
      3        1          -0.000000000    0.000000000    0.000118251
 -------------------------------------------------------------------
 Cartesian Forces:  Max     0.001708920 RMS     0.000779218
 Leave Link  716 at Wed Oct  7 14:02:47 2020, MaxMem=  2684354560 cpu:               2.1 elap:               0.7
 (Enter /udrive/faculty/rpeverati/g16/g16/l103.exe)

 GradGradGradGradGradGradGradGradGradGradGradGradGradGradGradGradGradGrad
 Berny optimization.
 Optmz: redundant internal coordinate code flag= 1
 Using GEDIIS/GDIIS optimizer.
 Red2BG:  D1=  1.00D+00 OD1=  3.33D-16 B2RMS=  0.00D+00 IAprox=1
 Red2BG is reusing G-inverse.
 Internal  Forces:  Max     0.001590669 RMS     0.000797529
 Search for a local minimum.
 Step number   2 out of a maximum of  100
 All quantities printed in internal units (Hartrees-Bohrs-Radians)
 RMS Force = .79753D-03 SwitMx=.10000D-02 MixMth= 2
 Mixed Optimization -- En-DIIS/RFO-DIIS
 Update second derivatives using D2CorX and points    1    2
 DE= -4.51D-04 DEPred=-4.39D-04 R= 1.03D+00
 TightC=F SS=  1.41D+00  RLast= 2.97D-02 DXNew= 5.0454D-01 8.9148D-02
 Trust test= 1.03D+00 RLast= 2.97D-02 DXMaxT set to 3.00D-01
 The second derivative matrix:
                          R1        R2        A1        A2
           R1           1.25748
           R2           0.00247   0.38173
           A1           0.00000   0.00000   0.00553
           A2          -0.00000  -0.00000  -0.00000   0.00553
 ITU=  1  0
 Use linear search instead of GDIIS.
 Eigenvectors of the second derivative matrix:
                           1         2         3         4
     Eigenvalues --     0.00553   0.00553   0.38173   1.25749
   1         R1         0.00000   0.00000  -0.00282  -1.00000
   2         R2         0.00000  -0.00000   1.00000  -0.00282
   3         A1        -0.00000  -1.00000  -0.00000  -0.00000
   4         A2         1.00000  -0.00000   0.00000   0.00000
 Iter=   1 RLamda= 0.00000000D+00 Sum=-4.64760449D-07.
 Iter=   2 RLamda=-4.64760449D-07 Sum=-4.64759938D-07.
 RFO step:  Lambda=-4.64760449D-07 EMin= 5.53291456D-03
 Quartic linear search produced a step of  0.04462.
 Iteration  1 RMS(Cart)=  0.00048877 RMS(Int)=  0.00000000
 Iteration  2 RMS(Cart)=  0.00000000 RMS(Int)=  0.00000000
 ITry= 1 IFail=0 DXMaxC= 7.86D-04 DCOld= 1.00D+10 DXMaxT= 3.00D-01 DXLimC= 3.00D+00 Rises=F
 ClnCor:  largest displacement from symmetrization is 4.44D-16 for atom     3.
 Variable       Old X    -DE/DX   Delta X   Delta X   Delta X     New X
                                 (Linear)    (Quad)   (Total)
    R1        2.20281   0.00159   0.00107   0.00023   0.00130   2.20411
    R2        2.03190  -0.00012   0.00078  -0.00102  -0.00024   2.03166
    A1        3.14159  -0.00000   0.00000  -0.00000   0.00000   3.14159
    A2        3.14159   0.00000   0.00000   0.00000   0.00000   3.14159
         Item               Value     Threshold  Converged?
 Maximum Force            0.001591     0.000450     NO 
 RMS     Force            0.000798     0.000300     NO 
 Maximum Displacement     0.000786     0.001800     YES
 RMS     Displacement     0.000489     0.001200     YES
 Predicted change in Energy=-1.023468D-06
 Lowest energy point so far.  Saving SCF results.
 Largest change from initial coordinates is atom    3       0.015 Angstoms.
 GradGradGradGradGradGradGradGradGradGradGradGradGradGradGradGradGradGrad

 Leave Link  103 at Wed Oct  7 14:02:48 2020, MaxMem=  2684354560 cpu:               2.4 elap:               0.6
 (Enter /udrive/faculty/rpeverati/g16/g16/l202.exe)
                          Input orientation:                          
 ---------------------------------------------------------------------
 Center     Atomic      Atomic             Coordinates (Angstroms)
 Number     Number       Type             X           Y           Z
 ---------------------------------------------------------------------
      1          6           0        0.000000    0.000000   -0.501759
      2          7           0        0.000000    0.000000    0.664608
      3          1           0        0.000000    0.000000   -1.576865
 ---------------------------------------------------------------------
                    Distance matrix (angstroms):
                    1          2          3
     1  C    0.000000
     2  N    1.166366   0.000000
     3  H    1.075107   2.241473   0.000000
 Stoichiometry    CHN
 Framework group  C*V[C*(HCN)]
 Deg. of freedom     2
 Full point group                 C*V     NOp   4
 RotChk:  IX=0 Diff= 0.00D+00
 Largest Abelian subgroup         C2V     NOp   4
 Largest concise Abelian subgroup C1      NOp   1
                         Standard orientation:                         
 ---------------------------------------------------------------------
 Center     Atomic      Atomic             Coordinates (Angstroms)
 Number     Number       Type             X           Y           Z
 ---------------------------------------------------------------------
      1          6           0        0.000000    0.000000   -0.506390
      2          7           0        0.000000    0.000000    0.659977
      3          1           0        0.000000    0.000000   -1.581496
 ---------------------------------------------------------------------
 Rotational constants (GHZ):           0.0000000          43.5454310          43.5454310
 Leave Link  202 at Wed Oct  7 14:02:49 2020, MaxMem=  2684354560 cpu:               1.3 elap:               0.5
 (Enter /udrive/faculty/rpeverati/g16/g16/l301.exe)
 Standard basis: 6-31G(d) (5D, 7F)
 Ernie: Thresh=  0.10000D-02 Tol=  0.10000D-05 Strict=F.
 There are    18 symmetry adapted cartesian basis functions of A1  symmetry.
 There are     2 symmetry adapted cartesian basis functions of A2  symmetry.
 There are     6 symmetry adapted cartesian basis functions of B1  symmetry.
 There are     6 symmetry adapted cartesian basis functions of B2  symmetry.
 There are    16 symmetry adapted basis functions of A1  symmetry.
 There are     2 symmetry adapted basis functions of A2  symmetry.
 There are     6 symmetry adapted basis functions of B1  symmetry.
 There are     6 symmetry adapted basis functions of B2  symmetry.
    30 basis functions,    60 primitive gaussians,    32 cartesian basis functions
     7 alpha electrons        7 beta electrons
       nuclear repulsion energy        23.6611296948 Hartrees.
 IExCor= 3630 DFT=T Ex+Corr=B97D3 ExCW=0 ScaHFX=  0.000000
 ScaDFX=  1.000000  1.000000  1.000000  1.000000 ScalE2=  1.000000  1.000000
 IRadAn=      5 IRanWt=     -1 IRanGd=            0 ICorTp=0 IEmpDi=141
 NAtoms=    3 NActive=    3 NUniq=    3 SFac= 1.00D+00 NAtFMM=   60 NAOKFM=F Big=F
 Integral buffers will be    131072 words long.
 Raffenetti 2 integral format.
 Two-electron integral symmetry is turned on.
 R6Disp:  Grimme-D3(BJ) Dispersion energy=       -0.0026703822 Hartrees.
 Nuclear repulsion after empirical dispersion term =       23.6584593125 Hartrees.
 Leave Link  301 at Wed Oct  7 14:02:50 2020, MaxMem=  2684354560 cpu:               2.6 elap:               0.8
 (Enter /udrive/faculty/rpeverati/g16/g16/l302.exe)
 NPDir=0 NMtPBC=     1 NCelOv=     1 NCel=       1 NClECP=     1 NCelD=      1
         NCelK=      1 NCelE2=     1 NClLst=     1 CellRange=     0.0.
 One-electron integrals computed using PRISM.
 One-electron integral symmetry used in STVInt
 NBasis=    30 RedAO= T EigKep=  4.49D-03  NBF=    16     2     6     6
 NBsUse=    30 1.00D-06 EigRej= -1.00D+00 NBFU=    16     2     6     6
 Precomputing XC quadrature grid using
 IXCGrd= 4 IRadAn=           5 IRanWt=          -1 IRanGd=           0 AccXCQ= 0.00D+00.
 Generated NRdTot=       0 NPtTot=           0 NUsed=           0 NTot=          32
 NSgBfM=    32    32    32    32    32 MxSgAt=     3 MxSgA2=     3.
 Leave Link  302 at Wed Oct  7 14:02:51 2020, MaxMem=  2684354560 cpu:               3.5 elap:               0.7
 (Enter /udrive/faculty/rpeverati/g16/g16/l303.exe)
 DipDrv:  MaxL=1.
 Leave Link  303 at Wed Oct  7 14:02:52 2020, MaxMem=  2684354560 cpu:               1.9 elap:               0.7
 (Enter /udrive/faculty/rpeverati/g16/g16/l401.exe)
 Initial guess from the checkpoint file:  "MN_48_hcn_BH76_B97DBJ_631Gs.chk"
 SCF N**3 symmetry information disabled.
 B after Tr=     0.000000    0.000000    0.000000
         Rot=    1.000000    0.000000    0.000000    0.000000 Ang=   0.00 deg.
 Guess basis will be translated and rotated to current coordinates.
 JPrj=2 DoOrth=T DoCkMO=T.
 Initial guess orbital symmetries:
       Occupied  (SG) (SG) (SG) (SG) (SG) (PI) (PI)
       Virtual   (PI) (PI) (SG) (SG) (PI) (PI) (SG) (SG) (PI) (PI)
                 (SG) (SG) (SG) (DLTA) (DLTA) (PI) (PI) (DLTA)
                 (DLTA) (PI) (PI) (SG) (SG)
 The electronic state of the initial guess is 1-SG.
 Leave Link  401 at Wed Oct  7 14:02:53 2020, MaxMem=  2684354560 cpu:               2.3 elap:               0.7
 (Enter /udrive/faculty/rpeverati/g16/g16/l502.exe)
 Keep J ints in memory in symmetry-blocked form, NReq=10459988.
 FoFCou: FMM=F IPFlag=           0 FMFlag=           0 FMFlg1=           0
         NFxFlg=           0 DoJE=F BraDBF=F KetDBF=F FulRan=T
         wScrn=  0.000000 ICntrl=       600 IOpCl=  0 I1Cent=           0 NGrid=           0
         NMat0=    1 NMatS0=    465 NMatT0=    0 NMatD0=    1 NMtDS0=    0 NMtDT0=    0
 Petite list used in FoFCou.
 Closed shell SCF:
 Using DIIS extrapolation, IDIIS=  1040.
 NGot=  2684354560 LenX=  2684318858 LenY=  2684317393
 Requested convergence on RMS density matrix=1.00D-08 within 120 cycles.
 Requested convergence on MAX density matrix=1.00D-06.
 Requested convergence on             energy=1.00D-06.
 No special actions if energy rises.

 Cycle   1  Pass 1  IDiag  1:
 E= -93.3589680276708    
 DIIS: error= 7.56D-05 at cycle   1 NSaved=   1.
 NSaved= 1 IEnMin= 1 EnMin= -93.3589680276708     IErMin= 1 ErrMin= 7.56D-05
 ErrMax= 7.56D-05  0.00D+00 EMaxC= 1.00D-01 BMatC= 2.30D-07 BMatP= 2.30D-07
 IDIUse=1 WtCom= 1.00D+00 WtEn= 0.00D+00
 Coeff-Com:  0.100D+01
 Coeff:      0.100D+01
 Gap=     0.299 Goal=   None    Shift=    0.000
 RMSDP=3.33D-05 MaxDP=3.07D-04              OVMax= 3.02D-04

 Cycle   2  Pass 1  IDiag  1:
 E= -93.3589681140917     Delta-E=       -0.000000086421 Rises=F Damp=F
 DIIS: error= 7.94D-05 at cycle   2 NSaved=   2.
 NSaved= 2 IEnMin= 2 EnMin= -93.3589681140917     IErMin= 1 ErrMin= 7.56D-05
 ErrMax= 7.94D-05  0.00D+00 EMaxC= 1.00D-01 BMatC= 2.01D-07 BMatP= 2.30D-07
 IDIUse=1 WtCom= 1.00D+00 WtEn= 0.00D+00
 Coeff-Com:  0.478D+00 0.522D+00
 Coeff:      0.478D+00 0.522D+00
 Gap=     0.299 Goal=   None    Shift=    0.000
 RMSDP=1.95D-05 MaxDP=1.97D-04 DE=-8.64D-08 OVMax= 3.14D-04

 Cycle   3  Pass 1  IDiag  1:
 E= -93.3589680816739     Delta-E=        0.000000032418 Rises=F Damp=F
 DIIS: error= 1.19D-04 at cycle   3 NSaved=   3.
 NSaved= 3 IEnMin= 2 EnMin= -93.3589681140917     IErMin= 1 ErrMin= 7.56D-05
 ErrMax= 1.19D-04  0.00D+00 EMaxC= 1.00D-01 BMatC= 2.39D-07 BMatP= 2.01D-07
 IDIUse=3 WtCom= 4.78D-01 WtEn= 5.22D-01
 Coeff-Com:  0.211D+00 0.462D+00 0.327D+00
 Coeff-En:   0.000D+00 0.530D+00 0.470D+00
 Coeff:      0.101D+00 0.497D+00 0.402D+00
 Gap=     0.299 Goal=   None    Shift=    0.000
 RMSDP=1.20D-05 MaxDP=1.18D-04 DE= 3.24D-08 OVMax= 2.23D-04

 Cycle   4  Pass 1  IDiag  1:
 E= -93.3589682847473     Delta-E=       -0.000000203073 Rises=F Damp=F
 DIIS: error= 2.70D-05 at cycle   4 NSaved=   4.
 NSaved= 4 IEnMin= 4 EnMin= -93.3589682847473     IErMin= 4 ErrMin= 2.70D-05
 ErrMax= 2.70D-05  0.00D+00 EMaxC= 1.00D-01 BMatC= 1.79D-08 BMatP= 2.01D-07
 IDIUse=1 WtCom= 1.00D+00 WtEn= 0.00D+00
 Coeff-Com:  0.147D-01 0.189D+00 0.251D+00 0.545D+00
 Coeff:      0.147D-01 0.189D+00 0.251D+00 0.545D+00
 Gap=     0.299 Goal=   None    Shift=    0.000
 RMSDP=3.37D-06 MaxDP=3.32D-05 DE=-2.03D-07 OVMax= 4.47D-05

 Cycle   5  Pass 1  IDiag  1:
 E= -93.3589683027954     Delta-E=       -0.000000018048 Rises=F Damp=F
 DIIS: error= 8.31D-07 at cycle   5 NSaved=   5.
 NSaved= 5 IEnMin= 5 EnMin= -93.3589683027954     IErMin= 5 ErrMin= 8.31D-07
 ErrMax= 8.31D-07  0.00D+00 EMaxC= 1.00D-01 BMatC= 2.53D-11 BMatP= 1.79D-08
 IDIUse=1 WtCom= 1.00D+00 WtEn= 0.00D+00
 Coeff-Com: -0.126D-04 0.282D-01 0.492D-01 0.116D+00 0.807D+00
 Coeff:     -0.126D-04 0.282D-01 0.492D-01 0.116D+00 0.807D+00
 Gap=     0.299 Goal=   None    Shift=    0.000
 RMSDP=2.26D-07 MaxDP=1.59D-06 DE=-1.80D-08 OVMax= 2.81D-06

 Cycle   6  Pass 1  IDiag  1:
 E= -93.3589683028279     Delta-E=       -0.000000000032 Rises=F Damp=F
 DIIS: error= 1.22D-07 at cycle   6 NSaved=   6.
 NSaved= 6 IEnMin= 6 EnMin= -93.3589683028279     IErMin= 6 ErrMin= 1.22D-07
 ErrMax= 1.22D-07  0.00D+00 EMaxC= 1.00D-01 BMatC= 2.57D-13 BMatP= 2.53D-11
 IDIUse=1 WtCom= 1.00D+00 WtEn= 0.00D+00
 Coeff-Com: -0.742D-04 0.283D-02 0.498D-02 0.138D-01 0.136D+00 0.843D+00
 Coeff:     -0.742D-04 0.283D-02 0.498D-02 0.138D-01 0.136D+00 0.843D+00
 Gap=     0.299 Goal=   None    Shift=    0.000
 RMSDP=1.85D-08 MaxDP=1.13D-07 DE=-3.25D-11 OVMax= 1.97D-07

 Cycle   7  Pass 1  IDiag  1:
 E= -93.3589683028280     Delta-E=       -0.000000000000 Rises=F Damp=F
 DIIS: error= 8.64D-09 at cycle   7 NSaved=   7.
 NSaved= 7 IEnMin= 7 EnMin= -93.3589683028280     IErMin= 7 ErrMin= 8.64D-09
 ErrMax= 8.64D-09  0.00D+00 EMaxC= 1.00D-01 BMatC= 1.19D-15 BMatP= 2.57D-13
 IDIUse=1 WtCom= 1.00D+00 WtEn= 0.00D+00
 Coeff-Com: -0.717D-05 0.790D-04 0.233D-03 0.588D-03 0.840D-02 0.656D-01
 Coeff-Com:  0.925D+00
 Coeff:     -0.717D-05 0.790D-04 0.233D-03 0.588D-03 0.840D-02 0.656D-01
 Coeff:      0.925D+00
 Gap=     0.299 Goal=   None    Shift=    0.000
 RMSDP=9.52D-10 MaxDP=6.93D-09 DE=-2.84D-14 OVMax= 1.46D-08

 SCF Done:  E(RB97D3) =  -93.3589683028     A.U. after    7 cycles
            NFock=  7  Conv=0.95D-09     -V/T= 2.0064
 KE= 9.276658241466D+01 PE=-2.651955921339D+02 EE= 5.541158210384D+01
 Leave Link  502 at Wed Oct  7 14:02:54 2020, MaxMem=  2684354560 cpu:               9.9 elap:               1.3
 (Enter /udrive/faculty/rpeverati/g16/g16/l508.exe)
 QCSCF skips out because SCF is already converged.
 Leave Link  508 at Wed Oct  7 14:02:55 2020, MaxMem=  2684354560 cpu:               0.5 elap:               0.4
 (Enter /udrive/faculty/rpeverati/g16/g16/l701.exe)
 ... and contract with generalized density number  0.
 Compute integral first derivatives.
 R6Disp: Adding Grimme-D3(BJ) dispersion energy 1st derivatives to the gradient.
 Leave Link  701 at Wed Oct  7 14:02:56 2020, MaxMem=  2684354560 cpu:               3.6 elap:               0.6
 (Enter /udrive/faculty/rpeverati/g16/g16/l702.exe)
 L702 exits ... SP integral derivatives will be done elsewhere.
 Leave Link  702 at Wed Oct  7 14:02:57 2020, MaxMem=  2684354560 cpu:               1.6 elap:               0.5
 (Enter /udrive/faculty/rpeverati/g16/g16/l703.exe)
 Integral derivatives from FoFJK, PRISM(SPDF).
 Compute integral first derivatives, UseDBF=F ICtDFT=           0.
 Calling FoFJK, ICntrl=      2527 FMM=F ISym2X=1 I1Cent= 0 IOpClX= 0 NMat=1 NMatS=1 NMatT=0.
 FoFJK:  IHMeth= 1 ICntrl=    2527 DoSepK=F KAlg= 0 I1Cent=           0 FoldK=F
 IRaf=         0 NMat=       1 IRICut=       1 DoRegI=T DoRafI=F ISym2E= 1 IDoP0=0 IntGTp=1.
 FoFCou: FMM=F IPFlag=           0 FMFlag=      100000 FMFlg1=         800
         NFxFlg=           0 DoJE=F BraDBF=F KetDBF=F FulRan=T
         wScrn=  0.000000 ICntrl=      2527 IOpCl=  0 I1Cent=           0 NGrid=           0
         NMat0=    1 NMatS0=      1 NMatT0=    0 NMatD0=    1 NMtDS0=    0 NMtDT0=    0
 Petite list used in FoFCou.
 Leave Link  703 at Wed Oct  7 14:02:58 2020, MaxMem=  2684354560 cpu:               4.3 elap:               0.7
 (Enter /udrive/faculty/rpeverati/g16/g16/l716.exe)
 Dipole        = 0.00000000D+00-8.23440944D-32-1.11505549D+00
 ***** Axes restored to original set *****
 -------------------------------------------------------------------
 Center     Atomic                   Forces (Hartrees/Bohr)
 Number     Number              X              Y              Z
 -------------------------------------------------------------------
      1        6           0.000000000    0.000000000   -0.000014527
      2        7          -0.000000000   -0.000000000    0.000008617
      3        1          -0.000000000   -0.000000000    0.000005910
 -------------------------------------------------------------------
 Cartesian Forces:  Max     0.000014527 RMS     0.000005965
 Leave Link  716 at Wed Oct  7 14:02:59 2020, MaxMem=  2684354560 cpu:               1.9 elap:               0.5
 (Enter /udrive/faculty/rpeverati/g16/g16/l103.exe)

 GradGradGradGradGradGradGradGradGradGradGradGradGradGradGradGradGradGrad
 Berny optimization.
 Optmz: redundant internal coordinate code flag= 1
 Using GEDIIS/GDIIS optimizer.
 Red2BG:  D1=  1.00D+00 OD1=  3.33D-16 B2RMS=  0.00D+00 IAprox=1
 Red2BG is reusing G-inverse.
 Internal  Forces:  Max     0.000008617 RMS     0.000005224
 Search for a local minimum.
 Step number   3 out of a maximum of  100
 All quantities printed in internal units (Hartrees-Bohrs-Radians)
 RMS Force = .52243D-05 SwitMx=.10000D-02 MixMth= 2
 Mixed Optimization -- En-DIIS/RFO-DIIS
 Swapping is turned off.
 Update second derivatives using D2CorX and points    1    2    3
 DE= -1.05D-06 DEPred=-1.02D-06 R= 1.03D+00
 TightC=F SS=  1.41D+00  RLast= 1.32D-03 DXNew= 5.0454D-01 3.9604D-03
 Trust test= 1.03D+00 RLast= 1.32D-03 DXMaxT set to 3.00D-01
 The second derivative matrix:
                          R1        R2        A1        A2
           R1           1.21546
           R2          -0.01608   0.38385
           A1          -0.00000   0.00000   0.00553
           A2           0.00000  -0.00000  -0.00000   0.00553
 ITU=  1  1  0
 Eigenvectors of the second derivative matrix:
                           1         2         3         4
     Eigenvalues --     0.00553   0.00553   0.38354   1.21577
   1         R1        -0.00000  -0.00000  -0.01932  -0.99981
   2         R2        -0.00000   0.00000  -0.99981   0.01932
   3         A1        -0.00000  -1.00000  -0.00000   0.00000
   4         A2         1.00000  -0.00000  -0.00000   0.00000
 DoSqrt=T IScMMF=    -3 MM Scaling Factor =       0.00000
 En-DIIS/RFO-DIIS/Sim-DIIS IScMMF=       -3 using points:     3    2
 Iter=   1 RLamda=-4.44670854D-02 Sum=-1.37506469D-10.
 Iter=   2 RLamda=-1.37506469D-10 Sum=-1.48650246D-10.
 RFO step:  Lambda=-1.37506469D-10.
 NNeg= 0 NGDIIS= 2 SimSw=  2.50D-03 Rises=F DC= -1.05D-06 SmlDif=  1.00D-05
 NRisDI= 0 DoIntr=F SqrtH=F CThrHd= 10.0 CDAdj=  3.0
 RMS Error=  0.8302340903D-05 NUsed= 2 OKEnD=F EnDIS=F
 Total RFO-DIIS matrix:
                 1             2             3 
      1   0.000000D+00 -0.100000D+01 -0.100000D+01
      2  -0.100000D+01  0.275715D-09  0.128211D-07
      3  -0.100000D+01  0.128211D-07  0.176814D-05
 InvSVX:  RCond= 4.36D-07 Info=           0 Equed=N FErr=  9.01D-16 BErr=  2.33D-17
 DidBck=F Rises=F RFO-DIIS coefs:    1.00720   -0.00720
 Iteration  1 RMS(Cart)=  0.00000535 RMS(Int)=  0.00000000
 Iteration  2 RMS(Cart)=  0.00000000 RMS(Int)=  0.00000000
 ITry= 1 IFail=0 DXMaxC= 7.78D-06 DCOld= 1.00D+10 DXMaxT= 3.00D-01 DXLimC= 3.00D+00 Rises=F
 ClnCor:  largest displacement from symmetrization is 9.44D-15 for atom     1.
 Variable       Old X    -DE/DX   Delta X   Delta X   Delta X     New X
                                 (Linear)    (Quad)   (Total)
    R1        2.20411   0.00001   0.00001  -0.00000   0.00001   2.20412
    R2        2.03166  -0.00001  -0.00000  -0.00001  -0.00002   2.03164
    A1        3.14159   0.00000   0.00000   0.00000   0.00000   3.14159
    A2        3.14159  -0.00000   0.00000   0.00000   0.00000   3.14159
         Item               Value     Threshold  Converged?
 Maximum Force            0.000009     0.000450     YES
 RMS     Force            0.000005     0.000300     YES
 Maximum Displacement     0.000008     0.001800     YES
 RMS     Displacement     0.000005     0.001200     YES
 Predicted change in Energy=-7.432512D-11
 Optimization completed.
    -- Stationary point found.
                           ----------------------------
                           !   Optimized Parameters   !
                           ! (Angstroms and Degrees)  !
 --------------------------                            --------------------------
 ! Name  Definition              Value          Derivative Info.                !
 --------------------------------------------------------------------------------
 ! R1    R(1,2)                  1.1664         -DE/DX =    0.0                 !
 ! R2    R(1,3)                  1.0751         -DE/DX =    0.0                 !
 ! A1    L(2,1,3,-1,-1)        180.0            -DE/DX =    0.0                 !
 ! A2    L(2,1,3,-2,-2)        180.0            -DE/DX =    0.0                 !
 --------------------------------------------------------------------------------
 Lowest energy point so far.  Saving SCF results.
 Largest change from initial coordinates is atom    3       0.015 Angstoms.
 GradGradGradGradGradGradGradGradGradGradGradGradGradGradGradGradGradGrad

 Leave Link  103 at Wed Oct  7 14:03:00 2020, MaxMem=  2684354560 cpu:               1.9 elap:               0.7
 (Enter /udrive/faculty/rpeverati/g16/g16/l202.exe)
                          Input orientation:                          
 ---------------------------------------------------------------------
 Center     Atomic      Atomic             Coordinates (Angstroms)
 Number     Number       Type             X           Y           Z
 ---------------------------------------------------------------------
      1          6           0        0.000000    0.000000   -0.501759
      2          7           0        0.000000    0.000000    0.664608
      3          1           0        0.000000    0.000000   -1.576865
 ---------------------------------------------------------------------
                    Distance matrix (angstroms):
                    1          2          3
     1  C    0.000000
     2  N    1.166366   0.000000
     3  H    1.075107   2.241473   0.000000
 Stoichiometry    CHN
 Framework group  C*V[C*(HCN)]
 Deg. of freedom     2
 Full point group                 C*V     NOp   4
 RotChk:  IX=0 Diff= 0.00D+00
 Largest Abelian subgroup         C2V     NOp   4
 Largest concise Abelian subgroup C1      NOp   1
                         Standard orientation:                         
 ---------------------------------------------------------------------
 Center     Atomic      Atomic             Coordinates (Angstroms)
 Number     Number       Type             X           Y           Z
 ---------------------------------------------------------------------
      1          6           0        0.000000    0.000000   -0.506390
      2          7           0        0.000000    0.000000    0.659977
      3          1           0        0.000000    0.000000   -1.581496
 ---------------------------------------------------------------------
 Rotational constants (GHZ):           0.0000000          43.5454310          43.5454310
 Leave Link  202 at Wed Oct  7 14:03:01 2020, MaxMem=  2684354560 cpu:               1.4 elap:               0.5
 (Enter /udrive/faculty/rpeverati/g16/g16/l601.exe)
 Copying SCF densities to generalized density rwf, IOpCl= 0 IROHF=0.

 **********************************************************************

            Population analysis using the SCF density.

 **********************************************************************

 Orbital symmetries:
       Occupied  (SG) (SG) (SG) (SG) (SG) (PI) (PI)
       Virtual   (PI) (PI) (SG) (SG) (PI) (PI) (SG) (SG) (PI) (PI)
                 (SG) (SG) (SG) (DLTA) (DLTA) (PI) (PI) (DLTA)
                 (DLTA) (PI) (PI) (SG) (SG)
 The electronic state is 1-SG.
 Alpha  occ. eigenvalues --  -14.03317  -9.96424  -0.83624  -0.55155  -0.32499
 Alpha  occ. eigenvalues --   -0.31461  -0.31461
 Alpha virt. eigenvalues --   -0.01513  -0.01513   0.05683   0.25965   0.49282
 Alpha virt. eigenvalues --    0.49282   0.61346   0.65305   0.73173   0.73173
 Alpha virt. eigenvalues --    0.77724   1.01556   1.42513   1.44211   1.44211
 Alpha virt. eigenvalues --    1.44889   1.44889   1.86643   1.86643   2.45837
 Alpha virt. eigenvalues --    2.45837   2.53071   2.88066
          Condensed to atoms (all electrons):
               1          2          3
     1  C    4.766859   0.875234   0.330143
     2  N    0.875234   6.430625  -0.033739
     3  H    0.330143  -0.033739   0.459239
 Mulliken charges:
               1
     1  C    0.027763
     2  N   -0.272120
     3  H    0.244357
 Sum of Mulliken charges =  -0.00000
 Mulliken charges with hydrogens summed into heavy atoms:
               1
     1  C    0.272120
     2  N   -0.272120
 Electronic spatial extent (au):  <R**2>=             49.2636
 Charge=             -0.0000 electrons
 Dipole moment (field-independent basis, Debye):
    X=              0.0000    Y=             -0.0000    Z=             -2.8342  Tot=              2.8342
 Quadrupole moment (field-independent basis, Debye-Ang):
   XX=            -11.3573   YY=            -11.3573   ZZ=             -9.4981
   XY=              0.0000   XZ=              0.0000   YZ=             -0.0000
 Traceless Quadrupole moment (field-independent basis, Debye-Ang):
   XX=             -0.6197   YY=             -0.6197   ZZ=              1.2394
   XY=              0.0000   XZ=              0.0000   YZ=             -0.0000
 Octapole moment (field-independent basis, Debye-Ang**2):
  XXX=              0.0000  YYY=             -0.0000  ZZZ=             -6.7163  XYY=              0.0000
  XXY=             -0.0000  XXZ=             -0.0970  XZZ=              0.0000  YZZ=             -0.0000
  YYZ=             -0.0970  XYZ=              0.0000
 Hexadecapole moment (field-independent basis, Debye-Ang**3):
 XXXX=            -10.2195 YYYY=            -10.2195 ZZZZ=            -35.1469 XXXY=              0.0000
 XXXZ=              0.0000 YYYX=              0.0000 YYYZ=              0.0000 ZZZX=              0.0000
 ZZZY=              0.0000 XXYY=             -3.4065 XXZZ=             -8.6552 YYZZ=             -8.6552
 XXYZ=             -0.0000 YYXZ=              0.0000 ZZXY=              0.0000
 N-N= 2.365845931255D+01 E-N=-2.651955922023D+02  KE= 9.276658241466D+01
 No NMR shielding tensors so no spin-rotation constants.
 Leave Link  601 at Wed Oct  7 14:03:02 2020, MaxMem=  2684354560 cpu:               3.6 elap:               0.8
 (Enter /udrive/faculty/rpeverati/g16/g16/l9999.exe)

 Test job not archived.
 1\1\GINC-NODE63\FOpt\RB97D3\6-31G(d)\C1H1N1\RPEVERATI\07-Oct-2020\0\\#
 P Opt(MaxCyc=100) B97D3/6-31G* 5D 7F Integral=UltraFineGrid SCF=(NoSym
 m,XQC,MaxCyc=120) IOp(1/33=1)\\TS search on BH76.\\0,1\C,0.,0.,-0.5017
 586132\N,0.,0.,0.6646078212\H,0.,0.,-1.5768652205\\Version=ES64L-G16Re
 vA.03\State=1-SG\HF=-93.3589683\RMSD=9.516e-10\RMSF=5.965e-06\Dipole=0
 .,0.,-1.1150555\Quadrupole=-0.4607435,-0.4607435,0.921487,0.,0.,0.\PG=
 C*V [C*(H1C1N1)]\\@


 ERROR IS THE FORCE THAT WELDS MEN TOGETHER....
 TRUTH IS COMMUNICATED TO MEN ONLY BY DEEDS OF TRUTH.
           TOLSTOI,MY RELIGION
 Job cpu time:       0 days  0 hours  2 minutes 30.5 seconds.
 Elapsed time:       0 days  0 hours  0 minutes 29.9 seconds.
 File lengths (MBytes):  RWF=      5 Int=      0 D2E=      0 Chk=      1 Scr=      1
 Normal termination of Gaussian 16 at Wed Oct  7 14:03:03 2020.
