 Entering Gaussian System, Link 0=g16
 Input=MN_45_hclhts_BH76_B97DBJ_631Gs.in
 Output=MN_45_hclhts_BH76_B97DBJ_631Gs.log
 Initial command:
 /udrive/faculty/rpeverati/g16/g16/l1.exe "/udrive/scratch-directories/gaussian09/rpeverati/Gau-26100.inp" -scrdir="/udrive/scratch-directories/gaussian09/rpeverati/"
 Entering Link 1 = /udrive/faculty/rpeverati/g16/g16/l1.exe PID=     26101.
  
 Copyright (c) 1988,1990,1992,1993,1995,1998,2003,2009,2016,
            Gaussian, Inc.  All Rights Reserved.
  
 This is part of the Gaussian(R) 16 program.  It is based on
 the Gaussian(R) 09 system (copyright 2009, Gaussian, Inc.),
 the Gaussian(R) 03 system (copyright 2003, Gaussian, Inc.),
 the Gaussian(R) 98 system (copyright 1998, Gaussian, Inc.),
 the Gaussian(R) 94 system (copyright 1995, Gaussian, Inc.),
 the Gaussian 92(TM) system (copyright 1992, Gaussian, Inc.),
 the Gaussian 90(TM) system (copyright 1990, Gaussian, Inc.),
 the Gaussian 88(TM) system (copyright 1988, Gaussian, Inc.),
 the Gaussian 86(TM) system (copyright 1986, Carnegie Mellon
 University), and the Gaussian 82(TM) system (copyright 1983,
 Carnegie Mellon University). Gaussian is a federally registered
 trademark of Gaussian, Inc.
  
 This software contains proprietary and confidential information,
 including trade secrets, belonging to Gaussian, Inc.
  
 This software is provided under written license and may be
 used, copied, transmitted, or stored only in accord with that
 written license.
  
 The following legend is applicable only to US Government
 contracts under FAR:
  
                    RESTRICTED RIGHTS LEGEND
  
 Use, reproduction and disclosure by the US Government is
 subject to restrictions as set forth in subparagraphs (a)
 and (c) of the Commercial Computer Software - Restricted
 Rights clause in FAR 52.227-19.
  
 Gaussian, Inc.
 340 Quinnipiac St., Bldg. 40, Wallingford CT 06492
  
  
 ---------------------------------------------------------------
 Warning -- This program may not be used in any manner that
 competes with the business of Gaussian, Inc. or will provide
 assistance to any competitor of Gaussian, Inc.  The licensee
 of this program is prohibited from giving any competitor of
 Gaussian, Inc. access to this program.  By using this program,
 the user acknowledges that Gaussian, Inc. is engaged in the
 business of creating and licensing software in the field of
 computational chemistry and represents and warrants to the
 licensee that it is not a competitor of Gaussian, Inc. and that
 it will not use this program in any manner prohibited above.
 ---------------------------------------------------------------
  

 Cite this work as:
 Gaussian 16, Revision A.03,
 M. J. Frisch, G. W. Trucks, H. B. Schlegel, G. E. Scuseria, 
 M. A. Robb, J. R. Cheeseman, G. Scalmani, V. Barone, 
 G. A. Petersson, H. Nakatsuji, X. Li, M. Caricato, A. V. Marenich, 
 J. Bloino, B. G. Janesko, R. Gomperts, B. Mennucci, H. P. Hratchian, 
 J. V. Ortiz, A. F. Izmaylov, J. L. Sonnenberg, D. Williams-Young, 
 F. Ding, F. Lipparini, F. Egidi, J. Goings, B. Peng, A. Petrone, 
 T. Henderson, D. Ranasinghe, V. G. Zakrzewski, J. Gao, N. Rega, 
 G. Zheng, W. Liang, M. Hada, M. Ehara, K. Toyota, R. Fukuda, 
 J. Hasegawa, M. Ishida, T. Nakajima, Y. Honda, O. Kitao, H. Nakai, 
 T. Vreven, K. Throssell, J. A. Montgomery, Jr., J. E. Peralta, 
 F. Ogliaro, M. J. Bearpark, J. J. Heyd, E. N. Brothers, K. N. Kudin, 
 V. N. Staroverov, T. A. Keith, R. Kobayashi, J. Normand, 
 K. Raghavachari, A. P. Rendell, J. C. Burant, S. S. Iyengar, 
 J. Tomasi, M. Cossi, J. M. Millam, M. Klene, C. Adamo, R. Cammi, 
 J. W. Ochterski, R. L. Martin, K. Morokuma, O. Farkas, 
 J. B. Foresman, and D. J. Fox, Gaussian, Inc., Wallingford CT, 2016.
 
 ******************************************
 Gaussian 16:  ES64L-G16RevA.03 25-Dec-2016
                 7-Oct-2020 
 ******************************************
 %NoSave
 %nproc=12
 Will use up to   12 processors via shared memory.
 %mem=20GB
 %chk=MN_45_hclhts_BH76_B97DBJ_631Gs
 ----------------------------------------------------------------------
 #P Opt(TS,MaxCyc=50,NoEigenTest,MaxStep=10,AddRedundant) B97D3/6-31G* 
 5D 7F Integral=UltraFineGrid SCF=(NoSymm,XQC,MaxCyc=120) IOp(1/33=1)
 ----------------------------------------------------------------------
 1/5=1,6=50,8=10,11=1,18=120,26=4,33=1,38=1/1,3;
 2/9=110,12=2,17=6,18=5,40=1/2;
 3/5=1,6=6,7=1,8=11,11=2,25=1,30=1,71=1,74=-59,75=-5/1,2,3;
 4/9=2/1;
 5/5=2,7=120,8=3,13=1,38=5/2,8;
 6/7=2,8=2,9=2,10=2,28=1/1;
 7//1,2,3,16;
 1/5=1,6=50,8=10,11=1,18=20,26=4,33=1/3(2);
 2/9=110/2;
 99//99;
 2/9=110/2;
 3/5=1,6=6,7=1,8=11,11=2,25=1,30=1,71=1,74=-59,75=-5/1,2,3;
 4/5=5,9=2,16=3,69=1/1;
 5/5=2,7=120,8=3,13=1,38=5/2,8;
 7//1,2,3,16;
 1/5=1,6=50,8=10,11=1,18=20,26=4,33=1/3(-5);
 2/9=110/2;
 6/7=2,8=2,9=2,10=2,19=2,28=1/1;
 99/9=1/99;
 Leave Link    1 at Wed Oct  7 14:01:56 2020, MaxMem=  2684354560 cpu:               5.4 elap:               0.5
 (Enter /udrive/faculty/rpeverati/g16/g16/l101.exe)
 ONIOM data not found on unit 2.
 ------------------
 TS search on BH76.
 ------------------
 TstMul:  ICh=     0
 TstMul:  Mul=     2
 TstMul:  ICh=     0
 TstMul:  Mul=     2
 Symbolic Z-matrix:
 Charge =  0 Multiplicity = 2
 H                     0.        0.        1.4858 
 Cl                    0.        0.        0. 
 H                     0.        0.       -1.4858 
 
 RdStrC is calling ZToCFu for IStruc=1 NZ=     3.
 PrtBox:  NBox=     1 Levels=  1 BoxLen=    8.00 SMaxX=        5.62
          Shift=            0.000000            0.000000            2.807760
 Box      1 Number                   0 centers from      1 to      3:
 After GenITR:
 ITRead=  0  0  0
 MicOpt= -1 -1 -1
 The following ModRedundant input section has been read:
 
 ITRead=  0  0  0
 MicOpt= -1 -1 -1
 NAtoms=      3 NQM=        3 NQMF=       0 NMMI=      0 NMMIF=      0
                NMic=       0 NMicF=      0.
                    Isotopes and Nuclear Properties:
 (Nuclear quadrupole moments (NQMom) in fm**2, nuclear magnetic moments (NMagM)
  in nuclear magnetons)

  Atom         1           2           3
 IAtWgt=           1          35           1
 AtmWgt=   1.0078250  34.9688527   1.0078250
 NucSpn=           1           3           1
 AtZEff=   0.0000000   0.0000000   0.0000000
 NQMom=    0.0000000  -8.1650000   0.0000000
 NMagM=    2.7928460   0.8218740   2.7928460
 AtZNuc=   1.0000000  17.0000000   1.0000000
 No MM parameters found.
 Leave Link  101 at Wed Oct  7 14:01:57 2020, MaxMem=  2684354560 cpu:               4.0 elap:               0.5
 (Enter /udrive/faculty/rpeverati/g16/g16/l103.exe)

 GradGradGradGradGradGradGradGradGradGradGradGradGradGradGradGradGradGrad
 Berny optimization.
 Optmz: redundant internal coordinate code flag= 1
 Initialization pass.
                           ----------------------------
                           !    Initial Parameters    !
                           ! (Angstroms and Degrees)  !
 --------------------------                            --------------------------
 ! Name  Definition              Value          Derivative Info.                !
 --------------------------------------------------------------------------------
 ! R1    R(1,2)                  1.4858         estimate D2E/DX2                !
 ! R2    R(2,3)                  1.4858         estimate D2E/DX2                !
 ! A1    L(1,2,3,-1,-1)        180.0            estimate D2E/DX2                !
 ! A2    L(1,2,3,-2,-2)        180.0            estimate D2E/DX2                !
 --------------------------------------------------------------------------------
 Maximum allowed force set to 1.00D+20.
 Trust Radius=1.00D-01 FncErr=1.00D-07 GrdErr=1.00D-06 EigMax=2.50D+02 EigMin=1.00D-04
 Number of steps in this run=     50 maximum allowed number of steps=    100.
 Search for a saddle point of order  1.
 GradGradGradGradGradGradGradGradGradGradGradGradGradGradGradGradGradGrad

 Leave Link  103 at Wed Oct  7 14:01:58 2020, MaxMem=  2684354560 cpu:               1.4 elap:               0.8
 (Enter /udrive/faculty/rpeverati/g16/g16/l202.exe)
                          Input orientation:                          
 ---------------------------------------------------------------------
 Center     Atomic      Atomic             Coordinates (Angstroms)
 Number     Number       Type             X           Y           Z
 ---------------------------------------------------------------------
      1          1           0        0.000000    0.000000    1.485803
      2         17           0        0.000000    0.000000    0.000000
      3          1           0        0.000000    0.000000   -1.485803
 ---------------------------------------------------------------------
                    Distance matrix (angstroms):
                    1          2          3
     1  H    0.000000
     2  Cl   1.485803   0.000000
     3  H    2.971605   1.485803   0.000000
 Stoichiometry    ClH2(2)
 Framework group  D*H[O(Cl),C*(H.H)]
 Deg. of freedom     1
 Full point group                 D*H     NOp   8
 Largest Abelian subgroup         D2H     NOp   8
 Largest concise Abelian subgroup C2      NOp   2
                         Standard orientation:                         
 ---------------------------------------------------------------------
 Center     Atomic      Atomic             Coordinates (Angstroms)
 Number     Number       Type             X           Y           Z
 ---------------------------------------------------------------------
      1          1           0        0.000000    0.000000    1.485803
      2         17           0        0.000000    0.000000    0.000000
      3          1           0        0.000000    0.000000   -1.485803
 ---------------------------------------------------------------------
 Rotational constants (GHZ):           0.0000000         113.5742375         113.5742375
 Leave Link  202 at Wed Oct  7 14:01:59 2020, MaxMem=  2684354560 cpu:               2.1 elap:               0.7
 (Enter /udrive/faculty/rpeverati/g16/g16/l301.exe)
 Standard basis: 6-31G(d) (5D, 7F)
 Ernie: Thresh=  0.10000D-02 Tol=  0.10000D-05 Strict=F.
 There are     9 symmetry adapted cartesian basis functions of AG  symmetry.
 There are     1 symmetry adapted cartesian basis functions of B1G symmetry.
 There are     1 symmetry adapted cartesian basis functions of B2G symmetry.
 There are     1 symmetry adapted cartesian basis functions of B3G symmetry.
 There are     0 symmetry adapted cartesian basis functions of AU  symmetry.
 There are     5 symmetry adapted cartesian basis functions of B1U symmetry.
 There are     3 symmetry adapted cartesian basis functions of B2U symmetry.
 There are     3 symmetry adapted cartesian basis functions of B3U symmetry.
 There are     8 symmetry adapted basis functions of AG  symmetry.
 There are     1 symmetry adapted basis functions of B1G symmetry.
 There are     1 symmetry adapted basis functions of B2G symmetry.
 There are     1 symmetry adapted basis functions of B3G symmetry.
 There are     0 symmetry adapted basis functions of AU  symmetry.
 There are     5 symmetry adapted basis functions of B1U symmetry.
 There are     3 symmetry adapted basis functions of B2U symmetry.
 There are     3 symmetry adapted basis functions of B3U symmetry.
    22 basis functions,    60 primitive gaussians,    23 cartesian basis functions
    10 alpha electrons        9 beta electrons
       nuclear repulsion energy        12.2873749921 Hartrees.
 IExCor= 3630 DFT=T Ex+Corr=B97D3 ExCW=0 ScaHFX=  0.000000
 ScaDFX=  1.000000  1.000000  1.000000  1.000000 ScalE2=  1.000000  1.000000
 IRadAn=      5 IRanWt=     -1 IRanGd=            0 ICorTp=0 IEmpDi=141
 NAtoms=    3 NActive=    3 NUniq=    2 SFac= 2.25D+00 NAtFMM=   60 NAOKFM=F Big=F
 Integral buffers will be    131072 words long.
 Raffenetti 2 integral format.
 Two-electron integral symmetry is turned on.
 R6Disp:  Grimme-D3(BJ) Dispersion energy=       -0.0021671738 Hartrees.
 Nuclear repulsion after empirical dispersion term =       12.2852078183 Hartrees.
 Leave Link  301 at Wed Oct  7 14:01:59 2020, MaxMem=  2684354560 cpu:               1.7 elap:               0.5
 (Enter /udrive/faculty/rpeverati/g16/g16/l302.exe)
 NPDir=0 NMtPBC=     1 NCelOv=     1 NCel=       1 NClECP=     1 NCelD=      1
         NCelK=      1 NCelE2=     1 NClLst=     1 CellRange=     0.0.
 One-electron integrals computed using PRISM.
 One-electron integral symmetry used in STVInt
 NBasis=    22 RedAO= T EigKep=  5.52D-02  NBF=     8     1     1     1     0     5     3     3
 NBsUse=    22 1.00D-06 EigRej= -1.00D+00 NBFU=     8     1     1     1     0     5     3     3
 Precomputing XC quadrature grid using
 IXCGrd= 4 IRadAn=           5 IRanWt=          -1 IRanGd=           0 AccXCQ= 0.00D+00.
 Generated NRdTot=       0 NPtTot=           0 NUsed=           0 NTot=          32
 NSgBfM=    23    23    23    23    23 MxSgAt=     3 MxSgA2=     3.
 Leave Link  302 at Wed Oct  7 14:02:00 2020, MaxMem=  2684354560 cpu:               3.3 elap:               0.6
 (Enter /udrive/faculty/rpeverati/g16/g16/l303.exe)
 DipDrv:  MaxL=1.
 Leave Link  303 at Wed Oct  7 14:02:02 2020, MaxMem=  2684354560 cpu:               1.4 elap:               0.8
 (Enter /udrive/faculty/rpeverati/g16/g16/l401.exe)
 SCF N**3 symmetry information disabled.
 ExpMin= 1.43D-01 ExpMax= 2.52D+04 ExpMxC= 3.78D+03 IAcc=3 IRadAn=         5 AccDes= 0.00D+00
 Harris functional with IExCor= 3630 and IRadAn=       5 diagonalized for initial guess.
 HarFok:  IExCor= 3630 AccDes= 0.00D+00 IRadAn=         5 IDoV= 1 UseB2=F ITyADJ=14
 ICtDFT=  3500011 ScaDFX=  1.000000  1.000000  1.000000  1.000000
 FoFCou: FMM=F IPFlag=           0 FMFlag=      100000 FMFlg1=           0
         NFxFlg=           0 DoJE=T BraDBF=F KetDBF=T FulRan=T
         wScrn=  0.000000 ICntrl=       500 IOpCl=  0 I1Cent=   200000004 NGrid=           0
         NMat0=    1 NMatS0=      1 NMatT0=    0 NMatD0=    1 NMtDS0=    0 NMtDT0=    0
 Petite list used in FoFCou.
 Harris En= -461.180582724174    
 JPrj=0 DoOrth=F DoCkMO=F.
 Initial guess orbital symmetries:
 Alpha Orbitals:
       Occupied  (SGG) (SGG) (SGU) (PIU) (PIU) (SGG) (SGU) (PIU)
                 (PIU) (SGG)
       Virtual   (SGU) (SGG) (PIU) (PIU) (SGU) (SGG) (SGU) (PIG)
                 (PIG) (DLTG) (DLTG) (SGG)
 Beta  Orbitals:
       Occupied  (SGG) (SGG) (SGU) (PIU) (PIU) (SGG) (SGU) (PIU)
                 (PIU)
       Virtual   (SGG) (SGU) (SGG) (PIU) (PIU) (SGU) (SGG) (SGU)
                 (PIG) (PIG) (DLTG) (DLTG) (SGG)
 The electronic state of the initial guess is 2-SGG.
 Initial guess <Sx>= 0.0000 <Sy>= 0.0000 <Sz>= 0.5000 <S**2>= 0.7500 S= 0.5000
 Leave Link  401 at Wed Oct  7 14:02:03 2020, MaxMem=  2684354560 cpu:               4.4 elap:               1.1
 (Enter /udrive/faculty/rpeverati/g16/g16/l502.exe)
 Keep J ints in memory in symmetry-blocked form, NReq=10378099.
 FoFCou: FMM=F IPFlag=           0 FMFlag=           0 FMFlg1=           0
         NFxFlg=           0 DoJE=F BraDBF=F KetDBF=F FulRan=T
         wScrn=  0.000000 ICntrl=       600 IOpCl=  0 I1Cent=           0 NGrid=           0
         NMat0=    1 NMatS0=    253 NMatT0=    0 NMatD0=    1 NMtDS0=    0 NMtDT0=    0
 Petite list used in FoFCou.
 UHF open shell SCF:
 Using DIIS extrapolation, IDIIS=  1040.
 NGot=  2684354560 LenX=  2684344661 LenY=  2684343691
 Requested convergence on RMS density matrix=1.00D-08 within 120 cycles.
 Requested convergence on MAX density matrix=1.00D-06.
 Requested convergence on             energy=1.00D-06.
 No special actions if energy rises.
 Integral accuracy reduced to 1.0D-05 until final iterations.

 Cycle   1  Pass 0  IDiag  1:
 E= -461.279473251274    
 DIIS: error= 9.95D-03 at cycle   1 NSaved=   1.
 NSaved= 1 IEnMin= 1 EnMin= -461.279473251274     IErMin= 1 ErrMin= 9.95D-03
 ErrMax= 9.95D-03  0.00D+00 EMaxC= 1.00D-01 BMatC= 1.02D-02 BMatP= 1.02D-02
 IDIUse=3 WtCom= 9.01D-01 WtEn= 9.95D-02
 Coeff-Com:  0.100D+01
 Coeff-En:   0.100D+01
 Coeff:      0.100D+01
 Gap=     0.215 Goal=   None    Shift=    0.000
 Gap=     0.127 Goal=   None    Shift=    0.000
 GapD=    0.127 DampG=1.000 DampE=1.000 DampFc=1.0000 IDamp=-1.
 RMSDP=5.04D-03 MaxDP=4.30D-02              OVMax= 2.05D-02

 Cycle   2  Pass 0  IDiag  1:
 E= -461.282233908879     Delta-E=       -0.002760657604 Rises=F Damp=F
 DIIS: error= 3.52D-03 at cycle   2 NSaved=   2.
 NSaved= 2 IEnMin= 2 EnMin= -461.282233908879     IErMin= 2 ErrMin= 3.52D-03
 ErrMax= 3.52D-03  0.00D+00 EMaxC= 1.00D-01 BMatC= 1.07D-03 BMatP= 1.02D-02
 IDIUse=3 WtCom= 9.65D-01 WtEn= 3.52D-02
 Coeff-Com:  0.170D+00 0.830D+00
 Coeff-En:   0.000D+00 0.100D+01
 Coeff:      0.164D+00 0.836D+00
 Gap=     0.218 Goal=   None    Shift=    0.000
 Gap=     0.124 Goal=   None    Shift=    0.000
 RMSDP=1.83D-03 MaxDP=1.61D-02 DE=-2.76D-03 OVMax= 1.24D-02

 Cycle   3  Pass 0  IDiag  1:
 E= -461.282412218745     Delta-E=       -0.000178309866 Rises=F Damp=F
 DIIS: error= 3.09D-03 at cycle   3 NSaved=   3.
 NSaved= 3 IEnMin= 3 EnMin= -461.282412218745     IErMin= 3 ErrMin= 3.09D-03
 ErrMax= 3.09D-03  0.00D+00 EMaxC= 1.00D-01 BMatC= 5.08D-04 BMatP= 1.07D-03
 IDIUse=3 WtCom= 9.69D-01 WtEn= 3.09D-02
 Coeff-Com: -0.488D-02 0.398D+00 0.607D+00
 Coeff-En:   0.000D+00 0.288D+00 0.712D+00
 Coeff:     -0.473D-02 0.394D+00 0.610D+00
 Gap=     0.217 Goal=   None    Shift=    0.000
 Gap=     0.130 Goal=   None    Shift=    0.000
 RMSDP=8.53D-04 MaxDP=8.37D-03 DE=-1.78D-04 OVMax= 7.41D-03

 Cycle   4  Pass 0  IDiag  1:
 E= -461.282574785176     Delta-E=       -0.000162566431 Rises=F Damp=F
 DIIS: error= 6.44D-04 at cycle   4 NSaved=   4.
 NSaved= 4 IEnMin= 4 EnMin= -461.282574785176     IErMin= 4 ErrMin= 6.44D-04
 ErrMax= 6.44D-04  0.00D+00 EMaxC= 1.00D-01 BMatC= 1.23D-05 BMatP= 5.08D-04
 IDIUse=3 WtCom= 9.94D-01 WtEn= 6.44D-03
 Coeff-Com: -0.157D-01-0.555D-01 0.909D-01 0.980D+00
 Coeff-En:   0.000D+00 0.000D+00 0.000D+00 0.100D+01
 Coeff:     -0.156D-01-0.552D-01 0.903D-01 0.981D+00
 Gap=     0.218 Goal=   None    Shift=    0.000
 Gap=     0.130 Goal=   None    Shift=    0.000
 RMSDP=1.26D-04 MaxDP=1.74D-03 DE=-1.63D-04 OVMax= 1.66D-03

 Cycle   5  Pass 0  IDiag  1:
 E= -461.282579584596     Delta-E=       -0.000004799421 Rises=F Damp=F
 DIIS: error= 2.69D-05 at cycle   5 NSaved=   5.
 NSaved= 5 IEnMin= 5 EnMin= -461.282579584596     IErMin= 5 ErrMin= 2.69D-05
 ErrMax= 2.69D-05  0.00D+00 EMaxC= 1.00D-01 BMatC= 2.50D-08 BMatP= 1.23D-05
 IDIUse=1 WtCom= 1.00D+00 WtEn= 0.00D+00
 Coeff-Com:  0.473D-03-0.603D-02-0.963D-02-0.721D-02 0.102D+01
 Coeff:      0.473D-03-0.603D-02-0.963D-02-0.721D-02 0.102D+01
 Gap=     0.218 Goal=   None    Shift=    0.000
 Gap=     0.130 Goal=   None    Shift=    0.000
 RMSDP=9.66D-06 MaxDP=1.10D-04 DE=-4.80D-06 OVMax= 7.76D-05

 Initial convergence to 1.0D-05 achieved.  Increase integral accuracy.
 Cycle   6  Pass 1  IDiag  1:
 E= -461.282578129063     Delta-E=        0.000001455533 Rises=F Damp=F
 DIIS: error= 3.64D-06 at cycle   1 NSaved=   1.
 NSaved= 1 IEnMin= 1 EnMin= -461.282578129063     IErMin= 1 ErrMin= 3.64D-06
 ErrMax= 3.64D-06  0.00D+00 EMaxC= 1.00D-01 BMatC= 1.22D-09 BMatP= 1.22D-09
 IDIUse=1 WtCom= 1.00D+00 WtEn= 0.00D+00
 Coeff-Com:  0.100D+01
 Coeff:      0.100D+01
 Gap=     0.218 Goal=   None    Shift=    0.000
 Gap=     0.130 Goal=   None    Shift=    0.000
 RMSDP=9.66D-06 MaxDP=1.10D-04 DE= 1.46D-06 OVMax= 1.45D-05

 Cycle   7  Pass 1  IDiag  1:
 E= -461.282578129426     Delta-E=       -0.000000000363 Rises=F Damp=F
 DIIS: error= 1.75D-06 at cycle   2 NSaved=   2.
 NSaved= 2 IEnMin= 2 EnMin= -461.282578129426     IErMin= 2 ErrMin= 1.75D-06
 ErrMax= 1.75D-06  0.00D+00 EMaxC= 1.00D-01 BMatC= 2.04D-10 BMatP= 1.22D-09
 IDIUse=1 WtCom= 1.00D+00 WtEn= 0.00D+00
 Coeff-Com:  0.224D+00 0.776D+00
 Coeff:      0.224D+00 0.776D+00
 Gap=     0.218 Goal=   None    Shift=    0.000
 Gap=     0.130 Goal=   None    Shift=    0.000
 RMSDP=8.16D-07 MaxDP=7.15D-06 DE=-3.63D-10 OVMax= 5.93D-06

 Cycle   8  Pass 1  IDiag  1:
 E= -461.282578129464     Delta-E=       -0.000000000038 Rises=F Damp=F
 DIIS: error= 1.11D-06 at cycle   3 NSaved=   3.
 NSaved= 3 IEnMin= 3 EnMin= -461.282578129464     IErMin= 3 ErrMin= 1.11D-06
 ErrMax= 1.11D-06  0.00D+00 EMaxC= 1.00D-01 BMatC= 9.43D-11 BMatP= 2.04D-10
 IDIUse=1 WtCom= 1.00D+00 WtEn= 0.00D+00
 Coeff-Com:  0.261D-01 0.406D+00 0.568D+00
 Coeff:      0.261D-01 0.406D+00 0.568D+00
 Gap=     0.218 Goal=   None    Shift=    0.000
 Gap=     0.130 Goal=   None    Shift=    0.000
 RMSDP=3.18D-07 MaxDP=2.72D-06 DE=-3.81D-11 OVMax= 2.26D-06

 Cycle   9  Pass 1  IDiag  1:
 E= -461.282578129493     Delta-E=       -0.000000000029 Rises=F Damp=F
 DIIS: error= 4.68D-08 at cycle   4 NSaved=   4.
 NSaved= 4 IEnMin= 4 EnMin= -461.282578129493     IErMin= 4 ErrMin= 4.68D-08
 ErrMax= 4.68D-08  0.00D+00 EMaxC= 1.00D-01 BMatC= 8.10D-14 BMatP= 9.43D-11
 IDIUse=1 WtCom= 1.00D+00 WtEn= 0.00D+00
 Coeff-Com: -0.547D-02-0.320D-01-0.277D-01 0.107D+01
 Coeff:     -0.547D-02-0.320D-01-0.277D-01 0.107D+01
 Gap=     0.218 Goal=   None    Shift=    0.000
 Gap=     0.130 Goal=   None    Shift=    0.000
 RMSDP=1.75D-08 MaxDP=1.77D-07 DE=-2.92D-11 OVMax= 1.43D-07

 Cycle  10  Pass 1  IDiag  1:
 E= -461.282578129493     Delta-E=       -0.000000000000 Rises=F Damp=F
 DIIS: error= 7.46D-09 at cycle   5 NSaved=   5.
 NSaved= 5 IEnMin= 5 EnMin= -461.282578129493     IErMin= 5 ErrMin= 7.46D-09
 ErrMax= 7.46D-09  0.00D+00 EMaxC= 1.00D-01 BMatC= 1.82D-15 BMatP= 8.10D-14
 IDIUse=1 WtCom= 1.00D+00 WtEn= 0.00D+00
 Coeff-Com: -0.154D-03-0.629D-02-0.874D-02-0.728D-01 0.109D+01
 Coeff:     -0.154D-03-0.629D-02-0.874D-02-0.728D-01 0.109D+01
 Gap=     0.218 Goal=   None    Shift=    0.000
 Gap=     0.130 Goal=   None    Shift=    0.000
 RMSDP=2.59D-09 MaxDP=2.88D-08 DE=-2.84D-13 OVMax= 2.32D-08

 SCF Done:  E(UB97D3) =  -461.282578129     A.U. after   10 cycles
            NFock= 10  Conv=0.26D-08     -V/T= 2.0012
 <Sx>= 0.0000 <Sy>= 0.0000 <Sz>= 0.5000 <S**2>= 0.7542 S= 0.5021
 <L.S>= 0.000000000000E+00
 KE= 4.607306457284D+02 PE=-1.121648047197D+03 EE= 1.873496155204D+02
 Annihilation of the first spin contaminant:
 S**2 before annihilation     0.7542,   after     0.7500
 Leave Link  502 at Wed Oct  7 14:02:05 2020, MaxMem=  2684354560 cpu:              12.9 elap:               1.8
 (Enter /udrive/faculty/rpeverati/g16/g16/l508.exe)
 QCSCF skips out because SCF is already converged.
 Leave Link  508 at Wed Oct  7 14:02:06 2020, MaxMem=  2684354560 cpu:               0.5 elap:               0.4
 (Enter /udrive/faculty/rpeverati/g16/g16/l601.exe)
 Copying SCF densities to generalized density rwf, IOpCl= 1 IROHF=0.

 **********************************************************************

            Population analysis using the SCF density.

 **********************************************************************

 Orbital symmetries:
 Alpha Orbitals:
       Occupied  (SGG) (SGG) (SGU) (PIU) (PIU) (SGG) (SGU) (PIU)
                 (PIU) (SGG)
       Virtual   (SGU) (SGG) (PIU) (PIU) (SGU) (SGG) (SGU) (PIG)
                 (PIG) (DLTG) (DLTG) (SGG)
 Beta  Orbitals:
       Occupied  (SGG) (SGG) (SGU) (PIU) (PIU) (SGG) (SGU) (PIU)
                 (PIU)
       Virtual   (SGG) (SGU) (SGG) (PIU) (PIU) (SGU) (SGG) (SGU)
                 (PIG) (PIG) (DLTG) (DLTG) (SGG)
 The electronic state is 2-SGG.
 Alpha  occ. eigenvalues -- -100.67086  -9.24988  -7.09122  -7.07649  -7.07649
 Alpha  occ. eigenvalues --   -0.77916  -0.48997  -0.30049  -0.30049  -0.21176
 Alpha virt. eigenvalues --    0.00633   0.35714   0.39796   0.39796   0.58913
 Alpha virt. eigenvalues --    0.60637   0.68474   0.75935   0.75935   0.78851
 Alpha virt. eigenvalues --    0.78851   1.03070
  Beta  occ. eigenvalues -- -100.66994  -9.24920  -7.09089  -7.07562  -7.07562
  Beta  occ. eigenvalues --   -0.76982  -0.46275  -0.29411  -0.29411
  Beta virt. eigenvalues --   -0.16445   0.01453   0.35535   0.39811   0.39811
  Beta virt. eigenvalues --    0.57826   0.59657   0.71041   0.75919   0.75919
  Beta virt. eigenvalues --    0.80110   0.80110   1.05738
          Condensed to atoms (all electrons):
               1          2          3
     1  H    0.910847  -0.040510   0.025623
     2  Cl  -0.040510  17.289099  -0.040510
     3  H    0.025623  -0.040510   0.910847
          Atomic-Atomic Spin Densities.
               1          2          3
     1  H    0.714795  -0.246816   0.029600
     2  Cl  -0.246816   0.498473  -0.246816
     3  H    0.029600  -0.246816   0.714795
 Mulliken charges and spin densities:
               1          2
     1  H    0.104040   0.497579
     2  Cl  -0.208079   0.004842
     3  H    0.104040   0.497579
 Sum of Mulliken charges =   0.00000   1.00000
 Mulliken charges and spin densities with hydrogens summed into heavy atoms:
               1          2
     2  Cl   0.000000   1.000000
 Electronic spatial extent (au):  <R**2>=             46.9473
 Charge=             -0.0000 electrons
 Dipole moment (field-independent basis, Debye):
    X=              0.0000    Y=             -0.0000    Z=              0.0000  Tot=              0.0000
 Quadrupole moment (field-independent basis, Debye-Ang):
   XX=            -15.0105   YY=            -15.0105   ZZ=            -11.9175
   XY=             -0.0000   XZ=             -0.0000   YZ=              0.0000
 Traceless Quadrupole moment (field-independent basis, Debye-Ang):
   XX=             -1.0310   YY=             -1.0310   ZZ=              2.0620
   XY=             -0.0000   XZ=             -0.0000   YZ=              0.0000
 Octapole moment (field-independent basis, Debye-Ang**2):
  XXX=             -0.0000  YYY=             -0.0000  ZZZ=              0.0000  XYY=             -0.0000
  XXY=             -0.0000  XXZ=              0.0000  XZZ=             -0.0000  YZZ=             -0.0000
  YYZ=              0.0000  XYZ=             -0.0000
 Hexadecapole moment (field-independent basis, Debye-Ang**3):
 XXXX=            -16.4521 YYYY=            -16.4521 ZZZZ=            -38.5759 XXXY=             -0.0000
 XXXZ=              0.0000 YYYX=             -0.0000 YYYZ=              0.0000 ZZZX=              0.0000
 ZZZY=              0.0000 XXYY=             -5.4840 XXZZ=             -9.4689 YYZZ=             -9.4689
 XXYZ=              0.0000 YYXZ=              0.0000 ZZXY=             -0.0000
 N-N= 1.228520781831D+01 E-N=-1.121648047136D+03  KE= 4.607306457284D+02
                          Isotropic Fermi Contact Couplings
        Atom                 a.u.       MegaHertz       Gauss      10(-4) cm-1
     1  H(1)               0.18761     838.59315     299.23089     279.72457
     2  Cl(35)             1.46780     643.57543     229.64372     214.67366
     3  H(1)               0.18761     838.59315     299.23089     279.72457
 --------------------------------------------------------
       Center         ----  Spin Dipole Couplings  ----
                      3XX-RR        3YY-RR        3ZZ-RR
 --------------------------------------------------------
     1   Atom        0.000868      0.000868     -0.001736
     2   Atom        0.262690      0.262690     -0.525381
     3   Atom        0.000868      0.000868     -0.001736
 --------------------------------------------------------
                        XY            XZ            YZ
 --------------------------------------------------------
     1   Atom        0.000000     -0.000000      0.000000
     2   Atom        0.000000      0.000000      0.000000
     3   Atom        0.000000     -0.000000      0.000000
 --------------------------------------------------------


 ---------------------------------------------------------------------------------
              Anisotropic Spin Dipole Couplings in Principal Axis System
 ---------------------------------------------------------------------------------

       Atom             a.u.   MegaHertz   Gauss  10(-4) cm-1        Axes

              Baa    -0.0017    -0.926    -0.331    -0.309  0.0000  0.0000  1.0000
     1 H(1)   Bbb     0.0009     0.463     0.165     0.155 -0.0007  1.0000  0.0000
              Bcc     0.0009     0.463     0.165     0.155  1.0000  0.0007 -0.0000
 
              Baa    -0.5254   -27.497    -9.812    -9.172 -0.0000  0.0000  1.0000
     2 Cl(35) Bbb     0.2627    13.749     4.906     4.586  0.0000  1.0000  0.0000
              Bcc     0.2627    13.749     4.906     4.586  1.0000  0.0000  0.0000
 
              Baa    -0.0017    -0.926    -0.331    -0.309  0.0000  0.0000  1.0000
     3 H(1)   Bbb     0.0009     0.463     0.165     0.155  0.0000  1.0000  0.0000
              Bcc     0.0009     0.463     0.165     0.155  1.0000  0.0000 -0.0000
 

 ---------------------------------------------------------------------------------

 No NMR shielding tensors so no spin-rotation constants.
 Leave Link  601 at Wed Oct  7 14:02:07 2020, MaxMem=  2684354560 cpu:               4.2 elap:               0.8
 (Enter /udrive/faculty/rpeverati/g16/g16/l701.exe)
 ... and contract with generalized density number  0.
 Compute integral first derivatives.
 R6Disp: Adding Grimme-D3(BJ) dispersion energy 1st derivatives to the gradient.
 Leave Link  701 at Wed Oct  7 14:02:08 2020, MaxMem=  2684354560 cpu:               3.4 elap:               0.9
 (Enter /udrive/faculty/rpeverati/g16/g16/l702.exe)
 L702 exits ... SP integral derivatives will be done elsewhere.
 Leave Link  702 at Wed Oct  7 14:02:10 2020, MaxMem=  2684354560 cpu:               1.2 elap:               0.8
 (Enter /udrive/faculty/rpeverati/g16/g16/l703.exe)
 Integral derivatives from FoFJK, PRISM(SPDF).
 Compute integral first derivatives, UseDBF=F ICtDFT=           0.
 Calling FoFJK, ICntrl=      2527 FMM=F ISym2X=1 I1Cent= 0 IOpClX= 0 NMat=1 NMatS=1 NMatT=0.
 FoFJK:  IHMeth= 1 ICntrl=    2527 DoSepK=F KAlg= 0 I1Cent=           0 FoldK=F
 IRaf=         0 NMat=       1 IRICut=       1 DoRegI=T DoRafI=F ISym2E= 1 IDoP0=0 IntGTp=1.
 FoFCou: FMM=F IPFlag=           0 FMFlag=      100000 FMFlg1=         800
         NFxFlg=           0 DoJE=F BraDBF=F KetDBF=F FulRan=T
         wScrn=  0.000000 ICntrl=      2527 IOpCl=  0 I1Cent=           0 NGrid=           0
         NMat0=    1 NMatS0=      1 NMatT0=    0 NMatD0=    1 NMtDS0=    0 NMtDT0=    0
 Petite list used in FoFCou.
 Leave Link  703 at Wed Oct  7 14:02:11 2020, MaxMem=  2684354560 cpu:               5.1 elap:               1.1
 (Enter /udrive/faculty/rpeverati/g16/g16/l716.exe)
 Dipole        = 3.79024231D-17-3.74348454D-32 4.44089210D-16
 ***** Axes restored to original set *****
 -------------------------------------------------------------------
 Center     Atomic                   Forces (Hartrees/Bohr)
 Number     Number              X              Y              Z
 -------------------------------------------------------------------
      1        1          -0.000000000   -0.000000000    0.005334836
      2       17           0.000000000    0.000000000   -0.000000000
      3        1          -0.000000000   -0.000000000   -0.005334836
 -------------------------------------------------------------------
 Cartesian Forces:  Max     0.005334836 RMS     0.002514866
 Leave Link  716 at Wed Oct  7 14:02:12 2020, MaxMem=  2684354560 cpu:               1.8 elap:               0.6
 (Enter /udrive/faculty/rpeverati/g16/g16/l103.exe)

 GradGradGradGradGradGradGradGradGradGradGradGradGradGradGradGradGradGrad
 Berny optimization.
 Optmz: redundant internal coordinate code flag= 1
 FormGI is forming the generalized inverse of G from B-inverse, IUseBI=4.
 Internal  Forces:  Max     0.005334836 RMS     0.003772299
 Search for a saddle point.
 Step number   1 out of a maximum of   50
 All quantities printed in internal units (Hartrees-Bohrs-Radians)
 Swapping is turned off.
 Second derivative matrix not updated -- first step.
 The second derivative matrix:
                          R1        R2        A1        A2
           R1           0.17502
           R2           0.00000   0.17502
           A1           0.00000   0.00000   0.00230
           A2           0.00000   0.00000   0.00000   0.00230
 ITU=  0
 Eigenvectors of the second derivative matrix:
                           1         2         3         4
     Eigenvalues --     0.00230   0.00230   0.17502   0.17502
   1         R1        -0.00000   0.00000  -1.00000   0.00000
   2         R2         0.00000   0.00000  -0.00000   1.00000
   3         A1        -1.00000   0.00000   0.00000   0.00000
   4         A2        -0.00000   1.00000   0.00000  -0.00000
 Eigenvalue     1 is   2.30D-03 should be less than     0.000000 Eigenvector:
                          A1        R1        R2        A2
   1                   -1.00000  -0.00000   0.00000  -0.00000
 RLam0= 2.30D-03.
 Iter=   1 RLamda= 0.00000000D+00 Sum=-3.25222312D-04.
 Iter=   2 RLamda=-3.25222312D-04 Sum=-3.24619110D-04.
 Iter=   3 RLamda=-3.24619110D-04 Sum=-3.24620227D-04.
 RFO step:  Lambda0=2.300010000D-03 Lambda=-3.24619110D-04.
 Linear search not attempted -- option 19 set.
 Iteration  1 RMS(Cart)=  0.03255010 RMS(Int)=  0.00048160
 Iteration  2 RMS(Cart)=  0.00052895 RMS(Int)=  0.00000013
 Iteration  3 RMS(Cart)=  0.00000014 RMS(Int)=  0.00000000
 ITry= 1 IFail=0 DXMaxC= 4.07D-02 DCOld= 1.00D+10 DXMaxT= 1.00D-01 DXLimC= 3.00D+00 Rises=F
 ClnCor:  largest displacement from symmetrization is 4.07D-02 for atom     2.
 Variable       Old X    -DE/DX   Delta X   Delta X   Delta X     New X
                                 (Linear)    (Quad)   (Total)
    R1        2.80776   0.00533   0.00000   0.03042   0.02977   2.83753
    R2        2.80776   0.00533   0.00000   0.03042   0.02977   2.83753
    A1        3.14159   0.00000   0.00000   0.04303   0.00000   3.14159
    A2        3.14159  -0.00000   0.00000  -0.00000   0.00000   3.14159
         Item               Value     Threshold  Converged?
 Maximum Force            0.005335     0.000450     NO 
 RMS     Force            0.003772     0.000300     NO 
 Maximum Displacement     0.029768     0.001800     NO 
 RMS     Displacement     0.021049     0.001200     NO 
 Predicted change in Energy=-1.625221D-04
 Lowest energy point so far.  Saving SCF results.
 Largest change from initial coordinates is atom    1       0.016 Angstoms.
 GradGradGradGradGradGradGradGradGradGradGradGradGradGradGradGradGradGrad

 Leave Link  103 at Wed Oct  7 14:02:13 2020, MaxMem=  2684354560 cpu:               2.8 elap:               0.7
 (Enter /udrive/faculty/rpeverati/g16/g16/l202.exe)
                          Input orientation:                          
 ---------------------------------------------------------------------
 Center     Atomic      Atomic             Coordinates (Angstroms)
 Number     Number       Type             X           Y           Z
 ---------------------------------------------------------------------
      1          1           0        0.000000    0.000000    1.501555
      2         17           0       -0.000000    0.000000   -0.000000
      3          1           0        0.000000    0.000000   -1.501555
 ---------------------------------------------------------------------
                    Distance matrix (angstroms):
                    1          2          3
     1  H    0.000000
     2  Cl   1.501555   0.000000
     3  H    3.003110   1.501555   0.000000
 Stoichiometry    ClH2(2)
 Framework group  D*H[O(Cl),C*(H.H)]
 Deg. of freedom     1
 Full point group                 D*H     NOp   8
 RotChk:  IX=0 Diff= 0.00D+00
 Largest Abelian subgroup         D2H     NOp   8
 Largest concise Abelian subgroup C2      NOp   2
                         Standard orientation:                         
 ---------------------------------------------------------------------
 Center     Atomic      Atomic             Coordinates (Angstroms)
 Number     Number       Type             X           Y           Z
 ---------------------------------------------------------------------
      1          1           0        0.000000    0.000000    1.501555
      2         17           0        0.000000    0.000000    0.000000
      3          1           0        0.000000    0.000000   -1.501555
 ---------------------------------------------------------------------
 Rotational constants (GHZ):           0.0000000         111.2037784         111.2037784
 Leave Link  202 at Wed Oct  7 14:02:14 2020, MaxMem=  2684354560 cpu:               1.3 elap:               0.5
 (Enter /udrive/faculty/rpeverati/g16/g16/l301.exe)
 Standard basis: 6-31G(d) (5D, 7F)
 Ernie: Thresh=  0.10000D-02 Tol=  0.10000D-05 Strict=F.
 There are     9 symmetry adapted cartesian basis functions of AG  symmetry.
 There are     1 symmetry adapted cartesian basis functions of B1G symmetry.
 There are     1 symmetry adapted cartesian basis functions of B2G symmetry.
 There are     1 symmetry adapted cartesian basis functions of B3G symmetry.
 There are     0 symmetry adapted cartesian basis functions of AU  symmetry.
 There are     5 symmetry adapted cartesian basis functions of B1U symmetry.
 There are     3 symmetry adapted cartesian basis functions of B2U symmetry.
 There are     3 symmetry adapted cartesian basis functions of B3U symmetry.
 There are     8 symmetry adapted basis functions of AG  symmetry.
 There are     1 symmetry adapted basis functions of B1G symmetry.
 There are     1 symmetry adapted basis functions of B2G symmetry.
 There are     1 symmetry adapted basis functions of B3G symmetry.
 There are     0 symmetry adapted basis functions of AU  symmetry.
 There are     5 symmetry adapted basis functions of B1U symmetry.
 There are     3 symmetry adapted basis functions of B2U symmetry.
 There are     3 symmetry adapted basis functions of B3U symmetry.
    22 basis functions,    60 primitive gaussians,    23 cartesian basis functions
    10 alpha electrons        9 beta electrons
       nuclear repulsion energy        12.1584711749 Hartrees.
 IExCor= 3630 DFT=T Ex+Corr=B97D3 ExCW=0 ScaHFX=  0.000000
 ScaDFX=  1.000000  1.000000  1.000000  1.000000 ScalE2=  1.000000  1.000000
 IRadAn=      5 IRanWt=     -1 IRanGd=            0 ICorTp=0 IEmpDi=141
 NAtoms=    3 NActive=    3 NUniq=    2 SFac= 2.25D+00 NAtFMM=   60 NAOKFM=F Big=F
 Integral buffers will be    131072 words long.
 Raffenetti 2 integral format.
 Two-electron integral symmetry is turned on.
 R6Disp:  Grimme-D3(BJ) Dispersion energy=       -0.0021635922 Hartrees.
 Nuclear repulsion after empirical dispersion term =       12.1563075827 Hartrees.
 Leave Link  301 at Wed Oct  7 14:02:15 2020, MaxMem=  2684354560 cpu:               2.7 elap:               0.7
 (Enter /udrive/faculty/rpeverati/g16/g16/l302.exe)
 NPDir=0 NMtPBC=     1 NCelOv=     1 NCel=       1 NClECP=     1 NCelD=      1
         NCelK=      1 NCelE2=     1 NClLst=     1 CellRange=     0.0.
 One-electron integrals computed using PRISM.
 One-electron integral symmetry used in STVInt
 NBasis=    22 RedAO= T EigKep=  5.74D-02  NBF=     8     1     1     1     0     5     3     3
 NBsUse=    22 1.00D-06 EigRej= -1.00D+00 NBFU=     8     1     1     1     0     5     3     3
 Precomputing XC quadrature grid using
 IXCGrd= 4 IRadAn=           5 IRanWt=          -1 IRanGd=           0 AccXCQ= 0.00D+00.
 Generated NRdTot=       0 NPtTot=           0 NUsed=           0 NTot=          32
 NSgBfM=    23    23    23    23    23 MxSgAt=     3 MxSgA2=     3.
 Leave Link  302 at Wed Oct  7 14:02:16 2020, MaxMem=  2684354560 cpu:               2.5 elap:               0.5
 (Enter /udrive/faculty/rpeverati/g16/g16/l303.exe)
 DipDrv:  MaxL=1.
 Leave Link  303 at Wed Oct  7 14:02:16 2020, MaxMem=  2684354560 cpu:               1.2 elap:               0.5
 (Enter /udrive/faculty/rpeverati/g16/g16/l401.exe)
 Initial guess from the checkpoint file:  "MN_45_hclhts_BH76_B97DBJ_631Gs.chk"
 SCF N**3 symmetry information disabled.
 B after Tr=     0.000000    0.000000    0.000000
         Rot=    1.000000    0.000000    0.000000    0.000000 Ang=   0.00 deg.
 Guess basis will be translated and rotated to current coordinates.
 JPrj=2 DoOrth=T DoCkMO=T.
 Initial guess orbital symmetries:
 Alpha Orbitals:
       Occupied  (SGG) (SGG) (SGU) (PIU) (PIU) (SGG) (SGU) (PIU)
                 (PIU) (SGG)
       Virtual   (SGU) (SGG) (PIU) (PIU) (SGU) (SGG) (SGU) (PIG)
                 (PIG) (DLTG) (DLTG) (SGG)
 Beta  Orbitals:
       Occupied  (SGG) (SGG) (SGU) (PIU) (PIU) (SGG) (SGU) (PIU)
                 (PIU)
       Virtual   (SGG) (SGU) (SGG) (PIU) (PIU) (SGU) (SGG) (SGU)
                 (PIG) (PIG) (DLTG) (DLTG) (SGG)
 The electronic state of the initial guess is 2-SGG.
 Initial guess <Sx>= 0.0000 <Sy>= 0.0000 <Sz>= 0.5000 <S**2>= 0.7543 S= 0.5021
 Generating alternative initial guess.
 ExpMin= 1.43D-01 ExpMax= 2.52D+04 ExpMxC= 3.78D+03 IAcc=2 IRadAn=         4 AccDes= 0.00D+00
 Harris functional with IExCor= 3630 and IRadAn=       4 diagonalized for initial guess.
 HarFok:  IExCor= 3630 AccDes= 0.00D+00 IRadAn=         4 IDoV= 1 UseB2=F ITyADJ=14
 ICtDFT=  3500011 ScaDFX=  1.000000  1.000000  1.000000  1.000000
 FoFCou: FMM=F IPFlag=           0 FMFlag=      100000 FMFlg1=           0
         NFxFlg=           0 DoJE=T BraDBF=F KetDBF=T FulRan=T
         wScrn=  0.000000 ICntrl=       500 IOpCl=  0 I1Cent=   200000004 NGrid=           0
         NMat0=    1 NMatS0=      1 NMatT0=    0 NMatD0=    1 NMtDS0=    0 NMtDT0=    0
 Petite list used in FoFCou.
 Harris En= -461.182153046887    
 Leave Link  401 at Wed Oct  7 14:02:18 2020, MaxMem=  2684354560 cpu:               4.3 elap:               0.8
 (Enter /udrive/faculty/rpeverati/g16/g16/l502.exe)
 Keep J ints in memory in symmetry-blocked form, NReq=10378099.
 FoFCou: FMM=F IPFlag=           0 FMFlag=           0 FMFlg1=           0
         NFxFlg=           0 DoJE=F BraDBF=F KetDBF=F FulRan=T
         wScrn=  0.000000 ICntrl=       600 IOpCl=  0 I1Cent=           0 NGrid=           0
         NMat0=    1 NMatS0=    253 NMatT0=    0 NMatD0=    1 NMtDS0=    0 NMtDT0=    0
 Petite list used in FoFCou.
 UHF open shell SCF:
 Using DIIS extrapolation, IDIIS=  1040.
 NGot=  2684354560 LenX=  2684344661 LenY=  2684343691
 Requested convergence on RMS density matrix=1.00D-08 within 120 cycles.
 Requested convergence on MAX density matrix=1.00D-06.
 Requested convergence on             energy=1.00D-06.
 No special actions if energy rises.
 Integral accuracy reduced to 1.0D-05 until final iterations.

 Cycle   1  Pass 0  IDiag  1:
 E= -461.282725144169    
 DIIS: error= 1.68D-03 at cycle   1 NSaved=   1.
 NSaved= 1 IEnMin= 1 EnMin= -461.282725144169     IErMin= 1 ErrMin= 1.68D-03
 ErrMax= 1.68D-03  0.00D+00 EMaxC= 1.00D-01 BMatC= 1.26D-04 BMatP= 1.26D-04
 IDIUse=3 WtCom= 9.83D-01 WtEn= 1.68D-02
 Coeff-Com:  0.100D+01
 Coeff-En:   0.100D+01
 Coeff:      0.100D+01
 Gap=     0.215 Goal=   None    Shift=    0.000
 Gap=     0.126 Goal=   None    Shift=    0.000
 GapD=    0.126 DampG=1.000 DampE=1.000 DampFc=1.0000 IDamp=-1.
 RMSDP=8.11D-04 MaxDP=9.67D-03              OVMax= 5.19D-03

 Cycle   2  Pass 0  IDiag  1:
 E= -461.282781728631     Delta-E=       -0.000056584463 Rises=F Damp=F
 DIIS: error= 3.20D-04 at cycle   2 NSaved=   2.
 NSaved= 2 IEnMin= 2 EnMin= -461.282781728631     IErMin= 2 ErrMin= 3.20D-04
 ErrMax= 3.20D-04  0.00D+00 EMaxC= 1.00D-01 BMatC= 8.53D-06 BMatP= 1.26D-04
 IDIUse=3 WtCom= 9.97D-01 WtEn= 3.20D-03
 Coeff-Com:  0.118D+00 0.882D+00
 Coeff-En:   0.000D+00 0.100D+01
 Coeff:      0.118D+00 0.882D+00
 Gap=     0.214 Goal=   None    Shift=    0.000
 Gap=     0.127 Goal=   None    Shift=    0.000
 RMSDP=2.02D-04 MaxDP=1.74D-03 DE=-5.66D-05 OVMax= 1.49D-03

 Cycle   3  Pass 0  IDiag  1:
 E= -461.282782561198     Delta-E=       -0.000000832566 Rises=F Damp=F
 DIIS: error= 3.10D-04 at cycle   3 NSaved=   3.
 NSaved= 3 IEnMin= 3 EnMin= -461.282782561198     IErMin= 3 ErrMin= 3.10D-04
 ErrMax= 3.10D-04  0.00D+00 EMaxC= 1.00D-01 BMatC= 6.64D-06 BMatP= 8.53D-06
 IDIUse=3 WtCom= 9.97D-01 WtEn= 3.10D-03
 Coeff-Com:  0.106D-01 0.468D+00 0.521D+00
 Coeff-En:   0.000D+00 0.415D+00 0.585D+00
 Coeff:      0.105D-01 0.468D+00 0.521D+00
 Gap=     0.215 Goal=   None    Shift=    0.000
 Gap=     0.127 Goal=   None    Shift=    0.000
 RMSDP=8.53D-05 MaxDP=7.24D-04 DE=-8.33D-07 OVMax= 6.59D-04

 Cycle   4  Pass 0  IDiag  1:
 E= -461.282784648751     Delta-E=       -0.000002087553 Rises=F Damp=F
 DIIS: error= 2.70D-05 at cycle   4 NSaved=   4.
 NSaved= 4 IEnMin= 4 EnMin= -461.282784648751     IErMin= 4 ErrMin= 2.70D-05
 ErrMax= 2.70D-05  0.00D+00 EMaxC= 1.00D-01 BMatC= 1.50D-08 BMatP= 6.64D-06
 IDIUse=1 WtCom= 1.00D+00 WtEn= 0.00D+00
 Coeff-Com: -0.403D-02 0.152D-01 0.461D-01 0.943D+00
 Coeff:     -0.403D-02 0.152D-01 0.461D-01 0.943D+00
 Gap=     0.215 Goal=   None    Shift=    0.000
 Gap=     0.127 Goal=   None    Shift=    0.000
 RMSDP=4.29D-06 MaxDP=6.63D-05 DE=-2.09D-06 OVMax= 6.25D-05

 Initial convergence to 1.0D-05 achieved.  Increase integral accuracy.
 Cycle   5  Pass 1  IDiag  1:
 E= -461.282782865282     Delta-E=        0.000001783469 Rises=F Damp=F
 DIIS: error= 3.59D-06 at cycle   1 NSaved=   1.
 NSaved= 1 IEnMin= 1 EnMin= -461.282782865282     IErMin= 1 ErrMin= 3.59D-06
 ErrMax= 3.59D-06  0.00D+00 EMaxC= 1.00D-01 BMatC= 1.43D-09 BMatP= 1.43D-09
 IDIUse=1 WtCom= 1.00D+00 WtEn= 0.00D+00
 Coeff-Com:  0.100D+01
 Coeff:      0.100D+01
 Gap=     0.215 Goal=   None    Shift=    0.000
 Gap=     0.127 Goal=   None    Shift=    0.000
 RMSDP=4.29D-06 MaxDP=6.63D-05 DE= 1.78D-06 OVMax= 8.40D-06

 Cycle   6  Pass 1  IDiag  1:
 E= -461.282782865584     Delta-E=       -0.000000000303 Rises=F Damp=F
 DIIS: error= 2.97D-06 at cycle   2 NSaved=   2.
 NSaved= 2 IEnMin= 2 EnMin= -461.282782865584     IErMin= 2 ErrMin= 2.97D-06
 ErrMax= 2.97D-06  0.00D+00 EMaxC= 1.00D-01 BMatC= 5.65D-10 BMatP= 1.43D-09
 IDIUse=1 WtCom= 1.00D+00 WtEn= 0.00D+00
 Coeff-Com:  0.353D+00 0.647D+00
 Coeff:      0.353D+00 0.647D+00
 Gap=     0.215 Goal=   None    Shift=    0.000
 Gap=     0.127 Goal=   None    Shift=    0.000
 RMSDP=1.09D-06 MaxDP=9.42D-06 DE=-3.03D-10 OVMax= 8.13D-06

 Cycle   7  Pass 1  IDiag  1:
 E= -461.282782865735     Delta-E=       -0.000000000150 Rises=F Damp=F
 DIIS: error= 1.31D-06 at cycle   3 NSaved=   3.
 NSaved= 3 IEnMin= 3 EnMin= -461.282782865735     IErMin= 3 ErrMin= 1.31D-06
 ErrMax= 1.31D-06  0.00D+00 EMaxC= 1.00D-01 BMatC= 9.65D-11 BMatP= 5.65D-10
 IDIUse=1 WtCom= 1.00D+00 WtEn= 0.00D+00
 Coeff-Com: -0.458D-02 0.287D+00 0.718D+00
 Coeff:     -0.458D-02 0.287D+00 0.718D+00
 Gap=     0.215 Goal=   None    Shift=    0.000
 Gap=     0.127 Goal=   None    Shift=    0.000
 RMSDP=3.29D-07 MaxDP=3.14D-06 DE=-1.50D-10 OVMax= 2.86D-06

 Cycle   8  Pass 1  IDiag  1:
 E= -461.282782865766     Delta-E=       -0.000000000031 Rises=F Damp=F
 DIIS: error= 8.91D-08 at cycle   4 NSaved=   4.
 NSaved= 4 IEnMin= 4 EnMin= -461.282782865766     IErMin= 4 ErrMin= 8.91D-08
 ErrMax= 8.91D-08  0.00D+00 EMaxC= 1.00D-01 BMatC= 1.82D-13 BMatP= 9.65D-11
 IDIUse=1 WtCom= 1.00D+00 WtEn= 0.00D+00
 Coeff-Com: -0.623D-02-0.405D-01-0.674D-01 0.111D+01
 Coeff:     -0.623D-02-0.405D-01-0.674D-01 0.111D+01
 Gap=     0.215 Goal=   None    Shift=    0.000
 Gap=     0.127 Goal=   None    Shift=    0.000
 RMSDP=2.44D-08 MaxDP=3.52D-07 DE=-3.11D-11 OVMax= 3.04D-07

 Cycle   9  Pass 1  IDiag  1:
 E= -461.282782865766     Delta-E=       -0.000000000001 Rises=F Damp=F
 DIIS: error= 8.16D-09 at cycle   5 NSaved=   5.
 NSaved= 5 IEnMin= 5 EnMin= -461.282782865766     IErMin= 5 ErrMin= 8.16D-09
 ErrMax= 8.16D-09  0.00D+00 EMaxC= 1.00D-01 BMatC= 2.98D-15 BMatP= 1.82D-13
 IDIUse=1 WtCom= 1.00D+00 WtEn= 0.00D+00
 Coeff-Com:  0.171D-03-0.367D-02-0.129D-01-0.393D-01 0.106D+01
 Coeff:      0.171D-03-0.367D-02-0.129D-01-0.393D-01 0.106D+01
 Gap=     0.215 Goal=   None    Shift=    0.000
 Gap=     0.127 Goal=   None    Shift=    0.000
 RMSDP=2.93D-09 MaxDP=3.93D-08 DE=-5.68D-13 OVMax= 3.26D-08

 SCF Done:  E(UB97D3) =  -461.282782866     A.U. after    9 cycles
            NFock=  9  Conv=0.29D-08     -V/T= 2.0013
 <Sx>= 0.0000 <Sy>= 0.0000 <Sz>= 0.5000 <S**2>= 0.7545 S= 0.5022
 <L.S>= 0.000000000000E+00
 KE= 4.607065734187D+02 PE=-1.121385468731D+03 EE= 1.872398048636D+02
 Annihilation of the first spin contaminant:
 S**2 before annihilation     0.7545,   after     0.7500
 Leave Link  502 at Wed Oct  7 14:02:20 2020, MaxMem=  2684354560 cpu:              12.5 elap:               1.6
 (Enter /udrive/faculty/rpeverati/g16/g16/l508.exe)
 QCSCF skips out because SCF is already converged.
 Leave Link  508 at Wed Oct  7 14:02:20 2020, MaxMem=  2684354560 cpu:               0.4 elap:               0.6
 (Enter /udrive/faculty/rpeverati/g16/g16/l701.exe)
 ... and contract with generalized density number  0.
 Compute integral first derivatives.
 R6Disp: Adding Grimme-D3(BJ) dispersion energy 1st derivatives to the gradient.
 Leave Link  701 at Wed Oct  7 14:02:22 2020, MaxMem=  2684354560 cpu:               3.4 elap:               0.7
 (Enter /udrive/faculty/rpeverati/g16/g16/l702.exe)
 L702 exits ... SP integral derivatives will be done elsewhere.
 Leave Link  702 at Wed Oct  7 14:02:22 2020, MaxMem=  2684354560 cpu:               1.3 elap:               0.4
 (Enter /udrive/faculty/rpeverati/g16/g16/l703.exe)
 Integral derivatives from FoFJK, PRISM(SPDF).
 Compute integral first derivatives, UseDBF=F ICtDFT=           0.
 Calling FoFJK, ICntrl=      2527 FMM=F ISym2X=1 I1Cent= 0 IOpClX= 0 NMat=1 NMatS=1 NMatT=0.
 FoFJK:  IHMeth= 1 ICntrl=    2527 DoSepK=F KAlg= 0 I1Cent=           0 FoldK=F
 IRaf=         0 NMat=       1 IRICut=       1 DoRegI=T DoRafI=F ISym2E= 1 IDoP0=0 IntGTp=1.
 FoFCou: FMM=F IPFlag=           0 FMFlag=      100000 FMFlg1=         800
         NFxFlg=           0 DoJE=F BraDBF=F KetDBF=F FulRan=T
         wScrn=  0.000000 ICntrl=      2527 IOpCl=  0 I1Cent=           0 NGrid=           0
         NMat0=    1 NMatS0=      1 NMatT0=    0 NMatD0=    1 NMtDS0=    0 NMtDT0=    0
 Petite list used in FoFCou.
 Leave Link  703 at Wed Oct  7 14:02:23 2020, MaxMem=  2684354560 cpu:               4.6 elap:               0.6
 (Enter /udrive/faculty/rpeverati/g16/g16/l716.exe)
 Dipole        = 3.84719242D-17-1.54377461D-31 0.00000000D+00
 ***** Axes restored to original set *****
 -------------------------------------------------------------------
 Center     Atomic                   Forces (Hartrees/Bohr)
 Number     Number              X              Y              Z
 -------------------------------------------------------------------
      1        1          -0.000000000   -0.000000000    0.001594853
      2       17           0.000000000    0.000000000   -0.000000000
      3        1          -0.000000000   -0.000000000   -0.001594853
 -------------------------------------------------------------------
 Cartesian Forces:  Max     0.001594853 RMS     0.000751821
 Leave Link  716 at Wed Oct  7 14:02:24 2020, MaxMem=  2684354560 cpu:               1.2 elap:               0.5
 (Enter /udrive/faculty/rpeverati/g16/g16/l103.exe)

 GradGradGradGradGradGradGradGradGradGradGradGradGradGradGradGradGradGrad
 Berny optimization.
 Optmz: redundant internal coordinate code flag= 1
 Red2BG:  D1=  7.45D-01 OD1=  3.33D-16 B2RMS=  0.00D+00 IAprox=1
 Red2BG is reusing G-inverse.
 Internal  Forces:  Max     0.001594853 RMS     0.001127731
 Search for a saddle point.
 Step number   2 out of a maximum of   50
 All quantities printed in internal units (Hartrees-Bohrs-Radians)
 Swapping is turned off.
 Update second derivatives using D2CorX and points    1    2
 The second derivative matrix:
                          R1        R2        A1        A2
           R1           0.15033
           R2          -0.02469   0.15033
           A1           0.00000   0.00000   0.00230
           A2           0.00000   0.00000  -0.00000   0.00230
 ITU=  0  0
 Eigenvectors of the second derivative matrix:
                           1         2         3         4
     Eigenvalues --     0.00230   0.00230   0.12564   0.17502
   1         R1         0.00000  -0.00000   0.70711  -0.70711
   2         R2         0.00000  -0.00000   0.70711   0.70711
   3         A1        -1.00000  -0.00002   0.00000   0.00000
   4         A2        -0.00002   1.00000   0.00000   0.00000
 Eigenvalue     1 is   2.30D-03 should be less than     0.000000 Eigenvector:
                          A1        A2        R1        R2
   1                   -1.00000  -0.00002   0.00000   0.00000
 RLam0= 2.30D-03.
 Iter=   1 RLamda= 0.00000000D+00 Sum=-4.04900516D-05.
 Iter=   2 RLamda=-4.04900516D-05 Sum=-4.04770069D-05.
 Iter=   3 RLamda=-4.04770069D-05 Sum=-4.04770111D-05.
 RFO step:  Lambda0=2.300010000D-03 Lambda=-4.04770069D-05.
 Linear search not attempted -- option 19 set.
 Iteration  1 RMS(Cart)=  0.01370054 RMS(Int)=  0.00008489
 Iteration  2 RMS(Cart)=  0.00009267 RMS(Int)=  0.00000000
 Iteration  3 RMS(Cart)=  0.00000000 RMS(Int)=  0.00000000
 ITry= 1 IFail=0 DXMaxC= 1.70D-02 DCOld= 1.00D+10 DXMaxT= 1.00D-01 DXLimC= 3.00D+00 Rises=F
 ClnCor:  largest displacement from symmetrization is 1.70D-02 for atom     2.
 Variable       Old X    -DE/DX   Delta X   Delta X   Delta X     New X
                                 (Linear)    (Quad)   (Total)
    R1        2.83753   0.00159   0.00000   0.01269   0.01258   2.85010
    R2        2.83753   0.00159   0.00000   0.01269   0.01258   2.85010
    A1        3.14159   0.00000   0.00000   0.01795   0.00000   3.14159
    A2        3.14159  -0.00000   0.00000   0.00000   0.00000   3.14159
         Item               Value     Threshold  Converged?
 Maximum Force            0.001595     0.000450     NO 
 RMS     Force            0.001128     0.000300     NO 
 Maximum Displacement     0.012575     0.001800     NO 
 RMS     Displacement     0.008892     0.001200     NO 
 Predicted change in Energy=-2.024325D-05
 Lowest energy point so far.  Saving SCF results.
 Largest change from initial coordinates is atom    1       0.022 Angstoms.
 GradGradGradGradGradGradGradGradGradGradGradGradGradGradGradGradGradGrad

 Leave Link  103 at Wed Oct  7 14:02:25 2020, MaxMem=  2684354560 cpu:               2.1 elap:               0.7
 (Enter /udrive/faculty/rpeverati/g16/g16/l202.exe)
                          Input orientation:                          
 ---------------------------------------------------------------------
 Center     Atomic      Atomic             Coordinates (Angstroms)
 Number     Number       Type             X           Y           Z
 ---------------------------------------------------------------------
      1          1           0        0.000000    0.000000    1.508210
      2         17           0        0.000000    0.000000   -0.000000
      3          1           0        0.000000    0.000000   -1.508210
 ---------------------------------------------------------------------
                    Distance matrix (angstroms):
                    1          2          3
     1  H    0.000000
     2  Cl   1.508210   0.000000
     3  H    3.016419   1.508210   0.000000
 Stoichiometry    ClH2(2)
 Framework group  D*H[O(Cl),C*(H.H)]
 Deg. of freedom     1
 Full point group                 D*H     NOp   8
 RotChk:  IX=0 Diff= 0.00D+00
 Largest Abelian subgroup         D2H     NOp   8
 Largest concise Abelian subgroup C2      NOp   2
                         Standard orientation:                         
 ---------------------------------------------------------------------
 Center     Atomic      Atomic             Coordinates (Angstroms)
 Number     Number       Type             X           Y           Z
 ---------------------------------------------------------------------
      1          1           0        0.000000    0.000000    1.508210
      2         17           0        0.000000    0.000000    0.000000
      3          1           0        0.000000    0.000000   -1.508210
 ---------------------------------------------------------------------
 Rotational constants (GHZ):           0.0000000         110.2246428         110.2246428
 Leave Link  202 at Wed Oct  7 14:02:26 2020, MaxMem=  2684354560 cpu:               1.4 elap:               0.6
 (Enter /udrive/faculty/rpeverati/g16/g16/l301.exe)
 Standard basis: 6-31G(d) (5D, 7F)
 Ernie: Thresh=  0.10000D-02 Tol=  0.10000D-05 Strict=F.
 There are     9 symmetry adapted cartesian basis functions of AG  symmetry.
 There are     1 symmetry adapted cartesian basis functions of B1G symmetry.
 There are     1 symmetry adapted cartesian basis functions of B2G symmetry.
 There are     1 symmetry adapted cartesian basis functions of B3G symmetry.
 There are     0 symmetry adapted cartesian basis functions of AU  symmetry.
 There are     5 symmetry adapted cartesian basis functions of B1U symmetry.
 There are     3 symmetry adapted cartesian basis functions of B2U symmetry.
 There are     3 symmetry adapted cartesian basis functions of B3U symmetry.
 There are     8 symmetry adapted basis functions of AG  symmetry.
 There are     1 symmetry adapted basis functions of B1G symmetry.
 There are     1 symmetry adapted basis functions of B2G symmetry.
 There are     1 symmetry adapted basis functions of B3G symmetry.
 There are     0 symmetry adapted basis functions of AU  symmetry.
 There are     5 symmetry adapted basis functions of B1U symmetry.
 There are     3 symmetry adapted basis functions of B2U symmetry.
 There are     3 symmetry adapted basis functions of B3U symmetry.
    22 basis functions,    60 primitive gaussians,    23 cartesian basis functions
    10 alpha electrons        9 beta electrons
       nuclear repulsion energy        12.1048259062 Hartrees.
 IExCor= 3630 DFT=T Ex+Corr=B97D3 ExCW=0 ScaHFX=  0.000000
 ScaDFX=  1.000000  1.000000  1.000000  1.000000 ScalE2=  1.000000  1.000000
 IRadAn=      5 IRanWt=     -1 IRanGd=            0 ICorTp=0 IEmpDi=141
 NAtoms=    3 NActive=    3 NUniq=    2 SFac= 2.25D+00 NAtFMM=   60 NAOKFM=F Big=F
 Integral buffers will be    131072 words long.
 Raffenetti 2 integral format.
 Two-electron integral symmetry is turned on.
 R6Disp:  Grimme-D3(BJ) Dispersion energy=       -0.0021623331 Hartrees.
 Nuclear repulsion after empirical dispersion term =       12.1026635732 Hartrees.
 Leave Link  301 at Wed Oct  7 14:02:27 2020, MaxMem=  2684354560 cpu:               1.7 elap:               0.8
 (Enter /udrive/faculty/rpeverati/g16/g16/l302.exe)
 NPDir=0 NMtPBC=     1 NCelOv=     1 NCel=       1 NClECP=     1 NCelD=      1
         NCelK=      1 NCelE2=     1 NClLst=     1 CellRange=     0.0.
 One-electron integrals computed using PRISM.
 One-electron integral symmetry used in STVInt
 NBasis=    22 RedAO= T EigKep=  5.83D-02  NBF=     8     1     1     1     0     5     3     3
 NBsUse=    22 1.00D-06 EigRej= -1.00D+00 NBFU=     8     1     1     1     0     5     3     3
 Precomputing XC quadrature grid using
 IXCGrd= 4 IRadAn=           5 IRanWt=          -1 IRanGd=           0 AccXCQ= 0.00D+00.
 Generated NRdTot=       0 NPtTot=           0 NUsed=           0 NTot=          32
 NSgBfM=    23    23    23    23    23 MxSgAt=     3 MxSgA2=     3.
 Leave Link  302 at Wed Oct  7 14:02:28 2020, MaxMem=  2684354560 cpu:               2.4 elap:               0.7
 (Enter /udrive/faculty/rpeverati/g16/g16/l303.exe)
 DipDrv:  MaxL=1.
 Leave Link  303 at Wed Oct  7 14:02:30 2020, MaxMem=  2684354560 cpu:               3.1 elap:               0.7
 (Enter /udrive/faculty/rpeverati/g16/g16/l401.exe)
 Initial guess from the checkpoint file:  "MN_45_hclhts_BH76_B97DBJ_631Gs.chk"
 SCF N**3 symmetry information disabled.
 B after Tr=     0.000000    0.000000    0.000000
         Rot=    1.000000    0.000000    0.000000    0.000000 Ang=   0.00 deg.
 Guess basis will be translated and rotated to current coordinates.
 JPrj=2 DoOrth=T DoCkMO=T.
 Initial guess orbital symmetries:
 Alpha Orbitals:
       Occupied  (SGG) (SGG) (SGU) (PIU) (PIU) (SGG) (SGU) (PIU)
                 (PIU) (SGG)
       Virtual   (SGU) (SGG) (PIU) (PIU) (SGU) (SGG) (SGU) (PIG)
                 (PIG) (DLTG) (DLTG) (SGG)
 Beta  Orbitals:
       Occupied  (SGG) (SGG) (SGU) (PIU) (PIU) (SGG) (SGU) (PIU)
                 (PIU)
       Virtual   (SGG) (SGU) (SGG) (PIU) (PIU) (SGU) (SGG) (SGU)
                 (PIG) (PIG) (DLTG) (DLTG) (SGG)
 The electronic state of the initial guess is 2-SGG.
 Initial guess <Sx>= 0.0000 <Sy>= 0.0000 <Sz>= 0.5000 <S**2>= 0.7545 S= 0.5022
 Leave Link  401 at Wed Oct  7 14:02:31 2020, MaxMem=  2684354560 cpu:               2.6 elap:               0.9
 (Enter /udrive/faculty/rpeverati/g16/g16/l502.exe)
 Keep J ints in memory in symmetry-blocked form, NReq=10378099.
 FoFCou: FMM=F IPFlag=           0 FMFlag=           0 FMFlg1=           0
         NFxFlg=           0 DoJE=F BraDBF=F KetDBF=F FulRan=T
         wScrn=  0.000000 ICntrl=       600 IOpCl=  0 I1Cent=           0 NGrid=           0
         NMat0=    1 NMatS0=    253 NMatT0=    0 NMatD0=    1 NMtDS0=    0 NMtDT0=    0
 Petite list used in FoFCou.
 UHF open shell SCF:
 Using DIIS extrapolation, IDIIS=  1040.
 NGot=  2684354560 LenX=  2684344661 LenY=  2684343691
 Requested convergence on RMS density matrix=1.00D-08 within 120 cycles.
 Requested convergence on MAX density matrix=1.00D-06.
 Requested convergence on             energy=1.00D-06.
 No special actions if energy rises.

 Cycle   1  Pass 1  IDiag  1:
 E= -461.282793837630    
 DIIS: error= 7.02D-04 at cycle   1 NSaved=   1.
 NSaved= 1 IEnMin= 1 EnMin= -461.282793837630     IErMin= 1 ErrMin= 7.02D-04
 ErrMax= 7.02D-04  0.00D+00 EMaxC= 1.00D-01 BMatC= 2.18D-05 BMatP= 2.18D-05
 IDIUse=3 WtCom= 9.93D-01 WtEn= 7.02D-03
 Coeff-Com:  0.100D+01
 Coeff-En:   0.100D+01
 Coeff:      0.100D+01
 Gap=     0.213 Goal=   None    Shift=    0.000
 Gap=     0.125 Goal=   None    Shift=    0.000
 RMSDP=3.32D-04 MaxDP=3.87D-03              OVMax= 2.14D-03

 Cycle   2  Pass 1  IDiag  1:
 E= -461.282803625038     Delta-E=       -0.000009787408 Rises=F Damp=F
 DIIS: error= 1.35D-04 at cycle   2 NSaved=   2.
 NSaved= 2 IEnMin= 2 EnMin= -461.282803625038     IErMin= 2 ErrMin= 1.35D-04
 ErrMax= 1.35D-04  0.00D+00 EMaxC= 1.00D-01 BMatC= 1.51D-06 BMatP= 2.18D-05
 IDIUse=3 WtCom= 9.99D-01 WtEn= 1.35D-03
 Coeff-Com:  0.120D+00 0.880D+00
 Coeff-En:   0.000D+00 0.100D+01
 Coeff:      0.119D+00 0.881D+00
 Gap=     0.213 Goal=   None    Shift=    0.000
 Gap=     0.126 Goal=   None    Shift=    0.000
 RMSDP=8.46D-05 MaxDP=7.15D-04 DE=-9.79D-06 OVMax= 6.33D-04

 Cycle   3  Pass 1  IDiag  1:
 E= -461.282803769581     Delta-E=       -0.000000144542 Rises=F Damp=F
 DIIS: error= 1.31D-04 at cycle   3 NSaved=   3.
 NSaved= 3 IEnMin= 3 EnMin= -461.282803769581     IErMin= 3 ErrMin= 1.31D-04
 ErrMax= 1.31D-04  0.00D+00 EMaxC= 1.00D-01 BMatC= 1.18D-06 BMatP= 1.51D-06
 IDIUse=3 WtCom= 9.99D-01 WtEn= 1.31D-03
 Coeff-Com:  0.106D-01 0.469D+00 0.520D+00
 Coeff-En:   0.000D+00 0.417D+00 0.583D+00
 Coeff:      0.105D-01 0.469D+00 0.520D+00
 Gap=     0.213 Goal=   None    Shift=    0.000
 Gap=     0.125 Goal=   None    Shift=    0.000
 RMSDP=3.58D-05 MaxDP=3.06D-04 DE=-1.45D-07 OVMax= 2.81D-04

 Cycle   4  Pass 1  IDiag  1:
 E= -461.282804141950     Delta-E=       -0.000000372370 Rises=F Damp=F
 DIIS: error= 1.12D-05 at cycle   4 NSaved=   4.
 NSaved= 4 IEnMin= 4 EnMin= -461.282804141950     IErMin= 4 ErrMin= 1.12D-05
 ErrMax= 1.12D-05  0.00D+00 EMaxC= 1.00D-01 BMatC= 2.55D-09 BMatP= 1.18D-06
 IDIUse=1 WtCom= 1.00D+00 WtEn= 0.00D+00
 Coeff-Com: -0.404D-02 0.147D-01 0.445D-01 0.945D+00
 Coeff:     -0.404D-02 0.147D-01 0.445D-01 0.945D+00
 Gap=     0.213 Goal=   None    Shift=    0.000
 Gap=     0.125 Goal=   None    Shift=    0.000
 RMSDP=1.79D-06 MaxDP=2.78D-05 DE=-3.72D-07 OVMax= 2.64D-05

 Cycle   5  Pass 1  IDiag  1:
 E= -461.282804143205     Delta-E=       -0.000000001255 Rises=F Damp=F
 DIIS: error= 1.83D-06 at cycle   5 NSaved=   5.
 NSaved= 5 IEnMin= 5 EnMin= -461.282804143205     IErMin= 5 ErrMin= 1.83D-06
 ErrMax= 1.83D-06  0.00D+00 EMaxC= 1.00D-01 BMatC= 8.02D-11 BMatP= 2.55D-09
 IDIUse=1 WtCom= 1.00D+00 WtEn= 0.00D+00
 Coeff-Com:  0.209D-03-0.134D-01-0.225D-01-0.135D+00 0.117D+01
 Coeff:      0.209D-03-0.134D-01-0.225D-01-0.135D+00 0.117D+01
 Gap=     0.213 Goal=   None    Shift=    0.000
 Gap=     0.125 Goal=   None    Shift=    0.000
 RMSDP=5.18D-07 MaxDP=7.17D-06 DE=-1.25D-09 OVMax= 6.78D-06

 Cycle   6  Pass 1  IDiag  1:
 E= -461.282804143256     Delta-E=       -0.000000000051 Rises=F Damp=F
 DIIS: error= 2.27D-07 at cycle   6 NSaved=   6.
 NSaved= 6 IEnMin= 6 EnMin= -461.282804143256     IErMin= 6 ErrMin= 2.27D-07
 ErrMax= 2.27D-07  0.00D+00 EMaxC= 1.00D-01 BMatC= 1.81D-12 BMatP= 8.02D-11
 IDIUse=1 WtCom= 1.00D+00 WtEn= 0.00D+00
 Coeff-Com:  0.515D-04-0.110D-02-0.111D-02-0.215D-01 0.922D-01 0.931D+00
 Coeff:      0.515D-04-0.110D-02-0.111D-02-0.215D-01 0.922D-01 0.931D+00
 Gap=     0.213 Goal=   None    Shift=    0.000
 Gap=     0.125 Goal=   None    Shift=    0.000
 RMSDP=4.63D-08 MaxDP=6.87D-07 DE=-5.06D-11 OVMax= 6.84D-07

 Cycle   7  Pass 1  IDiag  1:
 E= -461.282804143257     Delta-E=       -0.000000000001 Rises=F Damp=F
 DIIS: error= 4.27D-09 at cycle   7 NSaved=   7.
 NSaved= 7 IEnMin= 7 EnMin= -461.282804143257     IErMin= 7 ErrMin= 4.27D-09
 ErrMax= 4.27D-09  0.00D+00 EMaxC= 1.00D-01 BMatC= 9.34D-16 BMatP= 1.81D-12
 IDIUse=1 WtCom= 1.00D+00 WtEn= 0.00D+00
 Coeff-Com: -0.370D-05 0.139D-03 0.162D-03 0.197D-02-0.111D-01-0.707D-01
 Coeff-Com:  0.108D+01
 Coeff:     -0.370D-05 0.139D-03 0.162D-03 0.197D-02-0.111D-01-0.707D-01
 Coeff:      0.108D+01
 Gap=     0.213 Goal=   None    Shift=    0.000
 Gap=     0.125 Goal=   None    Shift=    0.000
 RMSDP=2.30D-09 MaxDP=1.91D-08 DE=-1.02D-12 OVMax= 1.51D-08

 SCF Done:  E(UB97D3) =  -461.282804143     A.U. after    7 cycles
            NFock=  7  Conv=0.23D-08     -V/T= 2.0013
 <Sx>= 0.0000 <Sy>= 0.0000 <Sz>= 0.5000 <S**2>= 0.7546 S= 0.5023
 <L.S>= 0.000000000000E+00
 KE= 4.606966557766D+02 PE=-1.121276202437D+03 EE= 1.871940789443D+02
 Annihilation of the first spin contaminant:
 S**2 before annihilation     0.7546,   after     0.7500
 Leave Link  502 at Wed Oct  7 14:02:33 2020, MaxMem=  2684354560 cpu:              11.1 elap:               1.6
 (Enter /udrive/faculty/rpeverati/g16/g16/l508.exe)
 QCSCF skips out because SCF is already converged.
 Leave Link  508 at Wed Oct  7 14:02:33 2020, MaxMem=  2684354560 cpu:               0.4 elap:               0.5
 (Enter /udrive/faculty/rpeverati/g16/g16/l701.exe)
 ... and contract with generalized density number  0.
 Compute integral first derivatives.
 R6Disp: Adding Grimme-D3(BJ) dispersion energy 1st derivatives to the gradient.
 Leave Link  701 at Wed Oct  7 14:02:35 2020, MaxMem=  2684354560 cpu:               2.8 elap:               0.9
 (Enter /udrive/faculty/rpeverati/g16/g16/l702.exe)
 L702 exits ... SP integral derivatives will be done elsewhere.
 Leave Link  702 at Wed Oct  7 14:02:35 2020, MaxMem=  2684354560 cpu:               1.0 elap:               0.5
 (Enter /udrive/faculty/rpeverati/g16/g16/l703.exe)
 Integral derivatives from FoFJK, PRISM(SPDF).
 Compute integral first derivatives, UseDBF=F ICtDFT=           0.
 Calling FoFJK, ICntrl=      2527 FMM=F ISym2X=1 I1Cent= 0 IOpClX= 0 NMat=1 NMatS=1 NMatT=0.
 FoFJK:  IHMeth= 1 ICntrl=    2527 DoSepK=F KAlg= 0 I1Cent=           0 FoldK=F
 IRaf=         0 NMat=       1 IRICut=       1 DoRegI=T DoRafI=F ISym2E= 1 IDoP0=0 IntGTp=1.
 FoFCou: FMM=F IPFlag=           0 FMFlag=      100000 FMFlg1=         800
         NFxFlg=           0 DoJE=F BraDBF=F KetDBF=F FulRan=T
         wScrn=  0.000000 ICntrl=      2527 IOpCl=  0 I1Cent=           0 NGrid=           0
         NMat0=    1 NMatS0=      1 NMatT0=    0 NMatD0=    1 NMtDS0=    0 NMtDT0=    0
 Petite list used in FoFCou.
 Leave Link  703 at Wed Oct  7 14:02:36 2020, MaxMem=  2684354560 cpu:               5.1 elap:               0.8
 (Enter /udrive/faculty/rpeverati/g16/g16/l716.exe)
 Dipole        = 3.87168717D-17-1.62349486D-31 0.00000000D+00
 ***** Axes restored to original set *****
 -------------------------------------------------------------------
 Center     Atomic                   Forces (Hartrees/Bohr)
 Number     Number              X              Y              Z
 -------------------------------------------------------------------
      1        1          -0.000000000   -0.000000000    0.000105806
      2       17           0.000000000    0.000000000   -0.000000000
      3        1          -0.000000000   -0.000000000   -0.000105806
 -------------------------------------------------------------------
 Cartesian Forces:  Max     0.000105806 RMS     0.000049878
 Leave Link  716 at Wed Oct  7 14:02:37 2020, MaxMem=  2684354560 cpu:               1.8 elap:               0.5
 (Enter /udrive/faculty/rpeverati/g16/g16/l103.exe)

 GradGradGradGradGradGradGradGradGradGradGradGradGradGradGradGradGradGrad
 Berny optimization.
 Optmz: redundant internal coordinate code flag= 1
 Red2BG:  D1=  7.39D-01 OD1=  3.33D-16 B2RMS=  0.00D+00 IAprox=1
 Red2BG is reusing G-inverse.
 Internal  Forces:  Max     0.000105806 RMS     0.000074816
 Search for a saddle point.
 Step number   3 out of a maximum of   50
 All quantities printed in internal units (Hartrees-Bohrs-Radians)
 Swapping is turned off.
 Update second derivatives using D2CorX and points    1    2    3
 The second derivative matrix:
                          R1        R2        A1        A2
           R1           0.14672
           R2          -0.02830   0.14672
           A1           0.00000   0.00000   0.00230
           A2           0.00000   0.00000  -0.00000   0.00230
 ITU=  0  0  0
 Eigenvectors of the second derivative matrix:
                           1         2         3         4
     Eigenvalues --     0.00230   0.00230   0.11841   0.17502
   1         R1        -0.00000  -0.00000   0.70711  -0.70711
   2         R2        -0.00000  -0.00000   0.70711   0.70711
   3         A1        -1.00000   0.00000  -0.00000  -0.00000
   4         A2         0.00000   1.00000   0.00000  -0.00000
 Eigenvalue     1 is   2.30D-03 should be less than     0.000000 Eigenvector:
                          A1        A2        R2        R1
   1                   -1.00000   0.00000  -0.00000  -0.00000
 RLam0= 2.30D-03.
 Iter=   1 RLamda= 0.00000000D+00 Sum=-1.89085771D-07.
 Iter=   2 RLamda=-1.89085771D-07 Sum=-1.89085469D-07.
 RFO step:  Lambda0=2.300010000D-03 Lambda=-1.89085771D-07.
 Linear search not attempted -- option 19 set.
 Iteration  1 RMS(Cart)=  0.00096921 RMS(Int)=  0.00000042
 Iteration  2 RMS(Cart)=  0.00000046 RMS(Int)=  0.00000000
 ITry= 1 IFail=0 DXMaxC= 1.20D-03 DCOld= 1.00D+10 DXMaxT= 1.00D-01 DXLimC= 3.00D+00 Rises=F
 ClnCor:  largest displacement from symmetrization is 1.20D-03 for atom     2.
 Variable       Old X    -DE/DX   Delta X   Delta X   Delta X     New X
                                 (Linear)    (Quad)   (Total)
    R1        2.85010   0.00011   0.00000   0.00089   0.00089   2.85100
    R2        2.85010   0.00011   0.00000   0.00089   0.00089   2.85100
    A1        3.14159   0.00000   0.00000   0.00126   0.00000   3.14159
    A2        3.14159  -0.00000   0.00000  -0.00000   0.00000   3.14159
         Item               Value     Threshold  Converged?
 Maximum Force            0.000106     0.000450     YES
 RMS     Force            0.000075     0.000300     YES
 Maximum Displacement     0.000893     0.001800     YES
 RMS     Displacement     0.000631     0.001200     YES
 Predicted change in Energy=-9.454285D-08
 Optimization completed.
    -- Stationary point found.
                           ----------------------------
                           !   Optimized Parameters   !
                           ! (Angstroms and Degrees)  !
 --------------------------                            --------------------------
 ! Name  Definition              Value          Derivative Info.                !
 --------------------------------------------------------------------------------
 ! R1    R(1,2)                  1.5082         -DE/DX =    0.0001              !
 ! R2    R(2,3)                  1.5082         -DE/DX =    0.0001              !
 ! A1    L(1,2,3,-1,-1)        180.0            -DE/DX =    0.0                 !
 ! A2    L(1,2,3,-2,-2)        180.0            -DE/DX =    0.0                 !
 --------------------------------------------------------------------------------
 Lowest energy point so far.  Saving SCF results.
 Largest change from initial coordinates is atom    1       0.022 Angstoms.
 GradGradGradGradGradGradGradGradGradGradGradGradGradGradGradGradGradGrad

 Leave Link  103 at Wed Oct  7 14:02:38 2020, MaxMem=  2684354560 cpu:               1.5 elap:               0.5
 (Enter /udrive/faculty/rpeverati/g16/g16/l202.exe)
                          Input orientation:                          
 ---------------------------------------------------------------------
 Center     Atomic      Atomic             Coordinates (Angstroms)
 Number     Number       Type             X           Y           Z
 ---------------------------------------------------------------------
      1          1           0        0.000000    0.000000    1.508210
      2         17           0        0.000000    0.000000    0.000000
      3          1           0        0.000000    0.000000   -1.508210
 ---------------------------------------------------------------------
                    Distance matrix (angstroms):
                    1          2          3
     1  H    0.000000
     2  Cl   1.508210   0.000000
     3  H    3.016419   1.508210   0.000000
 Stoichiometry    ClH2(2)
 Framework group  D*H[O(Cl),C*(H.H)]
 Deg. of freedom     1
 Full point group                 D*H     NOp   8
 RotChk:  IX=0 Diff= 0.00D+00
 Largest Abelian subgroup         D2H     NOp   8
 Largest concise Abelian subgroup C2      NOp   2
                         Standard orientation:                         
 ---------------------------------------------------------------------
 Center     Atomic      Atomic             Coordinates (Angstroms)
 Number     Number       Type             X           Y           Z
 ---------------------------------------------------------------------
      1          1           0        0.000000    0.000000    1.508210
      2         17           0        0.000000    0.000000    0.000000
      3          1           0        0.000000    0.000000   -1.508210
 ---------------------------------------------------------------------
 Rotational constants (GHZ):           0.0000000         110.2246428         110.2246428
 Leave Link  202 at Wed Oct  7 14:02:39 2020, MaxMem=  2684354560 cpu:               1.1 elap:               0.4
 (Enter /udrive/faculty/rpeverati/g16/g16/l601.exe)
 Copying SCF densities to generalized density rwf, IOpCl= 1 IROHF=0.

 **********************************************************************

            Population analysis using the SCF density.

 **********************************************************************

 Orbital symmetries:
 Alpha Orbitals:
       Occupied  (SGG) (SGG) (SGU) (PIU) (PIU) (SGG) (SGU) (PIU)
                 (PIU) (SGG)
       Virtual   (SGU) (SGG) (PIU) (PIU) (SGU) (SGG) (SGU) (PIG)
                 (PIG) (DLTG) (DLTG) (SGG)
 Beta  Orbitals:
       Occupied  (SGG) (SGG) (SGU) (PIU) (PIU) (SGG) (SGU) (PIU)
                 (PIU)
       Virtual   (SGG) (SGU) (SGG) (PIU) (PIU) (SGU) (SGG) (SGU)
                 (PIG) (PIG) (DLTG) (DLTG) (SGG)
 The electronic state is 2-SGG.
 Alpha  occ. eigenvalues -- -100.67091  -9.24951  -7.09090  -7.07615  -7.07615
 Alpha  occ. eigenvalues --   -0.77542  -0.48410  -0.29910  -0.29910  -0.21609
 Alpha virt. eigenvalues --   -0.00304   0.36126   0.39857   0.39857   0.58790
 Alpha virt. eigenvalues --    0.61366   0.68344   0.76166   0.76166   0.78991
 Alpha virt. eigenvalues --    0.78991   1.01061
  Beta  occ. eigenvalues -- -100.67006  -9.24887  -7.09064  -7.07532  -7.07532
  Beta  occ. eigenvalues --   -0.76681  -0.45706  -0.29318  -0.29318
  Beta virt. eigenvalues --   -0.16777   0.00681   0.35953   0.39861   0.39861
  Beta virt. eigenvalues --    0.57648   0.60400   0.70903   0.76105   0.76105
  Beta virt. eigenvalues --    0.80180   0.80180   1.03649
          Condensed to atoms (all electrons):
               1          2          3
     1  H    0.896932  -0.025866   0.022741
     2  Cl  -0.025866  17.264121  -0.025866
     3  H    0.022741  -0.025866   0.896932
          Atomic-Atomic Spin Densities.
               1          2          3
     1  H    0.702565  -0.227834   0.026475
     2  Cl  -0.227834   0.453256  -0.227834
     3  H    0.026475  -0.227834   0.702565
 Mulliken charges and spin densities:
               1          2
     1  H    0.106194   0.501206
     2  Cl  -0.212388  -0.002412
     3  H    0.106194   0.501206
 Sum of Mulliken charges =   0.00000   1.00000
 Mulliken charges and spin densities with hydrogens summed into heavy atoms:
               1          2
     2  Cl   0.000000   1.000000
 Electronic spatial extent (au):  <R**2>=             47.3936
 Charge=              0.0000 electrons
 Dipole moment (field-independent basis, Debye):
    X=              0.0000    Y=             -0.0000    Z=              0.0000  Tot=              0.0000
 Quadrupole moment (field-independent basis, Debye-Ang):
   XX=            -15.0494   YY=            -15.0494   ZZ=            -11.7957
   XY=             -0.0000   XZ=             -0.0000   YZ=              0.0000
 Traceless Quadrupole moment (field-independent basis, Debye-Ang):
   XX=             -1.0845   YY=             -1.0845   ZZ=              2.1691
   XY=             -0.0000   XZ=             -0.0000   YZ=              0.0000
 Octapole moment (field-independent basis, Debye-Ang**2):
  XXX=             -0.0000  YYY=             -0.0000  ZZZ=              0.0000  XYY=             -0.0000
  XXY=             -0.0000  XXZ=              0.0000  XZZ=             -0.0000  YZZ=             -0.0000
  YYZ=              0.0000  XYZ=             -0.0000
 Hexadecapole moment (field-independent basis, Debye-Ang**3):
 XXXX=            -16.5168 YYYY=            -16.5168 ZZZZ=            -38.8207 XXXY=             -0.0000
 XXXZ=              0.0000 YYYX=             -0.0000 YYYZ=              0.0000 ZZZX=              0.0000
 ZZZY=              0.0000 XXYY=             -5.5056 XXZZ=             -9.6392 YYZZ=             -9.6392
 XXYZ=              0.0000 YYXZ=              0.0000 ZZXY=             -0.0000
 N-N= 1.210266357318D+01 E-N=-1.121276202370D+03  KE= 4.606966557766D+02
                          Isotropic Fermi Contact Couplings
        Atom                 a.u.       MegaHertz       Gauss      10(-4) cm-1
     1  H(1)               0.18815     841.00703     300.09222     280.52975
     2  Cl(35)             1.41958     622.43439     222.10007     207.62177
     3  H(1)               0.18815     841.00703     300.09222     280.52975
 --------------------------------------------------------
       Center         ----  Spin Dipole Couplings  ----
                      3XX-RR        3YY-RR        3ZZ-RR
 --------------------------------------------------------
     1   Atom        0.001528      0.001528     -0.003056
     2   Atom        0.269737      0.269737     -0.539475
     3   Atom        0.001528      0.001528     -0.003056
 --------------------------------------------------------
                        XY            XZ            YZ
 --------------------------------------------------------
     1   Atom        0.000000     -0.000000      0.000000
     2   Atom        0.000000      0.000000      0.000000
     3   Atom        0.000000     -0.000000      0.000000
 --------------------------------------------------------


 ---------------------------------------------------------------------------------
              Anisotropic Spin Dipole Couplings in Principal Axis System
 ---------------------------------------------------------------------------------

       Atom             a.u.   MegaHertz   Gauss  10(-4) cm-1        Axes

              Baa    -0.0031    -1.630    -0.582    -0.544  0.0000  0.0000  1.0000
     1 H(1)   Bbb     0.0015     0.815     0.291     0.272  1.0000 -0.0007 -0.0000
              Bcc     0.0015     0.815     0.291     0.272  0.0007  1.0000 -0.0000
 
[...]
 --------------------------------------------------------
                        XY            XZ            YZ
 --------------------------------------------------------
     1   Atom        0.000000     -0.000000      0.000000
     2   Atom        0.000000      0.000000      0.000000
     3   Atom        0.000000     -0.000000      0.000000
 --------------------------------------------------------


 ---------------------------------------------------------------------------------
              Anisotropic Spin Dipole Couplings in Principal Axis System
 ---------------------------------------------------------------------------------

       Atom             a.u.   MegaHertz   Gauss  10(-4) cm-1        Axes

              Baa    -0.0031    -1.630    -0.582    -0.544  0.0000  0.0000  1.0000
     1 H(1)   Bbb     0.0015     0.815     0.291     0.272  0.0000  1.0000  0.0000
              Bcc     0.0015     0.815     0.291     0.272  1.0000  0.0000 -0.0000
 
              Baa    -0.5395   -28.235   -10.075    -9.418 -0.0000  0.0000  1.0000
     2 Cl(35) Bbb     0.2697    14.117     5.037     4.709  0.0059  1.0000  0.0000
              Bcc     0.2697    14.117     5.037     4.709  1.0000 -0.0059  0.0000
 
              Baa    -0.0031    -1.630    -0.582    -0.544  0.0000  0.0000  1.0000
     3 H(1)   Bbb     0.0015     0.815     0.291     0.272  1.0000  0.0015 -0.0000
              Bcc     0.0015     0.815     0.291     0.272 -0.0015  1.0000  0.0000
 

 ---------------------------------------------------------------------------------

 No NMR shielding tensors so no spin-rotation constants.
 Leave Link  601 at Wed Oct  7 14:03:01 2020, MaxMem=  2684354560 cpu:               4.3 elap:               0.7
 (Enter /udrive/faculty/rpeverati/g16/g16/l701.exe)
 ... and contract with generalized density number  0.
 Compute integral second derivatives.
 R6Disp: Adding Grimme-D3(BJ) dispersion energy 2nd derivatives to the Hessian.
 Leave Link  701 at Wed Oct  7 14:03:02 2020, MaxMem=  2684354560 cpu:               3.7 elap:               0.8
 (Enter /udrive/faculty/rpeverati/g16/g16/l702.exe)
 L702 exits ... SP integral derivatives will be done elsewhere.
 Leave Link  702 at Wed Oct  7 14:03:03 2020, MaxMem=  2684354560 cpu:               1.1 elap:               0.6
 (Enter /udrive/faculty/rpeverati/g16/g16/l703.exe)
 Integral derivatives from FoFJK, PRISM(SPDF).
 Compute integral second derivatives, UseDBF=F ICtDFT=           0.
 Calling FoFJK, ICntrl=    100527 FMM=F ISym2X=1 I1Cent= 0 IOpClX= 0 NMat=1 NMatS=1 NMatT=0.
 FoFJK:  IHMeth= 1 ICntrl=  100527 DoSepK=F KAlg= 0 I1Cent=           0 FoldK=F
 IRaf=         0 NMat=       1 IRICut=       1 DoRegI=T DoRafI=F ISym2E= 1 IDoP0=0 IntGTp=1.
 FoFCou: FMM=F IPFlag=           0 FMFlag=      100000 FMFlg1=         800
         NFxFlg=           0 DoJE=F BraDBF=F KetDBF=F FulRan=T
         wScrn=  0.000000 ICntrl=    100527 IOpCl=  0 I1Cent=           0 NGrid=           0
         NMat0=    1 NMatS0=      1 NMatT0=    0 NMatD0=    1 NMtDS0=    0 NMtDT0=    0
 Petite list used in FoFCou.
 Leave Link  703 at Wed Oct  7 14:03:04 2020, MaxMem=  2684354560 cpu:               8.5 elap:               1.1
 (Enter /udrive/faculty/rpeverati/g16/g16/l716.exe)
 Dipole        = 3.87168717D-17-2.13089718D-31-1.11022302D-16
 Polarizability= 6.36457952D+00-1.37827742D-15 6.36457952D+00
                 5.49789432D-13 1.11140811D-12 3.92281818D+01
 Full mass-weighted force constant matrix:
 Low frequencies ----1059.8202 -304.8016 -304.8016  -35.7328  -35.7328   -0.0047
 Low frequencies ---    0.0028    0.0028 1746.8141
 ******    3 imaginary frequencies (negative Signs) ****** 
 Diagonal vibrational polarizability:
       12.3075706      12.3075706      21.4219125
 Harmonic frequencies (cm**-1), IR intensities (KM/Mole), Raman scattering
 activities (A**4/AMU), depolarization ratios for plane and unpolarized
 incident light, reduced masses (AMU), force constants (mDyne/A),
 and normal coordinates:
                      1                      2                      3
                     SGU                    PIU                    PIU
 Frequencies --  -1059.8202              -304.8016              -304.8016
 Red. masses --      1.0641                 1.0641                 1.0641
 Frc consts  --      0.7042                 0.0582                 0.0582
 IR Inten    --    894.1070                42.4887                42.4887
  Atom  AN      X      Y      Z        X      Y      Z        X      Y      Z
     1   1    -0.00  -0.00   0.71     0.71  -0.00   0.00     0.00   0.71   0.00
     2  17     0.00   0.00  -0.04    -0.04   0.00  -0.00    -0.00  -0.04  -0.00
     3   1    -0.00  -0.00   0.71     0.71  -0.00   0.00     0.00   0.71  -0.00
                      4
                     SGG
 Frequencies --   1746.8141
 Red. masses --      1.0078
 Frc consts  --      1.8119
 IR Inten    --      0.0000
  Atom  AN      X      Y      Z
     1   1    -0.00  -0.00   0.71
     2  17     0.00   0.00  -0.00
     3   1    -0.00  -0.00  -0.71

 -------------------
 - Thermochemistry -
 -------------------
 Temperature   298.150 Kelvin.  Pressure   1.00000 Atm.
 Atom     1 has atomic number  1 and mass   1.00783
 Atom     2 has atomic number 17 and mass  34.96885
 Atom     3 has atomic number  1 and mass   1.00783
 Molecular mass:    36.98450 amu.
 Principal axes and moments of inertia in atomic units:
                           1         2         3
     Eigenvalues --     0.00000  16.37330  16.37330
           X           -0.00000   1.00000   0.00000
           Y            0.00000   0.00000   1.00000
           Z            1.00000   0.00000   0.00000
 This molecule is a prolate symmetric top.
 Rotational symmetry number  2.
 Rotational temperature (Kelvin)      5.28995
 Rotational constant (GHZ):         110.224643
    3 imaginary frequencies ignored.
 Zero-point vibrational energy      10448.3 (Joules/Mol)
                                    2.49720 (Kcal/Mol)
 Vibrational temperatures:   2513.28
          (Kelvin)
 
 Zero-point correction=                           0.003980 (Hartree/Particle)
 Thermal correction to Energy=                    0.006342
 Thermal correction to Enthalpy=                  0.007286
 Thermal correction to Gibbs Free Energy=        -0.014930
 Sum of electronic and zero-point Energies=           -461.278825
 Sum of electronic and thermal Energies=              -461.276462
 Sum of electronic and thermal Enthalpies=            -461.275518
 Sum of electronic and thermal Free Energies=         -461.297734
 
                     E (Thermal)             CV                S
                      KCal/Mol        Cal/Mol-Kelvin    Cal/Mol-Kelvin
 Total                    3.979              4.999             46.756
 Electronic               0.000              0.000              1.377
 Translational            0.889              2.981             36.753
 Rotational               0.592              1.987              8.622
 Vibrational              2.498              0.031              0.004
                       Q            Log10(Q)             Ln(Q)
 Total Bot       0.736384D+07          6.867104         15.812092
 Total V=0       0.498381D+09          8.697562         20.026876
 Vib (Bot)       0.147787D-01         -1.830363         -4.214566
 Vib (V=0)       0.100022D+01          0.000095          0.000218
 Electronic      0.200000D+01          0.301030          0.693147
 Translational   0.884064D+07          6.946484         15.994869
 Rotational      0.281808D+02          1.449953          3.338641
 
                                                          TS search on BH76.
                                                             IR Spectrum
 
     1                                                                                                                               
     7                                                                                                                               
     4                                                                                                                               
     7                                                                                                                               
 
     X                                                                                                                               
     X                                                                                                                               
     X                                                                                                                               
     X                                                                                                                               
     X                                                                                                                               
     X                                                                                                                               
     X                                                                                                                               
     X                                                                                                                               
     X                                                                                                                               
     X                                                                                                                               
     X                                                                                                                               
     X                                                                                                                               
     X                                                                                                                               
     X                                                                                                                               
     X                                                                                                                               
     X                                                                                                                               
     X                                                                                                                               
     X                                                                                                                               
     X                                                                                                                               
     X                                                                                                                               
 
 ***** Axes restored to original set *****
 -------------------------------------------------------------------
 Center     Atomic                   Forces (Hartrees/Bohr)
 Number     Number              X              Y              Z
 -------------------------------------------------------------------
      1        1           0.000000000   -0.000000000    0.000105807
      2       17           0.000000000    0.000000000   -0.000000000
      3        1          -0.000000000   -0.000000000   -0.000105807
 -------------------------------------------------------------------
 Cartesian Forces:  Max     0.000105807 RMS     0.000049878
 Force constants in Cartesian coordinates: 
                1             2             3             4             5 
      1 -0.169946D-02
      2  0.000000D+00 -0.169946D-02
      3  0.000000D+00  0.000000D+00  0.379367D-01
      4  0.335022D-02  0.000000D+00  0.000000D+00 -0.670043D-02
      5  0.000000D+00  0.335022D-02  0.000000D+00  0.000000D+00 -0.670043D-02
      6  0.000000D+00  0.000000D+00  0.405044D-01  0.000000D+00  0.000000D+00
      7 -0.165076D-02  0.000000D+00  0.000000D+00  0.335022D-02  0.000000D+00
      8  0.000000D+00 -0.165076D-02  0.000000D+00  0.000000D+00  0.335022D-02
      9  0.000000D+00  0.000000D+00 -0.784411D-01  0.000000D+00  0.000000D+00
                6             7             8             9 
      6 -0.810089D-01
      7  0.000000D+00 -0.169946D-02
      8  0.000000D+00  0.000000D+00 -0.169946D-02
      9  0.405044D-01  0.000000D+00  0.000000D+00  0.379367D-01
 FormGI is forming the generalized inverse of G from B-inverse, IUseBI=4.
 Force constants in internal coordinates: 
                1             2             3             4 
      1  0.379367D-01
      2  0.784411D-01  0.379367D-01
      3  0.000000D+00  0.000000D+00 -0.134563D-01
      4  0.000000D+00  0.000000D+00  0.000000D+00 -0.134563D-01
 Leave Link  716 at Wed Oct  7 14:03:05 2020, MaxMem=  2684354560 cpu:               1.6 elap:               0.7
 (Enter /udrive/faculty/rpeverati/g16/g16/l103.exe)

 GradGradGradGradGradGradGradGradGradGradGradGradGradGradGradGradGradGrad
 Berny optimization.
 Optmz: redundant internal coordinate code flag= 1
 Red2BG:  D1=  7.39D-01 OD1=  3.33D-16 B2RMS=  0.00D+00 IAprox=1
 Red2BG is reusing G-inverse.
 Internal  Forces:  Max     0.000105807 RMS     0.000074817
 Search for a local minimum.
 Step number   1 out of a maximum of    2
 All quantities printed in internal units (Hartrees-Bohrs-Radians)
 Second derivative matrix not updated -- analytic derivatives used.
 The second derivative matrix:
                          R1        R2        A1        A2
           R1           0.03794
           R2           0.07844   0.03794
           A1          -0.00000   0.00000  -0.01346
           A2           0.00000  -0.00000  -0.00000  -0.01346
 ITU=  0
 Eigenvectors of the second derivative matrix:
                           1         2         3         4
     Eigenvalues --    -0.04050  -0.01346  -0.01346   0.11638
   1         R1        -0.70711   0.00000   0.00000   0.70711
   2         R2         0.70711  -0.00000  -0.00000   0.70711
   3         A1        -0.00000  -1.00000  -0.00017   0.00000
   4         A2         0.00000  -0.00017   1.00000   0.00000
 Eigenvalue     1 is  -4.05D-02 should be greater than     0.000000 Eigenvector:
                          R2        R1        A1        A2
   1                    0.70711  -0.70711  -0.00000   0.00000
 Eigenvalue     2 is  -1.35D-02 should be greater than     0.000000 Eigenvector:
                          A1        A2        R1        R2
   1                   -1.00000  -0.00017   0.00000  -0.00000
 Eigenvalue     3 is  -1.35D-02 should be greater than     0.000000 Eigenvector:
                          A2        A1        R2        R1
   1                    1.00000  -0.00017  -0.00000   0.00000
 Angle between quadratic step and forces=   0.00 degrees.
 Linear search not attempted -- first point.
 Iteration  1 RMS(Cart)=  0.00064288 RMS(Int)=  0.00000000
 Iteration  2 RMS(Cart)=  0.00000000 RMS(Int)=  0.00000001
 ITry= 1 IFail=0 DXMaxC= 9.09D-04 DCOld= 1.00D+10 DXMaxT= 3.00D-01 DXLimC= 3.00D+00 Rises=F
 ClnCor:  largest displacement from symmetrization is 1.22D-13 for atom     2.
 Variable       Old X    -DE/DX   Delta X   Delta X   Delta X     New X
                                 (Linear)    (Quad)   (Total)
    R1        2.85010   0.00011   0.00000   0.00091   0.00091   2.85101
    R2        2.85010   0.00011   0.00000   0.00091   0.00091   2.85101
    A1        3.14159   0.00000   0.00000   0.00000   0.00000   3.14159
    A2        3.14159  -0.00000   0.00000  -0.00000   0.00000   3.14159
         Item               Value     Threshold  Converged?
 Maximum Force            0.000106     0.000450     YES
 RMS     Force            0.000075     0.000300     YES
 Maximum Displacement     0.000909     0.001800     YES
 RMS     Displacement     0.000643     0.001200     YES
 Predicted change in Energy=-9.619553D-08
 Optimization completed.
    -- Stationary point found.
                           ----------------------------
                           !   Optimized Parameters   !
                           ! (Angstroms and Degrees)  !
 --------------------------                            --------------------------
 ! Name  Definition              Value          Derivative Info.                !
 --------------------------------------------------------------------------------
 ! R1    R(1,2)                  1.5082         -DE/DX =    0.0001              !
 ! R2    R(2,3)                  1.5082         -DE/DX =    0.0001              !
 ! A1    L(1,2,3,-1,-1)        180.0            -DE/DX =    0.0                 !
 ! A2    L(1,2,3,-2,-2)        180.0            -DE/DX =    0.0                 !
 --------------------------------------------------------------------------------
 GradGradGradGradGradGradGradGradGradGradGradGradGradGradGradGradGradGrad

 Leave Link  103 at Wed Oct  7 14:03:06 2020, MaxMem=  2684354560 cpu:               3.8 elap:               0.9
 (Enter /udrive/faculty/rpeverati/g16/g16/l9999.exe)
 Dipole is zero, so no output in dipole orientation.

 ----------------------------------------------------------------------

 Electric dipole moment (input orientation):
 (Debye = 10**-18 statcoulomb cm , SI units = C m)
                  (au)            (Debye)         (10**-30 SI)
   Tot        0.000000D+00      0.000000D+00      0.000000D+00
   x          0.000000D+00      0.000000D+00      0.000000D+00
   y          0.000000D+00      0.000000D+00      0.000000D+00
   z          0.000000D+00      0.000000D+00      0.000000D+00

 Dipole polarizability, Alpha (input orientation).
 (esu units = cm**3 , SI units = C**2 m**2 J**-1)
 Alpha(0;0):
               (au)            (10**-24 esu)      (10**-40 SI)
   iso        0.173191D+02      0.256643D+01      0.285554D+01
   aniso      0.328636D+02      0.486988D+01      0.541848D+01
   xx         0.636458D+01      0.943133D+00      0.104938D+01
   yx         0.000000D+00      0.000000D+00      0.000000D+00
   yy         0.636458D+01      0.943133D+00      0.104938D+01
   zx         0.000000D+00      0.000000D+00      0.000000D+00
   zy         0.000000D+00      0.000000D+00      0.000000D+00
   zz         0.392282D+02      0.581302D+01      0.646785D+01

 ----------------------------------------------------------------------

 Test job not archived.
 1\1\GINC-NODE51\Freq\UB97D3\6-31G(d)\Cl1H2(2)\RPEVERATI\07-Oct-2020\0\
 \#P Freq B97D3/6-31G* 5D 7F Integral=UltraFineGrid SCF=(NoSymm,XQC,Max
 Cyc=120) IOp(1/33=1) Geom=Check Guess=Read\\TS search on BH76.\\0,2\H,
 0.,0.,1.5082095288\Cl,0.,0.,0.\H,0.,0.,-1.5082095288\\Version=ES64L-G1
 6RevA.03\State=2-SGG\HF=-461.2828041\S2=0.754579\S2-1=0.\S2A=0.750003\
 RMSD=3.568e-18\RMSF=4.988e-05\ZeroPoint=0.0039795\Thermal=0.0063417\Di
 pole=0.,0.,0.\DipoleDeriv=0.1441019,0.,0.,0.,0.1441019,0.,0.,0.,-0.661
 0396,-0.2882037,0.,0.,0.,-0.2882037,0.,0.,0.,1.3220793,0.1441019,0.,0.
 ,0.,0.1441019,0.,0.,0.,-0.6610396\Polar=6.3645795,0.,6.3645795,0.,0.,3
 9.2281818\Quadrupole=-0.8063355,-0.8063355,1.612671,0.,0.,0.\PG=D*H [O
 (Cl1),C*(H1.H1)]\NImag=3\\-0.00169946,0.,-0.00169946,0.,0.,0.03793666,
 0.00335022,0.,0.,-0.00670043,0.,0.00335022,0.,0.,-0.00670043,0.,0.,0.0
 4050443,0.,0.,-0.08100887,-0.00165076,0.,0.,0.00335022,0.,0.,-0.001699
 46,0.,-0.00165076,0.,0.,0.00335022,0.,0.,-0.00169946,0.,0.,-0.07844110
 ,0.,0.,0.04050443,0.,0.,0.03793666\\0.,0.,-0.00010581,0.,0.,0.,0.,0.,0
 .00010581\\\@


 MICHAEL FARADAY, ASKED BY A POLITICIAN WHAT GOOD
 HIS ELECTRICAL DISCOVERIES WERE, REPLIED 
 "AT PRESENT I DO NOT KNOW, BUT ONE DAY YOU WILL BE
 ABLE TO TAX THEM."
 Job cpu time:       0 days  0 hours  1 minutes 26.7 seconds.
 Elapsed time:       0 days  0 hours  0 minutes 18.3 seconds.
 File lengths (MBytes):  RWF=      5 Int=      0 D2E=      0 Chk=      1 Scr=      1
 Normal termination of Gaussian 16 at Wed Oct  7 14:03:08 2020.
