 Entering Gaussian System, Link 0=g16
 Input=MN_50_hco_BH76_B97DBJ_631Gs.in
 Output=MN_50_hco_BH76_B97DBJ_631Gs.log
 Initial command:
 /udrive/faculty/rpeverati/g16/g16/l1.exe "/udrive/scratch-directories/gaussian09/rpeverati/Gau-16865.inp" -scrdir="/udrive/scratch-directories/gaussian09/rpeverati/"
 Entering Link 1 = /udrive/faculty/rpeverati/g16/g16/l1.exe PID=     16879.
  
 Copyright (c) 1988,1990,1992,1993,1995,1998,2003,2009,2016,
            Gaussian, Inc.  All Rights Reserved.
  
 This is part of the Gaussian(R) 16 program.  It is based on
 the Gaussian(R) 09 system (copyright 2009, Gaussian, Inc.),
 the Gaussian(R) 03 system (copyright 2003, Gaussian, Inc.),
 the Gaussian(R) 98 system (copyright 1998, Gaussian, Inc.),
 the Gaussian(R) 94 system (copyright 1995, Gaussian, Inc.),
 the Gaussian 92(TM) system (copyright 1992, Gaussian, Inc.),
 the Gaussian 90(TM) system (copyright 1990, Gaussian, Inc.),
 the Gaussian 88(TM) system (copyright 1988, Gaussian, Inc.),
 the Gaussian 86(TM) system (copyright 1986, Carnegie Mellon
 University), and the Gaussian 82(TM) system (copyright 1983,
 Carnegie Mellon University). Gaussian is a federally registered
 trademark of Gaussian, Inc.
  
 This software contains proprietary and confidential information,
 including trade secrets, belonging to Gaussian, Inc.
  
 This software is provided under written license and may be
 used, copied, transmitted, or stored only in accord with that
 written license.
  
 The following legend is applicable only to US Government
 contracts under FAR:
  
                    RESTRICTED RIGHTS LEGEND
  
 Use, reproduction and disclosure by the US Government is
 subject to restrictions as set forth in subparagraphs (a)
 and (c) of the Commercial Computer Software - Restricted
 Rights clause in FAR 52.227-19.
  
 Gaussian, Inc.
 340 Quinnipiac St., Bldg. 40, Wallingford CT 06492
  
  
 ---------------------------------------------------------------
 Warning -- This program may not be used in any manner that
 competes with the business of Gaussian, Inc. or will provide
 assistance to any competitor of Gaussian, Inc.  The licensee
 of this program is prohibited from giving any competitor of
 Gaussian, Inc. access to this program.  By using this program,
 the user acknowledges that Gaussian, Inc. is engaged in the
 business of creating and licensing software in the field of
 computational chemistry and represents and warrants to the
 licensee that it is not a competitor of Gaussian, Inc. and that
 it will not use this program in any manner prohibited above.
 ---------------------------------------------------------------
  

 Cite this work as:
 Gaussian 16, Revision A.03,
 M. J. Frisch, G. W. Trucks, H. B. Schlegel, G. E. Scuseria, 
 M. A. Robb, J. R. Cheeseman, G. Scalmani, V. Barone, 
 G. A. Petersson, H. Nakatsuji, X. Li, M. Caricato, A. V. Marenich, 
 J. Bloino, B. G. Janesko, R. Gomperts, B. Mennucci, H. P. Hratchian, 
 J. V. Ortiz, A. F. Izmaylov, J. L. Sonnenberg, D. Williams-Young, 
 F. Ding, F. Lipparini, F. Egidi, J. Goings, B. Peng, A. Petrone, 
 T. Henderson, D. Ranasinghe, V. G. Zakrzewski, J. Gao, N. Rega, 
 G. Zheng, W. Liang, M. Hada, M. Ehara, K. Toyota, R. Fukuda, 
 J. Hasegawa, M. Ishida, T. Nakajima, Y. Honda, O. Kitao, H. Nakai, 
 T. Vreven, K. Throssell, J. A. Montgomery, Jr., J. E. Peralta, 
 F. Ogliaro, M. J. Bearpark, J. J. Heyd, E. N. Brothers, K. N. Kudin, 
 V. N. Staroverov, T. A. Keith, R. Kobayashi, J. Normand, 
 K. Raghavachari, A. P. Rendell, J. C. Burant, S. S. Iyengar, 
 J. Tomasi, M. Cossi, J. M. Millam, M. Klene, C. Adamo, R. Cammi, 
 J. W. Ochterski, R. L. Martin, K. Morokuma, O. Farkas, 
 J. B. Foresman, and D. J. Fox, Gaussian, Inc., Wallingford CT, 2016.
 
 ******************************************
 Gaussian 16:  ES64L-G16RevA.03 25-Dec-2016
                 7-Oct-2020 
 ******************************************
 %NoSave
 %nproc=12
 Will use up to   12 processors via shared memory.
 %mem=20GB
 %chk=MN_50_hco_BH76_B97DBJ_631Gs
 ----------------------------------------------------------------------
 #P Opt(MaxCyc=100) B97D3/6-31G* 5D 7F Integral=UltraFineGrid SCF=(NoSy
 mm,XQC,MaxCyc=120) IOp(1/33=1)
 ----------------------------------------------------------------------
 1/6=100,18=20,19=15,26=4,33=1,38=1/1,3;
 2/9=110,12=2,17=6,18=5,40=1/2;
 3/5=1,6=6,7=1,8=11,11=2,25=1,30=1,71=1,74=-59,75=-5/1,2,3;
 4/9=2/1;
 5/5=2,7=120,8=3,13=1,38=5/2,8;
 6/7=2,8=2,9=2,10=2,28=1/1;
 7//1,2,3,16;
 1/6=100,18=20,19=15,26=4,33=1/3(2);
 2/9=110/2;
 99//99;
 2/9=110/2;
 3/5=1,6=6,7=1,8=11,11=2,25=1,30=1,71=1,74=-59,75=-5/1,2,3;
 4/5=5,9=2,16=3,69=1/1;
 5/5=2,7=120,8=3,13=1,38=5/2,8;
 7//1,2,3,16;
 1/6=100,18=20,19=15,26=4,33=1/3(-5);
 2/9=110/2;
 6/7=2,8=2,9=2,10=2,19=2,28=1/1;
 99/9=1/99;
 Leave Link    1 at Wed Oct  7 14:02:23 2020, MaxMem=  2684354560 cpu:               5.9 elap:               0.6
 (Enter /udrive/faculty/rpeverati/g16/g16/l101.exe)
 ONIOM data not found on unit 2.
 ------------------
 TS search on BH76.
 ------------------
 TstMul:  ICh=     0
 TstMul:  Mul=     2
 TstMul:  ICh=     0
 TstMul:  Mul=     2
 Symbolic Z-matrix:
 Charge =  0 Multiplicity = 2
 H                    -0.85205   1.22789   0. 
 C                     0.06086   0.58466   0. 
 O                     0.06086  -0.59197   0. 
 
 RdStrC is calling ZToCFu for IStruc=1 NZ=     3.
 PrtBox:  NBox=     1 Levels=  1 BoxLen=    8.00 SMaxX=        3.44
          Shift=            1.610150            1.118670            0.000000
 Box      1 Number                   0 centers from      1 to      3:
 After GenITR:
 ITRead=  0  0  0
 MicOpt= -1 -1 -1
 ITRead=  0  0  0
 MicOpt= -1 -1 -1
 NAtoms=      3 NQM=        3 NQMF=       0 NMMI=      0 NMMIF=      0
                NMic=       0 NMicF=      0.
                    Isotopes and Nuclear Properties:
 (Nuclear quadrupole moments (NQMom) in fm**2, nuclear magnetic moments (NMagM)
  in nuclear magnetons)

  Atom         1           2           3
 IAtWgt=           1          12          16
 AtmWgt=   1.0078250  12.0000000  15.9949146
 NucSpn=           1           0           0
 AtZEff=   0.0000000   0.0000000   0.0000000
 NQMom=    0.0000000   0.0000000   0.0000000
 NMagM=    2.7928460   0.0000000   0.0000000
 AtZNuc=   1.0000000   6.0000000   8.0000000
 No MM parameters found.
 Leave Link  101 at Wed Oct  7 14:02:24 2020, MaxMem=  2684354560 cpu:               9.1 elap:               0.9
 (Enter /udrive/faculty/rpeverati/g16/g16/l103.exe)

 GradGradGradGradGradGradGradGradGradGradGradGradGradGradGradGradGradGrad
 Berny optimization.
 Optmz: redundant internal coordinate code flag= 1
 Initialization pass.
                           ----------------------------
                           !    Initial Parameters    !
                           ! (Angstroms and Degrees)  !
 --------------------------                            --------------------------
 ! Name  Definition              Value          Derivative Info.                !
 --------------------------------------------------------------------------------
 ! R1    R(1,2)                  1.1168         estimate D2E/DX2                !
 ! R2    R(2,3)                  1.1766         estimate D2E/DX2                !
 ! A1    A(1,2,3)              125.1683         estimate D2E/DX2                !
 --------------------------------------------------------------------------------
 Maximum allowed force set to 1.00D+20.
 Trust Radius=3.00D-01 FncErr=1.00D-07 GrdErr=1.00D-06 EigMax=2.50D+02 EigMin=1.00D-04
 Number of steps in this run=    100 maximum allowed number of steps=    100.
 GradGradGradGradGradGradGradGradGradGradGradGradGradGradGradGradGradGrad

 Leave Link  103 at Wed Oct  7 14:02:25 2020, MaxMem=  2684354560 cpu:               1.4 elap:               0.7
 (Enter /udrive/faculty/rpeverati/g16/g16/l202.exe)
                          Input orientation:                          
 ---------------------------------------------------------------------
 Center     Atomic      Atomic             Coordinates (Angstroms)
 Number     Number       Type             X           Y           Z
 ---------------------------------------------------------------------
      1          1           0       -0.852055    1.227892    0.000000
      2          6           0        0.060861    0.584656    0.000000
      3          8           0        0.060861   -0.591975    0.000000
 ---------------------------------------------------------------------
                    Distance matrix (angstroms):
                    1          2          3
     1  H    0.000000
     2  C    1.116767   0.000000
     3  O    2.036009   1.176631   0.000000
 Stoichiometry    CHO(2)
 Framework group  CS[SG(CHO)]
 Deg. of freedom     3
 Full point group                 CS      NOp   2
 Largest Abelian subgroup         CS      NOp   2
 Largest concise Abelian subgroup C1      NOp   1
                         Standard orientation:                         
 ---------------------------------------------------------------------
 Center     Atomic      Atomic             Coordinates (Angstroms)
 Number     Number       Type             X           Y           Z
 ---------------------------------------------------------------------
      1          1           0       -0.852055    1.227890    0.000000
      2          6           0        0.060861    0.584654    0.000000
      3          8           0        0.060861   -0.591977    0.000000
 ---------------------------------------------------------------------
 Rotational constants (GHZ):         742.4426916          44.7013050          42.1627521
 Leave Link  202 at Wed Oct  7 14:02:26 2020, MaxMem=  2684354560 cpu:               1.6 elap:               0.6
 (Enter /udrive/faculty/rpeverati/g16/g16/l301.exe)
 Standard basis: 6-31G(d) (5D, 7F)
 Ernie: Thresh=  0.10000D-02 Tol=  0.10000D-05 Strict=F.
 There are    24 symmetry adapted cartesian basis functions of A'  symmetry.
 There are     8 symmetry adapted cartesian basis functions of A"  symmetry.
 There are    22 symmetry adapted basis functions of A'  symmetry.
 There are     8 symmetry adapted basis functions of A"  symmetry.
    30 basis functions,    60 primitive gaussians,    32 cartesian basis functions
     8 alpha electrons        7 beta electrons
       nuclear repulsion energy        26.5098484037 Hartrees.
 IExCor= 3630 DFT=T Ex+Corr=B97D3 ExCW=0 ScaHFX=  0.000000
 ScaDFX=  1.000000  1.000000  1.000000  1.000000 ScalE2=  1.000000  1.000000
 IRadAn=      5 IRanWt=     -1 IRanGd=            0 ICorTp=0 IEmpDi=141
 NAtoms=    3 NActive=    3 NUniq=    3 SFac= 1.00D+00 NAtFMM=   60 NAOKFM=F Big=F
 Integral buffers will be    131072 words long.
 Raffenetti 2 integral format.
 Two-electron integral symmetry is turned on.
 R6Disp:  Grimme-D3(BJ) Dispersion energy=       -0.0022643925 Hartrees.
 Nuclear repulsion after empirical dispersion term =       26.5075840112 Hartrees.
 Leave Link  301 at Wed Oct  7 14:02:27 2020, MaxMem=  2684354560 cpu:               2.5 elap:               0.7
 (Enter /udrive/faculty/rpeverati/g16/g16/l302.exe)
 NPDir=0 NMtPBC=     1 NCelOv=     1 NCel=       1 NClECP=     1 NCelD=      1
         NCelK=      1 NCelE2=     1 NClLst=     1 CellRange=     0.0.
 One-electron integrals computed using PRISM.
 One-electron integral symmetry used in STVInt
 NBasis=    30 RedAO= T EigKep=  1.66D-02  NBF=    22     8
 NBsUse=    30 1.00D-06 EigRej= -1.00D+00 NBFU=    22     8
 Precomputing XC quadrature grid using
 IXCGrd= 4 IRadAn=           5 IRanWt=          -1 IRanGd=           0 AccXCQ= 0.00D+00.
 Generated NRdTot=       0 NPtTot=           0 NUsed=           0 NTot=          32
 NSgBfM=    32    32    32    32    32 MxSgAt=     3 MxSgA2=     3.
 Leave Link  302 at Wed Oct  7 14:02:28 2020, MaxMem=  2684354560 cpu:               4.5 elap:               0.9
 (Enter /udrive/faculty/rpeverati/g16/g16/l303.exe)
 DipDrv:  MaxL=1.
 Leave Link  303 at Wed Oct  7 14:02:29 2020, MaxMem=  2684354560 cpu:               2.1 elap:               0.4
 (Enter /udrive/faculty/rpeverati/g16/g16/l401.exe)
 SCF N**3 symmetry information disabled.
 ExpMin= 1.61D-01 ExpMax= 5.48D+03 ExpMxC= 8.25D+02 IAcc=3 IRadAn=         5 AccDes= 0.00D+00
 Harris functional with IExCor= 3630 and IRadAn=       5 diagonalized for initial guess.
 HarFok:  IExCor= 3630 AccDes= 0.00D+00 IRadAn=         5 IDoV= 1 UseB2=F ITyADJ=14
 ICtDFT=  3500011 ScaDFX=  1.000000  1.000000  1.000000  1.000000
 FoFCou: FMM=F IPFlag=           0 FMFlag=      100000 FMFlg1=           0
         NFxFlg=           0 DoJE=T BraDBF=F KetDBF=T FulRan=T
         wScrn=  0.000000 ICntrl=       500 IOpCl=  0 I1Cent=   200000004 NGrid=           0
         NMat0=    1 NMatS0=      1 NMatT0=    0 NMatD0=    1 NMtDS0=    0 NMtDT0=    0
 Petite list used in FoFCou.
 Harris En= -113.767607698318    
 JPrj=0 DoOrth=F DoCkMO=F.
 Initial guess orbital symmetries:
 Alpha Orbitals:
       Occupied  (A') (A') (A') (A') (A') (A") (A') (A')
       Virtual   (A") (A') (A') (A") (A') (A') (A') (A') (A') (A")
                 (A') (A") (A') (A") (A') (A') (A") (A') (A') (A")
                 (A') (A')
 Beta  Orbitals:
       Occupied  (A') (A') (A') (A') (A') (A") (A')
       Virtual   (A') (A") (A') (A') (A") (A') (A') (A') (A') (A')
                 (A") (A') (A") (A') (A") (A') (A') (A") (A') (A')
                 (A") (A') (A')
 The electronic state of the initial guess is 2-A'.
 Initial guess <Sx>= 0.0000 <Sy>= 0.0000 <Sz>= 0.5000 <S**2>= 0.7500 S= 0.5000
 Leave Link  401 at Wed Oct  7 14:02:30 2020, MaxMem=  2684354560 cpu:               4.7 elap:               0.8
 (Enter /udrive/faculty/rpeverati/g16/g16/l502.exe)
 Keep J ints in memory in symmetry-blocked form, NReq=10459184.
 FoFCou: FMM=F IPFlag=           0 FMFlag=           0 FMFlg1=           0
         NFxFlg=           0 DoJE=F BraDBF=F KetDBF=F FulRan=T
         wScrn=  0.000000 ICntrl=       600 IOpCl=  0 I1Cent=           0 NGrid=           0
         NMat0=    1 NMatS0=    465 NMatT0=    0 NMatD0=    1 NMtDS0=    0 NMtDT0=    0
 Petite list used in FoFCou.
 UHF open shell SCF:
 Using DIIS extrapolation, IDIIS=  1040.
 NGot=  2684354560 LenX=  2684292770 LenY=  2684291305
 Requested convergence on RMS density matrix=1.00D-08 within 120 cycles.
 Requested convergence on MAX density matrix=1.00D-06.
 Requested convergence on             energy=1.00D-06.
 No special actions if energy rises.
 Integral accuracy reduced to 1.0D-05 until final iterations.

 Cycle   1  Pass 0  IDiag  1:
 E= -113.745570273605    
 DIIS: error= 4.03D-02 at cycle   1 NSaved=   1.
 NSaved= 1 IEnMin= 1 EnMin= -113.745570273605     IErMin= 1 ErrMin= 4.03D-02
 ErrMax= 4.03D-02  0.00D+00 EMaxC= 1.00D-01 BMatC= 1.66D-01 BMatP= 1.66D-01
 IDIUse=3 WtCom= 5.97D-01 WtEn= 4.03D-01
 Coeff-Com:  0.100D+01
 Coeff-En:   0.100D+01
 Coeff:      0.100D+01
 Gap=     0.095 Goal=   None    Shift=    0.000
 Gap=     0.180 Goal=   None    Shift=    0.000
 GapD=    0.095 DampG=0.500 DampE=0.500 DampFc=0.2500 IDamp=-1.
 Damping current iteration by 2.50D-01
 RMSDP=1.99D-02 MaxDP=2.29D-01              OVMax= 2.97D-01

 Cycle   2  Pass 0  IDiag  1:
 E= -113.751703214896     Delta-E=       -0.006132941291 Rises=F Damp=T
 DIIS: error= 8.76D-03 at cycle   2 NSaved=   2.
 NSaved= 2 IEnMin= 2 EnMin= -113.751703214896     IErMin= 2 ErrMin= 8.76D-03
 ErrMax= 8.76D-03  0.00D+00 EMaxC= 1.00D-01 BMatC= 1.23D-02 BMatP= 1.66D-01
 IDIUse=3 WtCom= 9.12D-01 WtEn= 8.76D-02
 Coeff-Com:  0.215D-01 0.979D+00
 Coeff-En:   0.380D+00 0.620D+00
 Coeff:      0.529D-01 0.947D+00
 Gap=     0.089 Goal=   None    Shift=    0.000
 Gap=     0.216 Goal=   None    Shift=    0.000
 RMSDP=3.81D-03 MaxDP=3.59D-02 DE=-6.13D-03 OVMax= 2.72D-01

 Cycle   3  Pass 0  IDiag  1:
 E= -113.777002285042     Delta-E=       -0.025299070146 Rises=F Damp=F
 DIIS: error= 1.18D-02 at cycle   3 NSaved=   3.
 NSaved= 3 IEnMin= 3 EnMin= -113.777002285042     IErMin= 2 ErrMin= 8.76D-03
 ErrMax= 1.18D-02  0.00D+00 EMaxC= 1.00D-01 BMatC= 1.26D-02 BMatP= 1.23D-02
 IDIUse=3 WtCom= 8.82D-01 WtEn= 1.18D-01
 Coeff-Com: -0.711D-01 0.528D+00 0.543D+00
 Coeff-En:   0.000D+00 0.000D+00 0.100D+01
 Coeff:     -0.627D-01 0.466D+00 0.597D+00
 Gap=     0.086 Goal=   None    Shift=    0.000
 Gap=     0.235 Goal=   None    Shift=    0.000
 RMSDP=2.45D-03 MaxDP=3.87D-02 DE=-2.53D-02 OVMax= 2.96D-02

 Cycle   4  Pass 0  IDiag  1:
 E= -113.780191211594     Delta-E=       -0.003188926551 Rises=F Damp=F
 DIIS: error= 3.07D-03 at cycle   4 NSaved=   4.
 NSaved= 4 IEnMin= 4 EnMin= -113.780191211594     IErMin= 4 ErrMin= 3.07D-03
 ErrMax= 3.07D-03  0.00D+00 EMaxC= 1.00D-01 BMatC= 9.20D-04 BMatP= 1.23D-02
 IDIUse=3 WtCom= 9.69D-01 WtEn= 3.07D-02
 Coeff-Com:  0.781D-02 0.459D-02 0.197D+00 0.791D+00
 Coeff-En:   0.000D+00 0.000D+00 0.364D-02 0.996D+00
 Coeff:      0.757D-02 0.445D-02 0.191D+00 0.797D+00
 Gap=     0.087 Goal=   None    Shift=    0.000
 Gap=     0.235 Goal=   None    Shift=    0.000
 RMSDP=5.88D-04 MaxDP=7.39D-03 DE=-3.19D-03 OVMax= 6.97D-03

 Cycle   5  Pass 0  IDiag  1:
 E= -113.780416925574     Delta-E=       -0.000225713980 Rises=F Damp=F
 DIIS: error= 3.52D-04 at cycle   5 NSaved=   5.
 NSaved= 5 IEnMin= 5 EnMin= -113.780416925574     IErMin= 5 ErrMin= 3.52D-04
 ErrMax= 3.52D-04  0.00D+00 EMaxC= 1.00D-01 BMatC= 1.49D-05 BMatP= 9.20D-04
 IDIUse=3 WtCom= 9.96D-01 WtEn= 3.52D-03
 Coeff-Com:  0.908D-02-0.302D-01 0.153D-01 0.204D+00 0.802D+00
 Coeff-En:   0.000D+00 0.000D+00 0.000D+00 0.000D+00 0.100D+01
 Coeff:      0.905D-02-0.301D-01 0.152D-01 0.203D+00 0.803D+00
 Gap=     0.087 Goal=   None    Shift=    0.000
 Gap=     0.235 Goal=   None    Shift=    0.000
 RMSDP=1.18D-04 MaxDP=1.53D-03 DE=-2.26D-04 OVMax= 1.24D-03

 Cycle   6  Pass 0  IDiag  1:
 E= -113.780421766412     Delta-E=       -0.000004840838 Rises=F Damp=F
 DIIS: error= 3.32D-05 at cycle   6 NSaved=   6.
 NSaved= 6 IEnMin= 6 EnMin= -113.780421766412     IErMin= 6 ErrMin= 3.32D-05
 ErrMax= 3.32D-05  0.00D+00 EMaxC= 1.00D-01 BMatC= 8.68D-08 BMatP= 1.49D-05
 IDIUse=1 WtCom= 1.00D+00 WtEn= 0.00D+00
 Coeff-Com:  0.197D-03-0.116D-02-0.177D-02-0.433D-02-0.180D-01 0.103D+01
 Coeff:      0.197D-03-0.116D-02-0.177D-02-0.433D-02-0.180D-01 0.103D+01
 Gap=     0.087 Goal=   None    Shift=    0.000
 Gap=     0.235 Goal=   None    Shift=    0.000
 RMSDP=1.15D-05 MaxDP=1.23D-04 DE=-4.84D-06 OVMax= 3.12D-04

 Cycle   7  Pass 0  IDiag  1:
 E= -113.780421834565     Delta-E=       -0.000000068153 Rises=F Damp=F
 DIIS: error= 2.66D-05 at cycle   7 NSaved=   7.
 NSaved= 7 IEnMin= 7 EnMin= -113.780421834565     IErMin= 7 ErrMin= 2.66D-05
 ErrMax= 2.66D-05  0.00D+00 EMaxC= 1.00D-01 BMatC= 3.90D-08 BMatP= 8.68D-08
 IDIUse=1 WtCom= 1.00D+00 WtEn= 0.00D+00
 Coeff-Com: -0.433D-03 0.781D-03-0.126D-02-0.739D-02-0.308D-01 0.261D+00
 Coeff-Com:  0.778D+00
 Coeff:     -0.433D-03 0.781D-03-0.126D-02-0.739D-02-0.308D-01 0.261D+00
 Coeff:      0.778D+00
 Gap=     0.087 Goal=   None    Shift=    0.000
 Gap=     0.235 Goal=   None    Shift=    0.000
 RMSDP=3.59D-06 MaxDP=4.85D-05 DE=-6.82D-08 OVMax= 8.39D-05

 Initial convergence to 1.0D-05 achieved.  Increase integral accuracy.
 Cycle   8  Pass 1  IDiag  1:
 E= -113.780420796928     Delta-E=        0.000001037637 Rises=F Damp=F
 DIIS: error= 1.27D-05 at cycle   1 NSaved=   1.
 NSaved= 1 IEnMin= 1 EnMin= -113.780420796928     IErMin= 1 ErrMin= 1.27D-05
 ErrMax= 1.27D-05  0.00D+00 EMaxC= 1.00D-01 BMatC= 7.90D-09 BMatP= 7.90D-09
 IDIUse=1 WtCom= 1.00D+00 WtEn= 0.00D+00
 Coeff-Com:  0.100D+01
 Coeff:      0.100D+01
 Gap=     0.087 Goal=   None    Shift=    0.000
 Gap=     0.235 Goal=   None    Shift=    0.000
 RMSDP=3.59D-06 MaxDP=4.85D-05 DE= 1.04D-06 OVMax= 8.77D-05

 Cycle   9  Pass 1  IDiag  1:
 E= -113.780420793827     Delta-E=        0.000000003101 Rises=F Damp=F
 DIIS: error= 2.37D-05 at cycle   2 NSaved=   2.
 NSaved= 2 IEnMin= 1 EnMin= -113.780420796928     IErMin= 1 ErrMin= 1.27D-05
 ErrMax= 2.37D-05  0.00D+00 EMaxC= 1.00D-01 BMatC= 3.27D-08 BMatP= 7.90D-09
 IDIUse=1 WtCom= 1.00D+00 WtEn= 0.00D+00
 Coeff-Com:  0.705D+00 0.295D+00
 Coeff:      0.705D+00 0.295D+00
 Gap=     0.087 Goal=   None    Shift=    0.000
 Gap=     0.235 Goal=   None    Shift=    0.000
 RMSDP=2.27D-06 MaxDP=2.88D-05 DE= 3.10D-09 OVMax= 4.94D-05

 Cycle  10  Pass 1  IDiag  1:
 E= -113.780420800372     Delta-E=       -0.000000006545 Rises=F Damp=F
 DIIS: error= 7.90D-06 at cycle   3 NSaved=   3.
 NSaved= 3 IEnMin= 3 EnMin= -113.780420800372     IErMin= 3 ErrMin= 7.90D-06
 ErrMax= 7.90D-06  0.00D+00 EMaxC= 1.00D-01 BMatC= 2.57D-09 BMatP= 7.90D-09
 IDIUse=1 WtCom= 1.00D+00 WtEn= 0.00D+00
 Coeff-Com: -0.186D+00 0.191D+00 0.996D+00
 Coeff:     -0.186D+00 0.191D+00 0.996D+00
 Gap=     0.087 Goal=   None    Shift=    0.000
 Gap=     0.235 Goal=   None    Shift=    0.000
 RMSDP=9.54D-07 MaxDP=1.86D-05 DE=-6.55D-09 OVMax= 3.01D-05

 Cycle  11  Pass 1  IDiag  1:
 E= -113.780420801255     Delta-E=       -0.000000000883 Rises=F Damp=F
 DIIS: error= 1.28D-06 at cycle   4 NSaved=   4.
 NSaved= 4 IEnMin= 4 EnMin= -113.780420801255     IErMin= 4 ErrMin= 1.28D-06
 ErrMax= 1.28D-06  0.00D+00 EMaxC= 1.00D-01 BMatC= 8.68D-11 BMatP= 2.57D-09
 IDIUse=1 WtCom= 1.00D+00 WtEn= 0.00D+00
 Coeff-Com: -0.122D+00-0.340D-02 0.951D-01 0.103D+01
 Coeff:     -0.122D+00-0.340D-02 0.951D-01 0.103D+01
 Gap=     0.087 Goal=   None    Shift=    0.000
 Gap=     0.235 Goal=   None    Shift=    0.000
 RMSDP=4.09D-07 MaxDP=6.44D-06 DE=-8.83D-10 OVMax= 1.08D-05

 Cycle  12  Pass 1  IDiag  1:
 E= -113.780420801331     Delta-E=       -0.000000000076 Rises=F Damp=F
 DIIS: error= 3.28D-07 at cycle   5 NSaved=   5.
 NSaved= 5 IEnMin= 5 EnMin= -113.780420801331     IErMin= 5 ErrMin= 3.28D-07
 ErrMax= 3.28D-07  0.00D+00 EMaxC= 1.00D-01 BMatC= 7.39D-12 BMatP= 8.68D-11
 IDIUse=1 WtCom= 1.00D+00 WtEn= 0.00D+00
 Coeff-Com: -0.134D-02-0.285D-01-0.987D-01 0.180D+00 0.949D+00
 Coeff:     -0.134D-02-0.285D-01-0.987D-01 0.180D+00 0.949D+00
 Gap=     0.087 Goal=   None    Shift=    0.000
 Gap=     0.235 Goal=   None    Shift=    0.000
 RMSDP=1.08D-07 MaxDP=1.54D-06 DE=-7.61D-11 OVMax= 2.54D-06

 Cycle  13  Pass 1  IDiag  1:
 E= -113.780420801336     Delta-E=       -0.000000000005 Rises=F Damp=F
 DIIS: error= 6.27D-08 at cycle   6 NSaved=   6.
 NSaved= 6 IEnMin= 6 EnMin= -113.780420801336     IErMin= 6 ErrMin= 6.27D-08
 ErrMax= 6.27D-08  0.00D+00 EMaxC= 1.00D-01 BMatC= 3.11D-13 BMatP= 7.39D-12
 IDIUse=1 WtCom= 1.00D+00 WtEn= 0.00D+00
 Coeff-Com:  0.148D-02-0.947D-02-0.289D-01 0.374D-01 0.289D+00 0.710D+00
 Coeff:      0.148D-02-0.947D-02-0.289D-01 0.374D-01 0.289D+00 0.710D+00
 Gap=     0.087 Goal=   None    Shift=    0.000
 Gap=     0.235 Goal=   None    Shift=    0.000
 RMSDP=1.10D-08 MaxDP=1.69D-07 DE=-4.63D-12 OVMax= 1.46D-07

 Cycle  14  Pass 1  IDiag  1:
 E= -113.780420801336     Delta-E=       -0.000000000000 Rises=F Damp=F
 DIIS: error= 1.19D-08 at cycle   7 NSaved=   7.
 NSaved= 7 IEnMin= 7 EnMin= -113.780420801336     IErMin= 7 ErrMin= 1.19D-08
 ErrMax= 1.19D-08  0.00D+00 EMaxC= 1.00D-01 BMatC= 1.89D-14 BMatP= 3.11D-13
 IDIUse=1 WtCom= 1.00D+00 WtEn= 0.00D+00
 Coeff-Com:  0.313D-03 0.629D-03 0.443D-02-0.117D-01-0.259D-01 0.196D+00
 Coeff-Com:  0.836D+00
 Coeff:      0.313D-03 0.629D-03 0.443D-02-0.117D-01-0.259D-01 0.196D+00
 Coeff:      0.836D+00
 Gap=     0.087 Goal=   None    Shift=    0.000
 Gap=     0.235 Goal=   None    Shift=    0.000
 RMSDP=4.07D-09 MaxDP=5.60D-08 DE=-1.42D-13 OVMax= 4.08D-08

 SCF Done:  E(UB97D3) =  -113.780420801     A.U. after   14 cycles
            NFock= 14  Conv=0.41D-08     -V/T= 2.0048
 <Sx>= 0.0000 <Sy>= 0.0000 <Sz>= 0.5000 <S**2>= 0.7521 S= 0.5011
 <L.S>= 0.000000000000E+00
 KE= 1.132389661834D+02 PE=-3.204438169986D+02 EE= 6.691684600264D+01
 Annihilation of the first spin contaminant:
 S**2 before annihilation     0.7521,   after     0.7500
 Leave Link  502 at Wed Oct  7 14:02:32 2020, MaxMem=  2684354560 cpu:              15.8 elap:               1.8
 (Enter /udrive/faculty/rpeverati/g16/g16/l508.exe)
 QCSCF skips out because SCF is already converged.
 Leave Link  508 at Wed Oct  7 14:02:32 2020, MaxMem=  2684354560 cpu:               0.5 elap:               0.4
 (Enter /udrive/faculty/rpeverati/g16/g16/l601.exe)
 Copying SCF densities to generalized density rwf, IOpCl= 1 IROHF=0.

 **********************************************************************

            Population analysis using the SCF density.

 **********************************************************************

 Orbital symmetries:
 Alpha Orbitals:
       Occupied  (A') (A') (A') (A') (A') (A") (A') (A')
       Virtual   (A") (A') (A') (A") (A') (A') (A') (A') (A') (A")
                 (A') (A") (A') (A") (A') (A') (A") (A') (A') (A")
                 (A') (A')
 Beta  Orbitals:
       Occupied  (A') (A') (A') (A') (A') (A") (A')
       Virtual   (A') (A") (A') (A') (A") (A') (A') (A') (A') (A')
                 (A") (A') (A") (A') (A") (A') (A') (A") (A') (A')
                 (A") (A') (A')
 The electronic state is 2-A'.
 Alpha  occ. eigenvalues --  -18.82931 -10.00433  -1.02094  -0.55537  -0.43859
 Alpha  occ. eigenvalues --   -0.38671  -0.37721  -0.16369
 Alpha virt. eigenvalues --   -0.07642   0.11490   0.21955   0.48519   0.49585
 Alpha virt. eigenvalues --    0.61190   0.66090   0.77444   0.83257   0.88956
 Alpha virt. eigenvalues --    0.93806   1.41924   1.43926   1.44335   1.45644
 Alpha virt. eigenvalues --    1.63180   1.84424   1.96744   2.23729   2.47418
 Alpha virt. eigenvalues --    2.53566   2.84081
  Beta  occ. eigenvalues --  -18.82431 -10.00076  -1.00516  -0.53239  -0.41845
  Beta  occ. eigenvalues --   -0.37499  -0.33667
  Beta virt. eigenvalues --   -0.10133  -0.05585   0.11355   0.22235   0.48879
  Beta virt. eigenvalues --    0.51880   0.61890   0.68114   0.78046   0.84227
  Beta virt. eigenvalues --    0.89412   0.95566   1.44051   1.46335   1.47147
  Beta virt. eigenvalues --    1.47897   1.65545   1.87703   1.99877   2.26972
  Beta virt. eigenvalues --    2.49148   2.57606   2.85141
          Condensed to atoms (all electrons):
               1          2          3
     1  H    0.689525   0.211342  -0.042555
     2  C    0.211342   5.182871   0.529269
     3  O   -0.042555   0.529269   7.731491
          Atomic-Atomic Spin Densities.
               1          2          3
     1  H    0.282114  -0.143647  -0.012903
     2  C   -0.143647   0.909722  -0.148702
     3  O   -0.012903  -0.148702   0.418670
 Mulliken charges and spin densities:
               1          2
     1  H    0.141687   0.125563
     2  C    0.076517   0.617372
     3  O   -0.218205   0.257065
 Sum of Mulliken charges =  -0.00000   1.00000
 Mulliken charges and spin densities with hydrogens summed into heavy atoms:
               1          2
     2  C    0.218205   0.742935
     3  O   -0.218205   0.257065
 Electronic spatial extent (au):  <R**2>=             49.9224
 Charge=             -0.0000 electrons
 Dipole moment (field-independent basis, Debye):
    X=             -0.8643    Y=              1.1923    Z=              0.0000  Tot=              1.4726
 Quadrupole moment (field-independent basis, Debye-Ang):
   XX=            -11.0977   YY=            -11.2231   ZZ=            -10.5317
   XY=             -0.9377   XZ=              0.0000   YZ=              0.0000
 Traceless Quadrupole moment (field-independent basis, Debye-Ang):
   XX=             -0.1469   YY=             -0.2723   ZZ=              0.4192
   XY=             -0.9377   XZ=              0.0000   YZ=              0.0000
 Octapole moment (field-independent basis, Debye-Ang**2):
  XXX=             -0.6876  YYY=             -2.5570  ZZZ=              0.0000  XYY=             -1.3271
  XXY=             -0.9385  XXZ=              0.0000  XZZ=             -0.0938  YZZ=             -0.9396
  YYZ=              0.0000  XYZ=              0.0000
 Hexadecapole moment (field-independent basis, Debye-Ang**3):
 XXXX=            -13.4165 YYYY=            -37.8341 ZZZZ=             -8.3269 XXXY=              1.5652
 XXXZ=              0.0000 YYYX=              0.6726 YYYZ=              0.0000 ZZZX=              0.0000
 ZZZY=              0.0000 XXYY=             -8.4566 XXZZ=             -3.6897 YYZZ=             -7.6288
 XXYZ=              0.0000 YYXZ=              0.0000 ZZXY=              0.6875
 N-N= 2.650758401124D+01 E-N=-3.204438176332D+02  KE= 1.132389661834D+02
                          Isotropic Fermi Contact Couplings
        Atom                 a.u.       MegaHertz       Gauss      10(-4) cm-1
     1  H(1)               0.07414     331.40768     118.25450     110.54570
     2  C(13)              0.39986     449.51939     160.39969     149.94353
     3  O(17)              0.06403     -38.81737     -13.85100     -12.94808
 --------------------------------------------------------
       Center         ----  Spin Dipole Couplings  ----
                      3XX-RR        3YY-RR        3ZZ-RR
 --------------------------------------------------------
     1   Atom        0.024171      0.009747     -0.033918
     2   Atom        0.388421     -0.096194     -0.292228
     3   Atom        1.259871     -0.515654     -0.744217
 --------------------------------------------------------
                        XY            XZ            YZ
 --------------------------------------------------------
     1   Atom       -0.033481      0.000000      0.000000
     2   Atom        0.384952      0.000000      0.000000
     3   Atom        0.461541      0.000000      0.000000
 --------------------------------------------------------


 ---------------------------------------------------------------------------------
              Anisotropic Spin Dipole Couplings in Principal Axis System
 ---------------------------------------------------------------------------------

       Atom             a.u.   MegaHertz   Gauss  10(-4) cm-1        Axes

              Baa    -0.0339   -18.097    -6.457    -6.036  0.0000  0.0000  1.0000
     1 H(1)   Bbb    -0.0173    -9.225    -3.292    -3.077  0.6283  0.7780  0.0000
              Bcc     0.0512    27.322     9.749     9.114  0.7780 -0.6283  0.0000
 
              Baa    -0.3087   -41.431   -14.784   -13.820 -0.4834  0.8754  0.0000
     2 C(13)  Bbb    -0.2922   -39.214   -13.993   -13.080  0.0000  0.0000  1.0000
              Bcc     0.6010    80.645    28.776    26.900  0.8754  0.4834  0.0000
 
              Baa    -0.7442    53.851    19.215    17.963  0.0000  0.0000  1.0000
     3 O(17)  Bbb    -0.6285    45.475    16.227    15.169 -0.2374  0.9714  0.0000
              Bcc     1.3727   -99.326   -35.442   -33.132  0.9714  0.2374  0.0000
 

 ---------------------------------------------------------------------------------

 No NMR shielding tensors so no spin-rotation constants.
 Leave Link  601 at Wed Oct  7 14:02:33 2020, MaxMem=  2684354560 cpu:               6.2 elap:               0.9
 (Enter /udrive/faculty/rpeverati/g16/g16/l701.exe)
 ... and contract with generalized density number  0.
 Compute integral first derivatives.
 R6Disp: Adding Grimme-D3(BJ) dispersion energy 1st derivatives to the gradient.
 Leave Link  701 at Wed Oct  7 14:02:35 2020, MaxMem=  2684354560 cpu:               4.1 elap:               0.8
 (Enter /udrive/faculty/rpeverati/g16/g16/l702.exe)
 L702 exits ... SP integral derivatives will be done elsewhere.
 Leave Link  702 at Wed Oct  7 14:02:35 2020, MaxMem=  2684354560 cpu:               1.5 elap:               0.4
 (Enter /udrive/faculty/rpeverati/g16/g16/l703.exe)
 Integral derivatives from FoFJK, PRISM(SPDF).
 Compute integral first derivatives, UseDBF=F ICtDFT=           0.
 Calling FoFJK, ICntrl=      2527 FMM=F ISym2X=1 I1Cent= 0 IOpClX= 0 NMat=1 NMatS=1 NMatT=0.
 FoFJK:  IHMeth= 1 ICntrl=    2527 DoSepK=F KAlg= 0 I1Cent=           0 FoldK=F
 IRaf=         0 NMat=       1 IRICut=       1 DoRegI=T DoRafI=F ISym2E= 1 IDoP0=0 IntGTp=1.
 FoFCou: FMM=F IPFlag=           0 FMFlag=      100000 FMFlg1=         800
         NFxFlg=           0 DoJE=F BraDBF=F KetDBF=F FulRan=T
         wScrn=  0.000000 ICntrl=      2527 IOpCl=  0 I1Cent=           0 NGrid=           0
         NMat0=    1 NMatS0=      1 NMatT0=    0 NMatD0=    1 NMtDS0=    0 NMtDT0=    0
 Petite list used in FoFCou.
 Leave Link  703 at Wed Oct  7 14:02:36 2020, MaxMem=  2684354560 cpu:               5.3 elap:               0.7
 (Enter /udrive/faculty/rpeverati/g16/g16/l716.exe)
 Dipole        =-3.40041073D-01 4.69068239D-01 0.00000000D+00
 ***** Axes restored to original set *****
 -------------------------------------------------------------------
 Center     Atomic                   Forces (Hartrees/Bohr)
 Number     Number              X              Y              Z
 -------------------------------------------------------------------
      1        1          -0.008748613    0.003198787   -0.000000000
      2        6           0.011048966    0.025913197   -0.000000000
      3        8          -0.002300353   -0.029111983   -0.000000000
 -------------------------------------------------------------------
 Cartesian Forces:  Max     0.029111983 RMS     0.013877012
 Leave Link  716 at Wed Oct  7 14:02:37 2020, MaxMem=  2684354560 cpu:               1.7 elap:               0.6
 (Enter /udrive/faculty/rpeverati/g16/g16/l103.exe)

 GradGradGradGradGradGradGradGradGradGradGradGradGradGradGradGradGradGrad
 Berny optimization.
 Optmz: redundant internal coordinate code flag= 1
 FormGI is forming the generalized inverse of G from B-inverse, IUseBI=4.
 Internal  Forces:  Max     0.029112055 RMS     0.017837895
 Search for a local minimum.
 Step number   1 out of a maximum of  100
 All quantities printed in internal units (Hartrees-Bohrs-Radians)
 RMS Force = .17838D-01 SwitMx=.10000D-02 MixMth= 1
 Mixed Optimization -- RFO/linear search
 Second derivative matrix not updated -- first step.
 The second derivative matrix:
                          R1        R2        A1
           R1           0.31894
           R2           0.00000   1.17500
           A1           0.00000   0.00000   0.16000
 ITU=  0
 Eigenvectors of the second derivative matrix:
                           1         2         3
     Eigenvalues --     0.16000   0.31894   1.17500
   1         R1         0.00000   1.00000   0.00000
   2         R2         0.00000   0.00000  -1.00000
   3         A1         1.00000   0.00000  -0.00000
 Iter=   1 RLamda= 0.00000000D+00 Sum=-1.13846009D-03.
 Iter=   2 RLamda=-1.13846009D-03 Sum=-1.13570433D-03.
 Iter=   3 RLamda=-1.13570433D-03 Sum=-1.13571097D-03.
 RFO step:  Lambda=-1.13570433D-03 EMin= 1.60000000D-01
 Linear search not attempted -- first point.
 Iteration  1 RMS(Cart)=  0.02106245 RMS(Int)=  0.00031197
 Iteration  2 RMS(Cart)=  0.00037670 RMS(Int)=  0.00000005
 Iteration  3 RMS(Cart)=  0.00000003 RMS(Int)=  0.00000000
 ITry= 1 IFail=0 DXMaxC= 2.59D-02 DCOld= 1.00D+10 DXMaxT= 3.00D-01 DXLimC= 3.00D+00 Rises=F
 ClnCor:  largest displacement from symmetrization is 0.00D+00 for atom     0.
 Variable       Old X    -DE/DX   Delta X   Delta X   Delta X     New X
                                 (Linear)    (Quad)   (Total)
    R1        2.11038   0.00899   0.00000   0.02810   0.02810   2.13848
    R2        2.22351   0.02911   0.00000   0.02475   0.02475   2.24826
    A1        2.18460  -0.00512   0.00000  -0.03175  -0.03175   2.15285
         Item               Value     Threshold  Converged?
 Maximum Force            0.029112     0.000450     NO 
 RMS     Force            0.017838     0.000300     NO 
 Maximum Displacement     0.025896     0.001800     NO 
 RMS     Displacement     0.021090     0.001200     NO 
 Predicted change in Energy=-5.692240D-04
 Lowest energy point so far.  Saving SCF results.
 Largest change from initial coordinates is atom    2       0.008 Angstoms.
 GradGradGradGradGradGradGradGradGradGradGradGradGradGradGradGradGradGrad

 Leave Link  103 at Wed Oct  7 14:02:38 2020, MaxMem=  2684354560 cpu:               1.8 elap:               0.6
 (Enter /udrive/faculty/rpeverati/g16/g16/l202.exe)
                          Input orientation:                          
 ---------------------------------------------------------------------
 Center     Atomic      Atomic             Coordinates (Angstroms)
 Number     Number       Type             X           Y           Z
 ---------------------------------------------------------------------
      1          1           0       -0.860918    1.227898    0.000000
      2          6           0        0.074565    0.591130    0.000000
      3          8           0        0.056021   -0.598455    0.000000
 ---------------------------------------------------------------------
                    Distance matrix (angstroms):
                    1          2          3
     1  H    0.000000
     2  C    1.131637   0.000000
     3  O    2.043610   1.189729   0.000000
 Stoichiometry    CHO(2)
 Framework group  CS[SG(CHO)]
 Deg. of freedom     3
 Full point group                 CS      NOp   2
 RotChk:  IX=0 Diff= 2.20D-02
 Largest Abelian subgroup         CS      NOp   2
 Largest concise Abelian subgroup C1      NOp   1
                         Standard orientation:                         
 ---------------------------------------------------------------------
 Center     Atomic      Atomic             Coordinates (Angstroms)
 Number     Number       Type             X           Y           Z
 ---------------------------------------------------------------------
      1          1           0       -0.882274    1.215158    0.000000
      2          6           0        0.063020    0.593048    0.000000
      3          8           0        0.063020   -0.596681    0.000000
 ---------------------------------------------------------------------
 Rotational constants (GHZ):         688.2351835          43.9904585          41.3476114
 Leave Link  202 at Wed Oct  7 14:02:38 2020, MaxMem=  2684354560 cpu:               1.0 elap:               0.4
 (Enter /udrive/faculty/rpeverati/g16/g16/l301.exe)
 Standard basis: 6-31G(d) (5D, 7F)
 Ernie: Thresh=  0.10000D-02 Tol=  0.10000D-05 Strict=F.
 There are    24 symmetry adapted cartesian basis functions of A'  symmetry.
 There are     8 symmetry adapted cartesian basis functions of A"  symmetry.
 There are    22 symmetry adapted basis functions of A'  symmetry.
 There are     8 symmetry adapted basis functions of A"  symmetry.
    30 basis functions,    60 primitive gaussians,    32 cartesian basis functions
     8 alpha electrons        7 beta electrons
       nuclear repulsion energy        26.2270885101 Hartrees.
 IExCor= 3630 DFT=T Ex+Corr=B97D3 ExCW=0 ScaHFX=  0.000000
 ScaDFX=  1.000000  1.000000  1.000000  1.000000 ScalE2=  1.000000  1.000000
 IRadAn=      5 IRanWt=     -1 IRanGd=            0 ICorTp=0 IEmpDi=141
 NAtoms=    3 NActive=    3 NUniq=    3 SFac= 1.00D+00 NAtFMM=   60 NAOKFM=F Big=F
 Integral buffers will be    131072 words long.
 Raffenetti 2 integral format.
 Two-electron integral symmetry is turned on.
 R6Disp:  Grimme-D3(BJ) Dispersion energy=       -0.0022637319 Hartrees.
 Nuclear repulsion after empirical dispersion term =       26.2248247782 Hartrees.
 Leave Link  301 at Wed Oct  7 14:02:39 2020, MaxMem=  2684354560 cpu:               2.2 elap:               0.5
 (Enter /udrive/faculty/rpeverati/g16/g16/l302.exe)
 NPDir=0 NMtPBC=     1 NCelOv=     1 NCel=       1 NClECP=     1 NCelD=      1
         NCelK=      1 NCelE2=     1 NClLst=     1 CellRange=     0.0.
 One-electron integrals computed using PRISM.
 One-electron integral symmetry used in STVInt
 NBasis=    30 RedAO= T EigKep=  1.70D-02  NBF=    22     8
 NBsUse=    30 1.00D-06 EigRej= -1.00D+00 NBFU=    22     8
 Precomputing XC quadrature grid using
 IXCGrd= 4 IRadAn=           5 IRanWt=          -1 IRanGd=           0 AccXCQ= 0.00D+00.
 Generated NRdTot=       0 NPtTot=           0 NUsed=           0 NTot=          32
 NSgBfM=    32    32    32    32    32 MxSgAt=     3 MxSgA2=     3.
 Leave Link  302 at Wed Oct  7 14:02:40 2020, MaxMem=  2684354560 cpu:               3.1 elap:               0.5
 (Enter /udrive/faculty/rpeverati/g16/g16/l303.exe)
 DipDrv:  MaxL=1.
 Leave Link  303 at Wed Oct  7 14:02:40 2020, MaxMem=  2684354560 cpu:               1.2 elap:               0.5
 (Enter /udrive/faculty/rpeverati/g16/g16/l401.exe)
 Initial guess from the checkpoint file:  "MN_50_hco_BH76_B97DBJ_631Gs.chk"
 SCF N**3 symmetry information disabled.
 B after Tr=    -0.000000    0.000000    0.000000
         Rot=    0.999994    0.000000    0.000000   -0.003566 Ang=  -0.41 deg.
 Guess basis will be translated and rotated to current coordinates.
 JPrj=2 DoOrth=T DoCkMO=T.
 Initial guess orbital symmetries:
 Alpha Orbitals:
       Occupied  (A') (A') (A') (A') (A') (A") (A') (A')
       Virtual   (A") (A') (A') (A") (A') (A') (A') (A') (A') (A")
                 (A') (A") (A') (A") (A') (A') (A") (A') (A') (A")
                 (A') (A')
 Beta  Orbitals:
       Occupied  (A') (A') (A') (A') (A') (A") (A')
       Virtual   (A') (A") (A') (A') (A") (A') (A') (A') (A') (A')
                 (A") (A') (A") (A') (A") (A') (A') (A") (A') (A')
                 (A") (A') (A')
 The electronic state of the initial guess is 2-A'.
 Initial guess <Sx>= 0.0000 <Sy>= 0.0000 <Sz>= 0.5000 <S**2>= 0.7521 S= 0.5011
 Generating alternative initial guess.
 ExpMin= 1.61D-01 ExpMax= 5.48D+03 ExpMxC= 8.25D+02 IAcc=2 IRadAn=         4 AccDes= 0.00D+00
 Harris functional with IExCor= 3630 and IRadAn=       4 diagonalized for initial guess.
 HarFok:  IExCor= 3630 AccDes= 0.00D+00 IRadAn=         4 IDoV= 1 UseB2=F ITyADJ=14
 ICtDFT=  3500011 ScaDFX=  1.000000  1.000000  1.000000  1.000000
 FoFCou: FMM=F IPFlag=           0 FMFlag=      100000 FMFlg1=           0
         NFxFlg=           0 DoJE=T BraDBF=F KetDBF=T FulRan=T
         wScrn=  0.000000 ICntrl=       500 IOpCl=  0 I1Cent=   200000004 NGrid=           0
         NMat0=    1 NMatS0=      1 NMatT0=    0 NMatD0=    1 NMtDS0=    0 NMtDT0=    0
 Petite list used in FoFCou.
 Harris En= -113.765679305648    
 Leave Link  401 at Wed Oct  7 14:02:42 2020, MaxMem=  2684354560 cpu:               7.3 elap:               1.0
 (Enter /udrive/faculty/rpeverati/g16/g16/l502.exe)
 Keep J ints in memory in symmetry-blocked form, NReq=10459184.
 FoFCou: FMM=F IPFlag=           0 FMFlag=           0 FMFlg1=           0
         NFxFlg=           0 DoJE=F BraDBF=F KetDBF=F FulRan=T
         wScrn=  0.000000 ICntrl=       600 IOpCl=  0 I1Cent=           0 NGrid=           0
         NMat0=    1 NMatS0=    465 NMatT0=    0 NMatD0=    1 NMtDS0=    0 NMtDT0=    0
 Petite list used in FoFCou.
 UHF open shell SCF:
 Using DIIS extrapolation, IDIIS=  1040.
 NGot=  2684354560 LenX=  2684292770 LenY=  2684291305
 Requested convergence on RMS density matrix=1.00D-08 within 120 cycles.
 Requested convergence on MAX density matrix=1.00D-06.
 Requested convergence on             energy=1.00D-06.
 No special actions if energy rises.
 Integral accuracy reduced to 1.0D-05 until final iterations.

 Cycle   1  Pass 0  IDiag  1:
 E= -113.780853254675    
 DIIS: error= 1.31D-03 at cycle   1 NSaved=   1.
 NSaved= 1 IEnMin= 1 EnMin= -113.780853254675     IErMin= 1 ErrMin= 1.31D-03
 ErrMax= 1.31D-03  0.00D+00 EMaxC= 1.00D-01 BMatC= 5.83D-04 BMatP= 5.83D-04
 IDIUse=3 WtCom= 9.87D-01 WtEn= 1.31D-02
 Coeff-Com:  0.100D+01
 Coeff-En:   0.100D+01
 Coeff:      0.100D+01
 Gap=     0.089 Goal=   None    Shift=    0.000
 Gap=     0.226 Goal=   None    Shift=    0.000
 GapD=    0.089 DampG=0.500 DampE=1.000 DampFc=0.5000 IDamp=-1.
 Damping current iteration by 5.00D-01
 RMSDP=7.11D-04 MaxDP=6.04D-03              OVMax= 9.32D-03

 Cycle   2  Pass 0  IDiag  1:
 E= -113.780957795408     Delta-E=       -0.000104540733 Rises=F Damp=T
 DIIS: error= 7.21D-04 at cycle   2 NSaved=   2.
 NSaved= 2 IEnMin= 2 EnMin= -113.780957795408     IErMin= 2 ErrMin= 7.21D-04
 ErrMax= 7.21D-04  0.00D+00 EMaxC= 1.00D-01 BMatC= 1.24D-04 BMatP= 5.83D-04
 IDIUse=3 WtCom= 9.93D-01 WtEn= 7.21D-03
 Coeff-Com: -0.446D+00 0.145D+01
 Coeff-En:   0.000D+00 0.100D+01
 Coeff:     -0.442D+00 0.144D+01
 Gap=     0.089 Goal=   None    Shift=    0.000
 Gap=     0.227 Goal=   None    Shift=    0.000
 RMSDP=4.57D-04 MaxDP=3.99D-03 DE=-1.05D-04 OVMax= 4.39D-03

 Cycle   3  Pass 0  IDiag  1:
 E= -113.781012945184     Delta-E=       -0.000055149775 Rises=F Damp=F
 DIIS: error= 1.78D-03 at cycle   3 NSaved=   3.
 NSaved= 3 IEnMin= 3 EnMin= -113.781012945184     IErMin= 2 ErrMin= 7.21D-04
 ErrMax= 1.78D-03  0.00D+00 EMaxC= 1.00D-01 BMatC= 2.54D-04 BMatP= 1.24D-04
 IDIUse=3 WtCom= 1.92D-01 WtEn= 8.08D-01
 Coeff-Com: -0.453D+00 0.109D+01 0.366D+00
 Coeff-En:   0.000D+00 0.000D+00 0.100D+01
 Coeff:     -0.868D-01 0.208D+00 0.879D+00
 Gap=     0.089 Goal=   None    Shift=    0.000
 Gap=     0.224 Goal=   None    Shift=    0.000
 RMSDP=6.15D-04 MaxDP=7.40D-03 DE=-5.51D-05 OVMax= 1.22D-02

 Cycle   4  Pass 0  IDiag  1:
 E= -113.780688362230     Delta-E=        0.000324582953 Rises=F Damp=F
 DIIS: error= 5.16D-03 at cycle   4 NSaved=   4.
 NSaved= 4 IEnMin= 3 EnMin= -113.781012945184     IErMin= 2 ErrMin= 7.21D-04
 ErrMax= 5.16D-03  0.00D+00 EMaxC= 1.00D-01 BMatC= 1.84D-03 BMatP= 1.24D-04
 IDIUse=3 WtCom= 1.22D-01 WtEn= 8.78D-01
 Coeff-Com: -0.173D+00 0.352D+00 0.627D+00 0.194D+00
 Coeff-En:   0.000D+00 0.000D+00 0.802D+00 0.198D+00
 Coeff:     -0.212D-01 0.431D-01 0.780D+00 0.198D+00
 Gap=     0.089 Goal=   None    Shift=    0.000
 Gap=     0.225 Goal=   None    Shift=    0.000
 RMSDP=3.12D-04 MaxDP=3.75D-03 DE= 3.25D-04 OVMax= 6.53D-03

 Cycle   5  Pass 0  IDiag  1:
 E= -113.781037348106     Delta-E=       -0.000348985875 Rises=F Damp=F
 DIIS: error= 1.35D-03 at cycle   5 NSaved=   5.
 NSaved= 5 IEnMin= 5 EnMin= -113.781037348106     IErMin= 2 ErrMin= 7.21D-04
 ErrMax= 1.35D-03  0.00D+00 EMaxC= 1.00D-01 BMatC= 1.35D-04 BMatP= 1.24D-04
 IDIUse=3 WtCom= 9.86D-01 WtEn= 1.35D-02
 Coeff-Com:  0.212D-01-0.459D-01 0.336D+00-0.784D-01 0.767D+00
 Coeff-En:   0.000D+00 0.000D+00 0.395D+00 0.000D+00 0.605D+00
 Coeff:      0.209D-01-0.453D-01 0.337D+00-0.773D-01 0.765D+00
 Gap=     0.089 Goal=   None    Shift=    0.000
 Gap=     0.226 Goal=   None    Shift=    0.000
 RMSDP=1.30D-04 MaxDP=1.42D-03 DE=-3.49D-04 OVMax= 2.24D-03

 Cycle   6  Pass 0  IDiag  1:
 E= -113.781064753590     Delta-E=       -0.000027405484 Rises=F Damp=F
 DIIS: error= 9.16D-06 at cycle   6 NSaved=   6.
 NSaved= 6 IEnMin= 6 EnMin= -113.781064753590     IErMin= 6 ErrMin= 9.16D-06
 ErrMax= 9.16D-06  0.00D+00 EMaxC= 1.00D-01 BMatC= 8.40D-09 BMatP= 1.24D-04
 IDIUse=1 WtCom= 1.00D+00 WtEn= 0.00D+00
 Coeff-Com:  0.148D-01-0.301D-01-0.448D-01-0.190D-01 0.227D-01 0.106D+01
 Coeff:      0.148D-01-0.301D-01-0.448D-01-0.190D-01 0.227D-01 0.106D+01
 Gap=     0.089 Goal=   None    Shift=    0.000
 Gap=     0.226 Goal=   None    Shift=    0.000
 RMSDP=3.32D-06 MaxDP=3.29D-05 DE=-2.74D-05 OVMax= 5.26D-05

 Initial convergence to 1.0D-05 achieved.  Increase integral accuracy.
 Cycle   7  Pass 1  IDiag  1:
 E= -113.781062871184     Delta-E=        0.000001882406 Rises=F Damp=F
 DIIS: error= 4.84D-06 at cycle   1 NSaved=   1.
 NSaved= 1 IEnMin= 1 EnMin= -113.781062871184     IErMin= 1 ErrMin= 4.84D-06
 ErrMax= 4.84D-06  0.00D+00 EMaxC= 1.00D-01 BMatC= 2.43D-09 BMatP= 2.43D-09
 IDIUse=1 WtCom= 1.00D+00 WtEn= 0.00D+00
 Coeff-Com:  0.100D+01
 Coeff:      0.100D+01
 Gap=     0.089 Goal=   None    Shift=    0.000
 Gap=     0.226 Goal=   None    Shift=    0.000
 RMSDP=3.32D-06 MaxDP=3.29D-05 DE= 1.88D-06 OVMax= 3.40D-05

 Cycle   8  Pass 1  IDiag  1:
 E= -113.781062871895     Delta-E=       -0.000000000712 Rises=F Damp=F
 DIIS: error= 5.08D-06 at cycle   2 NSaved=   2.
 NSaved= 2 IEnMin= 2 EnMin= -113.781062871895     IErMin= 1 ErrMin= 4.84D-06
 ErrMax= 5.08D-06  0.00D+00 EMaxC= 1.00D-01 BMatC= 1.28D-09 BMatP= 2.43D-09
 IDIUse=1 WtCom= 1.00D+00 WtEn= 0.00D+00
 Coeff-Com:  0.358D+00 0.642D+00
 Coeff:      0.358D+00 0.642D+00
 Gap=     0.089 Goal=   None    Shift=    0.000
 Gap=     0.226 Goal=   None    Shift=    0.000
 RMSDP=9.66D-07 MaxDP=1.36D-05 DE=-7.12D-10 OVMax= 2.22D-05

 Cycle   9  Pass 1  IDiag  1:
 E= -113.781062871547     Delta-E=        0.000000000348 Rises=F Damp=F
 DIIS: error= 7.94D-06 at cycle   3 NSaved=   3.
 NSaved= 3 IEnMin= 2 EnMin= -113.781062871895     IErMin= 1 ErrMin= 4.84D-06
 ErrMax= 7.94D-06  0.00D+00 EMaxC= 1.00D-01 BMatC= 3.45D-09 BMatP= 1.28D-09
 IDIUse=1 WtCom= 1.00D+00 WtEn= 0.00D+00
 Coeff-Com:  0.123D-01 0.624D+00 0.364D+00
 Coeff:      0.123D-01 0.624D+00 0.364D+00
 Gap=     0.089 Goal=   None    Shift=    0.000
 Gap=     0.226 Goal=   None    Shift=    0.000
 RMSDP=6.27D-07 MaxDP=9.89D-06 DE= 3.48D-10 OVMax= 1.65D-05

 Cycle  10  Pass 1  IDiag  1:
 E= -113.781062872275     Delta-E=       -0.000000000728 Rises=F Damp=F
 DIIS: error= 8.47D-07 at cycle   4 NSaved=   4.
 NSaved= 4 IEnMin= 4 EnMin= -113.781062872275     IErMin= 4 ErrMin= 8.47D-07
 ErrMax= 8.47D-07  0.00D+00 EMaxC= 1.00D-01 BMatC= 4.05D-11 BMatP= 1.28D-09
 IDIUse=1 WtCom= 1.00D+00 WtEn= 0.00D+00
 Coeff-Com: -0.590D-01 0.375D-01 0.658D-01 0.956D+00
 Coeff:     -0.590D-01 0.375D-01 0.658D-01 0.956D+00
 Gap=     0.089 Goal=   None    Shift=    0.000
 Gap=     0.226 Goal=   None    Shift=    0.000
 RMSDP=2.13D-07 MaxDP=2.96D-06 DE=-7.28D-10 OVMax= 4.96D-06

 Cycle  11  Pass 1  IDiag  1:
 E= -113.781062872305     Delta-E=       -0.000000000030 Rises=F Damp=F
 DIIS: error= 5.18D-07 at cycle   5 NSaved=   5.
 NSaved= 5 IEnMin= 5 EnMin= -113.781062872305     IErMin= 5 ErrMin= 5.18D-07
 ErrMax= 5.18D-07  0.00D+00 EMaxC= 1.00D-01 BMatC= 1.10D-11 BMatP= 4.05D-11
 IDIUse=1 WtCom= 1.00D+00 WtEn= 0.00D+00
 Coeff-Com: -0.421D-02-0.140D+00-0.114D+00 0.108D+00 0.115D+01
 Coeff:     -0.421D-02-0.140D+00-0.114D+00 0.108D+00 0.115D+01
 Gap=     0.089 Goal=   None    Shift=    0.000
 Gap=     0.226 Goal=   None    Shift=    0.000
 RMSDP=1.35D-07 MaxDP=2.20D-06 DE=-2.99D-11 OVMax= 3.78D-06

 Cycle  12  Pass 1  IDiag  1:
 E= -113.781062872312     Delta-E=       -0.000000000007 Rises=F Damp=F
 DIIS: error= 8.81D-08 at cycle   6 NSaved=   6.
 NSaved= 6 IEnMin= 6 EnMin= -113.781062872312     IErMin= 6 ErrMin= 8.81D-08
 ErrMax= 8.81D-08  0.00D+00 EMaxC= 1.00D-01 BMatC= 9.13D-13 BMatP= 1.10D-11
 IDIUse=1 WtCom= 1.00D+00 WtEn= 0.00D+00
 Coeff-Com: -0.364D-03-0.666D-01-0.567D-01 0.765D-02 0.535D+00 0.581D+00
 Coeff:     -0.364D-03-0.666D-01-0.567D-01 0.765D-02 0.535D+00 0.581D+00
 Gap=     0.089 Goal=   None    Shift=    0.000
 Gap=     0.226 Goal=   None    Shift=    0.000
 RMSDP=2.73D-08 MaxDP=3.34D-07 DE=-6.88D-12 OVMax= 2.68D-07

 Cycle  13  Pass 1  IDiag  1:
 E= -113.781062872312     Delta-E=       -0.000000000000 Rises=F Damp=F
 DIIS: error= 1.13D-08 at cycle   7 NSaved=   7.
 NSaved= 7 IEnMin= 7 EnMin= -113.781062872312     IErMin= 7 ErrMin= 1.13D-08
 ErrMax= 1.13D-08  0.00D+00 EMaxC= 1.00D-01 BMatC= 7.83D-15 BMatP= 9.13D-13
 IDIUse=1 WtCom= 1.00D+00 WtEn= 0.00D+00
 Coeff-Com:  0.770D-04-0.475D-02-0.508D-02-0.150D-02 0.363D-01 0.767D-01
 Coeff-Com:  0.898D+00
 Coeff:      0.770D-04-0.475D-02-0.508D-02-0.150D-02 0.363D-01 0.767D-01
 Coeff:      0.898D+00
 Gap=     0.089 Goal=   None    Shift=    0.000
 Gap=     0.226 Goal=   None    Shift=    0.000
 RMSDP=2.11D-09 MaxDP=2.21D-08 DE=-2.27D-13 OVMax= 4.43D-08

 SCF Done:  E(UB97D3) =  -113.781062872     A.U. after   13 cycles
            NFock= 13  Conv=0.21D-08     -V/T= 2.0054
 <Sx>= 0.0000 <Sy>= 0.0000 <Sz>= 0.5000 <S**2>= 0.7521 S= 0.5011
 <L.S>= 0.000000000000E+00
 KE= 1.131721456144D+02 PE=-3.198381836559D+02 EE= 6.666015039105D+01
 Annihilation of the first spin contaminant:
 S**2 before annihilation     0.7521,   after     0.7500
 Leave Link  502 at Wed Oct  7 14:02:44 2020, MaxMem=  2684354560 cpu:              19.3 elap:               2.2
 (Enter /udrive/faculty/rpeverati/g16/g16/l508.exe)
 QCSCF skips out because SCF is already converged.
 Leave Link  508 at Wed Oct  7 14:02:45 2020, MaxMem=  2684354560 cpu:               0.7 elap:               0.7
 (Enter /udrive/faculty/rpeverati/g16/g16/l701.exe)
 ... and contract with generalized density number  0.
 Compute integral first derivatives.
 R6Disp: Adding Grimme-D3(BJ) dispersion energy 1st derivatives to the gradient.
 Leave Link  701 at Wed Oct  7 14:02:47 2020, MaxMem=  2684354560 cpu:               4.2 elap:               0.8
 (Enter /udrive/faculty/rpeverati/g16/g16/l702.exe)
 L702 exits ... SP integral derivatives will be done elsewhere.
 Leave Link  702 at Wed Oct  7 14:02:47 2020, MaxMem=  2684354560 cpu:               1.7 elap:               0.7
 (Enter /udrive/faculty/rpeverati/g16/g16/l703.exe)
 Integral derivatives from FoFJK, PRISM(SPDF).
 Compute integral first derivatives, UseDBF=F ICtDFT=           0.
 Calling FoFJK, ICntrl=      2527 FMM=F ISym2X=1 I1Cent= 0 IOpClX= 0 NMat=1 NMatS=1 NMatT=0.
 FoFJK:  IHMeth= 1 ICntrl=    2527 DoSepK=F KAlg= 0 I1Cent=           0 FoldK=F
 IRaf=         0 NMat=       1 IRICut=       1 DoRegI=T DoRafI=F ISym2E= 1 IDoP0=0 IntGTp=1.
 FoFCou: FMM=F IPFlag=           0 FMFlag=      100000 FMFlg1=         800
         NFxFlg=           0 DoJE=F BraDBF=F KetDBF=F FulRan=T
         wScrn=  0.000000 ICntrl=      2527 IOpCl=  0 I1Cent=           0 NGrid=           0
         NMat0=    1 NMatS0=      1 NMatT0=    0 NMatD0=    1 NMtDS0=    0 NMtDT0=    0
 Petite list used in FoFCou.
 Leave Link  703 at Wed Oct  7 14:02:49 2020, MaxMem=  2684354560 cpu:               6.3 elap:               1.1
 (Enter /udrive/faculty/rpeverati/g16/g16/l716.exe)
 Dipole        =-3.43276848D-01 4.69628767D-01 0.00000000D+00
 ***** Axes restored to original set *****
 -------------------------------------------------------------------
 Center     Atomic                   Forces (Hartrees/Bohr)
 Number     Number              X              Y              Z
 -------------------------------------------------------------------
      1        1          -0.001105217    0.000276651   -0.000000000
      2        6           0.001545690    0.003976030   -0.000000000
      3        8          -0.000440473   -0.004252681   -0.000000000
 -------------------------------------------------------------------
 Cartesian Forces:  Max     0.004252681 RMS     0.002048721
 Leave Link  716 at Wed Oct  7 14:02:50 2020, MaxMem=  2684354560 cpu:               1.8 elap:               0.7
 (Enter /udrive/faculty/rpeverati/g16/g16/l103.exe)

 GradGradGradGradGradGradGradGradGradGradGradGradGradGradGradGradGradGrad
 Berny optimization.
 Optmz: redundant internal coordinate code flag= 1
 Using GEDIIS/GDIIS optimizer.
 Red2BG:  D1=  6.84D-01 OD1=  2.90D-02 B2RMS=  0.00D+00 IAprox=0
 FormGI is forming the generalized inverse of G from B-inverse, IUseBI=4.
 Internal  Forces:  Max     0.004259009 RMS     0.002581338
 Search for a local minimum.
 Step number   2 out of a maximum of  100
 All quantities printed in internal units (Hartrees-Bohrs-Radians)
 RMS Force = .25813D-02 SwitMx=.10000D-02 MixMth= 1
 Mixed Optimization -- RFO/linear search
 Update second derivatives using D2CorX and points    1    2
 DE= -6.42D-04 DEPred=-5.69D-04 R= 1.13D+00
 TightC=F SS=  1.41D+00  RLast= 4.91D-02 DXNew= 5.0454D-01 1.4728D-01
 Trust test= 1.13D+00 RLast= 4.91D-02 DXMaxT set to 3.00D-01
 The second derivative matrix:
                          R1        R2        A1
           R1           0.31255
           R2          -0.02776   1.06286
           A1           0.00539   0.02127   0.15600
 ITU=  1  0
 Use linear search instead of GDIIS.
 Eigenvectors of the second derivative matrix:
                           1         2         3
     Eigenvalues --     0.15526   0.31177   1.06438
   1         R1        -0.03854   0.99858   0.03672
   2         R2        -0.02459   0.03579  -0.99906
   3         A1         0.99895   0.03941  -0.02318
 Iter=   1 RLamda= 0.00000000D+00 Sum=-4.10443665D-07.
 Iter=   2 RLamda=-4.10443665D-07 Sum=-4.10442804D-07.
 RFO step:  Lambda=-4.10443665D-07 EMin= 1.55263898D-01
 Quartic linear search produced a step of  0.17521.
 Iteration  1 RMS(Cart)=  0.00407138 RMS(Int)=  0.00001294
 Iteration  2 RMS(Cart)=  0.00001542 RMS(Int)=  0.00000000
 Iteration  3 RMS(Cart)=  0.00000000 RMS(Int)=  0.00000000
 ITry= 1 IFail=0 DXMaxC= 5.08D-03 DCOld= 1.00D+10 DXMaxT= 3.00D-01 DXLimC= 3.00D+00 Rises=F
 ClnCor:  largest displacement from symmetrization is 4.97D-16 for atom     1.
 Variable       Old X    -DE/DX   Delta X   Delta X   Delta X     New X
                                 (Linear)    (Quad)   (Total)
    R1        2.13848   0.00107   0.00492  -0.00069   0.00424   2.14272
    R2        2.24826   0.00426   0.00434  -0.00000   0.00434   2.25260
    A1        2.15285  -0.00084  -0.00556  -0.00128  -0.00684   2.14602
         Item               Value     Threshold  Converged?
 Maximum Force            0.004259     0.000450     NO 
 RMS     Force            0.002581     0.000300     NO 
 Maximum Displacement     0.005084     0.001800     NO 
 RMS     Displacement     0.004075     0.001200     NO 
 Predicted change in Energy=-1.360121D-05
 Lowest energy point so far.  Saving SCF results.
 Largest change from initial coordinates is atom    1       0.006 Angstoms.
 GradGradGradGradGradGradGradGradGradGradGradGradGradGradGradGradGradGrad

 Leave Link  103 at Wed Oct  7 14:02:51 2020, MaxMem=  2684354560 cpu:               1.9 elap:               0.6
 (Enter /udrive/faculty/rpeverati/g16/g16/l202.exe)
                          Input orientation:                          
 ---------------------------------------------------------------------
 Center     Atomic      Atomic             Coordinates (Angstroms)
 Number     Number       Type             X           Y           Z
 ---------------------------------------------------------------------
      1          1           0       -0.862337    1.227264    0.000000
      2          6           0        0.077255    0.592560    0.000000
      3          8           0        0.054750   -0.599251    0.000000
 ---------------------------------------------------------------------
                    Distance matrix (angstroms):
                    1          2          3
     1  H    0.000000
     2  C    1.133879   0.000000
     3  O    2.043821   1.192024   0.000000
 Stoichiometry    CHO(2)
 Framework group  CS[SG(CHO)]
 Deg. of freedom     3
 Full point group                 CS      NOp   2
 RotChk:  IX=0 Diff= 4.66D-03
 Largest Abelian subgroup         CS      NOp   2
 Largest concise Abelian subgroup C1      NOp   1
                         Standard orientation:                         
 ---------------------------------------------------------------------
 Center     Atomic      Atomic             Coordinates (Angstroms)
 Number     Number       Type             X           Y           Z
 ---------------------------------------------------------------------
      1          1           0       -0.887980    1.211474    0.000000
      2          6           0        0.063427    0.594622    0.000000
      3          8           0        0.063427   -0.597401    0.000000
 ---------------------------------------------------------------------
 Rotational constants (GHZ):         678.4663596          43.8827775          41.2168947
 Leave Link  202 at Wed Oct  7 14:02:52 2020, MaxMem=  2684354560 cpu:               2.0 elap:               0.7
 (Enter /udrive/faculty/rpeverati/g16/g16/l301.exe)
 Standard basis: 6-31G(d) (5D, 7F)
 Ernie: Thresh=  0.10000D-02 Tol=  0.10000D-05 Strict=F.
 There are    24 symmetry adapted cartesian basis functions of A'  symmetry.
 There are     8 symmetry adapted cartesian basis functions of A"  symmetry.
 There are    22 symmetry adapted basis functions of A'  symmetry.
 There are     8 symmetry adapted basis functions of A"  symmetry.
    30 basis functions,    60 primitive gaussians,    32 cartesian basis functions
     8 alpha electrons        7 beta electrons
       nuclear repulsion energy        26.1802313115 Hartrees.
 IExCor= 3630 DFT=T Ex+Corr=B97D3 ExCW=0 ScaHFX=  0.000000
 ScaDFX=  1.000000  1.000000  1.000000  1.000000 ScalE2=  1.000000  1.000000
 IRadAn=      5 IRanWt=     -1 IRanGd=            0 ICorTp=0 IEmpDi=141
 NAtoms=    3 NActive=    3 NUniq=    3 SFac= 1.00D+00 NAtFMM=   60 NAOKFM=F Big=F
 Integral buffers will be    131072 words long.
 Raffenetti 2 integral format.
 Two-electron integral symmetry is turned on.
 R6Disp:  Grimme-D3(BJ) Dispersion energy=       -0.0022637684 Hartrees.
 Nuclear repulsion after empirical dispersion term =       26.1779675431 Hartrees.
 Leave Link  301 at Wed Oct  7 14:02:53 2020, MaxMem=  2684354560 cpu:               2.8 elap:               0.8
 (Enter /udrive/faculty/rpeverati/g16/g16/l302.exe)
 NPDir=0 NMtPBC=     1 NCelOv=     1 NCel=       1 NClECP=     1 NCelD=      1
         NCelK=      1 NCelE2=     1 NClLst=     1 CellRange=     0.0.
 One-electron integrals computed using PRISM.
 One-electron integral symmetry used in STVInt
 NBasis=    30 RedAO= T EigKep=  1.70D-02  NBF=    22     8
 NBsUse=    30 1.00D-06 EigRej= -1.00D+00 NBFU=    22     8
 Precomputing XC quadrature grid using
 IXCGrd= 4 IRadAn=           5 IRanWt=          -1 IRanGd=           0 AccXCQ= 0.00D+00.
 Generated NRdTot=       0 NPtTot=           0 NUsed=           0 NTot=          32
 NSgBfM=    32    32    32    32    32 MxSgAt=     3 MxSgA2=     3.
 Leave Link  302 at Wed Oct  7 14:02:54 2020, MaxMem=  2684354560 cpu:               4.4 elap:               0.8
 (Enter /udrive/faculty/rpeverati/g16/g16/l303.exe)
 DipDrv:  MaxL=1.
 Leave Link  303 at Wed Oct  7 14:02:54 2020, MaxMem=  2684354560 cpu:               1.2 elap:               0.5
 (Enter /udrive/faculty/rpeverati/g16/g16/l401.exe)
 Initial guess from the checkpoint file:  "MN_50_hco_BH76_B97DBJ_631Gs.chk"
 SCF N**3 symmetry information disabled.
 B after Tr=     0.000000   -0.000000    0.000000
         Rot=    1.000000    0.000000    0.000000   -0.000750 Ang=  -0.09 deg.
 Guess basis will be translated and rotated to current coordinates.
 JPrj=2 DoOrth=T DoCkMO=T.
 Initial guess orbital symmetries:
 Alpha Orbitals:
       Occupied  (A') (A') (A') (A') (A') (A") (A') (A')
       Virtual   (A") (A') (A') (A") (A') (A') (A') (A') (A') (A")
                 (A') (A") (A") (A') (A') (A') (A") (A') (A') (A")
                 (A') (A')
 Beta  Orbitals:
       Occupied  (A') (A') (A') (A') (A') (A") (A')
       Virtual   (A') (A") (A') (A') (A") (A') (A') (A') (A') (A')
                 (A") (A') (A") (A') (A") (A') (A') (A") (A') (A')
                 (A") (A') (A')
 The electronic state of the initial guess is 2-A'.
 Initial guess <Sx>= 0.0000 <Sy>= 0.0000 <Sz>= 0.5000 <S**2>= 0.7521 S= 0.5011
 Leave Link  401 at Wed Oct  7 14:02:55 2020, MaxMem=  2684354560 cpu:               4.0 elap:               0.8
 (Enter /udrive/faculty/rpeverati/g16/g16/l502.exe)
 Keep J ints in memory in symmetry-blocked form, NReq=10459184.
 FoFCou: FMM=F IPFlag=           0 FMFlag=           0 FMFlg1=           0
         NFxFlg=           0 DoJE=F BraDBF=F KetDBF=F FulRan=T
         wScrn=  0.000000 ICntrl=       600 IOpCl=  0 I1Cent=           0 NGrid=           0
         NMat0=    1 NMatS0=    465 NMatT0=    0 NMatD0=    1 NMtDS0=    0 NMtDT0=    0
 Petite list used in FoFCou.
 UHF open shell SCF:
 Using DIIS extrapolation, IDIIS=  1040.
 NGot=  2684354560 LenX=  2684292770 LenY=  2684291305
 Requested convergence on RMS density matrix=1.00D-08 within 120 cycles.
 Requested convergence on MAX density matrix=1.00D-06.
 Requested convergence on             energy=1.00D-06.
 No special actions if energy rises.

 Cycle   1  Pass 1  IDiag  1:
 E= -113.781069931334    
 DIIS: error= 2.59D-04 at cycle   1 NSaved=   1.
 NSaved= 1 IEnMin= 1 EnMin= -113.781069931334     IErMin= 1 ErrMin= 2.59D-04
 ErrMax= 2.59D-04  0.00D+00 EMaxC= 1.00D-01 BMatC= 1.92D-05 BMatP= 1.92D-05
 IDIUse=3 WtCom= 9.97D-01 WtEn= 2.59D-03
 Coeff-Com:  0.100D+01
 Coeff-En:   0.100D+01
 Coeff:      0.100D+01
 Gap=     0.090 Goal=   None    Shift=    0.000
 Gap=     0.224 Goal=   None    Shift=    0.000
 RMSDP=1.33D-04 MaxDP=1.12D-03              OVMax= 1.99D-03

 Cycle   2  Pass 1  IDiag  1:
 E= -113.781075941135     Delta-E=       -0.000006009801 Rises=F Damp=F
 DIIS: error= 2.17D-04 at cycle   2 NSaved=   2.
 NSaved= 2 IEnMin= 2 EnMin= -113.781075941135     IErMin= 2 ErrMin= 2.17D-04
 ErrMax= 2.17D-04  0.00D+00 EMaxC= 1.00D-01 BMatC= 5.89D-06 BMatP= 1.92D-05
 IDIUse=3 WtCom= 9.98D-01 WtEn= 2.17D-03
 Coeff-Com:  0.295D+00 0.705D+00
 Coeff-En:   0.000D+00 0.100D+01
 Coeff:      0.294D+00 0.706D+00
 Gap=     0.090 Goal=   None    Shift=    0.000
 Gap=     0.224 Goal=   None    Shift=    0.000
 RMSDP=6.76D-05 MaxDP=7.28D-04 DE=-6.01D-06 OVMax= 1.03D-03

 Cycle   3  Pass 1  IDiag  1:
 E= -113.781074450814     Delta-E=        0.000001490321 Rises=F Damp=F
 DIIS: error= 4.16D-04 at cycle   3 NSaved=   3.
 NSaved= 3 IEnMin= 2 EnMin= -113.781075941135     IErMin= 2 ErrMin= 2.17D-04
 ErrMax= 4.16D-04  0.00D+00 EMaxC= 1.00D-01 BMatC= 1.31D-05 BMatP= 5.89D-06
 IDIUse=3 WtCom= 3.29D-01 WtEn= 6.71D-01
 Coeff-Com:  0.842D-01 0.570D+00 0.346D+00
 Coeff-En:   0.000D+00 0.653D+00 0.347D+00
 Coeff:      0.277D-01 0.625D+00 0.347D+00
 Gap=     0.090 Goal=   None    Shift=    0.000
 Gap=     0.224 Goal=   None    Shift=    0.000
 RMSDP=4.17D-05 MaxDP=5.15D-04 DE= 1.49D-06 OVMax= 9.04D-04

 Cycle   4  Pass 1  IDiag  1:
 E= -113.781076969923     Delta-E=       -0.000002519109 Rises=F Damp=F
 DIIS: error= 8.30D-05 at cycle   4 NSaved=   4.
 NSaved= 4 IEnMin= 4 EnMin= -113.781076969923     IErMin= 4 ErrMin= 8.30D-05
 ErrMax= 8.30D-05  0.00D+00 EMaxC= 1.00D-01 BMatC= 6.14D-07 BMatP= 5.89D-06
 IDIUse=1 WtCom= 1.00D+00 WtEn= 0.00D+00
 Coeff-Com:  0.103D-02 0.273D+00 0.217D+00 0.509D+00
 Coeff:      0.103D-02 0.273D+00 0.217D+00 0.509D+00
 Gap=     0.090 Goal=   None    Shift=    0.000
 Gap=     0.224 Goal=   None    Shift=    0.000
 RMSDP=1.40D-05 MaxDP=2.05D-04 DE=-2.52D-06 OVMax= 1.50D-04

 Cycle   5  Pass 1  IDiag  1:
 E= -113.781077129653     Delta-E=       -0.000000159730 Rises=F Damp=F
 DIIS: error= 9.67D-06 at cycle   5 NSaved=   5.
 NSaved= 5 IEnMin= 5 EnMin= -113.781077129653     IErMin= 5 ErrMin= 9.67D-06
 ErrMax= 9.67D-06  0.00D+00 EMaxC= 1.00D-01 BMatC= 7.25D-09 BMatP= 6.14D-07
 IDIUse=1 WtCom= 1.00D+00 WtEn= 0.00D+00
 Coeff-Com: -0.190D-02 0.398D-01 0.500D-01 0.109D+00 0.803D+00
 Coeff:     -0.190D-02 0.398D-01 0.500D-01 0.109D+00 0.803D+00
 Gap=     0.090 Goal=   None    Shift=    0.000
 Gap=     0.224 Goal=   None    Shift=    0.000
 RMSDP=2.67D-06 MaxDP=3.20D-05 DE=-1.60D-07 OVMax= 2.95D-05

 Cycle   6  Pass 1  IDiag  1:
 E= -113.781077132131     Delta-E=       -0.000000002478 Rises=F Damp=F
 DIIS: error= 1.66D-06 at cycle   6 NSaved=   6.
 NSaved= 6 IEnMin= 6 EnMin= -113.781077132131     IErMin= 6 ErrMin= 1.66D-06
 ErrMax= 1.66D-06  0.00D+00 EMaxC= 1.00D-01 BMatC= 3.62D-10 BMatP= 7.25D-09
 IDIUse=1 WtCom= 1.00D+00 WtEn= 0.00D+00
 Coeff-Com: -0.541D-04-0.285D-01-0.226D-01-0.578D-01-0.183D-02 0.111D+01
 Coeff:     -0.541D-04-0.285D-01-0.226D-01-0.578D-01-0.183D-02 0.111D+01
 Gap=     0.090 Goal=   None    Shift=    0.000
 Gap=     0.224 Goal=   None    Shift=    0.000
 RMSDP=7.51D-07 MaxDP=9.02D-06 DE=-2.48D-09 OVMax= 1.44D-05

 Cycle   7  Pass 1  IDiag  1:
 E= -113.781077132417     Delta-E=       -0.000000000287 Rises=F Damp=F
 DIIS: error= 9.89D-07 at cycle   7 NSaved=   7.
 NSaved= 7 IEnMin= 7 EnMin= -113.781077132417     IErMin= 7 ErrMin= 9.89D-07
 ErrMax= 9.89D-07  0.00D+00 EMaxC= 1.00D-01 BMatC= 4.13D-11 BMatP= 3.62D-10
 IDIUse=1 WtCom= 1.00D+00 WtEn= 0.00D+00
 Coeff-Com:  0.174D-03-0.438D-02-0.416D-02-0.116D-01-0.666D-01 0.416D-01
 Coeff-Com:  0.104D+01
 Coeff:      0.174D-03-0.438D-02-0.416D-02-0.116D-01-0.666D-01 0.416D-01
 Coeff:      0.104D+01
 Gap=     0.090 Goal=   None    Shift=    0.000
 Gap=     0.224 Goal=   None    Shift=    0.000
 RMSDP=2.37D-07 MaxDP=3.90D-06 DE=-2.87D-10 OVMax= 6.43D-06

 Cycle   8  Pass 1  IDiag  1:
 E= -113.781077132450     Delta-E=       -0.000000000033 Rises=F Damp=F
 DIIS: error= 3.02D-07 at cycle   8 NSaved=   8.
 NSaved= 8 IEnMin= 8 EnMin= -113.781077132450     IErMin= 8 ErrMin= 3.02D-07
 ErrMax= 3.02D-07  0.00D+00 EMaxC= 1.00D-01 BMatC= 4.99D-12 BMatP= 4.13D-11
 IDIUse=1 WtCom= 1.00D+00 WtEn= 0.00D+00
 Coeff-Com:  0.561D-04 0.272D-02 0.213D-02 0.490D-02-0.159D-01-0.136D+00
 Coeff-Com:  0.152D+00 0.990D+00
 Coeff:      0.561D-04 0.272D-02 0.213D-02 0.490D-02-0.159D-01-0.136D+00
 Coeff:      0.152D+00 0.990D+00
 Gap=     0.090 Goal=   None    Shift=    0.000
 Gap=     0.224 Goal=   None    Shift=    0.000
 RMSDP=9.17D-08 MaxDP=1.56D-06 DE=-3.26D-11 OVMax= 2.62D-06

 Cycle   9  Pass 1  IDiag  1:
 E= -113.781077132454     Delta-E=       -0.000000000004 Rises=F Damp=F
 DIIS: error= 8.73D-08 at cycle   9 NSaved=   9.
 NSaved= 9 IEnMin= 9 EnMin= -113.781077132454     IErMin= 9 ErrMin= 8.73D-08
 ErrMax= 8.73D-08  0.00D+00 EMaxC= 1.00D-01 BMatC= 3.01D-13 BMatP= 4.99D-12
 IDIUse=1 WtCom= 1.00D+00 WtEn= 0.00D+00
 Coeff-Com: -0.160D-04 0.277D-03 0.148D-03 0.812D-03 0.411D-02-0.290D-02
 Coeff-Com: -0.724D-01 0.173D-01 0.105D+01
 Coeff:     -0.160D-04 0.277D-03 0.148D-03 0.812D-03 0.411D-02-0.290D-02
 Coeff:     -0.724D-01 0.173D-01 0.105D+01
 Gap=     0.090 Goal=   None    Shift=    0.000
 Gap=     0.224 Goal=   None    Shift=    0.000
 RMSDP=1.59D-08 MaxDP=2.87D-07 DE=-3.87D-12 OVMax= 4.90D-07

 Cycle  10  Pass 1  IDiag  1:
 E= -113.781077132454     Delta-E=        0.000000000000 Rises=F Damp=F
 DIIS: error= 6.33D-09 at cycle  10 NSaved=  10.
 NSaved=10 IEnMin= 9 EnMin= -113.781077132454     IErMin=10 ErrMin= 6.33D-09
 ErrMax= 6.33D-09  0.00D+00 EMaxC= 1.00D-01 BMatC= 2.62D-15 BMatP= 3.01D-13
 IDIUse=1 WtCom= 1.00D+00 WtEn= 0.00D+00
 Coeff-Com: -0.918D-06-0.174D-04-0.208D-04-0.159D-04 0.656D-03 0.226D-02
 Coeff-Com: -0.651D-02-0.204D-01 0.303D-01 0.994D+00
 Coeff:     -0.918D-06-0.174D-04-0.208D-04-0.159D-04 0.656D-03 0.226D-02
 Coeff:     -0.651D-02-0.204D-01 0.303D-01 0.994D+00
 Gap=     0.090 Goal=   None    Shift=    0.000
 Gap=     0.224 Goal=   None    Shift=    0.000
 RMSDP=1.62D-09 MaxDP=2.32D-08 DE= 0.00D+00 OVMax= 4.20D-08

 SCF Done:  E(UB97D3) =  -113.781077132     A.U. after   10 cycles
            NFock= 10  Conv=0.16D-08     -V/T= 2.0055
 <Sx>= 0.0000 <Sy>= 0.0000 <Sz>= 0.5000 <S**2>= 0.7521 S= 0.5011
 <L.S>= 0.000000000000E+00
 KE= 1.131614287199D+02 PE=-3.197380706823D+02 EE= 6.661759728688D+01
 Annihilation of the first spin contaminant:
 S**2 before annihilation     0.7521,   after     0.7500
 Leave Link  502 at Wed Oct  7 14:02:57 2020, MaxMem=  2684354560 cpu:              12.6 elap:               1.4
 (Enter /udrive/faculty/rpeverati/g16/g16/l508.exe)
 QCSCF skips out because SCF is already converged.
 Leave Link  508 at Wed Oct  7 14:02:58 2020, MaxMem=  2684354560 cpu:               0.5 elap:               0.4
 (Enter /udrive/faculty/rpeverati/g16/g16/l701.exe)
 ... and contract with generalized density number  0.
 Compute integral first derivatives.
 R6Disp: Adding Grimme-D3(BJ) dispersion energy 1st derivatives to the gradient.
 Leave Link  701 at Wed Oct  7 14:02:59 2020, MaxMem=  2684354560 cpu:               3.5 elap:               0.6
 (Enter /udrive/faculty/rpeverati/g16/g16/l702.exe)
 L702 exits ... SP integral derivatives will be done elsewhere.
 Leave Link  702 at Wed Oct  7 14:02:59 2020, MaxMem=  2684354560 cpu:               1.6 elap:               0.5
 (Enter /udrive/faculty/rpeverati/g16/g16/l703.exe)
 Integral derivatives from FoFJK, PRISM(SPDF).
 Compute integral first derivatives, UseDBF=F ICtDFT=           0.
 Calling FoFJK, ICntrl=      2527 FMM=F ISym2X=1 I1Cent= 0 IOpClX= 0 NMat=1 NMatS=1 NMatT=0.
 FoFJK:  IHMeth= 1 ICntrl=    2527 DoSepK=F KAlg= 0 I1Cent=           0 FoldK=F
 IRaf=         0 NMat=       1 IRICut=       1 DoRegI=T DoRafI=F ISym2E= 1 IDoP0=0 IntGTp=1.
 FoFCou: FMM=F IPFlag=           0 FMFlag=      100000 FMFlg1=         800
         NFxFlg=           0 DoJE=F BraDBF=F KetDBF=F FulRan=T
         wScrn=  0.000000 ICntrl=      2527 IOpCl=  0 I1Cent=           0 NGrid=           0
         NMat0=    1 NMatS0=      1 NMatT0=    0 NMatD0=    1 NMtDS0=    0 NMtDT0=    0
 Petite list used in FoFCou.
 Leave Link  703 at Wed Oct  7 14:03:00 2020, MaxMem=  2684354560 cpu:               5.4 elap:               0.8
 (Enter /udrive/faculty/rpeverati/g16/g16/l716.exe)
 Dipole        =-3.44109221D-01 4.69297209D-01 0.00000000D+00
 ***** Axes restored to original set *****
 -------------------------------------------------------------------
 Center     Atomic                   Forces (Hartrees/Bohr)
 Number     Number              X              Y              Z
 -------------------------------------------------------------------
      1        1           0.000083374    0.000014166   -0.000000000
      2        6          -0.000134645    0.000207187   -0.000000000
      3        8           0.000051272   -0.000221353   -0.000000000
 -------------------------------------------------------------------
 Cartesian Forces:  Max     0.000221353 RMS     0.000115390
 Leave Link  716 at Wed Oct  7 14:03:01 2020, MaxMem=  2684354560 cpu:               1.8 elap:               0.6
 (Enter /udrive/faculty/rpeverati/g16/g16/l103.exe)

 GradGradGradGradGradGradGradGradGradGradGradGradGradGradGradGradGradGrad
 Berny optimization.
 Optmz: redundant internal coordinate code flag= 1
 Using GEDIIS/GDIIS optimizer.
 Red2BG:  D1=  6.79D-01 OD1=  5.30D-03 B2RMS=  0.00D+00 IAprox=0
 FormGI is forming the generalized inverse of G from B-inverse, IUseBI=4.
 Internal  Forces:  Max     0.000220326 RMS     0.000150458
 Search for a local minimum.
 Step number   3 out of a maximum of  100
 All quantities printed in internal units (Hartrees-Bohrs-Radians)
 RMS Force = .15046D-03 SwitMx=.10000D-02 MixMth= 2
 Mixed Optimization -- En-DIIS/RFO-DIIS
 Update second derivatives using D2CorX and points    1    2    3
 DE= -1.43D-05 DEPred=-1.36D-05 R= 1.05D+00
 TightC=F SS=  1.41D+00  RLast= 9.14D-03 DXNew= 5.0454D-01 2.7417D-02
 Trust test= 1.05D+00 RLast= 9.14D-03 DXMaxT set to 3.00D-01
 The second derivative matrix:
                          R1        R2        A1
           R1           0.31183
           R2          -0.03735   1.00379
           A1           0.00424   0.02271   0.15829
 ITU=  1  1  0
 Use linear search instead of GDIIS.
 Eigenvectors of the second derivative matrix:
                           1         2         3
     Eigenvalues --     0.15750   0.31001   1.00639
   1         R1        -0.03430   0.99798   0.05352
   2         R2        -0.02832   0.05256  -0.99822
   3         A1         0.99901   0.03576  -0.02646
 Iter=   1 RLamda= 0.00000000D+00 Sum=-1.49348074D-07.
 Iter=   2 RLamda=-1.49348074D-07 Sum=-1.49347983D-07.
 RFO step:  Lambda=-1.49348074D-07 EMin= 1.57504050D-01
 Quartic linear search produced a step of -0.00553.
 Iteration  1 RMS(Cart)=  0.00049172 RMS(Int)=  0.00000013
 Iteration  2 RMS(Cart)=  0.00000012 RMS(Int)=  0.00000000
 ITry= 1 IFail=0 DXMaxC= 4.96D-04 DCOld= 1.00D+10 DXMaxT= 3.00D-01 DXLimC= 3.00D+00 Rises=F
 ClnCor:  largest displacement from symmetrization is 4.44D-16 for atom     1.
 Variable       Old X    -DE/DX   Delta X   Delta X   Delta X     New X
                                 (Linear)    (Quad)   (Total)
    R1        2.14272  -0.00006  -0.00002  -0.00016  -0.00018   2.14254
    R2        2.25260   0.00022  -0.00002   0.00022   0.00020   2.25279
    A1        2.14602   0.00013   0.00004   0.00073   0.00077   2.14678
         Item               Value     Threshold  Converged?
 Maximum Force            0.000220     0.000450     YES
 RMS     Force            0.000150     0.000300     YES
 Maximum Displacement     0.000496     0.001800     YES
 RMS     Displacement     0.000492     0.001200     YES
 Predicted change in Energy=-7.504494D-08
 Optimization completed.
    -- Stationary point found.
                           ----------------------------
                           !   Optimized Parameters   !
                           ! (Angstroms and Degrees)  !
 --------------------------                            --------------------------
 ! Name  Definition              Value          Derivative Info.                !
 --------------------------------------------------------------------------------
 ! R1    R(1,2)                  1.1339         -DE/DX =   -0.0001              !
 ! R2    R(2,3)                  1.192          -DE/DX =    0.0002              !
 ! A1    A(1,2,3)              122.9576         -DE/DX =    0.0001              !
 --------------------------------------------------------------------------------
 Lowest energy point so far.  Saving SCF results.
 Largest change from initial coordinates is atom    1       0.006 Angstoms.
 GradGradGradGradGradGradGradGradGradGradGradGradGradGradGradGradGradGrad

 Leave Link  103 at Wed Oct  7 14:03:02 2020, MaxMem=  2684354560 cpu:               1.5 elap:               0.4
 (Enter /udrive/faculty/rpeverati/g16/g16/l202.exe)
                          Input orientation:                          
 ---------------------------------------------------------------------
 Center     Atomic      Atomic             Coordinates (Angstroms)
 Number     Number       Type             X           Y           Z
 ---------------------------------------------------------------------
      1          1           0       -0.862337    1.227264    0.000000
      2          6           0        0.077255    0.592560    0.000000
      3          8           0        0.054750   -0.599251    0.000000
 ---------------------------------------------------------------------
                    Distance matrix (angstroms):
                    1          2          3
     1  H    0.000000
     2  C    1.133879   0.000000
     3  O    2.043821   1.192024   0.000000
 Stoichiometry    CHO(2)
 Framework group  CS[SG(CHO)]
 Deg. of freedom     3
 Full point group                 CS      NOp   2
 RotChk:  IX=0 Diff= 0.00D+00
 Largest Abelian subgroup         CS      NOp   2
 Largest concise Abelian subgroup C1      NOp   1
                         Standard orientation:                         
 ---------------------------------------------------------------------
 Center     Atomic      Atomic             Coordinates (Angstroms)
 Number     Number       Type             X           Y           Z
 ---------------------------------------------------------------------
      1          1           0       -0.887980    1.211474    0.000000
      2          6           0        0.063427    0.594622    0.000000
      3          8           0        0.063427   -0.597401    0.000000
 ---------------------------------------------------------------------
 Rotational constants (GHZ):         678.4663596          43.8827775          41.2168947
 Leave Link  202 at Wed Oct  7 14:03:03 2020, MaxMem=  2684354560 cpu:               0.9 elap:               0.5
 (Enter /udrive/faculty/rpeverati/g16/g16/l601.exe)
 Copying SCF densities to generalized density rwf, IOpCl= 1 IROHF=0.

 **********************************************************************

            Population analysis using the SCF density.

 **********************************************************************

 Orbital symmetries:
 Alpha Orbitals:
       Occupied  (A') (A') (A') (A') (A') (A") (A') (A')
       Virtual   (A") (A') (A') (A") (A') (A') (A') (A') (A') (A")
                 (A') (A") (A") (A') (A') (A') (A") (A') (A') (A")
                 (A') (A')
 Beta  Orbitals:
       Occupied  (A') (A') (A') (A') (A') (A") (A')
       Virtual   (A') (A") (A') (A') (A") (A') (A') (A') (A') (A')
                 (A") (A') (A") (A') (A") (A') (A') (A") (A') (A')
                 (A") (A') (A')
 The electronic state is 2-A'.
 Alpha  occ. eigenvalues --  -18.83095 -10.00905  -1.01402  -0.55354  -0.43657
 Alpha  occ. eigenvalues --   -0.38276  -0.37363  -0.17073
 Alpha virt. eigenvalues --   -0.08110   0.10898   0.21630   0.48585   0.49704
 Alpha virt. eigenvalues --    0.61059   0.64165   0.76920   0.82991   0.88818
 Alpha virt. eigenvalues --    0.93334   1.42354   1.43556   1.43881   1.45109
 Alpha virt. eigenvalues --    1.62160   1.83701   1.96212   2.21477   2.45872
 Alpha virt. eigenvalues --    2.50584   2.81964
  Beta  occ. eigenvalues --  -18.82587 -10.00553  -0.99797  -0.53064  -0.41597
  Beta  occ. eigenvalues --   -0.37100  -0.33309
  Beta virt. eigenvalues --   -0.10895  -0.06054   0.10869   0.22011   0.48966
  Beta virt. eigenvalues --    0.52037   0.61795   0.66133   0.77519   0.83841
  Beta virt. eigenvalues --    0.89301   0.95171   1.43912   1.45875   1.46903
  Beta virt. eigenvalues --    1.47900   1.64358   1.86910   1.99347   2.24729
  Beta virt. eigenvalues --    2.47611   2.54565   2.83043
          Condensed to atoms (all electrons):
               1          2          3
     1  H    0.683528   0.216589  -0.042768
     2  C    0.216589   5.182569   0.517788
     3  O   -0.042768   0.517788   7.750685
          Atomic-Atomic Spin Densities.
               1          2          3
     1  H    0.280835  -0.133715  -0.013660
     2  C   -0.133715   0.876589  -0.140891
     3  O   -0.013660  -0.140891   0.419107
 Mulliken charges and spin densities:
               1          2
     1  H    0.142651   0.133460
     2  C    0.083054   0.601984
     3  O   -0.225705   0.264556
 Sum of Mulliken charges =  -0.00000   1.00000
 Mulliken charges and spin densities with hydrogens summed into heavy atoms:
               1          2
     2  C    0.225705   0.735444
     3  O   -0.225705   0.264556
 Electronic spatial extent (au):  <R**2>=             50.5313
 Charge=             -0.0000 electrons
 Dipole moment (field-independent basis, Debye):
    X=             -0.8746    Y=              1.1928    Z=              0.0000  Tot=              1.4791
 Quadrupole moment (field-independent basis, Debye-Ang):
   XX=            -11.0695   YY=            -11.2978   ZZ=            -10.5883
   XY=             -0.9431   XZ=              0.0000   YZ=              0.0000
 Traceless Quadrupole moment (field-independent basis, Debye-Ang):
   XX=             -0.0843   YY=             -0.3126   ZZ=              0.3969
   XY=             -0.9431   XZ=              0.0000   YZ=              0.0000
 Octapole moment (field-independent basis, Debye-Ang**2):
  XXX=             -0.7227  YYY=             -2.7359  ZZZ=              0.0000  XYY=             -1.3416
  XXY=             -0.8866  XXZ=              0.0000  XZZ=             -0.0784  YZZ=             -0.9638
  YYZ=              0.0000  XYZ=              0.0000
 Hexadecapole moment (field-independent basis, Debye-Ang**3):
 XXXX=            -13.6711 YYYY=            -38.5527 ZZZZ=             -8.4120 XXXY=              1.5737
 XXXZ=              0.0000 YYYX=              0.7533 YYYZ=              0.0000 ZZZX=              0.0000
 ZZZY=              0.0000 XXYY=             -8.5315 XXZZ=             -3.7636 YYZZ=             -7.7392
 XXYZ=              0.0000 YYXZ=              0.0000 ZZXY=              0.7224
 N-N= 2.617796754306D+01 E-N=-3.197380705991D+02  KE= 1.131614287199D+02
                          Isotropic Fermi Contact Couplings
        Atom                 a.u.       MegaHertz       Gauss      10(-4) cm-1
     1  H(1)               0.07700     344.16148     122.80538     114.79991
     2  C(13)              0.40689     457.42693     163.22130     152.58120
     3  O(17)              0.06349     -38.48941     -13.73398     -12.83868
 --------------------------------------------------------
       Center         ----  Spin Dipole Couplings  ----
                      3XX-RR        3YY-RR        3ZZ-RR
 --------------------------------------------------------
     1   Atom        0.024484      0.007308     -0.031792
     2   Atom        0.370443     -0.084563     -0.285880
     3   Atom        1.276266     -0.524919     -0.751346
 --------------------------------------------------------
                        XY            XZ            YZ
 --------------------------------------------------------
     1   Atom       -0.032228      0.000000      0.000000
     2   Atom        0.383280      0.000000      0.000000
     3   Atom        0.474150      0.000000      0.000000
 --------------------------------------------------------


 ---------------------------------------------------------------------------------
              Anisotropic Spin Dipole Couplings in Principal Axis System
 ---------------------------------------------------------------------------------

       Atom             a.u.   MegaHertz   Gauss  10(-4) cm-1        Axes

              Baa    -0.0318   -16.963    -6.053    -5.658  0.0000  0.0000  1.0000
     1 H(1)   Bbb    -0.0175    -9.314    -3.323    -3.107  0.6093  0.7929  0.0000
              Bcc     0.0492    26.276     9.376     8.765  0.7929 -0.6093  0.0000
 
              Baa    -0.3028   -40.629   -14.498   -13.553 -0.4948  0.8690  0.0000
     2 C(13)  Bbb    -0.2859   -38.362   -13.689   -12.796  0.0000  0.0000  1.0000
              Bcc     0.5887    78.992    28.186    26.349  0.8690  0.4948  0.0000
 
              Baa    -0.7513    54.367    19.399    18.135  0.0000  0.0000  1.0000
     3 O(17)  Bbb    -0.6421    46.463    16.579    15.498 -0.2399  0.9708  0.0000
              Bcc     1.3935  -100.830   -35.979   -33.633  0.9708  0.2399  0.0000
 

 ---------------------------------------------------------------------------------

 No NMR shielding tensors so no spin-rotation constants.
 Leave Link  601 at Wed Oct  7 14:03:04 2020, MaxMem=  2684354560 cpu:               5.9 elap:               0.8
 (Enter /udrive/faculty/rpeverati/g16/g16/l9999.exe)

 Test job not archived.
 1\1\GINC-NODE17\FOpt\UB97D3\6-31G(d)\C1H1O1(2)\RPEVERATI\07-Oct-2020\0
 \\#P Opt(MaxCyc=100) B97D3/6-31G* 5D 7F Integral=UltraFineGrid SCF=(No
 Symm,XQC,MaxCyc=120) IOp(1/33=1)\\TS search on BH76.\\0,2\H,-0.8623368
 633,1.2272641444,0.\C,0.0772548693,0.5925603286,0.\O,0.0547497084,-0.5
 992507774,0.\\Version=ES64L-G16RevA.03\State=2-A'\HF=-113.7810771\S2=0
 .752134\S2-1=0.\S2A=0.750003\RMSD=1.616e-09\RMSF=1.154e-04\Dipole=-0.3
 351877,0.4757103,0.\Quadrupole=-0.0892067,-0.2058842,0.2950909,-0.7038
 989,0.,0.\PG=CS [SG(C1H1O1)]\\@


 THE POLHOLDE ROLLS WITHOUT SLIPPING ON THE HERPOLHOLDE LYING IN
 THE INVARIABLE PLANE.
 H.GOLDSTEIN, "CLASSICAL MECHANICS", PG 161
 Job cpu time:       0 days  0 hours  2 minutes 51.2 seconds.
 Elapsed time:       0 days  0 hours  0 minutes 32.0 seconds.
 File lengths (MBytes):  RWF=      5 Int=      0 D2E=      0 Chk=      1 Scr=      1
 Normal termination of Gaussian 16 at Wed Oct  7 14:03:05 2020.
