 Entering Gaussian System, Link 0=g16
 Input=MN_54_hfhts_BH76_B97DBJ_631Gs.in
 Output=MN_54_hfhts_BH76_B97DBJ_631Gs.log
 Initial command:
 /udrive/faculty/rpeverati/g16/g16/l1.exe "/udrive/scratch-directories/gaussian09/rpeverati/Gau-18453.inp" -scrdir="/udrive/scratch-directories/gaussian09/rpeverati/"
 Entering Link 1 = /udrive/faculty/rpeverati/g16/g16/l1.exe PID=     18471.
  
 Copyright (c) 1988,1990,1992,1993,1995,1998,2003,2009,2016,
            Gaussian, Inc.  All Rights Reserved.
  
 This is part of the Gaussian(R) 16 program.  It is based on
 the Gaussian(R) 09 system (copyright 2009, Gaussian, Inc.),
 the Gaussian(R) 03 system (copyright 2003, Gaussian, Inc.),
 the Gaussian(R) 98 system (copyright 1998, Gaussian, Inc.),
 the Gaussian(R) 94 system (copyright 1995, Gaussian, Inc.),
 the Gaussian 92(TM) system (copyright 1992, Gaussian, Inc.),
 the Gaussian 90(TM) system (copyright 1990, Gaussian, Inc.),
 the Gaussian 88(TM) system (copyright 1988, Gaussian, Inc.),
 the Gaussian 86(TM) system (copyright 1986, Carnegie Mellon
 University), and the Gaussian 82(TM) system (copyright 1983,
 Carnegie Mellon University). Gaussian is a federally registered
 trademark of Gaussian, Inc.
  
 This software contains proprietary and confidential information,
 including trade secrets, belonging to Gaussian, Inc.
  
 This software is provided under written license and may be
 used, copied, transmitted, or stored only in accord with that
 written license.
  
 The following legend is applicable only to US Government
 contracts under FAR:
  
                    RESTRICTED RIGHTS LEGEND
  
 Use, reproduction and disclosure by the US Government is
 subject to restrictions as set forth in subparagraphs (a)
 and (c) of the Commercial Computer Software - Restricted
 Rights clause in FAR 52.227-19.
  
 Gaussian, Inc.
 340 Quinnipiac St., Bldg. 40, Wallingford CT 06492
  
  
 ---------------------------------------------------------------
 Warning -- This program may not be used in any manner that
 competes with the business of Gaussian, Inc. or will provide
 assistance to any competitor of Gaussian, Inc.  The licensee
 of this program is prohibited from giving any competitor of
 Gaussian, Inc. access to this program.  By using this program,
 the user acknowledges that Gaussian, Inc. is engaged in the
 business of creating and licensing software in the field of
 computational chemistry and represents and warrants to the
 licensee that it is not a competitor of Gaussian, Inc. and that
 it will not use this program in any manner prohibited above.
 ---------------------------------------------------------------
  

 Cite this work as:
 Gaussian 16, Revision A.03,
 M. J. Frisch, G. W. Trucks, H. B. Schlegel, G. E. Scuseria, 
 M. A. Robb, J. R. Cheeseman, G. Scalmani, V. Barone, 
 G. A. Petersson, H. Nakatsuji, X. Li, M. Caricato, A. V. Marenich, 
 J. Bloino, B. G. Janesko, R. Gomperts, B. Mennucci, H. P. Hratchian, 
 J. V. Ortiz, A. F. Izmaylov, J. L. Sonnenberg, D. Williams-Young, 
 F. Ding, F. Lipparini, F. Egidi, J. Goings, B. Peng, A. Petrone, 
 T. Henderson, D. Ranasinghe, V. G. Zakrzewski, J. Gao, N. Rega, 
 G. Zheng, W. Liang, M. Hada, M. Ehara, K. Toyota, R. Fukuda, 
 J. Hasegawa, M. Ishida, T. Nakajima, Y. Honda, O. Kitao, H. Nakai, 
 T. Vreven, K. Throssell, J. A. Montgomery, Jr., J. E. Peralta, 
 F. Ogliaro, M. J. Bearpark, J. J. Heyd, E. N. Brothers, K. N. Kudin, 
 V. N. Staroverov, T. A. Keith, R. Kobayashi, J. Normand, 
 K. Raghavachari, A. P. Rendell, J. C. Burant, S. S. Iyengar, 
 J. Tomasi, M. Cossi, J. M. Millam, M. Klene, C. Adamo, R. Cammi, 
 J. W. Ochterski, R. L. Martin, K. Morokuma, O. Farkas, 
 J. B. Foresman, and D. J. Fox, Gaussian, Inc., Wallingford CT, 2016.
 
 ******************************************
 Gaussian 16:  ES64L-G16RevA.03 25-Dec-2016
                 7-Oct-2020 
 ******************************************
 %NoSave
 %nproc=12
 Will use up to   12 processors via shared memory.
 %mem=20GB
 %chk=MN_54_hfhts_BH76_B97DBJ_631Gs
 ----------------------------------------------------------------------
 #P Opt(TS,MaxCyc=50,NoEigenTest,MaxStep=10,AddRedundant) B97D3/6-31G* 
 5D 7F Integral=UltraFineGrid SCF=(NoSymm,XQC,MaxCyc=120) IOp(1/33=1)
 ----------------------------------------------------------------------
 1/5=1,6=50,8=10,11=1,18=120,26=4,33=1,38=1/1,3;
 2/9=110,12=2,17=6,18=5,40=1/2;
 3/5=1,6=6,7=1,8=11,11=2,25=1,30=1,71=1,74=-59,75=-5/1,2,3;
 4/9=2/1;
 5/5=2,7=120,8=3,13=1,38=5/2,8;
 6/7=2,8=2,9=2,10=2,28=1/1;
 7//1,2,3,16;
 1/5=1,6=50,8=10,11=1,18=20,26=4,33=1/3(2);
 2/9=110/2;
 99//99;
 2/9=110/2;
 3/5=1,6=6,7=1,8=11,11=2,25=1,30=1,71=1,74=-59,75=-5/1,2,3;
 4/5=5,9=2,16=3,69=1/1;
 5/5=2,7=120,8=3,13=1,38=5/2,8;
 7//1,2,3,16;
 1/5=1,6=50,8=10,11=1,18=20,26=4,33=1/3(-5);
 2/9=110/2;
 6/7=2,8=2,9=2,10=2,19=2,28=1/1;
 99/9=1/99;
 Leave Link    1 at Wed Oct  7 14:02:35 2020, MaxMem=  2684354560 cpu:               5.3 elap:               0.6
 (Enter /udrive/faculty/rpeverati/g16/g16/l101.exe)
 ONIOM data not found on unit 2.
 ------------------
 TS search on BH76.
 ------------------
 TstMul:  ICh=     0
 TstMul:  Mul=     2
 TstMul:  ICh=     0
 TstMul:  Mul=     2
 Symbolic Z-matrix:
 Charge =  0 Multiplicity = 2
 H                     0.        0.        1.13722 
 F                     0.        0.        0. 
 H                     0.        0.       -1.13722 
 
 RdStrC is calling ZToCFu for IStruc=1 NZ=     3.
 PrtBox:  NBox=     1 Levels=  1 BoxLen=    8.00 SMaxX=        4.30
          Shift=            0.000000            0.000000            2.149030
 Box      1 Number                   0 centers from      1 to      3:
 After GenITR:
 ITRead=  0  0  0
 MicOpt= -1 -1 -1
 Add virtual bond connecting atoms F2         and H1         Dist= 2.15D+00.
 Add virtual bond connecting atoms H3         and F2         Dist= 2.15D+00.
 The following ModRedundant input section has been read:
 
 ITRead=  0  0  0
 MicOpt= -1 -1 -1
 NAtoms=      3 NQM=        3 NQMF=       0 NMMI=      0 NMMIF=      0
                NMic=       0 NMicF=      0.
                    Isotopes and Nuclear Properties:
 (Nuclear quadrupole moments (NQMom) in fm**2, nuclear magnetic moments (NMagM)
  in nuclear magnetons)

  Atom         1           2           3
 IAtWgt=           1          19           1
 AtmWgt=   1.0078250  18.9984033   1.0078250
 NucSpn=           1           1           1
 AtZEff=   0.0000000   0.0000000   0.0000000
 NQMom=    0.0000000   0.0000000   0.0000000
 NMagM=    2.7928460   2.6288670   2.7928460
 AtZNuc=   1.0000000   9.0000000   1.0000000
 No MM parameters found.
 Leave Link  101 at Wed Oct  7 14:02:36 2020, MaxMem=  2684354560 cpu:               9.8 elap:               1.0
 (Enter /udrive/faculty/rpeverati/g16/g16/l103.exe)

 GradGradGradGradGradGradGradGradGradGradGradGradGradGradGradGradGradGrad
 Berny optimization.
 Optmz: redundant internal coordinate code flag= 1
 Initialization pass.
                           ----------------------------
                           !    Initial Parameters    !
                           ! (Angstroms and Degrees)  !
 --------------------------                            --------------------------
 ! Name  Definition              Value          Derivative Info.                !
 --------------------------------------------------------------------------------
 ! R1    R(1,2)                  1.1372         estimate D2E/DX2                !
 ! R2    R(2,3)                  1.1372         estimate D2E/DX2                !
 ! A1    L(1,2,3,-1,-1)        180.0            estimate D2E/DX2                !
 ! A2    L(1,2,3,-2,-2)        180.0            estimate D2E/DX2                !
 --------------------------------------------------------------------------------
 Maximum allowed force set to 1.00D+20.
 Trust Radius=1.00D-01 FncErr=1.00D-07 GrdErr=1.00D-06 EigMax=2.50D+02 EigMin=1.00D-04
 Number of steps in this run=     50 maximum allowed number of steps=    100.
 Search for a saddle point of order  1.
 GradGradGradGradGradGradGradGradGradGradGradGradGradGradGradGradGradGrad

 Leave Link  103 at Wed Oct  7 14:02:37 2020, MaxMem=  2684354560 cpu:               1.1 elap:               0.5
 (Enter /udrive/faculty/rpeverati/g16/g16/l202.exe)
                          Input orientation:                          
 ---------------------------------------------------------------------
 Center     Atomic      Atomic             Coordinates (Angstroms)
 Number     Number       Type             X           Y           Z
 ---------------------------------------------------------------------
      1          1           0        0.000000    0.000000    1.137218
      2          9           0        0.000000    0.000000    0.000000
      3          1           0        0.000000    0.000000   -1.137218
 ---------------------------------------------------------------------
                    Distance matrix (angstroms):
                    1          2          3
     1  H    0.000000
     2  F    1.137218   0.000000
     3  H    2.274435   1.137218   0.000000
 Stoichiometry    FH2(2)
 Framework group  D*H[O(F),C*(H.H)]
 Deg. of freedom     1
 Full point group                 D*H     NOp   8
 Largest Abelian subgroup         D2H     NOp   8
 Largest concise Abelian subgroup C2      NOp   2
                         Standard orientation:                         
 ---------------------------------------------------------------------
 Center     Atomic      Atomic             Coordinates (Angstroms)
 Number     Number       Type             X           Y           Z
 ---------------------------------------------------------------------
      1          1           0        0.000000    0.000000    1.137218
      2          9           0        0.000000    0.000000    0.000000
      3          1           0        0.000000    0.000000   -1.137218
 ---------------------------------------------------------------------
 Rotational constants (GHZ):           0.0000000         193.8718876         193.8718876
 Leave Link  202 at Wed Oct  7 14:02:38 2020, MaxMem=  2684354560 cpu:               0.9 elap:               0.4
 (Enter /udrive/faculty/rpeverati/g16/g16/l301.exe)
 Standard basis: 6-31G(d) (5D, 7F)
 Ernie: Thresh=  0.10000D-02 Tol=  0.10000D-05 Strict=F.
 There are     8 symmetry adapted cartesian basis functions of AG  symmetry.
 There are     1 symmetry adapted cartesian basis functions of B1G symmetry.
 There are     1 symmetry adapted cartesian basis functions of B2G symmetry.
 There are     1 symmetry adapted cartesian basis functions of B3G symmetry.
 There are     0 symmetry adapted cartesian basis functions of AU  symmetry.
 There are     4 symmetry adapted cartesian basis functions of B1U symmetry.
 There are     2 symmetry adapted cartesian basis functions of B2U symmetry.
 There are     2 symmetry adapted cartesian basis functions of B3U symmetry.
 There are     7 symmetry adapted basis functions of AG  symmetry.
 There are     1 symmetry adapted basis functions of B1G symmetry.
 There are     1 symmetry adapted basis functions of B2G symmetry.
 There are     1 symmetry adapted basis functions of B3G symmetry.
 There are     0 symmetry adapted basis functions of AU  symmetry.
 There are     4 symmetry adapted basis functions of B1U symmetry.
 There are     2 symmetry adapted basis functions of B2U symmetry.
 There are     2 symmetry adapted basis functions of B3U symmetry.
    18 basis functions,    36 primitive gaussians,    19 cartesian basis functions
     6 alpha electrons        5 beta electrons
       nuclear repulsion energy         8.6085350156 Hartrees.
 IExCor= 3630 DFT=T Ex+Corr=B97D3 ExCW=0 ScaHFX=  0.000000
 ScaDFX=  1.000000  1.000000  1.000000  1.000000 ScalE2=  1.000000  1.000000
 IRadAn=      5 IRanWt=     -1 IRanGd=            0 ICorTp=0 IEmpDi=141
 NAtoms=    3 NActive=    3 NUniq=    2 SFac= 2.25D+00 NAtFMM=   60 NAOKFM=F Big=F
 Integral buffers will be    131072 words long.
 Raffenetti 2 integral format.
 Two-electron integral symmetry is turned on.
 R6Disp:  Grimme-D3(BJ) Dispersion energy=       -0.0010768776 Hartrees.
 Nuclear repulsion after empirical dispersion term =        8.6074581380 Hartrees.
 Leave Link  301 at Wed Oct  7 14:02:38 2020, MaxMem=  2684354560 cpu:               1.6 elap:               0.5
 (Enter /udrive/faculty/rpeverati/g16/g16/l302.exe)
 NPDir=0 NMtPBC=     1 NCelOv=     1 NCel=       1 NClECP=     1 NCelD=      1
         NCelK=      1 NCelE2=     1 NClLst=     1 CellRange=     0.0.
 One-electron integrals computed using PRISM.
 One-electron integral symmetry used in STVInt
 NBasis=    18 RedAO= T EigKep=  1.31D-01  NBF=     7     1     1     1     0     4     2     2
 NBsUse=    18 1.00D-06 EigRej= -1.00D+00 NBFU=     7     1     1     1     0     4     2     2
 Precomputing XC quadrature grid using
 IXCGrd= 4 IRadAn=           5 IRanWt=          -1 IRanGd=           0 AccXCQ= 0.00D+00.
 Generated NRdTot=       0 NPtTot=           0 NUsed=           0 NTot=          32
 NSgBfM=    19    19    19    19    19 MxSgAt=     3 MxSgA2=     3.
 Leave Link  302 at Wed Oct  7 14:02:39 2020, MaxMem=  2684354560 cpu:               3.6 elap:               0.6
 (Enter /udrive/faculty/rpeverati/g16/g16/l303.exe)
 DipDrv:  MaxL=1.
 Leave Link  303 at Wed Oct  7 14:02:40 2020, MaxMem=  2684354560 cpu:               1.6 elap:               0.4
 (Enter /udrive/faculty/rpeverati/g16/g16/l401.exe)
 SCF N**3 symmetry information disabled.
 ExpMin= 1.61D-01 ExpMax= 7.00D+03 ExpMxC= 1.05D+03 IAcc=3 IRadAn=         5 AccDes= 0.00D+00
 Harris functional with IExCor= 3630 and IRadAn=       5 diagonalized for initial guess.
 HarFok:  IExCor= 3630 AccDes= 0.00D+00 IRadAn=         5 IDoV= 1 UseB2=F ITyADJ=14
 ICtDFT=  3500011 ScaDFX=  1.000000  1.000000  1.000000  1.000000
 FoFCou: FMM=F IPFlag=           0 FMFlag=      100000 FMFlg1=           0
         NFxFlg=           0 DoJE=T BraDBF=F KetDBF=T FulRan=T
         wScrn=  0.000000 ICntrl=       500 IOpCl=  0 I1Cent=   200000004 NGrid=           0
         NMat0=    1 NMatS0=      1 NMatT0=    0 NMatD0=    1 NMtDS0=    0 NMtDT0=    0
 Petite list used in FoFCou.
 Harris En= -100.810222235755    
 JPrj=0 DoOrth=F DoCkMO=F.
 Initial guess orbital symmetries:
 Alpha Orbitals:
       Occupied  (SGG) (SGG) (SGU) (PIU) (PIU) (SGG)
       Virtual   (SGU) (SGG) (SGU) (PIU) (PIU) (SGG) (SGU) (PIG)
                 (PIG) (DLTG) (DLTG) (SGG)
 Beta  Orbitals:
       Occupied  (SGG) (SGG) (SGU) (PIU) (PIU)
       Virtual   (SGG) (SGU) (SGG) (SGU) (PIU) (PIU) (SGG) (SGU)
                 (PIG) (PIG) (DLTG) (DLTG) (SGG)
 The electronic state of the initial guess is 2-SGG.
 Initial guess <Sx>= 0.0000 <Sy>= 0.0000 <Sz>= 0.5000 <S**2>= 0.7500 S= 0.5000
 Leave Link  401 at Wed Oct  7 14:02:41 2020, MaxMem=  2684354560 cpu:               5.3 elap:               0.8
 (Enter /udrive/faculty/rpeverati/g16/g16/l502.exe)
 Keep J ints in memory in symmetry-blocked form, NReq=10357092.
 FoFCou: FMM=F IPFlag=           0 FMFlag=           0 FMFlg1=           0
         NFxFlg=           0 DoJE=F BraDBF=F KetDBF=F FulRan=T
         wScrn=  0.000000 ICntrl=       600 IOpCl=  0 I1Cent=           0 NGrid=           0
         NMat0=    1 NMatS0=    171 NMatT0=    0 NMatD0=    1 NMtDS0=    0 NMtDT0=    0
 Petite list used in FoFCou.
 UHF open shell SCF:
 Using DIIS extrapolation, IDIIS=  1040.
 NGot=  2684354560 LenX=  2684348244 LenY=  2684347362
 Requested convergence on RMS density matrix=1.00D-08 within 120 cycles.
 Requested convergence on MAX density matrix=1.00D-06.
 Requested convergence on             energy=1.00D-06.
 No special actions if energy rises.
 Integral accuracy reduced to 1.0D-05 until final iterations.

 Cycle   1  Pass 0  IDiag  1:
 E= -100.794336720721    
 DIIS: error= 5.52D-02 at cycle   1 NSaved=   1.
 NSaved= 1 IEnMin= 1 EnMin= -100.794336720721     IErMin= 1 ErrMin= 5.52D-02
 ErrMax= 5.52D-02  0.00D+00 EMaxC= 1.00D-01 BMatC= 1.25D-01 BMatP= 1.25D-01
 IDIUse=3 WtCom= 4.48D-01 WtEn= 5.52D-01
 Coeff-Com:  0.100D+01
 Coeff-En:   0.100D+01
 Coeff:      0.100D+01
 Gap=     0.161 Goal=   None    Shift=    0.000
 Gap=     0.170 Goal=   None    Shift=    0.000
 GapD=    0.161 DampG=1.000 DampE=0.500 DampFc=0.5000 IDamp=-1.
 Damping current iteration by 5.00D-01
 RMSDP=1.37D-02 MaxDP=1.14D-01              OVMax= 1.67D-01

 Cycle   2  Pass 0  IDiag  1:
 E= -100.799690830531     Delta-E=       -0.005354109810 Rises=F Damp=T
 DIIS: error= 1.87D-02 at cycle   2 NSaved=   2.
 NSaved= 2 IEnMin= 2 EnMin= -100.799690830531     IErMin= 2 ErrMin= 1.87D-02
 ErrMax= 1.87D-02  0.00D+00 EMaxC= 1.00D-01 BMatC= 1.61D-02 BMatP= 1.25D-01
 IDIUse=3 WtCom= 8.13D-01 WtEn= 1.87D-01
 Coeff-Com:  0.253D+00 0.747D+00
 Coeff-En:   0.378D+00 0.622D+00
 Coeff:      0.276D+00 0.724D+00
 Gap=     0.146 Goal=   None    Shift=    0.000
 Gap=     0.246 Goal=   None    Shift=    0.000
 RMSDP=2.47D-03 MaxDP=1.91D-02 DE=-5.35D-03 OVMax= 8.54D-02

 Cycle   3  Pass 0  IDiag  1:
 E= -100.816140247716     Delta-E=       -0.016449417185 Rises=F Damp=F
 DIIS: error= 4.03D-03 at cycle   3 NSaved=   3.
 NSaved= 3 IEnMin= 3 EnMin= -100.816140247716     IErMin= 3 ErrMin= 4.03D-03
 ErrMax= 4.03D-03  0.00D+00 EMaxC= 1.00D-01 BMatC= 4.64D-04 BMatP= 1.61D-02
 IDIUse=3 WtCom= 9.60D-01 WtEn= 4.03D-02
 Coeff-Com:  0.250D-01-0.109D+00 0.108D+01
 Coeff-En:   0.000D+00 0.000D+00 0.100D+01
 Coeff:      0.239D-01-0.105D+00 0.108D+01
 Gap=     0.148 Goal=   None    Shift=    0.000
 Gap=     0.253 Goal=   None    Shift=    0.000
 RMSDP=4.38D-04 MaxDP=4.96D-03 DE=-1.64D-02 OVMax= 6.57D-03

 Cycle   4  Pass 0  IDiag  1:
 E= -100.816234851981     Delta-E=       -0.000094604265 Rises=F Damp=F
 DIIS: error= 4.89D-04 at cycle   4 NSaved=   4.
 NSaved= 4 IEnMin= 4 EnMin= -100.816234851981     IErMin= 4 ErrMin= 4.89D-04
 ErrMax= 4.89D-04  0.00D+00 EMaxC= 1.00D-01 BMatC= 5.32D-06 BMatP= 4.64D-04
 IDIUse=3 WtCom= 9.95D-01 WtEn= 4.89D-03
 Coeff-Com: -0.126D-01 0.437D-02-0.147D+00 0.115D+01
 Coeff-En:   0.000D+00 0.000D+00 0.000D+00 0.100D+01
 Coeff:     -0.126D-01 0.435D-02-0.146D+00 0.115D+01
 Gap=     0.148 Goal=   None    Shift=    0.000
 Gap=     0.252 Goal=   None    Shift=    0.000
 RMSDP=8.83D-05 MaxDP=8.22D-04 DE=-9.46D-05 OVMax= 1.09D-03

 Cycle   5  Pass 0  IDiag  1:
 E= -100.816236751009     Delta-E=       -0.000001899029 Rises=F Damp=F
 DIIS: error= 3.55D-05 at cycle   5 NSaved=   5.
 NSaved= 5 IEnMin= 5 EnMin= -100.816236751009     IErMin= 5 ErrMin= 3.55D-05
 ErrMax= 3.55D-05  0.00D+00 EMaxC= 1.00D-01 BMatC= 4.37D-08 BMatP= 5.32D-06
 IDIUse=1 WtCom= 1.00D+00 WtEn= 0.00D+00
 Coeff-Com:  0.215D-02 0.110D-02 0.102D-01-0.192D+00 0.118D+01
 Coeff:      0.215D-02 0.110D-02 0.102D-01-0.192D+00 0.118D+01
 Gap=     0.148 Goal=   None    Shift=    0.000
 Gap=     0.252 Goal=   None    Shift=    0.000
 RMSDP=7.67D-06 MaxDP=7.91D-05 DE=-1.90D-06 OVMax= 9.87D-05

 Initial convergence to 1.0D-05 achieved.  Increase integral accuracy.
 Cycle   6  Pass 1  IDiag  1:
 E= -100.816236614257     Delta-E=        0.000000136752 Rises=F Damp=F
 DIIS: error= 5.93D-06 at cycle   1 NSaved=   1.
 NSaved= 1 IEnMin= 1 EnMin= -100.816236614257     IErMin= 1 ErrMin= 5.93D-06
 ErrMax= 5.93D-06  0.00D+00 EMaxC= 1.00D-01 BMatC= 1.39D-09 BMatP= 1.39D-09
 IDIUse=1 WtCom= 1.00D+00 WtEn= 0.00D+00
 Coeff-Com:  0.100D+01
 Coeff:      0.100D+01
 Gap=     0.148 Goal=   None    Shift=    0.000
 Gap=     0.252 Goal=   None    Shift=    0.000
 RMSDP=7.67D-06 MaxDP=7.91D-05 DE= 1.37D-07 OVMax= 1.85D-05

 Cycle   7  Pass 1  IDiag  1:
 E= -100.816236614369     Delta-E=       -0.000000000112 Rises=F Damp=F
 DIIS: error= 6.33D-06 at cycle   2 NSaved=   2.
 NSaved= 2 IEnMin= 2 EnMin= -100.816236614369     IErMin= 1 ErrMin= 5.93D-06
 ErrMax= 6.33D-06  0.00D+00 EMaxC= 1.00D-01 BMatC= 2.02D-09 BMatP= 1.39D-09
 IDIUse=1 WtCom= 1.00D+00 WtEn= 0.00D+00
 Coeff-Com:  0.560D+00 0.440D+00
 Coeff:      0.560D+00 0.440D+00
 Gap=     0.148 Goal=   None    Shift=    0.000
 Gap=     0.252 Goal=   None    Shift=    0.000
 RMSDP=7.46D-07 MaxDP=6.09D-06 DE=-1.12D-10 OVMax= 8.12D-06

 Cycle   8  Pass 1  IDiag  1:
 E= -100.816236614687     Delta-E=       -0.000000000319 Rises=F Damp=F
 DIIS: error= 1.37D-06 at cycle   3 NSaved=   3.
 NSaved= 3 IEnMin= 3 EnMin= -100.816236614687     IErMin= 3 ErrMin= 1.37D-06
 ErrMax= 1.37D-06  0.00D+00 EMaxC= 1.00D-01 BMatC= 7.08D-11 BMatP= 1.39D-09
 IDIUse=1 WtCom= 1.00D+00 WtEn= 0.00D+00
 Coeff-Com: -0.977D-01 0.115D+00 0.982D+00
 Coeff:     -0.977D-01 0.115D+00 0.982D+00
 Gap=     0.148 Goal=   None    Shift=    0.000
 Gap=     0.252 Goal=   None    Shift=    0.000
 RMSDP=1.97D-07 MaxDP=2.02D-06 DE=-3.19D-10 OVMax= 1.22D-06

 Cycle   9  Pass 1  IDiag  1:
 E= -100.816236614701     Delta-E=       -0.000000000013 Rises=F Damp=F
 DIIS: error= 2.52D-07 at cycle   4 NSaved=   4.
 NSaved= 4 IEnMin= 4 EnMin= -100.816236614701     IErMin= 4 ErrMin= 2.52D-07
 ErrMax= 2.52D-07  0.00D+00 EMaxC= 1.00D-01 BMatC= 1.70D-12 BMatP= 7.08D-11
 IDIUse=1 WtCom= 1.00D+00 WtEn= 0.00D+00
 Coeff-Com: -0.111D-01 0.124D-01-0.588D-01 0.106D+01
 Coeff:     -0.111D-01 0.124D-01-0.588D-01 0.106D+01
 Gap=     0.148 Goal=   None    Shift=    0.000
 Gap=     0.252 Goal=   None    Shift=    0.000
 RMSDP=3.05D-08 MaxDP=3.30D-07 DE=-1.35D-11 OVMax= 4.59D-07

 Cycle  10  Pass 1  IDiag  1:
 E= -100.816236614701     Delta-E=       -0.000000000000 Rises=F Damp=F
 DIIS: error= 2.34D-08 at cycle   5 NSaved=   5.
 NSaved= 5 IEnMin= 5 EnMin= -100.816236614701     IErMin= 5 ErrMin= 2.34D-08
 ErrMax= 2.34D-08  0.00D+00 EMaxC= 1.00D-01 BMatC= 1.01D-14 BMatP= 1.70D-12
 IDIUse=1 WtCom= 1.00D+00 WtEn= 0.00D+00
 Coeff-Com:  0.354D-02-0.541D-02-0.603D-02-0.173D+00 0.118D+01
 Coeff:      0.354D-02-0.541D-02-0.603D-02-0.173D+00 0.118D+01
 Gap=     0.148 Goal=   None    Shift=    0.000
 Gap=     0.252 Goal=   None    Shift=    0.000
 RMSDP=3.57D-09 MaxDP=4.21D-08 DE=-3.41D-13 OVMax= 5.56D-08

 SCF Done:  E(UB97D3) =  -100.816236615     A.U. after   10 cycles
            NFock= 10  Conv=0.36D-08     -V/T= 2.0021
 <Sx>= 0.0000 <Sy>= 0.0000 <Sz>= 0.5000 <S**2>= 0.7527 S= 0.5014
 <L.S>= 0.000000000000E+00
 KE= 1.006028936608D+02 PE=-2.583267920822D+02 EE= 4.830020366865D+01
 Annihilation of the first spin contaminant:
 S**2 before annihilation     0.7527,   after     0.7500
 Leave Link  502 at Wed Oct  7 14:02:42 2020, MaxMem=  2684354560 cpu:               9.5 elap:               1.2
 (Enter /udrive/faculty/rpeverati/g16/g16/l508.exe)
 QCSCF skips out because SCF is already converged.
 Leave Link  508 at Wed Oct  7 14:02:43 2020, MaxMem=  2684354560 cpu:               0.3 elap:               0.4
 (Enter /udrive/faculty/rpeverati/g16/g16/l601.exe)
 Copying SCF densities to generalized density rwf, IOpCl= 1 IROHF=0.

 **********************************************************************

            Population analysis using the SCF density.

 **********************************************************************

 Orbital symmetries:
 Alpha Orbitals:
       Occupied  (SGG) (SGG) (SGU) (PIU) (PIU) (SGG)
       Virtual   (SGU) (SGG) (SGU) (PIU) (PIU) (SGG) (SGU) (PIG)
                 (PIG) (DLTG) (DLTG) (SGG)
 Beta  Orbitals:
       Occupied  (SGG) (SGG) (SGU) (PIU) (PIU)
       Virtual   (SGG) (SGU) (SGG) (SGU) (PIU) (PIU) (SGG) (SGU)
                 (PIG) (PIG) (DLTG) (DLTG) (SGG)
 The electronic state is 2-SGG.
 Alpha  occ. eigenvalues --  -24.27365  -1.08875  -0.55316  -0.34863  -0.34863
 Alpha  occ. eigenvalues --   -0.13706
 Alpha virt. eigenvalues --    0.01120   0.56624   0.73870   1.08357   1.08357
 Alpha virt. eigenvalues --    1.53619   1.62876   1.68258   1.68258   1.76632
 Alpha virt. eigenvalues --    1.76632   2.32735
  Beta  occ. eigenvalues --  -24.27096  -1.08199  -0.53007  -0.34432  -0.34432
  Beta virt. eigenvalues --   -0.09222   0.03155   0.61114   0.79552   1.08563
  Beta virt. eigenvalues --    1.08563   1.53903   1.65088   1.68250   1.68250
  Beta virt. eigenvalues --    1.76679   1.76679   2.35424
          Condensed to atoms (all electrons):
               1          2          3
     1  H    0.828615  -0.095308   0.084260
     2  F   -0.095308   9.555481  -0.095308
     3  H    0.084260  -0.095308   0.828615
          Atomic-Atomic Spin Densities.
               1          2          3
     1  H    0.687520  -0.256204   0.094498
     2  F   -0.256204   0.460780  -0.256204
     3  H    0.094498  -0.256204   0.687520
 Mulliken charges and spin densities:
               1          2
     1  H    0.182433   0.525814
     2  F   -0.364865  -0.051628
     3  H    0.182433   0.525814
 Sum of Mulliken charges =  -0.00000   1.00000
 Mulliken charges and spin densities with hydrogens summed into heavy atoms:
               1          2
     2  F   -0.000000   1.000000
 Electronic spatial extent (au):  <R**2>=             23.3075
 Charge=              0.0000 electrons
 Dipole moment (field-independent basis, Debye):
    X=              0.0000    Y=             -0.0000    Z=              0.0000  Tot=              0.0000
 Quadrupole moment (field-independent basis, Debye-Ang):
   XX=             -6.9273   YY=             -6.9273   ZZ=             -5.0712
   XY=             -0.0000   XZ=             -0.0000   YZ=              0.0000
 Traceless Quadrupole moment (field-independent basis, Debye-Ang):
   XX=             -0.6187   YY=             -0.6187   ZZ=              1.2374
   XY=             -0.0000   XZ=             -0.0000   YZ=              0.0000
 Octapole moment (field-independent basis, Debye-Ang**2):
  XXX=             -0.0000  YYY=             -0.0000  ZZZ=              0.0000  XYY=             -0.0000
  XXY=             -0.0000  XXZ=             -0.0000  XZZ=             -0.0000  YZZ=             -0.0000
  YYZ=             -0.0000  XYZ=             -0.0000
 Hexadecapole moment (field-independent basis, Debye-Ang**3):
 XXXX=             -4.8106 YYYY=             -4.8106 ZZZZ=            -19.0029 XXXY=             -0.0000
 XXXZ=              0.0000 YYYX=             -0.0000 YYYZ=              0.0000 ZZZX=              0.0000
 ZZZY=             -0.0000 XXYY=             -1.6035 XXZZ=             -4.3083 YYZZ=             -4.3083
 XXYZ=              0.0000 YYXZ=              0.0000 ZZXY=             -0.0000
 N-N= 8.607458138028D+00 E-N=-2.583267923094D+02  KE= 1.006028936608D+02
                          Isotropic Fermi Contact Couplings
        Atom                 a.u.       MegaHertz       Gauss      10(-4) cm-1
     1  H(1)               0.16833     752.43276     268.48672     250.98455
     2  F(19)              1.47001    6184.97350    2206.95235    2063.08509
     3  H(1)               0.16833     752.43276     268.48672     250.98455
 --------------------------------------------------------
       Center         ----  Spin Dipole Couplings  ----
                      3XX-RR        3YY-RR        3ZZ-RR
 --------------------------------------------------------
     1   Atom        0.011655      0.011655     -0.023311
     2   Atom        0.167316      0.167316     -0.334633
     3   Atom        0.011655      0.011655     -0.023311
 --------------------------------------------------------
                        XY            XZ            YZ
 --------------------------------------------------------
     1   Atom        0.000000     -0.000000      0.000000
     2   Atom        0.000000     -0.000000      0.000000
     3   Atom        0.000000      0.000000      0.000000
 --------------------------------------------------------


 ---------------------------------------------------------------------------------
              Anisotropic Spin Dipole Couplings in Principal Axis System
 ---------------------------------------------------------------------------------

       Atom             a.u.   MegaHertz   Gauss  10(-4) cm-1        Axes

              Baa    -0.0233   -12.438    -4.438    -4.149  0.0000  0.0000  1.0000
     1 H(1)   Bbb     0.0117     6.219     2.219     2.074  0.9999 -0.0115 -0.0000
              Bcc     0.0117     6.219     2.219     2.074  0.0115  0.9999 -0.0000
 
              Baa    -0.3346  -168.061   -59.968   -56.059  0.0000  0.0000  1.0000
     2 F(19)  Bbb     0.1673    84.031    29.984    28.030  1.0000  0.0005 -0.0000
              Bcc     0.1673    84.031    29.984    28.030 -0.0005  1.0000  0.0000
 
              Baa    -0.0233   -12.438    -4.438    -4.149 -0.0000  0.0000  1.0000
     3 H(1)   Bbb     0.0117     6.219     2.219     2.074  0.9999 -0.0118  0.0000
              Bcc     0.0117     6.219     2.219     2.074  0.0118  0.9999  0.0000
 

 ---------------------------------------------------------------------------------

 No NMR shielding tensors so no spin-rotation constants.
 Leave Link  601 at Wed Oct  7 14:02:44 2020, MaxMem=  2684354560 cpu:               6.1 elap:               0.9
 (Enter /udrive/faculty/rpeverati/g16/g16/l701.exe)
 ... and contract with generalized density number  0.
 Compute integral first derivatives.
 R6Disp: Adding Grimme-D3(BJ) dispersion energy 1st derivatives to the gradient.
 Leave Link  701 at Wed Oct  7 14:02:45 2020, MaxMem=  2684354560 cpu:               4.7 elap:               0.9
 (Enter /udrive/faculty/rpeverati/g16/g16/l702.exe)
 L702 exits ... SP integral derivatives will be done elsewhere.
 Leave Link  702 at Wed Oct  7 14:02:46 2020, MaxMem=  2684354560 cpu:               2.1 elap:               0.6
 (Enter /udrive/faculty/rpeverati/g16/g16/l703.exe)
 Integral derivatives from FoFJK, PRISM(SPDF).
 Compute integral first derivatives, UseDBF=F ICtDFT=           0.
 Calling FoFJK, ICntrl=      2527 FMM=F ISym2X=1 I1Cent= 0 IOpClX= 0 NMat=1 NMatS=1 NMatT=0.
 FoFJK:  IHMeth= 1 ICntrl=    2527 DoSepK=F KAlg= 0 I1Cent=           0 FoldK=F
 IRaf=         0 NMat=       1 IRICut=       1 DoRegI=T DoRafI=F ISym2E= 1 IDoP0=0 IntGTp=1.
 FoFCou: FMM=F IPFlag=           0 FMFlag=      100000 FMFlg1=         800
         NFxFlg=           0 DoJE=F BraDBF=F KetDBF=F FulRan=T
         wScrn=  0.000000 ICntrl=      2527 IOpCl=  0 I1Cent=           0 NGrid=           0
         NMat0=    1 NMatS0=      1 NMatT0=    0 NMatD0=    1 NMtDS0=    0 NMtDT0=    0
 Petite list used in FoFCou.
 Leave Link  703 at Wed Oct  7 14:02:48 2020, MaxMem=  2684354560 cpu:               5.4 elap:               0.9
 (Enter /udrive/faculty/rpeverati/g16/g16/l716.exe)
 Dipole        = 3.22541684D-17-2.81667254D-32 0.00000000D+00
 ***** Axes restored to original set *****
 -------------------------------------------------------------------
 Center     Atomic                   Forces (Hartrees/Bohr)
 Number     Number              X              Y              Z
 -------------------------------------------------------------------
      1        1           0.000000000   -0.000000000    0.021489421
      2        9           0.000000000    0.000000000    0.000000000
      3        1          -0.000000000   -0.000000000   -0.021489421
 -------------------------------------------------------------------
 Cartesian Forces:  Max     0.021489421 RMS     0.010130210
 Leave Link  716 at Wed Oct  7 14:02:48 2020, MaxMem=  2684354560 cpu:               2.4 elap:               0.7
 (Enter /udrive/faculty/rpeverati/g16/g16/l103.exe)

 GradGradGradGradGradGradGradGradGradGradGradGradGradGradGradGradGradGrad
 Berny optimization.
 Optmz: redundant internal coordinate code flag= 1
 FormGI is forming the generalized inverse of G from B-inverse, IUseBI=4.
 Internal  Forces:  Max     0.021489421 RMS     0.015195315
 Search for a saddle point.
 Step number   1 out of a maximum of   50
 All quantities printed in internal units (Hartrees-Bohrs-Radians)
 Swapping is turned off.
 Second derivative matrix not updated -- first step.
 The second derivative matrix:
                          R1        R2        A1        A2
           R1           0.29880
           R2           0.00000   0.29880
           A1           0.00000   0.00000   0.00230
           A2           0.00000   0.00000   0.00000   0.00230
 ITU=  0
 Eigenvectors of the second derivative matrix:
                           1         2         3         4
     Eigenvalues --     0.00230   0.00230   0.29880   0.29880
   1         R1         0.00000  -0.00000  -0.70711   0.70711
   2         R2         0.00000   0.00000   0.70711   0.70711
   3         A1        -1.00000   0.00000   0.00000   0.00000
   4         A2         0.00000   1.00000  -0.00000  -0.00000
 Eigenvalue     1 is   2.30D-03 should be less than     0.000000 Eigenvector:
                          A1        A2        R1        R2
   1                   -1.00000   0.00000   0.00000   0.00000
 RLam0= 2.30D-03.
 Iter=   1 RLamda= 0.00000000D+00 Sum=-3.09098083D-03.
 Iter=   2 RLamda=-3.09098083D-03 Sum=-3.05933329D-03.
 Iter=   3 RLamda=-3.05933329D-03 Sum=-3.05965403D-03.
 Iter=   4 RLamda=-3.05965403D-03 Sum=-3.05965078D-03.
 RFO step:  Lambda0=2.300010000D-03 Lambda=-3.05965403D-03.
 Linear search not attempted -- option 19 set.
 Maximum step size (   0.100) exceeded in Quadratic search.
    -- Step size scaled by   0.702
 Iteration  1 RMS(Cart)=  0.04693179 RMS(Int)=  0.00122934
 Iteration  2 RMS(Cart)=  0.00118867 RMS(Int)=  0.00000079
 Iteration  3 RMS(Cart)=  0.00000074 RMS(Int)=  0.00000000
 ITry= 1 IFail=0 DXMaxC= 5.18D-02 DCOld= 1.00D+10 DXMaxT= 1.00D-01 DXLimC= 3.00D+00 Rises=F
 ClnCor:  largest displacement from symmetrization is 5.18D-02 for atom     2.
 Variable       Old X    -DE/DX   Delta X   Delta X   Delta X     New X
                                 (Linear)    (Quad)   (Total)
    R1        2.14903   0.02149   0.00000   0.05000   0.04863   2.19766
    R2        2.14903   0.02149   0.00000   0.05000   0.04863   2.19766
    A1        3.14159   0.00000   0.00000   0.07071   0.00000   3.14159
    A2        3.14159  -0.00000   0.00000  -0.00000   0.00000   3.14159
         Item               Value     Threshold  Converged?
 Maximum Force            0.021489     0.000450     NO 
 RMS     Force            0.015195     0.000300     NO 
 Maximum Displacement     0.048626     0.001800     NO 
 RMS     Displacement     0.034384     0.001200     NO 
 Predicted change in Energy=-1.383373D-03
 Lowest energy point so far.  Saving SCF results.
 Largest change from initial coordinates is atom    1       0.026 Angstoms.
 GradGradGradGradGradGradGradGradGradGradGradGradGradGradGradGradGradGrad

 Leave Link  103 at Wed Oct  7 14:02:50 2020, MaxMem=  2684354560 cpu:               3.0 elap:               0.7
 (Enter /udrive/faculty/rpeverati/g16/g16/l202.exe)
                          Input orientation:                          
 ---------------------------------------------------------------------
 Center     Atomic      Atomic             Coordinates (Angstroms)
 Number     Number       Type             X           Y           Z
 ---------------------------------------------------------------------
      1          1           0        0.000000    0.000000    1.162949
      2          9           0       -0.000000    0.000000   -0.000000
      3          1           0        0.000000    0.000000   -1.162949
 ---------------------------------------------------------------------
                    Distance matrix (angstroms):
                    1          2          3
     1  H    0.000000
     2  F    1.162949   0.000000
     3  H    2.325899   1.162949   0.000000
 Stoichiometry    FH2(2)
 Framework group  D*H[O(F),C*(H.H)]
 Deg. of freedom     1
 Full point group                 D*H     NOp   8
 RotChk:  IX=0 Diff= 0.00D+00
 Largest Abelian subgroup         D2H     NOp   8
 Largest concise Abelian subgroup C2      NOp   2
                         Standard orientation:                         
 ---------------------------------------------------------------------
 Center     Atomic      Atomic             Coordinates (Angstroms)
 Number     Number       Type             X           Y           Z
 ---------------------------------------------------------------------
      1          1           0        0.000000    0.000000    1.162949
      2          9           0        0.000000    0.000000    0.000000
      3          1           0        0.000000    0.000000   -1.162949
 ---------------------------------------------------------------------
 Rotational constants (GHZ):           0.0000000         185.3875085         185.3875085
 Leave Link  202 at Wed Oct  7 14:02:50 2020, MaxMem=  2684354560 cpu:               1.7 elap:               0.4
 (Enter /udrive/faculty/rpeverati/g16/g16/l301.exe)
 Standard basis: 6-31G(d) (5D, 7F)
 Ernie: Thresh=  0.10000D-02 Tol=  0.10000D-05 Strict=F.
 There are     8 symmetry adapted cartesian basis functions of AG  symmetry.
 There are     1 symmetry adapted cartesian basis functions of B1G symmetry.
 There are     1 symmetry adapted cartesian basis functions of B2G symmetry.
 There are     1 symmetry adapted cartesian basis functions of B3G symmetry.
 There are     0 symmetry adapted cartesian basis functions of AU  symmetry.
 There are     4 symmetry adapted cartesian basis functions of B1U symmetry.
 There are     2 symmetry adapted cartesian basis functions of B2U symmetry.
 There are     2 symmetry adapted cartesian basis functions of B3U symmetry.
 There are     7 symmetry adapted basis functions of AG  symmetry.
 There are     1 symmetry adapted basis functions of B1G symmetry.
 There are     1 symmetry adapted basis functions of B2G symmetry.
 There are     1 symmetry adapted basis functions of B3G symmetry.
 There are     0 symmetry adapted basis functions of AU  symmetry.
 There are     4 symmetry adapted basis functions of B1U symmetry.
 There are     2 symmetry adapted basis functions of B2U symmetry.
 There are     2 symmetry adapted basis functions of B3U symmetry.
    18 basis functions,    36 primitive gaussians,    19 cartesian basis functions
     6 alpha electrons        5 beta electrons
       nuclear repulsion energy         8.4180609307 Hartrees.
 IExCor= 3630 DFT=T Ex+Corr=B97D3 ExCW=0 ScaHFX=  0.000000
 ScaDFX=  1.000000  1.000000  1.000000  1.000000 ScalE2=  1.000000  1.000000
 IRadAn=      5 IRanWt=     -1 IRanGd=            0 ICorTp=0 IEmpDi=141
 NAtoms=    3 NActive=    3 NUniq=    2 SFac= 2.25D+00 NAtFMM=   60 NAOKFM=F Big=F
 Integral buffers will be    131072 words long.
 Raffenetti 2 integral format.
 Two-electron integral symmetry is turned on.
 R6Disp:  Grimme-D3(BJ) Dispersion energy=       -0.0010784874 Hartrees.
 Nuclear repulsion after empirical dispersion term =        8.4169824433 Hartrees.
 Leave Link  301 at Wed Oct  7 14:02:51 2020, MaxMem=  2684354560 cpu:               2.3 elap:               0.7
 (Enter /udrive/faculty/rpeverati/g16/g16/l302.exe)
 NPDir=0 NMtPBC=     1 NCelOv=     1 NCel=       1 NClECP=     1 NCelD=      1
         NCelK=      1 NCelE2=     1 NClLst=     1 CellRange=     0.0.
 One-electron integrals computed using PRISM.
 One-electron integral symmetry used in STVInt
 NBasis=    18 RedAO= T EigKep=  1.34D-01  NBF=     7     1     1     1     0     4     2     2
 NBsUse=    18 1.00D-06 EigRej= -1.00D+00 NBFU=     7     1     1     1     0     4     2     2
 Precomputing XC quadrature grid using
 IXCGrd= 4 IRadAn=           5 IRanWt=          -1 IRanGd=           0 AccXCQ= 0.00D+00.
 Generated NRdTot=       0 NPtTot=           0 NUsed=           0 NTot=          32
 NSgBfM=    19    19    19    19    19 MxSgAt=     3 MxSgA2=     3.
 Leave Link  302 at Wed Oct  7 14:02:52 2020, MaxMem=  2684354560 cpu:               4.5 elap:               0.8
 (Enter /udrive/faculty/rpeverati/g16/g16/l303.exe)
 DipDrv:  MaxL=1.
 Leave Link  303 at Wed Oct  7 14:02:53 2020, MaxMem=  2684354560 cpu:               1.1 elap:               0.5
 (Enter /udrive/faculty/rpeverati/g16/g16/l401.exe)
 Initial guess from the checkpoint file:  "MN_54_hfhts_BH76_B97DBJ_631Gs.chk"
 SCF N**3 symmetry information disabled.
 B after Tr=     0.000000    0.000000    0.000000
         Rot=    1.000000    0.000000    0.000000    0.000000 Ang=   0.00 deg.
 Guess basis will be translated and rotated to current coordinates.
 JPrj=2 DoOrth=T DoCkMO=T.
 Initial guess orbital symmetries:
 Alpha Orbitals:
       Occupied  (SGG) (SGG) (SGU) (PIU) (PIU) (SGG)
       Virtual   (SGU) (SGG) (SGU) (PIU) (PIU) (SGG) (SGU) (PIG)
                 (PIG) (DLTG) (DLTG) (SGG)
 Beta  Orbitals:
       Occupied  (SGG) (SGG) (SGU) (PIU) (PIU)
       Virtual   (SGG) (SGU) (SGG) (SGU) (PIU) (PIU) (SGG) (SGU)
                 (PIG) (PIG) (DLTG) (DLTG) (SGG)
 The electronic state of the initial guess is 2-SGG.
 Initial guess <Sx>= 0.0000 <Sy>= 0.0000 <Sz>= 0.5000 <S**2>= 0.7528 S= 0.5014
 Generating alternative initial guess.
 ExpMin= 1.61D-01 ExpMax= 7.00D+03 ExpMxC= 1.05D+03 IAcc=2 IRadAn=         4 AccDes= 0.00D+00
 Harris functional with IExCor= 3630 and IRadAn=       4 diagonalized for initial guess.
 HarFok:  IExCor= 3630 AccDes= 0.00D+00 IRadAn=         4 IDoV= 1 UseB2=F ITyADJ=14
 ICtDFT=  3500011 ScaDFX=  1.000000  1.000000  1.000000  1.000000
 FoFCou: FMM=F IPFlag=           0 FMFlag=      100000 FMFlg1=           0
         NFxFlg=           0 DoJE=T BraDBF=F KetDBF=T FulRan=T
         wScrn=  0.000000 ICntrl=       500 IOpCl=  0 I1Cent=   200000004 NGrid=           0
         NMat0=    1 NMatS0=      1 NMatT0=    0 NMatD0=    1 NMtDS0=    0 NMtDT0=    0
 Petite list used in FoFCou.
 Harris En= -100.811903404435    
 Leave Link  401 at Wed Oct  7 14:02:54 2020, MaxMem=  2684354560 cpu:               5.5 elap:               0.9
 (Enter /udrive/faculty/rpeverati/g16/g16/l502.exe)
 Keep J ints in memory in symmetry-blocked form, NReq=10357092.
 FoFCou: FMM=F IPFlag=           0 FMFlag=           0 FMFlg1=           0
         NFxFlg=           0 DoJE=F BraDBF=F KetDBF=F FulRan=T
         wScrn=  0.000000 ICntrl=       600 IOpCl=  0 I1Cent=           0 NGrid=           0
         NMat0=    1 NMatS0=    171 NMatT0=    0 NMatD0=    1 NMtDS0=    0 NMtDT0=    0
 Petite list used in FoFCou.
 UHF open shell SCF:
 Using DIIS extrapolation, IDIIS=  1040.
 NGot=  2684354560 LenX=  2684348244 LenY=  2684347362
 Requested convergence on RMS density matrix=1.00D-08 within 120 cycles.
 Requested convergence on MAX density matrix=1.00D-06.
 Requested convergence on             energy=1.00D-06.
 No special actions if energy rises.
 Integral accuracy reduced to 1.0D-05 until final iterations.

 Cycle   1  Pass 0  IDiag  1:
 E= -100.817627312353    
 DIIS: error= 3.32D-03 at cycle   1 NSaved=   1.
 NSaved= 1 IEnMin= 1 EnMin= -100.817627312353     IErMin= 1 ErrMin= 3.32D-03
 ErrMax= 3.32D-03  0.00D+00 EMaxC= 1.00D-01 BMatC= 6.45D-04 BMatP= 6.45D-04
 IDIUse=3 WtCom= 9.67D-01 WtEn= 3.32D-02
 Coeff-Com:  0.100D+01
 Coeff-En:   0.100D+01
 Coeff:      0.100D+01
 Gap=     0.149 Goal=   None    Shift=    0.000
 Gap=     0.237 Goal=   None    Shift=    0.000
 GapD=    0.149 DampG=1.000 DampE=1.000 DampFc=1.0000 IDamp=-1.
 RMSDP=1.33D-03 MaxDP=1.12D-02              OVMax= 8.81D-03

 Cycle   2  Pass 0  IDiag  1:
 E= -100.817780867889     Delta-E=       -0.000153555536 Rises=F Damp=F
 DIIS: error= 2.53D-03 at cycle   2 NSaved=   2.
 NSaved= 2 IEnMin= 2 EnMin= -100.817780867889     IErMin= 2 ErrMin= 2.53D-03
 ErrMax= 2.53D-03  0.00D+00 EMaxC= 1.00D-01 BMatC= 3.31D-04 BMatP= 6.45D-04
 IDIUse=3 WtCom= 9.75D-01 WtEn= 2.53D-02
 Coeff-Com:  0.378D+00 0.622D+00
 Coeff-En:   0.000D+00 0.100D+01
 Coeff:      0.368D+00 0.632D+00
 Gap=     0.147 Goal=   None    Shift=    0.000
 Gap=     0.239 Goal=   None    Shift=    0.000
 RMSDP=4.45D-04 MaxDP=3.69D-03 DE=-1.54D-04 OVMax= 4.56D-03

 Cycle   3  Pass 0  IDiag  1:
 E= -100.817808900455     Delta-E=       -0.000028032566 Rises=F Damp=F
 DIIS: error= 1.77D-03 at cycle   3 NSaved=   3.
 NSaved= 3 IEnMin= 3 EnMin= -100.817808900455     IErMin= 3 ErrMin= 1.77D-03
 ErrMax= 1.77D-03  0.00D+00 EMaxC= 1.00D-01 BMatC= 1.54D-04 BMatP= 3.31D-04
 IDIUse=3 WtCom= 9.82D-01 WtEn= 1.77D-02
 Coeff-Com: -0.106D-01 0.406D+00 0.605D+00
 Coeff-En:   0.000D+00 0.346D+00 0.654D+00
 Coeff:     -0.104D-01 0.405D+00 0.606D+00
 Gap=     0.148 Goal=   None    Shift=    0.000
 Gap=     0.237 Goal=   None    Shift=    0.000
 RMSDP=1.83D-04 MaxDP=1.55D-03 DE=-2.80D-05 OVMax= 2.09D-03

 Cycle   4  Pass 0  IDiag  1:
 E= -100.817833694410     Delta-E=       -0.000024793955 Rises=F Damp=F
 DIIS: error= 6.69D-05 at cycle   4 NSaved=   4.
 NSaved= 4 IEnMin= 4 EnMin= -100.817833694410     IErMin= 4 ErrMin= 6.69D-05
 ErrMax= 6.69D-05  0.00D+00 EMaxC= 1.00D-01 BMatC= 1.30D-07 BMatP= 1.54D-04
 IDIUse=1 WtCom= 1.00D+00 WtEn= 0.00D+00
 Coeff-Com: -0.305D-02-0.684D-01-0.751D-01 0.115D+01
 Coeff:     -0.305D-02-0.684D-01-0.751D-01 0.115D+01
 Gap=     0.148 Goal=   None    Shift=    0.000
 Gap=     0.237 Goal=   None    Shift=    0.000
 RMSDP=1.39D-05 MaxDP=1.07D-04 DE=-2.48D-05 OVMax= 1.58D-04

 Cycle   5  Pass 0  IDiag  1:
 E= -100.817833739517     Delta-E=       -0.000000045106 Rises=F Damp=F
 DIIS: error= 8.15D-06 at cycle   5 NSaved=   5.
 NSaved= 5 IEnMin= 5 EnMin= -100.817833739517     IErMin= 5 ErrMin= 8.15D-06
 ErrMax= 8.15D-06  0.00D+00 EMaxC= 1.00D-01 BMatC= 1.47D-09 BMatP= 1.30D-07
 IDIUse=1 WtCom= 1.00D+00 WtEn= 0.00D+00
 Coeff-Com:  0.394D-03-0.135D-02-0.540D-02-0.655D-01 0.107D+01
 Coeff:      0.394D-03-0.135D-02-0.540D-02-0.655D-01 0.107D+01
 Gap=     0.148 Goal=   None    Shift=    0.000
 Gap=     0.237 Goal=   None    Shift=    0.000
 RMSDP=1.42D-06 MaxDP=1.54D-05 DE=-4.51D-08 OVMax= 2.00D-05

 Initial convergence to 1.0D-05 achieved.  Increase integral accuracy.
 Cycle   6  Pass 1  IDiag  1:
 E= -100.817833550863     Delta-E=        0.000000188654 Rises=F Damp=F
 DIIS: error= 2.65D-06 at cycle   1 NSaved=   1.
 NSaved= 1 IEnMin= 1 EnMin= -100.817833550863     IErMin= 1 ErrMin= 2.65D-06
 ErrMax= 2.65D-06  0.00D+00 EMaxC= 1.00D-01 BMatC= 1.84D-10 BMatP= 1.84D-10
 IDIUse=1 WtCom= 1.00D+00 WtEn= 0.00D+00
 Coeff-Com:  0.100D+01
 Coeff:      0.100D+01
 Gap=     0.148 Goal=   None    Shift=    0.000
 Gap=     0.237 Goal=   None    Shift=    0.000
 RMSDP=1.42D-06 MaxDP=1.54D-05 DE= 1.89D-07 OVMax= 6.06D-06

 Cycle   7  Pass 1  IDiag  1:
 E= -100.817833550930     Delta-E=       -0.000000000067 Rises=F Damp=F
 DIIS: error= 8.47D-07 at cycle   2 NSaved=   2.
 NSaved= 2 IEnMin= 2 EnMin= -100.817833550930     IErMin= 2 ErrMin= 8.47D-07
 ErrMax= 8.47D-07  0.00D+00 EMaxC= 1.00D-01 BMatC= 3.94D-11 BMatP= 1.84D-10
 IDIUse=1 WtCom= 1.00D+00 WtEn= 0.00D+00
 Coeff-Com:  0.196D+00 0.804D+00
 Coeff:      0.196D+00 0.804D+00
 Gap=     0.148 Goal=   None    Shift=    0.000
 Gap=     0.237 Goal=   None    Shift=    0.000
 RMSDP=2.00D-07 MaxDP=1.88D-06 DE=-6.73D-11 OVMax= 1.94D-06

 Cycle   8  Pass 1  IDiag  1:
 E= -100.817833550930     Delta-E=        0.000000000000 Rises=F Damp=F
 DIIS: error= 9.06D-07 at cycle   3 NSaved=   3.
 NSaved= 3 IEnMin= 2 EnMin= -100.817833550930     IErMin= 2 ErrMin= 8.47D-07
 ErrMax= 9.06D-07  0.00D+00 EMaxC= 1.00D-01 BMatC= 4.51D-11 BMatP= 3.94D-11
 IDIUse=1 WtCom= 1.00D+00 WtEn= 0.00D+00
 Coeff-Com: -0.829D-01 0.538D+00 0.545D+00
 Coeff:     -0.829D-01 0.538D+00 0.545D+00
 Gap=     0.148 Goal=   None    Shift=    0.000
 Gap=     0.237 Goal=   None    Shift=    0.000
 RMSDP=1.04D-07 MaxDP=8.15D-07 DE= 3.98D-13 OVMax= 1.19D-06

 Cycle   9  Pass 1  IDiag  1:
 E= -100.817833550937     Delta-E=       -0.000000000007 Rises=F Damp=F
 DIIS: error= 6.09D-08 at cycle   4 NSaved=   4.
 NSaved= 4 IEnMin= 4 EnMin= -100.817833550937     IErMin= 4 ErrMin= 6.09D-08
 ErrMax= 6.09D-08  0.00D+00 EMaxC= 1.00D-01 BMatC= 1.63D-13 BMatP= 3.94D-11
 IDIUse=1 WtCom= 1.00D+00 WtEn= 0.00D+00
 Coeff-Com: -0.310D-02-0.335D-01 0.304D-01 0.101D+01
 Coeff:     -0.310D-02-0.335D-01 0.304D-01 0.101D+01
 Gap=     0.148 Goal=   None    Shift=    0.000
 Gap=     0.237 Goal=   None    Shift=    0.000
 RMSDP=8.44D-09 MaxDP=7.57D-08 DE=-7.36D-12 OVMax= 9.28D-08

 SCF Done:  E(UB97D3) =  -100.817833551     A.U. after    9 cycles
            NFock=  9  Conv=0.84D-08     -V/T= 2.0026
 <Sx>= 0.0000 <Sy>= 0.0000 <Sz>= 0.5000 <S**2>= 0.7531 S= 0.5015
 <L.S>= 0.000000000000E+00
 KE= 1.005562040398D+02 PE=-2.579755823653D+02 EE= 4.818456233137D+01
 Annihilation of the first spin contaminant:
 S**2 before annihilation     0.7531,   after     0.7500
 Leave Link  502 at Wed Oct  7 14:02:56 2020, MaxMem=  2684354560 cpu:               9.6 elap:               1.3
 (Enter /udrive/faculty/rpeverati/g16/g16/l508.exe)
 QCSCF skips out because SCF is already converged.
 Leave Link  508 at Wed Oct  7 14:02:56 2020, MaxMem=  2684354560 cpu:               0.6 elap:               0.5
 (Enter /udrive/faculty/rpeverati/g16/g16/l701.exe)
 ... and contract with generalized density number  0.
 Compute integral first derivatives.
 R6Disp: Adding Grimme-D3(BJ) dispersion energy 1st derivatives to the gradient.
 Leave Link  701 at Wed Oct  7 14:02:57 2020, MaxMem=  2684354560 cpu:               4.2 elap:               0.7
 (Enter /udrive/faculty/rpeverati/g16/g16/l702.exe)
 L702 exits ... SP integral derivatives will be done elsewhere.
 Leave Link  702 at Wed Oct  7 14:02:58 2020, MaxMem=  2684354560 cpu:               1.2 elap:               0.4
 (Enter /udrive/faculty/rpeverati/g16/g16/l703.exe)
 Integral derivatives from FoFJK, PRISM(SPDF).
 Compute integral first derivatives, UseDBF=F ICtDFT=           0.
 Calling FoFJK, ICntrl=      2527 FMM=F ISym2X=1 I1Cent= 0 IOpClX= 0 NMat=1 NMatS=1 NMatT=0.
 FoFJK:  IHMeth= 1 ICntrl=    2527 DoSepK=F KAlg= 0 I1Cent=           0 FoldK=F
 IRaf=         0 NMat=       1 IRICut=       1 DoRegI=T DoRafI=F ISym2E= 1 IDoP0=0 IntGTp=1.
 FoFCou: FMM=F IPFlag=           0 FMFlag=      100000 FMFlg1=         800
         NFxFlg=           0 DoJE=F BraDBF=F KetDBF=F FulRan=T
         wScrn=  0.000000 ICntrl=      2527 IOpCl=  0 I1Cent=           0 NGrid=           0
         NMat0=    1 NMatS0=      1 NMatT0=    0 NMatD0=    1 NMtDS0=    0 NMtDT0=    0
 Petite list used in FoFCou.
 Leave Link  703 at Wed Oct  7 14:02:59 2020, MaxMem=  2684354560 cpu:               4.5 elap:               0.7
 (Enter /udrive/faculty/rpeverati/g16/g16/l716.exe)
 Dipole        = 3.54229259D-17-2.08942021D-32 4.44089210D-16
 ***** Axes restored to original set *****
 -------------------------------------------------------------------
 Center     Atomic                   Forces (Hartrees/Bohr)
 Number     Number              X              Y              Z
 -------------------------------------------------------------------
      1        1           0.000000000   -0.000000000    0.011577201
      2        9           0.000000000    0.000000000   -0.000000000
      3        1          -0.000000000   -0.000000000   -0.011577201
 -------------------------------------------------------------------
 Cartesian Forces:  Max     0.011577201 RMS     0.005457545
 Leave Link  716 at Wed Oct  7 14:03:00 2020, MaxMem=  2684354560 cpu:               2.3 elap:               0.7
 (Enter /udrive/faculty/rpeverati/g16/g16/l103.exe)

 GradGradGradGradGradGradGradGradGradGradGradGradGradGradGradGradGradGrad
 Berny optimization.
 Optmz: redundant internal coordinate code flag= 1
 Red2BG:  D1=  1.00D+00 OD1=  3.33D-16 B2RMS=  0.00D+00 IAprox=1
 Red2BG is reusing G-inverse.
 Internal  Forces:  Max     0.011577201 RMS     0.008186317
 Search for a saddle point.
 Step number   2 out of a maximum of   50
 All quantities printed in internal units (Hartrees-Bohrs-Radians)
 Swapping is turned off.
 Update second derivatives using D2CorX and points    1    2
 The second derivative matrix:
                          R1        R2        A1        A2
           R1           0.25132
           R2          -0.04748   0.25132
           A1          -0.00000  -0.00000   0.00230
           A2           0.00000   0.00000   0.00000   0.00230
 ITU=  0  0
 Eigenvectors of the second derivative matrix:
                           1         2         3         4
     Eigenvalues --     0.00230   0.00230   0.20385   0.29880
   1         R1         0.00000  -0.00000   0.70711  -0.70711
   2         R2        -0.00000   0.00000   0.70711   0.70711
   3         A1        -0.00066  -1.00000  -0.00000  -0.00000
   4         A2         1.00000  -0.00066   0.00000   0.00000
 Eigenvalue     1 is   2.30D-03 should be less than     0.000000 Eigenvector:
                          A2        A1        R2        R1
   1                    1.00000  -0.00066  -0.00000   0.00000
 RLam0= 2.30D-03.
 Iter=   1 RLamda= 0.00000000D+00 Sum=-1.31502040D-03.
 Iter=   2 RLamda=-1.31502040D-03 Sum=-1.30659156D-03.
 Iter=   3 RLamda=-1.30659156D-03 Sum=-1.30664525D-03.
 Iter=   4 RLamda=-1.30664525D-03 Sum=-1.30664490D-03.
 RFO step:  Lambda0=2.300010000D-03 Lambda=-1.30664525D-03.
 Linear search not attempted -- option 19 set.
 Maximum step size (   0.100) exceeded in Quadratic search.
    -- Step size scaled by   0.886
 Iteration  1 RMS(Cart)=  0.04737050 RMS(Int)=  0.00123089
 Iteration  2 RMS(Cart)=  0.00120266 RMS(Int)=  0.00000079
 Iteration  3 RMS(Cart)=  0.00000075 RMS(Int)=  0.00000001
 ITry= 1 IFail=0 DXMaxC= 5.30D-02 DCOld= 1.00D+10 DXMaxT= 1.00D-01 DXLimC= 3.00D+00 Rises=F
 ClnCor:  largest displacement from symmetrization is 5.30D-02 for atom     2.
 Variable       Old X    -DE/DX   Delta X   Delta X   Delta X     New X
                                 (Linear)    (Quad)   (Total)
    R1        2.19766   0.01158   0.00000   0.05000   0.04860   2.24625
    R2        2.19766   0.01158   0.00000   0.05000   0.04860   2.24625
    A1        3.14159   0.00000   0.00000   0.00005   0.00000   3.14159
    A2        3.14159  -0.00000   0.00000  -0.07071   0.00000   3.14159
         Item               Value     Threshold  Converged?
 Maximum Force            0.011577     0.000450     NO 
 RMS     Force            0.008186     0.000300     NO 
 Maximum Displacement     0.048595     0.001800     NO 
 RMS     Displacement     0.034362     0.001200     NO 
 Predicted change in Energy=-6.438096D-04
 Lowest energy point so far.  Saving SCF results.
 Largest change from initial coordinates is atom    1       0.051 Angstoms.
 GradGradGradGradGradGradGradGradGradGradGradGradGradGradGradGradGradGrad

 Leave Link  103 at Wed Oct  7 14:03:01 2020, MaxMem=  2684354560 cpu:               1.2 elap:               0.5
 (Enter /udrive/faculty/rpeverati/g16/g16/l202.exe)
                          Input orientation:                          
 ---------------------------------------------------------------------
 Center     Atomic      Atomic             Coordinates (Angstroms)
 Number     Number       Type             X           Y           Z
 ---------------------------------------------------------------------
      1          1           0        0.000000    0.000000    1.188665
      2          9           0        0.000000    0.000000   -0.000000
      3          1           0        0.000000    0.000000   -1.188665
 ---------------------------------------------------------------------
                    Distance matrix (angstroms):
                    1          2          3
     1  H    0.000000
     2  F    1.188665   0.000000
     3  H    2.377330   1.188665   0.000000
 Stoichiometry    FH2(2)
 Framework group  D*H[O(F),C*(H.H)]
 Deg. of freedom     1
 Full point group                 D*H     NOp   8
 RotChk:  IX=0 Diff= 0.00D+00
 Largest Abelian subgroup         D2H     NOp   8
 Largest concise Abelian subgroup C2      NOp   2
                         Standard orientation:                         
 ---------------------------------------------------------------------
 Center     Atomic      Atomic             Coordinates (Angstroms)
 Number     Number       Type             X           Y           Z
 ---------------------------------------------------------------------
      1          1           0        0.000000    0.000000    1.188665
      2          9           0        0.000000    0.000000    0.000000
      3          1           0        0.000000    0.000000   -1.188665
 ---------------------------------------------------------------------
 Rotational constants (GHZ):           0.0000000         177.4529344         177.4529344
 Leave Link  202 at Wed Oct  7 14:03:01 2020, MaxMem=  2684354560 cpu:               2.0 elap:               0.6
 (Enter /udrive/faculty/rpeverati/g16/g16/l301.exe)
 Standard basis: 6-31G(d) (5D, 7F)
 Ernie: Thresh=  0.10000D-02 Tol=  0.10000D-05 Strict=F.
 There are     8 symmetry adapted cartesian basis functions of AG  symmetry.
 There are     1 symmetry adapted cartesian basis functions of B1G symmetry.
 There are     1 symmetry adapted cartesian basis functions of B2G symmetry.
 There are     1 symmetry adapted cartesian basis functions of B3G symmetry.
 There are     0 symmetry adapted cartesian basis functions of AU  symmetry.
 There are     4 symmetry adapted cartesian basis functions of B1U symmetry.
 There are     2 symmetry adapted cartesian basis functions of B2U symmetry.
 There are     2 symmetry adapted cartesian basis functions of B3U symmetry.
 There are     7 symmetry adapted basis functions of AG  symmetry.
 There are     1 symmetry adapted basis functions of B1G symmetry.
 There are     1 symmetry adapted basis functions of B2G symmetry.
 There are     1 symmetry adapted basis functions of B3G symmetry.
 There are     0 symmetry adapted basis functions of AU  symmetry.
 There are     4 symmetry adapted basis functions of B1U symmetry.
 There are     2 symmetry adapted basis functions of B2U symmetry.
 There are     2 symmetry adapted basis functions of B3U symmetry.
    18 basis functions,    36 primitive gaussians,    19 cartesian basis functions
     6 alpha electrons        5 beta electrons
       nuclear repulsion energy         8.2359447318 Hartrees.
 IExCor= 3630 DFT=T Ex+Corr=B97D3 ExCW=0 ScaHFX=  0.000000
 ScaDFX=  1.000000  1.000000  1.000000  1.000000 ScalE2=  1.000000  1.000000
 IRadAn=      5 IRanWt=     -1 IRanGd=            0 ICorTp=0 IEmpDi=141
 NAtoms=    3 NActive=    3 NUniq=    2 SFac= 2.25D+00 NAtFMM=   60 NAOKFM=F Big=F
 Integral buffers will be    131072 words long.
 Raffenetti 2 integral format.
 Two-electron integral symmetry is turned on.
 R6Disp:  Grimme-D3(BJ) Dispersion energy=       -0.0010875993 Hartrees.
 Nuclear repulsion after empirical dispersion term =        8.2348571325 Hartrees.
 Leave Link  301 at Wed Oct  7 14:03:02 2020, MaxMem=  2684354560 cpu:               1.8 elap:               0.5
 (Enter /udrive/faculty/rpeverati/g16/g16/l302.exe)
 NPDir=0 NMtPBC=     1 NCelOv=     1 NCel=       1 NClECP=     1 NCelD=      1
         NCelK=      1 NCelE2=     1 NClLst=     1 CellRange=     0.0.
 One-electron integrals computed using PRISM.
 One-electron integral symmetry used in STVInt
 NBasis=    18 RedAO= T EigKep=  1.38D-01  NBF=     7     1     1     1     0     4     2     2
 NBsUse=    18 1.00D-06 EigRej= -1.00D+00 NBFU=     7     1     1     1     0     4     2     2
 Precomputing XC quadrature grid using
 IXCGrd= 4 IRadAn=           5 IRanWt=          -1 IRanGd=           0 AccXCQ= 0.00D+00.
 Generated NRdTot=       0 NPtTot=           0 NUsed=           0 NTot=          32
 NSgBfM=    19    19    19    19    19 MxSgAt=     3 MxSgA2=     3.
 Leave Link  302 at Wed Oct  7 14:03:03 2020, MaxMem=  2684354560 cpu:               3.6 elap:               0.7
 (Enter /udrive/faculty/rpeverati/g16/g16/l303.exe)
 DipDrv:  MaxL=1.
 Leave Link  303 at Wed Oct  7 14:03:04 2020, MaxMem=  2684354560 cpu:               2.1 elap:               0.7
 (Enter /udrive/faculty/rpeverati/g16/g16/l401.exe)
 Initial guess from the checkpoint file:  "MN_54_hfhts_BH76_B97DBJ_631Gs.chk"
 SCF N**3 symmetry information disabled.
 B after Tr=     0.000000    0.000000    0.000000
         Rot=    1.000000    0.000000    0.000000    0.000000 Ang=   0.00 deg.
 Guess basis will be translated and rotated to current coordinates.
 JPrj=2 DoOrth=T DoCkMO=T.
 Initial guess orbital symmetries:
 Alpha Orbitals:
       Occupied  (SGG) (SGG) (SGU) (PIU) (PIU) (SGG)
       Virtual   (SGU) (SGG) (SGU) (PIU) (PIU) (SGG) (SGU) (PIG)
                 (PIG) (DLTG) (DLTG) (SGG)
 Beta  Orbitals:
       Occupied  (SGG) (SGG) (SGU) (PIU) (PIU)
       Virtual   (SGG) (SGU) (SGG) (SGU) (PIU) (PIU) (SGG) (SGU)
                 (PIG) (PIG) (DLTG) (DLTG) (SGG)
 The electronic state of the initial guess is 2-SGG.
 Initial guess <Sx>= 0.0000 <Sy>= 0.0000 <Sz>= 0.5000 <S**2>= 0.7532 S= 0.5016
 Generating alternative initial guess.
 ExpMin= 1.61D-01 ExpMax= 7.00D+03 ExpMxC= 1.05D+03 IAcc=2 IRadAn=         4 AccDes= 0.00D+00
 Harris functional with IExCor= 3630 and IRadAn=       4 diagonalized for initial guess.
 HarFok:  IExCor= 3630 AccDes= 0.00D+00 IRadAn=         4 IDoV= 1 UseB2=F ITyADJ=14
 ICtDFT=  3500011 ScaDFX=  1.000000  1.000000  1.000000  1.000000
 FoFCou: FMM=F IPFlag=           0 FMFlag=      100000 FMFlg1=           0
         NFxFlg=           0 DoJE=T BraDBF=F KetDBF=T FulRan=T
         wScrn=  0.000000 ICntrl=       500 IOpCl=  0 I1Cent=   200000004 NGrid=           0
         NMat0=    1 NMatS0=      1 NMatT0=    0 NMatD0=    1 NMtDS0=    0 NMtDT0=    0
 Petite list used in FoFCou.
 Harris En= -100.813057624519    
 Leave Link  401 at Wed Oct  7 14:03:05 2020, MaxMem=  2684354560 cpu:               6.6 elap:               1.1
 (Enter /udrive/faculty/rpeverati/g16/g16/l502.exe)
 Keep J ints in memory in symmetry-blocked form, NReq=10357092.
 FoFCou: FMM=F IPFlag=           0 FMFlag=           0 FMFlg1=           0
         NFxFlg=           0 DoJE=F BraDBF=F KetDBF=F FulRan=T
         wScrn=  0.000000 ICntrl=       600 IOpCl=  0 I1Cent=           0 NGrid=           0
         NMat0=    1 NMatS0=    171 NMatT0=    0 NMatD0=    1 NMtDS0=    0 NMtDT0=    0
 Petite list used in FoFCou.
 UHF open shell SCF:
 Using DIIS extrapolation, IDIIS=  1040.
 NGot=  2684354560 LenX=  2684348244 LenY=  2684347362
 Requested convergence on RMS density matrix=1.00D-08 within 120 cycles.
 Requested convergence on MAX density matrix=1.00D-06.
 Requested convergence on             energy=1.00D-06.
 No special actions if energy rises.
 Integral accuracy reduced to 1.0D-05 until final iterations.

 Cycle   1  Pass 0  IDiag  1:
 E= -100.818345564787    
 DIIS: error= 3.24D-03 at cycle   1 NSaved=   1.
 NSaved= 1 IEnMin= 1 EnMin= -100.818345564787     IErMin= 1 ErrMin= 3.24D-03
 ErrMax= 3.24D-03  0.00D+00 EMaxC= 1.00D-01 BMatC= 5.67D-04 BMatP= 5.67D-04
 IDIUse=3 WtCom= 9.68D-01 WtEn= 3.24D-02
 Coeff-Com:  0.100D+01
 Coeff-En:   0.100D+01
 Coeff:      0.100D+01
 Gap=     0.148 Goal=   None    Shift=    0.000
 Gap=     0.222 Goal=   None    Shift=    0.000
 GapD=    0.148 DampG=1.000 DampE=1.000 DampFc=1.0000 IDamp=-1.
 RMSDP=1.23D-03 MaxDP=1.01D-02              OVMax= 8.75D-03

 Cycle   2  Pass 0  IDiag  1:
 E= -100.818479621167     Delta-E=       -0.000134056380 Rises=F Damp=F
 DIIS: error= 2.48D-03 at cycle   2 NSaved=   2.
 NSaved= 2 IEnMin= 2 EnMin= -100.818479621167     IErMin= 2 ErrMin= 2.48D-03
 ErrMax= 2.48D-03  0.00D+00 EMaxC= 1.00D-01 BMatC= 3.10D-04 BMatP= 5.67D-04
 IDIUse=3 WtCom= 9.75D-01 WtEn= 2.48D-02
 Coeff-Com:  0.389D+00 0.611D+00
 Coeff-En:   0.000D+00 0.100D+01
 Coeff:      0.379D+00 0.621D+00
 Gap=     0.146 Goal=   None    Shift=    0.000
 Gap=     0.225 Goal=   None    Shift=    0.000
 RMSDP=4.27D-04 MaxDP=3.49D-03 DE=-1.34D-04 OVMax= 4.59D-03

 Cycle   3  Pass 0  IDiag  1:
 E= -100.818506401648     Delta-E=       -0.000026780481 Rises=F Damp=F
 DIIS: error= 1.72D-03 at cycle   3 NSaved=   3.
 NSaved= 3 IEnMin= 3 EnMin= -100.818506401648     IErMin= 3 ErrMin= 1.72D-03
 ErrMax= 1.72D-03  0.00D+00 EMaxC= 1.00D-01 BMatC= 1.44D-04 BMatP= 3.10D-04
 IDIUse=3 WtCom= 9.83D-01 WtEn= 1.72D-02
 Coeff-Com: -0.999D-02 0.406D+00 0.604D+00
 Coeff-En:   0.000D+00 0.347D+00 0.653D+00
 Coeff:     -0.981D-02 0.405D+00 0.605D+00
 Gap=     0.147 Goal=   None    Shift=    0.000
 Gap=     0.223 Goal=   None    Shift=    0.000
 RMSDP=1.75D-04 MaxDP=1.53D-03 DE=-2.68D-05 OVMax= 2.10D-03

 Cycle   4  Pass 0  IDiag  1:
 E= -100.818529819054     Delta-E=       -0.000023417406 Rises=F Damp=F
 DIIS: error= 5.76D-05 at cycle   4 NSaved=   4.
 NSaved= 4 IEnMin= 4 EnMin= -100.818529819054     IErMin= 4 ErrMin= 5.76D-05
 ErrMax= 5.76D-05  0.00D+00 EMaxC= 1.00D-01 BMatC= 8.49D-08 BMatP= 1.44D-04
 IDIUse=1 WtCom= 1.00D+00 WtEn= 0.00D+00
 Coeff-Com: -0.281D-02-0.641D-01-0.763D-01 0.114D+01
 Coeff:     -0.281D-02-0.641D-01-0.763D-01 0.114D+01
 Gap=     0.147 Goal=   None    Shift=    0.000
 Gap=     0.223 Goal=   None    Shift=    0.000
 RMSDP=1.18D-05 MaxDP=1.03D-04 DE=-2.34D-05 OVMax= 1.46D-04

 Cycle   5  Pass 0  IDiag  1:
 E= -100.818529855043     Delta-E=       -0.000000035989 Rises=F Damp=F
 DIIS: error= 7.89D-06 at cycle   5 NSaved=   5.
 NSaved= 5 IEnMin= 5 EnMin= -100.818529855043     IErMin= 5 ErrMin= 7.89D-06
 ErrMax= 7.89D-06  0.00D+00 EMaxC= 1.00D-01 BMatC= 1.48D-09 BMatP= 8.49D-08
 IDIUse=1 WtCom= 1.00D+00 WtEn= 0.00D+00
 Coeff-Com:  0.459D-03-0.330D-03-0.384D-02-0.108D+00 0.111D+01
 Coeff:      0.459D-03-0.330D-03-0.384D-02-0.108D+00 0.111D+01
 Gap=     0.147 Goal=   None    Shift=    0.000
 Gap=     0.223 Goal=   None    Shift=    0.000
 RMSDP=1.57D-06 MaxDP=1.72D-05 DE=-3.60D-08 OVMax= 2.24D-05

 Initial convergence to 1.0D-05 achieved.  Increase integral accuracy.
 Cycle   6  Pass 1  IDiag  1:
 E= -100.818529971621     Delta-E=       -0.000000116578 Rises=F Damp=F
 DIIS: error= 2.08D-06 at cycle   1 NSaved=   1.
 NSaved= 1 IEnMin= 1 EnMin= -100.818529971621     IErMin= 1 ErrMin= 2.08D-06
 ErrMax= 2.08D-06  0.00D+00 EMaxC= 1.00D-01 BMatC= 1.16D-10 BMatP= 1.16D-10
 IDIUse=1 WtCom= 1.00D+00 WtEn= 0.00D+00
 Coeff-Com:  0.100D+01
 Coeff:      0.100D+01
 Gap=     0.147 Goal=   None    Shift=    0.000
 Gap=     0.223 Goal=   None    Shift=    0.000
 RMSDP=1.57D-06 MaxDP=1.72D-05 DE=-1.17D-07 OVMax= 4.85D-06

 Cycle   7  Pass 1  IDiag  1:
 E= -100.818529971665     Delta-E=       -0.000000000044 Rises=F Damp=F
 DIIS: error= 8.89D-07 at cycle   2 NSaved=   2.
 NSaved= 2 IEnMin= 2 EnMin= -100.818529971665     IErMin= 2 ErrMin= 8.89D-07
 ErrMax= 8.89D-07  0.00D+00 EMaxC= 1.00D-01 BMatC= 3.85D-11 BMatP= 1.16D-10
 IDIUse=1 WtCom= 1.00D+00 WtEn= 0.00D+00
 Coeff-Com:  0.289D+00 0.711D+00
 Coeff:      0.289D+00 0.711D+00
 Gap=     0.147 Goal=   None    Shift=    0.000
 Gap=     0.223 Goal=   None    Shift=    0.000
 RMSDP=1.72D-07 MaxDP=1.55D-06 DE=-4.45D-11 OVMax= 1.97D-06

 Cycle   8  Pass 1  IDiag  1:
 E= -100.818529971667     Delta-E=       -0.000000000002 Rises=F Damp=F
 DIIS: error= 7.55D-07 at cycle   3 NSaved=   3.
 NSaved= 3 IEnMin= 3 EnMin= -100.818529971667     IErMin= 3 ErrMin= 7.55D-07
 ErrMax= 7.55D-07  0.00D+00 EMaxC= 1.00D-01 BMatC= 2.98D-11 BMatP= 3.85D-11
 IDIUse=1 WtCom= 1.00D+00 WtEn= 0.00D+00
 Coeff-Com: -0.768D-01 0.478D+00 0.599D+00
 Coeff:     -0.768D-01 0.478D+00 0.599D+00
 Gap=     0.147 Goal=   None    Shift=    0.000
 Gap=     0.223 Goal=   None    Shift=    0.000
 RMSDP=8.77D-08 MaxDP=7.69D-07 DE=-1.61D-12 OVMax= 1.16D-06

 Cycle   9  Pass 1  IDiag  1:
 E= -100.818529971672     Delta-E=       -0.000000000005 Rises=F Damp=F
 DIIS: error= 6.49D-08 at cycle   4 NSaved=   4.
 NSaved= 4 IEnMin= 4 EnMin= -100.818529971672     IErMin= 4 ErrMin= 6.49D-08
 ErrMax= 6.49D-08  0.00D+00 EMaxC= 1.00D-01 BMatC= 1.38D-13 BMatP= 2.98D-11
 IDIUse=1 WtCom= 1.00D+00 WtEn= 0.00D+00
 Coeff-Com: -0.380D-02-0.459D-01 0.181D-01 0.103D+01
 Coeff:     -0.380D-02-0.459D-01 0.181D-01 0.103D+01
 Gap=     0.147 Goal=   None    Shift=    0.000
 Gap=     0.223 Goal=   None    Shift=    0.000
 RMSDP=8.21D-09 MaxDP=8.45D-08 DE=-5.00D-12 OVMax= 1.20D-07

 SCF Done:  E(UB97D3) =  -100.818529972     A.U. after    9 cycles
            NFock=  9  Conv=0.82D-08     -V/T= 2.0030
 <Sx>= 0.0000 <Sy>= 0.0000 <Sz>= 0.5000 <S**2>= 0.7535 S= 0.5017
 <L.S>= 0.000000000000E+00
 KE= 1.005133148653D+02 PE=-2.576384344267D+02 EE= 4.807173245721D+01
 Annihilation of the first spin contaminant:
 S**2 before annihilation     0.7535,   after     0.7500
 Leave Link  502 at Wed Oct  7 14:03:07 2020, MaxMem=  2684354560 cpu:               9.0 elap:               1.4
 (Enter /udrive/faculty/rpeverati/g16/g16/l508.exe)
 QCSCF skips out because SCF is already converged.
 Leave Link  508 at Wed Oct  7 14:03:08 2020, MaxMem=  2684354560 cpu:               0.6 elap:               0.6
 (Enter /udrive/faculty/rpeverati/g16/g16/l701.exe)
 ... and contract with generalized density number  0.
 Compute integral first derivatives.
 R6Disp: Adding Grimme-D3(BJ) dispersion energy 1st derivatives to the gradient.
 Leave Link  701 at Wed Oct  7 14:03:09 2020, MaxMem=  2684354560 cpu:               4.6 elap:               0.8
 (Enter /udrive/faculty/rpeverati/g16/g16/l702.exe)
 L702 exits ... SP integral derivatives will be done elsewhere.
 Leave Link  702 at Wed Oct  7 14:03:09 2020, MaxMem=  2684354560 cpu:               1.5 elap:               0.5
 (Enter /udrive/faculty/rpeverati/g16/g16/l703.exe)
 Integral derivatives from FoFJK, PRISM(SPDF).
 Compute integral first derivatives, UseDBF=F ICtDFT=           0.
 Calling FoFJK, ICntrl=      2527 FMM=F ISym2X=1 I1Cent= 0 IOpClX= 0 NMat=1 NMatS=1 NMatT=0.
 FoFJK:  IHMeth= 1 ICntrl=    2527 DoSepK=F KAlg= 0 I1Cent=           0 FoldK=F
 IRaf=         0 NMat=       1 IRICut=       1 DoRegI=T DoRafI=F ISym2E= 1 IDoP0=0 IntGTp=1.
 FoFCou: FMM=F IPFlag=           0 FMFlag=      100000 FMFlg1=         800
         NFxFlg=           0 DoJE=F BraDBF=F KetDBF=F FulRan=T
         wScrn=  0.000000 ICntrl=      2527 IOpCl=  0 I1Cent=           0 NGrid=           0
         NMat0=    1 NMatS0=      1 NMatT0=    0 NMatD0=    1 NMtDS0=    0 NMtDT0=    0
 Petite list used in FoFCou.
 Leave Link  703 at Wed Oct  7 14:03:10 2020, MaxMem=  2684354560 cpu:               4.4 elap:               0.8
 (Enter /udrive/faculty/rpeverati/g16/g16/l716.exe)
 Dipole        = 3.83587181D-17-8.20410795D-32 4.44089210D-16
 ***** Axes restored to original set *****
 -------------------------------------------------------------------
 Center     Atomic                   Forces (Hartrees/Bohr)
 Number     Number              X              Y              Z
 -------------------------------------------------------------------
      1        1           0.000000000   -0.000000000    0.002958464
      2        9           0.000000000    0.000000000   -0.000000000
      3        1          -0.000000000   -0.000000000   -0.002958464
 -------------------------------------------------------------------
 Cartesian Forces:  Max     0.002958464 RMS     0.001394633
 Leave Link  716 at Wed Oct  7 14:03:11 2020, MaxMem=  2684354560 cpu:               1.3 elap:               0.5
 (Enter /udrive/faculty/rpeverati/g16/g16/l103.exe)

 GradGradGradGradGradGradGradGradGradGradGradGradGradGradGradGradGradGrad
 Berny optimization.
 Optmz: redundant internal coordinate code flag= 1
 Red2BG:  D1=  1.00D+00 OD1=  3.33D-16 B2RMS=  0.00D+00 IAprox=1
 Red2BG is reusing G-inverse.
 Internal  Forces:  Max     0.002958464 RMS     0.002091950
 Search for a saddle point.
 Step number   3 out of a maximum of   50
 All quantities printed in internal units (Hartrees-Bohrs-Radians)
 Swapping is turned off.
 Update second derivatives using D2CorX and points    1    2    3
 The second derivative matrix:
                          R1        R2        A1        A2
           R1           0.23808
           R2          -0.06072   0.23808
           A1           0.00000   0.00000   0.00230
           A2           0.00000   0.00000   0.00000   0.00230
 ITU=  0  0  0
 Eigenvectors of the second derivative matrix:
                           1         2         3         4
     Eigenvalues --     0.00230   0.00230   0.17736   0.29880
   1         R1         0.00000   0.00000   0.70711  -0.70711
   2         R2         0.00000  -0.00000   0.70711   0.70711
   3         A1        -0.79785  -0.60286   0.00000   0.00000
   4         A2        -0.60286   0.79785   0.00000   0.00000
 Eigenvalue     1 is   2.30D-03 should be less than     0.000000 Eigenvector:
                          A1        A2        R2        R1
   1                   -0.79785  -0.60286   0.00000   0.00000
 RLam0= 2.30D-03.
 Iter=   1 RLamda= 0.00000000D+00 Sum=-9.86991981D-05.
 Iter=   2 RLamda=-9.86991981D-05 Sum=-9.86443026D-05.
 Iter=   3 RLamda=-9.86443026D-05 Sum=-9.86443331D-05.
 RFO step:  Lambda0=2.300010000D-03 Lambda=-9.86443026D-05.
 Linear search not attempted -- option 19 set.
 Iteration  1 RMS(Cart)=  0.01597857 RMS(Int)=  0.00013880
 Iteration  2 RMS(Cart)=  0.00013443 RMS(Int)=  0.00000007
 Iteration  3 RMS(Cart)=  0.00000001 RMS(Int)=  0.00000007
 ITry= 1 IFail=0 DXMaxC= 1.65D-02 DCOld= 1.00D+10 DXMaxT= 1.00D-01 DXLimC= 3.00D+00 Rises=F
 ClnCor:  largest displacement from symmetrization is 1.78D-02 for atom     2.
 Variable       Old X    -DE/DX   Delta X   Delta X   Delta X     New X
                                 (Linear)    (Quad)   (Total)
    R1        2.24625   0.00296   0.00000   0.01667   0.01651   2.26277
    R2        2.24625   0.00296   0.00000   0.01667   0.01651   2.26277
    A1        3.14159   0.00000   0.00000   0.01881   0.00000   3.14159
    A2        3.14159  -0.00000   0.00000   0.01421   0.00000   3.14159
         Item               Value     Threshold  Converged?
 Maximum Force            0.002958     0.000450     NO 
 RMS     Force            0.002092     0.000300     NO 
 Maximum Displacement     0.016514     0.001800     NO 
 RMS     Displacement     0.011677     0.001200     NO 
 Predicted change in Energy=-4.934468D-05
 Lowest energy point so far.  Saving SCF results.
 Largest change from initial coordinates is atom    1       0.060 Angstoms.
 GradGradGradGradGradGradGradGradGradGradGradGradGradGradGradGradGradGrad

 Leave Link  103 at Wed Oct  7 14:03:12 2020, MaxMem=  2684354560 cpu:               1.4 elap:               0.5
 (Enter /udrive/faculty/rpeverati/g16/g16/l202.exe)
                          Input orientation:                          
 ---------------------------------------------------------------------
 Center     Atomic      Atomic             Coordinates (Angstroms)
 Number     Number       Type             X           Y           Z
 ---------------------------------------------------------------------
      1          1           0        0.000000    0.000000    1.197404
      2          9           0        0.000000    0.000000   -0.000000
      3          1           0        0.000000    0.000000   -1.197404
 ---------------------------------------------------------------------
                    Distance matrix (angstroms):
                    1          2          3
     1  H    0.000000
     2  F    1.197404   0.000000
     3  H    2.394808   1.197404   0.000000
 Stoichiometry    FH2(2)
 Framework group  D*H[O(F),C*(H.H)]
 Deg. of freedom     1
 Full point group                 D*H     NOp   8
 RotChk:  IX=0 Diff= 0.00D+00
 Largest Abelian subgroup         D2H     NOp   8
 Largest concise Abelian subgroup C2      NOp   2
                         Standard orientation:                         
 ---------------------------------------------------------------------
 Center     Atomic      Atomic             Coordinates (Angstroms)
 Number     Number       Type             X           Y           Z
 ---------------------------------------------------------------------
      1          1           0        0.000000    0.000000    1.197404
      2          9           0        0.000000    0.000000    0.000000
      3          1           0        0.000000    0.000000   -1.197404
 ---------------------------------------------------------------------
 Rotational constants (GHZ):           0.0000000         174.8721807         174.8721807
 Leave Link  202 at Wed Oct  7 14:03:13 2020, MaxMem=  2684354560 cpu:               1.1 elap:               0.4
 (Enter /udrive/faculty/rpeverati/g16/g16/l301.exe)
 Standard basis: 6-31G(d) (5D, 7F)
 Ernie: Thresh=  0.10000D-02 Tol=  0.10000D-05 Strict=F.
 There are     8 symmetry adapted cartesian basis functions of AG  symmetry.
 There are     1 symmetry adapted cartesian basis functions of B1G symmetry.
 There are     1 symmetry adapted cartesian basis functions of B2G symmetry.
 There are     1 symmetry adapted cartesian basis functions of B3G symmetry.
 There are     0 symmetry adapted cartesian basis functions of AU  symmetry.
 There are     4 symmetry adapted cartesian basis functions of B1U symmetry.
 There are     2 symmetry adapted cartesian basis functions of B2U symmetry.
 There are     2 symmetry adapted cartesian basis functions of B3U symmetry.
 There are     7 symmetry adapted basis functions of AG  symmetry.
 There are     1 symmetry adapted basis functions of B1G symmetry.
 There are     1 symmetry adapted basis functions of B2G symmetry.
 There are     1 symmetry adapted basis functions of B3G symmetry.
 There are     0 symmetry adapted basis functions of AU  symmetry.
 There are     4 symmetry adapted basis functions of B1U symmetry.
 There are     2 symmetry adapted basis functions of B2U symmetry.
 There are     2 symmetry adapted basis functions of B3U symmetry.
    18 basis functions,    36 primitive gaussians,    19 cartesian basis functions
     6 alpha electrons        5 beta electrons
       nuclear repulsion energy         8.1758364240 Hartrees.
 IExCor= 3630 DFT=T Ex+Corr=B97D3 ExCW=0 ScaHFX=  0.000000
 ScaDFX=  1.000000  1.000000  1.000000  1.000000 ScalE2=  1.000000  1.000000
 IRadAn=      5 IRanWt=     -1 IRanGd=            0 ICorTp=0 IEmpDi=141
 NAtoms=    3 NActive=    3 NUniq=    2 SFac= 2.25D+00 NAtFMM=   60 NAOKFM=F Big=F
 Integral buffers will be    131072 words long.
 Raffenetti 2 integral format.
 Two-electron integral symmetry is turned on.
 R6Disp:  Grimme-D3(BJ) Dispersion energy=       -0.0010933432 Hartrees.
 Nuclear repulsion after empirical dispersion term =        8.1747430809 Hartrees.
 Leave Link  301 at Wed Oct  7 14:03:13 2020, MaxMem=  2684354560 cpu:               1.7 elap:               0.5
 (Enter /udrive/faculty/rpeverati/g16/g16/l302.exe)
 NPDir=0 NMtPBC=     1 NCelOv=     1 NCel=       1 NClECP=     1 NCelD=      1
         NCelK=      1 NCelE2=     1 NClLst=     1 CellRange=     0.0.
 One-electron integrals computed using PRISM.
 One-electron integral symmetry used in STVInt
 NBasis=    18 RedAO= T EigKep=  1.39D-01  NBF=     7     1     1     1     0     4     2     2
 NBsUse=    18 1.00D-06 EigRej= -1.00D+00 NBFU=     7     1     1     1     0     4     2     2
 Precomputing XC quadrature grid using
 IXCGrd= 4 IRadAn=           5 IRanWt=          -1 IRanGd=           0 AccXCQ= 0.00D+00.
 Generated NRdTot=       0 NPtTot=           0 NUsed=           0 NTot=          32
 NSgBfM=    19    19    19    19    19 MxSgAt=     3 MxSgA2=     3.
 Leave Link  302 at Wed Oct  7 14:03:14 2020, MaxMem=  2684354560 cpu:               4.0 elap:               0.7
 (Enter /udrive/faculty/rpeverati/g16/g16/l303.exe)
 DipDrv:  MaxL=1.
 Leave Link  303 at Wed Oct  7 14:03:15 2020, MaxMem=  2684354560 cpu:               1.4 elap:               0.4
 (Enter /udrive/faculty/rpeverati/g16/g16/l401.exe)
 Initial guess from the checkpoint file:  "MN_54_hfhts_BH76_B97DBJ_631Gs.chk"
 SCF N**3 symmetry information disabled.
 B after Tr=     0.000000    0.000000    0.000000
         Rot=    1.000000    0.000000    0.000000    0.000000 Ang=   0.00 deg.
 Guess basis will be translated and rotated to current coordinates.
 JPrj=2 DoOrth=T DoCkMO=T.
 Initial guess orbital symmetries:
 Alpha Orbitals:
       Occupied  (SGG) (SGG) (SGU) (PIU) (PIU) (SGG)
       Virtual   (SGU) (SGG) (SGU) (PIU) (PIU) (SGG) (SGU) (PIG)
                 (PIG) (DLTG) (DLTG) (SGG)
 Beta  Orbitals:
       Occupied  (SGG) (SGG) (SGU) (PIU) (PIU)
       Virtual   (SGG) (SGU) (SGG) (SGU) (PIU) (PIU) (SGG) (SGU)
                 (PIG) (PIG) (DLTG) (DLTG) (SGG)
 The electronic state of the initial guess is 2-SGG.
 Initial guess <Sx>= 0.0000 <Sy>= 0.0000 <Sz>= 0.5000 <S**2>= 0.7535 S= 0.5018
 Leave Link  401 at Wed Oct  7 14:03:16 2020, MaxMem=  2684354560 cpu:               2.2 elap:               0.5
 (Enter /udrive/faculty/rpeverati/g16/g16/l502.exe)
 Keep J ints in memory in symmetry-blocked form, NReq=10357092.
[...]
              Anisotropic Spin Dipole Couplings in Principal Axis System
 ---------------------------------------------------------------------------------

       Atom             a.u.   MegaHertz   Gauss  10(-4) cm-1        Axes

              Baa    -0.0229   -12.230    -4.364    -4.080  0.0000  0.0000  1.0000
     1 H(1)   Bbb     0.0115     6.115     2.182     2.040  0.0000  1.0000  0.0000
              Bcc     0.0115     6.115     2.182     2.040  1.0000  0.0000 -0.0000
 
              Baa    -0.3743  -187.958   -67.068   -62.696  0.0000  0.0000  1.0000
     2 F(19)  Bbb     0.1871    93.979    33.534    31.348  1.0000  0.0000 -0.0000
              Bcc     0.1871    93.979    33.534    31.348  0.0000  1.0000  0.0000
 
              Baa    -0.0229   -12.230    -4.364    -4.080 -0.0000  0.0000  1.0000
     3 H(1)   Bbb     0.0115     6.115     2.182     2.040  0.7071  0.7071  0.0000
              Bcc     0.0115     6.115     2.182     2.040  0.7071 -0.7071  0.0000
 

 ---------------------------------------------------------------------------------

 No NMR shielding tensors so no spin-rotation constants.
 Leave Link  601 at Wed Oct  7 14:03:51 2020, MaxMem=  2684354560 cpu:               6.3 elap:               0.9
 (Enter /udrive/faculty/rpeverati/g16/g16/l701.exe)
 ... and contract with generalized density number  0.
 Compute integral second derivatives.
 R6Disp: Adding Grimme-D3(BJ) dispersion energy 2nd derivatives to the Hessian.
 Leave Link  701 at Wed Oct  7 14:03:52 2020, MaxMem=  2684354560 cpu:               4.9 elap:               0.9
 (Enter /udrive/faculty/rpeverati/g16/g16/l702.exe)
 L702 exits ... SP integral derivatives will be done elsewhere.
 Leave Link  702 at Wed Oct  7 14:03:53 2020, MaxMem=  2684354560 cpu:               2.0 elap:               0.7
 (Enter /udrive/faculty/rpeverati/g16/g16/l703.exe)
 Integral derivatives from FoFJK, PRISM(SPDF).
 Compute integral second derivatives, UseDBF=F ICtDFT=           0.
 Calling FoFJK, ICntrl=    100527 FMM=F ISym2X=1 I1Cent= 0 IOpClX= 0 NMat=1 NMatS=1 NMatT=0.
 FoFJK:  IHMeth= 1 ICntrl=  100527 DoSepK=F KAlg= 0 I1Cent=           0 FoldK=F
 IRaf=         0 NMat=       1 IRICut=       1 DoRegI=T DoRafI=F ISym2E= 1 IDoP0=0 IntGTp=1.
 FoFCou: FMM=F IPFlag=           0 FMFlag=      100000 FMFlg1=         800
         NFxFlg=           0 DoJE=F BraDBF=F KetDBF=F FulRan=T
         wScrn=  0.000000 ICntrl=    100527 IOpCl=  0 I1Cent=           0 NGrid=           0
         NMat0=    1 NMatS0=      1 NMatT0=    0 NMatD0=    1 NMtDS0=    0 NMtDT0=    0
 Petite list used in FoFCou.
 Leave Link  703 at Wed Oct  7 14:03:55 2020, MaxMem=  2684354560 cpu:              10.6 elap:               1.4
 (Enter /udrive/faculty/rpeverati/g16/g16/l716.exe)
 Dipole        = 3.94138772D-17 6.53541550D-32 1.11040937D-16
 Polarizability= 1.96633603D+00-7.02905117D-17 1.96633603D+00
                 3.83943545D-14-2.33283642D-13 3.62853510D+01
 Full mass-weighted force constant matrix:
 Low frequencies ----2200.5038 -170.5327 -170.5327   -6.7209   -6.7209    0.0005
 Low frequencies ---    0.0014    0.0014 2021.8926
 ******    3 imaginary frequencies (negative Signs) ****** 
 Diagonal vibrational polarizability:
       39.0399209      39.0399209      21.0242461
 Harmonic frequencies (cm**-1), IR intensities (KM/Mole), Raman scattering
 activities (A**4/AMU), depolarization ratios for plane and unpolarized
 incident light, reduced masses (AMU), force constants (mDyne/A),
 and normal coordinates:
                      1                      2                      3
                     SGU                    PIU                    PIU
 Frequencies --  -2200.5038              -170.5327              -170.5327
 Red. masses --      1.1085                 1.1085                 1.1085
 Frc consts  --      3.1625                 0.0190                 0.0190
 IR Inten    --   3782.9582                42.1882                42.1882
  Atom  AN      X      Y      Z        X      Y      Z        X      Y      Z
     1   1    -0.00   0.00   0.71     0.71   0.00   0.00    -0.00   0.71  -0.00
     2   9     0.00  -0.00  -0.07    -0.07  -0.00  -0.00     0.00  -0.07   0.00
     3   1    -0.00   0.00   0.71     0.71   0.00   0.00    -0.00   0.71   0.00
                      4
                     SGG
 Frequencies --   2021.8926
 Red. masses --      1.0078
 Frc consts  --      2.4275
 IR Inten    --      0.0000
  Atom  AN      X      Y      Z
     1   1     0.00   0.00   0.71
     2   9    -0.00  -0.00  -0.00
     3   1     0.00   0.00  -0.71

 -------------------
 - Thermochemistry -
 -------------------
 Temperature   298.150 Kelvin.  Pressure   1.00000 Atm.
 Atom     1 has atomic number  1 and mass   1.00783
 Atom     2 has atomic number  9 and mass  18.99840
 Atom     3 has atomic number  1 and mass   1.00783
 Molecular mass:    21.01405 amu.
 Principal axes and moments of inertia in atomic units:
                           1         2         3
     Eigenvalues --     0.00000  10.33748  10.33748
           X           -0.00000   1.00000   0.00000
           Y            0.00000   0.00000   1.00000
           Z            1.00000   0.00000   0.00000
 This molecule is a prolate symmetric top.
 Rotational symmetry number  2.
 Rotational temperature (Kelvin)      8.37863
 Rotational constant (GHZ):         174.582368
    3 imaginary frequencies ignored.
 Zero-point vibrational energy      12093.6 (Joules/Mol)
                                    2.89044 (Kcal/Mol)
 Vibrational temperatures:   2909.05
          (Kelvin)
 
 Zero-point correction=                           0.004606 (Hartree/Particle)
 Thermal correction to Energy=                    0.006967
 Thermal correction to Enthalpy=                  0.007911
 Thermal correction to Gibbs Free Energy=        -0.013068
 Sum of electronic and zero-point Energies=           -100.813978
 Sum of electronic and thermal Energies=              -100.811617
 Sum of electronic and thermal Enthalpies=            -100.810673
 Sum of electronic and thermal Free Energies=         -100.831652
 
                     E (Thermal)             CV                S
                      KCal/Mol        Cal/Mol-Kelvin    Cal/Mol-Kelvin
 Total                    4.372              4.979             44.155
 Electronic               0.000              0.000              1.377
 Translational            0.889              2.981             35.068
 Rotational               0.592              1.987              7.708
 Vibrational              2.891              0.011              0.001
                       Q            Log10(Q)             Ln(Q)
 Total Bot       0.102517D+07          6.010798         13.840373
 Total V=0       0.134743D+09          8.129505         18.718878
 Vib (Bot)       0.760882D-02         -2.118683         -4.878447
 Vib (V=0)       0.100006D+01          0.000025          0.000058
 Electronic      0.200000D+01          0.301030          0.693147
 Translational   0.378633D+07          6.578219         15.146908
 Rotational      0.177923D+02          1.250232          2.878765
 
                                                          TS search on BH76.
                                                             IR Spectrum
 
     2                                                                                                                               
     0                                                                                                                               
     2                                                                                                                               
     2                                                                                                                               
 
     X                                                                                                                               
     X                                                                                                                               
     X                                                                                                                               
     X                                                                                                                               
     X                                                                                                                               
     X                                                                                                                               
     X                                                                                                                               
     X                                                                                                                               
     X                                                                                                                               
     X                                                                                                                               
     X                                                                                                                               
     X                                                                                                                               
     X                                                                                                                               
     X                                                                                                                               
     X                                                                                                                               
     X                                                                                                                               
     X                                                                                                                               
     X                                                                                                                               
     X                                                                                                                               
     X                                                                                                                               
 
 ***** Axes restored to original set *****
 -------------------------------------------------------------------
 Center     Atomic                   Forces (Hartrees/Bohr)
 Number     Number              X              Y              Z
 -------------------------------------------------------------------
      1        1           0.000000000   -0.000000000    0.000008727
      2        9           0.000000000    0.000000000    0.000000000
      3        1          -0.000000000   -0.000000000   -0.000008727
 -------------------------------------------------------------------
 Cartesian Forces:  Max     0.000008727 RMS     0.000004114
 Force constants in Cartesian coordinates: 
                1             2             3             4             5 
      1 -0.502244D-03
      2  0.000000D+00 -0.502244D-03
      3  0.000000D+00  0.000000D+00 -0.552464D-02
      4  0.100277D-02  0.000000D+00  0.000000D+00 -0.200553D-02
      5  0.000000D+00  0.100277D-02  0.000000D+00  0.000000D+00 -0.200553D-02
      6  0.000000D+00  0.000000D+00  0.166966D+00  0.000000D+00  0.000000D+00
      7 -0.500521D-03  0.000000D+00  0.000000D+00  0.100277D-02  0.000000D+00
      8  0.000000D+00 -0.500521D-03  0.000000D+00  0.000000D+00  0.100277D-02
      9  0.000000D+00  0.000000D+00 -0.161441D+00  0.000000D+00  0.000000D+00
                6             7             8             9 
      6 -0.333932D+00
      7  0.000000D+00 -0.502244D-03
      8  0.000000D+00  0.000000D+00 -0.502244D-03
      9  0.166966D+00  0.000000D+00  0.000000D+00 -0.552464D-02
 FormGI is forming the generalized inverse of G from B-inverse, IUseBI=4.
 Force constants in internal coordinates: 
                1             2             3             4 
      1 -0.552464D-02
      2  0.161441D+00 -0.552464D-02
      3  0.000000D+00  0.000000D+00 -0.256151D-02
      4  0.000000D+00  0.000000D+00  0.000000D+00 -0.256151D-02
 Leave Link  716 at Wed Oct  7 14:03:56 2020, MaxMem=  2684354560 cpu:               2.6 elap:               0.8
 (Enter /udrive/faculty/rpeverati/g16/g16/l103.exe)

 GradGradGradGradGradGradGradGradGradGradGradGradGradGradGradGradGradGrad
 Berny optimization.
 Optmz: redundant internal coordinate code flag= 1
 Red2BG:  D1=  1.00D+00 OD1=  3.33D-16 B2RMS=  0.00D+00 IAprox=1
 Red2BG is reusing G-inverse.
 Internal  Forces:  Max     0.000008727 RMS     0.000006171
 Search for a local minimum.
 Step number   1 out of a maximum of    2
 All quantities printed in internal units (Hartrees-Bohrs-Radians)
 Second derivative matrix not updated -- analytic derivatives used.
 The second derivative matrix:
                          R1        R2        A1        A2
           R1          -0.00552
           R2           0.16144  -0.00552
           A1          -0.00000  -0.00000  -0.00256
           A2           0.00000   0.00000   0.00000  -0.00256
 ITU=  0
 Eigenvectors of the second derivative matrix:
                           1         2         3         4
     Eigenvalues --    -0.16697  -0.00256  -0.00256   0.15592
   1         R1        -0.70711  -0.00000  -0.00000   0.70711
   2         R2         0.70711  -0.00000  -0.00000   0.70711
   3         A1         0.00000   0.00290  -1.00000  -0.00000
   4         A2         0.00000   1.00000   0.00290   0.00000
 Eigenvalue     1 is  -1.67D-01 should be greater than     0.000000 Eigenvector:
                          R2        R1        A1        A2
   1                    0.70711  -0.70711   0.00000   0.00000
 Eigenvalue     2 is  -2.56D-03 should be greater than     0.000000 Eigenvector:
                          A2        A1        R2        R1
   1                    1.00000   0.00290  -0.00000  -0.00000
 Eigenvalue     3 is  -2.56D-03 should be greater than     0.000000 Eigenvector:
                          A1        A2        R1        R2
   1                   -1.00000   0.00290  -0.00000  -0.00000
 Angle between quadratic step and forces=   0.00 degrees.
 Linear search not attempted -- first point.
 Iteration  1 RMS(Cart)=  0.00003958 RMS(Int)=  0.00000000
 Iteration  2 RMS(Cart)=  0.00000000 RMS(Int)=  0.00000000
 ITry= 1 IFail=0 DXMaxC= 5.60D-05 DCOld= 1.00D+10 DXMaxT= 3.00D-01 DXLimC= 3.00D+00 Rises=F
 ClnCor:  largest displacement from symmetrization is 2.95D-13 for atom     2.
 Variable       Old X    -DE/DX   Delta X   Delta X   Delta X     New X
                                 (Linear)    (Quad)   (Total)
    R1        2.26464   0.00001   0.00000   0.00006   0.00006   2.26470
    R2        2.26464   0.00001   0.00000   0.00006   0.00006   2.26470
    A1        3.14159   0.00000   0.00000   0.00000   0.00000   3.14159
    A2        3.14159  -0.00000   0.00000  -0.00000   0.00000   3.14159
         Item               Value     Threshold  Converged?
 Maximum Force            0.000009     0.000450     YES
 RMS     Force            0.000006     0.000300     YES
 Maximum Displacement     0.000056     0.001800     YES
 RMS     Displacement     0.000040     0.001200     YES
 Predicted change in Energy=-4.884213D-10
 Optimization completed.
    -- Stationary point found.
                           ----------------------------
                           !   Optimized Parameters   !
                           ! (Angstroms and Degrees)  !
 --------------------------                            --------------------------
 ! Name  Definition              Value          Derivative Info.                !
 --------------------------------------------------------------------------------
 ! R1    R(1,2)                  1.1984         -DE/DX =    0.0                 !
 ! R2    R(2,3)                  1.1984         -DE/DX =    0.0                 !
 ! A1    L(1,2,3,-1,-1)        180.0            -DE/DX =    0.0                 !
 ! A2    L(1,2,3,-2,-2)        180.0            -DE/DX =    0.0                 !
 --------------------------------------------------------------------------------
 GradGradGradGradGradGradGradGradGradGradGradGradGradGradGradGradGradGrad

 Leave Link  103 at Wed Oct  7 14:03:57 2020, MaxMem=  2684354560 cpu:               2.3 elap:               0.6
 (Enter /udrive/faculty/rpeverati/g16/g16/l9999.exe)
 Dipole is zero, so no output in dipole orientation.

 ----------------------------------------------------------------------

 Electric dipole moment (input orientation):
 (Debye = 10**-18 statcoulomb cm , SI units = C m)
                  (au)            (Debye)         (10**-30 SI)
   Tot        0.000000D+00      0.000000D+00      0.000000D+00
   x          0.000000D+00      0.000000D+00      0.000000D+00
   y          0.000000D+00      0.000000D+00      0.000000D+00
   z          0.000000D+00      0.000000D+00      0.000000D+00

 Dipole polarizability, Alpha (input orientation).
 (esu units = cm**3 , SI units = C**2 m**2 J**-1)
 Alpha(0;0):
               (au)            (10**-24 esu)      (10**-40 SI)
   iso        0.134060D+02      0.198657D+01      0.221035D+01
   aniso      0.343190D+02      0.508555D+01      0.565844D+01
   xx         0.196634D+01      0.291381D+00      0.324205D+00
   yx         0.000000D+00      0.000000D+00      0.000000D+00
   yy         0.196634D+01      0.291381D+00      0.324205D+00
   zx         0.000000D+00      0.000000D+00      0.000000D+00
   zy         0.000000D+00      0.000000D+00      0.000000D+00
   zz         0.362854D+02      0.537693D+01      0.598265D+01

 ----------------------------------------------------------------------

 Test job not archived.
 1\1\GINC-NODE37\Freq\UB97D3\6-31G(d)\F1H2(2)\RPEVERATI\07-Oct-2020\0\\
 #P Freq B97D3/6-31G* 5D 7F Integral=UltraFineGrid SCF=(NoSymm,XQC,MaxC
 yc=120) IOp(1/33=1) Geom=Check Guess=Read\\TS search on BH76.\\0,2\H,0
 .,0.,1.1983973527\F,0.,0.,0.\H,0.,0.,-1.1983973527\\Version=ES64L-G16R
 evA.03\State=2-SGG\HF=-100.818584\S2=0.753643\S2-1=0.\S2A=0.750001\RMS
 D=1.541e-10\RMSF=4.114e-06\ZeroPoint=0.0046062\Thermal=0.0069672\Dipol
 e=0.,0.,0.\DipoleDeriv=0.140411,0.,0.,0.,0.140411,0.,0.,0.,-1.3296011,
 -0.280822,0.,0.,0.,-0.280822,0.,0.,0.,2.6592021,0.140411,0.,0.,0.,0.14
 0411,0.,0.,0.,-1.3296011\Polar=1.966336,0.,1.966336,0.,0.,36.285351\Qu
 adrupole=-0.567774,-0.567774,1.1355481,0.,0.,0.\PG=D*H [O(F1),C*(H1.H1
 )]\NImag=3\\-0.00050224,0.,-0.00050224,0.,0.,-0.00552464,0.00100277,0.
 ,0.,-0.00200553,0.,0.00100277,0.,0.,-0.00200553,0.,0.,0.16696602,0.,0.
 ,-0.33393204,-0.00050052,0.,0.,0.00100277,0.,0.,-0.00050224,0.,-0.0005
 0052,0.,0.,0.00100277,0.,0.,-0.00050224,0.,0.,-0.16144138,0.,0.,0.1669
 6602,0.,0.,-0.00552464\\0.,0.,-0.00000873,0.,0.,0.,0.,0.,0.00000873\\\
 @


 I MET A TRAVELLER FROM AN ANTIQUE LAND
 WHO SAID... TWO VAST AND TRUNKLESS LEGS OF STONE
 STAND IN THE DESERT..... NEAR THEM,  ON THE SAND,
 HALF SUNK,  A SHATTERED VISAGE LIES,  WHOSE FROWN,
 AND WRINKLED LIP,  AND SNEER OF COLD COMMAND
 TELL THAT ITS SCULPTOR WELL THOSE PASSIONS READ
 WHICH YET SURVIVE,  STAMPED ON THESE LIFELESS THINGS
 THE HAND THAT MOCKED THEM,  AND THE HEART THAT FED-
 AND ON THE PEDESTAL THESE WORDS APPEAR 
 MY NAME IS OZYMANDIAS, KING OF KINGS--   
 LOOK ON MY WORKS YE MIGHTY AND DESPAIR. 
 NOTHING BESIDE REMAINS,  ROUND THE DECAY 
 OF THAT COLOSSAL WRECK,  BOUNDLESS AND BARE
 THE LONE AND LEVEL SANDS STRETCH FAR AWAY.
                                    SHELLEY
 Job cpu time:       0 days  0 hours  1 minutes 32.0 seconds.
 Elapsed time:       0 days  0 hours  0 minutes 16.7 seconds.
 File lengths (MBytes):  RWF=      5 Int=      0 D2E=      0 Chk=      1 Scr=      1
 Normal termination of Gaussian 16 at Wed Oct  7 14:03:58 2020.
