 Entering Gaussian System, Link 0=g16
 Input=MN_71_NH3_BH76_B97DBJ_631Gs.in
 Output=MN_71_NH3_BH76_B97DBJ_631Gs.log
 Initial command:
 /udrive/faculty/rpeverati/g16/g16/l1.exe "/udrive/scratch-directories/gaussian09/rpeverati/Gau-28272.inp" -scrdir="/udrive/scratch-directories/gaussian09/rpeverati/"
 Entering Link 1 = /udrive/faculty/rpeverati/g16/g16/l1.exe PID=     28284.
  
 Copyright (c) 1988,1990,1992,1993,1995,1998,2003,2009,2016,
            Gaussian, Inc.  All Rights Reserved.
  
 This is part of the Gaussian(R) 16 program.  It is based on
 the Gaussian(R) 09 system (copyright 2009, Gaussian, Inc.),
 the Gaussian(R) 03 system (copyright 2003, Gaussian, Inc.),
 the Gaussian(R) 98 system (copyright 1998, Gaussian, Inc.),
 the Gaussian(R) 94 system (copyright 1995, Gaussian, Inc.),
 the Gaussian 92(TM) system (copyright 1992, Gaussian, Inc.),
 the Gaussian 90(TM) system (copyright 1990, Gaussian, Inc.),
 the Gaussian 88(TM) system (copyright 1988, Gaussian, Inc.),
 the Gaussian 86(TM) system (copyright 1986, Carnegie Mellon
 University), and the Gaussian 82(TM) system (copyright 1983,
 Carnegie Mellon University). Gaussian is a federally registered
 trademark of Gaussian, Inc.
  
 This software contains proprietary and confidential information,
 including trade secrets, belonging to Gaussian, Inc.
  
 This software is provided under written license and may be
 used, copied, transmitted, or stored only in accord with that
 written license.
  
 The following legend is applicable only to US Government
 contracts under FAR:
  
                    RESTRICTED RIGHTS LEGEND
  
 Use, reproduction and disclosure by the US Government is
 subject to restrictions as set forth in subparagraphs (a)
 and (c) of the Commercial Computer Software - Restricted
 Rights clause in FAR 52.227-19.
  
 Gaussian, Inc.
 340 Quinnipiac St., Bldg. 40, Wallingford CT 06492
  
  
 ---------------------------------------------------------------
 Warning -- This program may not be used in any manner that
 competes with the business of Gaussian, Inc. or will provide
 assistance to any competitor of Gaussian, Inc.  The licensee
 of this program is prohibited from giving any competitor of
 Gaussian, Inc. access to this program.  By using this program,
 the user acknowledges that Gaussian, Inc. is engaged in the
 business of creating and licensing software in the field of
 computational chemistry and represents and warrants to the
 licensee that it is not a competitor of Gaussian, Inc. and that
 it will not use this program in any manner prohibited above.
 ---------------------------------------------------------------
  

 Cite this work as:
 Gaussian 16, Revision A.03,
 M. J. Frisch, G. W. Trucks, H. B. Schlegel, G. E. Scuseria, 
 M. A. Robb, J. R. Cheeseman, G. Scalmani, V. Barone, 
 G. A. Petersson, H. Nakatsuji, X. Li, M. Caricato, A. V. Marenich, 
 J. Bloino, B. G. Janesko, R. Gomperts, B. Mennucci, H. P. Hratchian, 
 J. V. Ortiz, A. F. Izmaylov, J. L. Sonnenberg, D. Williams-Young, 
 F. Ding, F. Lipparini, F. Egidi, J. Goings, B. Peng, A. Petrone, 
 T. Henderson, D. Ranasinghe, V. G. Zakrzewski, J. Gao, N. Rega, 
 G. Zheng, W. Liang, M. Hada, M. Ehara, K. Toyota, R. Fukuda, 
 J. Hasegawa, M. Ishida, T. Nakajima, Y. Honda, O. Kitao, H. Nakai, 
 T. Vreven, K. Throssell, J. A. Montgomery, Jr., J. E. Peralta, 
 F. Ogliaro, M. J. Bearpark, J. J. Heyd, E. N. Brothers, K. N. Kudin, 
 V. N. Staroverov, T. A. Keith, R. Kobayashi, J. Normand, 
 K. Raghavachari, A. P. Rendell, J. C. Burant, S. S. Iyengar, 
 J. Tomasi, M. Cossi, J. M. Millam, M. Klene, C. Adamo, R. Cammi, 
 J. W. Ochterski, R. L. Martin, K. Morokuma, O. Farkas, 
 J. B. Foresman, and D. J. Fox, Gaussian, Inc., Wallingford CT, 2016.
 
 ******************************************
 Gaussian 16:  ES64L-G16RevA.03 25-Dec-2016
                 7-Oct-2020 
 ******************************************
 %NoSave
 %nproc=12
 Will use up to   12 processors via shared memory.
 %mem=20GB
 %chk=MN_71_NH3_BH76_B97DBJ_631Gs
 ----------------------------------------------------------------------
 #P Opt(MaxCyc=100) B97D3/6-31G* 5D 7F Integral=UltraFineGrid SCF=(NoSy
 mm,XQC,MaxCyc=120) IOp(1/33=1)
 ----------------------------------------------------------------------
 1/6=100,18=20,19=15,26=4,33=1,38=1/1,3;
 2/9=110,12=2,17=6,18=5,40=1/2;
 3/5=1,6=6,7=1,8=11,11=2,25=1,30=1,71=1,74=-59,75=-5/1,2,3;
 4/9=2/1;
 5/5=2,7=120,8=3,13=1,38=5/2,8;
 6/7=2,8=2,9=2,10=2,28=1/1;
 7//1,2,3,16;
 1/6=100,18=20,19=15,26=4,33=1/3(2);
 2/9=110/2;
 99//99;
 2/9=110/2;
 3/5=1,6=6,7=1,8=11,11=2,25=1,30=1,71=1,74=-59,75=-5/1,2,3;
 4/5=5,9=2,16=3,69=1/1;
 5/5=2,7=120,8=3,13=1,38=5/2,8;
 7//1,2,3,16;
 1/6=100,18=20,19=15,26=4,33=1/3(-5);
 2/9=110/2;
 6/7=2,8=2,9=2,10=2,19=2,28=1/1;
 99/9=1/99;
 Leave Link    1 at Wed Oct  7 14:03:44 2020, MaxMem=  2684354560 cpu:               7.2 elap:               0.7
 (Enter /udrive/faculty/rpeverati/g16/g16/l101.exe)
 ONIOM data not found on unit 2.
 ------------------
 TS search on BH76.
 ------------------
 TstMul:  ICh=     0
 TstMul:  Mul=     1
 TstMul:  ICh=     0
 TstMul:  Mul=     1
 Symbolic Z-matrix:
 Charge =  0 Multiplicity = 1
 N                     0.        0.        0.28223 
 H                     0.46901   0.81235  -0.09408 
 H                     0.46901  -0.81235  -0.09408 
 H                    -0.93802   0.       -0.09408 
 
 RdStrC is calling ZToCFu for IStruc=1 NZ=     4.
 PrtBox:  NBox=     1 Levels=  1 BoxLen=    8.00 SMaxX=        3.07
          Shift=            1.772609            1.535125            0.177777
 Box      1 Number                   0 centers from      1 to      4:
 After GenITR:
 ITRead=  0  0  0  0
 MicOpt= -1 -1 -1 -1
 ITRead=  0  0  0  0
 MicOpt= -1 -1 -1 -1
 NAtoms=      4 NQM=        4 NQMF=       0 NMMI=      0 NMMIF=      0
                NMic=       0 NMicF=      0.
                    Isotopes and Nuclear Properties:
 (Nuclear quadrupole moments (NQMom) in fm**2, nuclear magnetic moments (NMagM)
  in nuclear magnetons)

  Atom         1           2           3           4
 IAtWgt=          14           1           1           1
 AtmWgt=  14.0030740   1.0078250   1.0078250   1.0078250
 NucSpn=           2           1           1           1
 AtZEff=   0.0000000   0.0000000   0.0000000   0.0000000
 NQMom=    2.0440000   0.0000000   0.0000000   0.0000000
 NMagM=    0.4037610   2.7928460   2.7928460   2.7928460
 AtZNuc=   7.0000000   1.0000000   1.0000000   1.0000000
 No MM parameters found.
 Leave Link  101 at Wed Oct  7 14:03:45 2020, MaxMem=  2684354560 cpu:               3.7 elap:               0.5
 (Enter /udrive/faculty/rpeverati/g16/g16/l103.exe)

 GradGradGradGradGradGradGradGradGradGradGradGradGradGradGradGradGradGrad
 Berny optimization.
 Optmz: redundant internal coordinate code flag= 1
 Initialization pass.
                           ----------------------------
                           !    Initial Parameters    !
                           ! (Angstroms and Degrees)  !
 --------------------------                            --------------------------
 ! Name  Definition              Value          Derivative Info.                !
 --------------------------------------------------------------------------------
 ! R1    R(1,2)                  1.0107         estimate D2E/DX2                !
 ! R2    R(1,3)                  1.0107         estimate D2E/DX2                !
 ! R3    R(1,4)                  1.0107         estimate D2E/DX2                !
 ! A1    A(2,1,3)              106.9816         estimate D2E/DX2                !
 ! A2    A(2,1,4)              106.9816         estimate D2E/DX2                !
 ! A3    A(3,1,4)              106.9816         estimate D2E/DX2                !
 ! D1    D(2,1,4,3)            114.3656         estimate D2E/DX2                !
 --------------------------------------------------------------------------------
 Maximum allowed force set to 1.00D+20.
 Trust Radius=3.00D-01 FncErr=1.00D-07 GrdErr=1.00D-06 EigMax=2.50D+02 EigMin=1.00D-04
 Number of steps in this run=    100 maximum allowed number of steps=    100.
 GradGradGradGradGradGradGradGradGradGradGradGradGradGradGradGradGradGrad

 Leave Link  103 at Wed Oct  7 14:03:46 2020, MaxMem=  2684354560 cpu:               1.1 elap:               0.5
 (Enter /udrive/faculty/rpeverati/g16/g16/l202.exe)
                          Input orientation:                          
 ---------------------------------------------------------------------
 Center     Atomic      Atomic             Coordinates (Angstroms)
 Number     Number       Type             X           Y           Z
 ---------------------------------------------------------------------
      1          7           0        0.000000    0.000000    0.282227
      2          1           0        0.469012    0.812353   -0.094076
      3          1           0        0.469012   -0.812353   -0.094076
      4          1           0       -0.938024    0.000000   -0.094076
 ---------------------------------------------------------------------
                    Distance matrix (angstroms):
                    1          2          3          4
     1  N    0.000000
     2  H    1.010689   0.000000
     3  H    1.010689   1.624706   0.000000
     4  H    1.010689   1.624706   1.624706   0.000000
 Stoichiometry    H3N
 Framework group  C3V[C3(N),3SGV(H)]
 Deg. of freedom     2
 Full point group                 C3V     NOp   6
 Largest Abelian subgroup         CS      NOp   2
 Largest concise Abelian subgroup CS      NOp   2
                         Standard orientation:                         
 ---------------------------------------------------------------------
 Center     Atomic      Atomic             Coordinates (Angstroms)
 Number     Number       Type             X           Y           Z
 ---------------------------------------------------------------------
      1          7           0        0.000000    0.000000    0.112891
      2          1           0        0.000000    0.938024   -0.263412
      3          1           0        0.812353   -0.469012   -0.263412
      4          1           0       -0.812353   -0.469012   -0.263412
 ---------------------------------------------------------------------
 Rotational constants (GHZ):         300.4147259         300.4147259         189.9688874
 Leave Link  202 at Wed Oct  7 14:03:47 2020, MaxMem=  2684354560 cpu:               2.0 elap:               0.7
 (Enter /udrive/faculty/rpeverati/g16/g16/l301.exe)
 Standard basis: 6-31G(d) (5D, 7F)
 Ernie: Thresh=  0.10000D-02 Tol=  0.10000D-05 Strict=F.
 There are    15 symmetry adapted cartesian basis functions of A'  symmetry.
 There are     6 symmetry adapted cartesian basis functions of A"  symmetry.
 There are    14 symmetry adapted basis functions of A'  symmetry.
 There are     6 symmetry adapted basis functions of A"  symmetry.
    20 basis functions,    40 primitive gaussians,    21 cartesian basis functions
     5 alpha electrons        5 beta electrons
       nuclear repulsion energy        11.9723081244 Hartrees.
 IExCor= 3630 DFT=T Ex+Corr=B97D3 ExCW=0 ScaHFX=  0.000000
 ScaDFX=  1.000000  1.000000  1.000000  1.000000 ScalE2=  1.000000  1.000000
 IRadAn=      5 IRanWt=     -1 IRanGd=            0 ICorTp=0 IEmpDi=141
 NAtoms=    4 NActive=    4 NUniq=    2 SFac= 4.00D+00 NAtFMM=   60 NAOKFM=F Big=F
 Integral buffers will be    131072 words long.
 Raffenetti 2 integral format.
 Two-electron integral symmetry is turned on.
 R6Disp:  Grimme-D3(BJ) Dispersion energy=       -0.0026843587 Hartrees.
 Nuclear repulsion after empirical dispersion term =       11.9696237658 Hartrees.
 Leave Link  301 at Wed Oct  7 14:03:48 2020, MaxMem=  2684354560 cpu:               1.8 elap:               0.5
 (Enter /udrive/faculty/rpeverati/g16/g16/l302.exe)
 NPDir=0 NMtPBC=     1 NCelOv=     1 NCel=       1 NClECP=     1 NCelD=      1
         NCelK=      1 NCelE2=     1 NClLst=     1 CellRange=     0.0.
 One-electron integrals computed using PRISM.
 One-electron integral symmetry used in STVInt
 NBasis=    20 RedAO= T EigKep=  3.89D-02  NBF=    14     6
 NBsUse=    20 1.00D-06 EigRej= -1.00D+00 NBFU=    14     6
 Precomputing XC quadrature grid using
 IXCGrd= 4 IRadAn=           5 IRanWt=          -1 IRanGd=           0 AccXCQ= 0.00D+00.
 Generated NRdTot=       0 NPtTot=           0 NUsed=           0 NTot=          32
 NSgBfM=    21    21    21    21    21 MxSgAt=     4 MxSgA2=     4.
 Leave Link  302 at Wed Oct  7 14:03:49 2020, MaxMem=  2684354560 cpu:               2.5 elap:               0.7
 (Enter /udrive/faculty/rpeverati/g16/g16/l303.exe)
 DipDrv:  MaxL=1.
 Leave Link  303 at Wed Oct  7 14:03:49 2020, MaxMem=  2684354560 cpu:               1.0 elap:               0.4
 (Enter /udrive/faculty/rpeverati/g16/g16/l401.exe)
 SCF N**3 symmetry information disabled.
 ExpMin= 1.61D-01 ExpMax= 4.17D+03 ExpMxC= 6.27D+02 IAcc=3 IRadAn=         5 AccDes= 0.00D+00
 Harris functional with IExCor= 3630 and IRadAn=       5 diagonalized for initial guess.
 HarFok:  IExCor= 3630 AccDes= 0.00D+00 IRadAn=         5 IDoV= 1 UseB2=F ITyADJ=14
 ICtDFT=  3500011 ScaDFX=  1.000000  1.000000  1.000000  1.000000
 FoFCou: FMM=F IPFlag=           0 FMFlag=      100000 FMFlg1=           0
         NFxFlg=           0 DoJE=T BraDBF=F KetDBF=T FulRan=T
         wScrn=  0.000000 ICntrl=       500 IOpCl=  0 I1Cent=   200000004 NGrid=           0
         NMat0=    1 NMatS0=      1 NMatT0=    0 NMatD0=    1 NMtDS0=    0 NMtDT0=    0
 Petite list used in FoFCou.
 Harris En= -56.5620197595540    
 JPrj=0 DoOrth=F DoCkMO=F.
 Initial guess orbital symmetries:
       Occupied  (A1) (A1) (E) (E) (A1)
       Virtual   (A1) (E) (E) (A1) (E) (E) (E) (E) (A1) (A1) (E)
                 (E) (A1) (E) (E)
 The electronic state of the initial guess is 1-A1.
 Leave Link  401 at Wed Oct  7 14:03:50 2020, MaxMem=  2684354560 cpu:               4.5 elap:               0.7
 (Enter /udrive/faculty/rpeverati/g16/g16/l502.exe)
 Keep J ints in memory in symmetry-blocked form, NReq=10364782.
 FoFCou: FMM=F IPFlag=           0 FMFlag=           0 FMFlg1=           0
         NFxFlg=           0 DoJE=F BraDBF=F KetDBF=F FulRan=T
         wScrn=  0.000000 ICntrl=       600 IOpCl=  0 I1Cent=           0 NGrid=           0
         NMat0=    1 NMatS0=    210 NMatT0=    0 NMatD0=    1 NMtDS0=    0 NMtDT0=    0
 Petite list used in FoFCou.
 Closed shell SCF:
 Using DIIS extrapolation, IDIIS=  1040.
 NGot=  2684354560 LenX=  2684340664 LenY=  2684339782
 Requested convergence on RMS density matrix=1.00D-08 within 120 cycles.
 Requested convergence on MAX density matrix=1.00D-06.
 Requested convergence on             energy=1.00D-06.
 No special actions if energy rises.
 Integral accuracy reduced to 1.0D-05 until final iterations.

 Cycle   1  Pass 0  IDiag  1:
 E= -56.4337502997822    
 DIIS: error= 7.29D-02 at cycle   1 NSaved=   1.
 NSaved= 1 IEnMin= 1 EnMin= -56.4337502997822     IErMin= 1 ErrMin= 7.29D-02
 ErrMax= 7.29D-02  0.00D+00 EMaxC= 1.00D-01 BMatC= 8.92D-02 BMatP= 8.92D-02
 IDIUse=3 WtCom= 2.71D-01 WtEn= 7.29D-01
 Coeff-Com:  0.100D+01
 Coeff-En:   0.100D+01
 Coeff:      0.100D+01
 Gap=     0.140 Goal=   None    Shift=    0.000
 GapD=    0.140 DampG=1.000 DampE=0.500 DampFc=0.5000 IDamp=-1.
 Damping current iteration by 5.00D-01
 RMSDP=3.09D-02 MaxDP=2.06D-01              OVMax= 2.14D-01

 Cycle   2  Pass 0  IDiag  1:
 E= -56.4547301618482     Delta-E=       -0.020979862066 Rises=F Damp=T
 DIIS: error= 2.01D-02 at cycle   2 NSaved=   2.
 NSaved= 2 IEnMin= 2 EnMin= -56.4547301618482     IErMin= 2 ErrMin= 2.01D-02
 ErrMax= 2.01D-02  0.00D+00 EMaxC= 1.00D-01 BMatC= 8.23D-03 BMatP= 8.92D-02
 IDIUse=3 WtCom= 7.99D-01 WtEn= 2.01D-01
 Coeff-Com:  0.228D+00 0.772D+00
 Coeff-En:   0.372D+00 0.628D+00
 Coeff:      0.257D+00 0.743D+00
 Gap=     0.250 Goal=   None    Shift=    0.000
 RMSDP=5.02D-03 MaxDP=3.79D-02 DE=-2.10D-02 OVMax= 1.26D-01

 Cycle   3  Pass 0  IDiag  1:
 E= -56.5130997636081     Delta-E=       -0.058369601760 Rises=F Damp=F
 DIIS: error= 3.48D-03 at cycle   3 NSaved=   3.
 NSaved= 3 IEnMin= 3 EnMin= -56.5130997636081     IErMin= 3 ErrMin= 3.48D-03
 ErrMax= 3.48D-03  0.00D+00 EMaxC= 1.00D-01 BMatC= 2.93D-04 BMatP= 8.23D-03
 IDIUse=3 WtCom= 9.65D-01 WtEn= 3.48D-02
 Coeff-Com:  0.668D-01 0.684D-01 0.865D+00
 Coeff-En:   0.000D+00 0.000D+00 0.100D+01
 Coeff:      0.645D-01 0.660D-01 0.869D+00
 Gap=     0.265 Goal=   None    Shift=    0.000
 RMSDP=5.94D-04 MaxDP=4.38D-03 DE=-5.84D-02 OVMax= 4.60D-03

 Cycle   4  Pass 0  IDiag  1:
 E= -56.5133443466524     Delta-E=       -0.000244583044 Rises=F Damp=F
 DIIS: error= 4.15D-04 at cycle   4 NSaved=   4.
 NSaved= 4 IEnMin= 4 EnMin= -56.5133443466524     IErMin= 4 ErrMin= 4.15D-04
 ErrMax= 4.15D-04  0.00D+00 EMaxC= 1.00D-01 BMatC= 2.56D-06 BMatP= 2.93D-04
 IDIUse=3 WtCom= 9.96D-01 WtEn= 4.15D-03
 Coeff-Com:  0.555D-02-0.152D-01 0.197D+00 0.813D+00
 Coeff-En:   0.000D+00 0.000D+00 0.000D+00 0.100D+01
 Coeff:      0.553D-02-0.152D-01 0.196D+00 0.814D+00
 Gap=     0.264 Goal=   None    Shift=    0.000
 RMSDP=7.26D-05 MaxDP=4.83D-04 DE=-2.45D-04 OVMax= 5.13D-04

 Cycle   5  Pass 0  IDiag  1:
 E= -56.5133465220947     Delta-E=       -0.000002175442 Rises=F Damp=F
 DIIS: error= 5.27D-05 at cycle   5 NSaved=   5.
 NSaved= 5 IEnMin= 5 EnMin= -56.5133465220947     IErMin= 5 ErrMin= 5.27D-05
 ErrMax= 5.27D-05  0.00D+00 EMaxC= 1.00D-01 BMatC= 4.44D-08 BMatP= 2.56D-06
 IDIUse=1 WtCom= 1.00D+00 WtEn= 0.00D+00
 Coeff-Com:  0.113D-02-0.113D-02 0.157D-01 0.488D-01 0.936D+00
 Coeff:      0.113D-02-0.113D-02 0.157D-01 0.488D-01 0.936D+00
 Gap=     0.264 Goal=   None    Shift=    0.000
 RMSDP=8.70D-06 MaxDP=4.96D-05 DE=-2.18D-06 OVMax= 6.10D-05

 Initial convergence to 1.0D-05 achieved.  Increase integral accuracy.
 Cycle   6  Pass 1  IDiag  1:
 E= -56.5133459193203     Delta-E=        0.000000602774 Rises=F Damp=F
 DIIS: error= 3.24D-06 at cycle   1 NSaved=   1.
 NSaved= 1 IEnMin= 1 EnMin= -56.5133459193203     IErMin= 1 ErrMin= 3.24D-06
 ErrMax= 3.24D-06  0.00D+00 EMaxC= 1.00D-01 BMatC= 1.63D-10 BMatP= 1.63D-10
 IDIUse=1 WtCom= 1.00D+00 WtEn= 0.00D+00
 Coeff-Com:  0.100D+01
 Coeff:      0.100D+01
 Gap=     0.264 Goal=   None    Shift=    0.000
 RMSDP=8.70D-06 MaxDP=4.96D-05 DE= 6.03D-07 OVMax= 8.41D-06

 Cycle   7  Pass 1  IDiag  1:
 E= -56.5133459191346     Delta-E=        0.000000000186 Rises=F Damp=F
 DIIS: error= 4.64D-06 at cycle   2 NSaved=   2.
 NSaved= 2 IEnMin= 1 EnMin= -56.5133459193203     IErMin= 1 ErrMin= 3.24D-06
 ErrMax= 4.64D-06  0.00D+00 EMaxC= 1.00D-01 BMatC= 3.70D-10 BMatP= 1.63D-10
 IDIUse=1 WtCom= 1.00D+00 WtEn= 0.00D+00
 Coeff-Com:  0.603D+00 0.397D+00
 Coeff:      0.603D+00 0.397D+00
 Gap=     0.264 Goal=   None    Shift=    0.000
 RMSDP=7.35D-07 MaxDP=5.37D-06 DE= 1.86D-10 OVMax= 5.27D-06

 Cycle   8  Pass 1  IDiag  1:
 E= -56.5133459194551     Delta-E=       -0.000000000321 Rises=F Damp=F
 DIIS: error= 1.75D-07 at cycle   3 NSaved=   3.
 NSaved= 3 IEnMin= 3 EnMin= -56.5133459194551     IErMin= 3 ErrMin= 1.75D-07
 ErrMax= 1.75D-07  0.00D+00 EMaxC= 1.00D-01 BMatC= 7.38D-13 BMatP= 1.63D-10
 IDIUse=1 WtCom= 1.00D+00 WtEn= 0.00D+00
 Coeff-Com:  0.649D-01 0.729D-01 0.862D+00
 Coeff:      0.649D-01 0.729D-01 0.862D+00
 Gap=     0.264 Goal=   None    Shift=    0.000
 RMSDP=3.45D-08 MaxDP=2.46D-07 DE=-3.21D-10 OVMax= 2.58D-07

 Cycle   9  Pass 1  IDiag  1:
 E= -56.5133459194559     Delta-E=       -0.000000000001 Rises=F Damp=F
 DIIS: error= 3.79D-08 at cycle   4 NSaved=   4.
 NSaved= 4 IEnMin= 4 EnMin= -56.5133459194559     IErMin= 4 ErrMin= 3.79D-08
 ErrMax= 3.79D-08  0.00D+00 EMaxC= 1.00D-01 BMatC= 2.16D-14 BMatP= 7.38D-13
 IDIUse=1 WtCom= 1.00D+00 WtEn= 0.00D+00
 Coeff-Com: -0.808D-05 0.899D-02 0.222D+00 0.769D+00
 Coeff:     -0.808D-05 0.899D-02 0.222D+00 0.769D+00
 Gap=     0.264 Goal=   None    Shift=    0.000
 RMSDP=7.04D-09 MaxDP=5.32D-08 DE=-8.24D-13 OVMax= 5.31D-08

 SCF Done:  E(RB97D3) =  -56.5133459195     A.U. after    9 cycles
            NFock=  9  Conv=0.70D-08     -V/T= 2.0042
 KE= 5.627734843695D+01 PE=-1.560506524470D+02 EE= 3.129033432487D+01
 Leave Link  502 at Wed Oct  7 14:03:52 2020, MaxMem=  2684354560 cpu:              11.3 elap:               1.5
 (Enter /udrive/faculty/rpeverati/g16/g16/l508.exe)
 QCSCF skips out because SCF is already converged.
 Leave Link  508 at Wed Oct  7 14:03:54 2020, MaxMem=  2684354560 cpu:               0.6 elap:               0.9
 (Enter /udrive/faculty/rpeverati/g16/g16/l601.exe)
 Copying SCF densities to generalized density rwf, IOpCl= 0 IROHF=0.

 **********************************************************************

            Population analysis using the SCF density.

 **********************************************************************

 Orbital symmetries:
       Occupied  (A1) (A1) (E) (E) (A1)
       Virtual   (A1) (E) (E) (E) (E) (A1) (A1) (E) (E) (A1) (E)
                 (E) (A1) (E) (E)
 The electronic state is 1-A1.
 Alpha  occ. eigenvalues --  -13.96860  -0.77047  -0.40546  -0.40546  -0.19815
 Alpha virt. eigenvalues --    0.06633   0.14950   0.14950   0.64835   0.64835
 Alpha virt. eigenvalues --    0.68116   0.87072   0.87162   0.87162   1.17935
 Alpha virt. eigenvalues --    1.60138   1.60138   1.89199   2.33056   2.33056
          Condensed to atoms (all electrons):
               1          2          3          4
     1  N    6.936790   0.321253   0.321253   0.321253
     2  H    0.321253   0.440609  -0.031022  -0.031022
     3  H    0.321253  -0.031022   0.440609  -0.031022
     4  H    0.321253  -0.031022  -0.031022   0.440609
 Mulliken charges:
               1
     1  N   -0.900548
     2  H    0.300183
     3  H    0.300183
     4  H    0.300183
 Sum of Mulliken charges =   0.00000
 Mulliken charges with hydrogens summed into heavy atoms:
               1
     1  N    0.000000
 Electronic spatial extent (au):  <R**2>=             26.0175
 Charge=              0.0000 electrons
 Dipole moment (field-independent basis, Debye):
    X=             -0.0000    Y=             -0.0000    Z=             -1.8269  Tot=              1.8269
 Quadrupole moment (field-independent basis, Debye-Ang):
   XX=             -6.0562   YY=             -6.0562   ZZ=             -8.7748
   XY=             -0.0000   XZ=              0.0000   YZ=              0.0000
 Traceless Quadrupole moment (field-independent basis, Debye-Ang):
   XX=              0.9062   YY=              0.9062   ZZ=             -1.8124
   XY=             -0.0000   XZ=              0.0000   YZ=              0.0000
 Octapole moment (field-independent basis, Debye-Ang**2):
  XXX=             -0.0000  YYY=              0.7938  ZZZ=             -1.6597  XYY=              0.0000
  XXY=             -0.7938  XXZ=             -0.8554  XZZ=              0.0000  YZZ=              0.0000
  YYZ=             -0.8554  XYZ=              0.0000
 Hexadecapole moment (field-independent basis, Debye-Ang**3):
 XXXX=             -9.3223 YYYY=             -9.3223 ZZZZ=             -9.5919 XXXY=              0.0000
 XXXZ=              0.0000 YYYX=             -0.0000 YYYZ=             -0.2878 ZZZX=             -0.0000
 ZZZY=             -0.0000 XXYY=             -3.1074 XXZZ=             -3.2079 YYZZ=             -3.2079
 XXYZ=              0.2878 YYXZ=             -0.0000 ZZXY=              0.0000
 N-N= 1.196962376575D+01 E-N=-1.560506526000D+02  KE= 5.627734843695D+01
 No NMR shielding tensors so no spin-rotation constants.
 Leave Link  601 at Wed Oct  7 14:03:56 2020, MaxMem=  2684354560 cpu:               4.4 elap:               1.2
 (Enter /udrive/faculty/rpeverati/g16/g16/l701.exe)
 ... and contract with generalized density number  0.
 Compute integral first derivatives.
 R6Disp: Adding Grimme-D3(BJ) dispersion energy 1st derivatives to the gradient.
 Leave Link  701 at Wed Oct  7 14:03:57 2020, MaxMem=  2684354560 cpu:               3.0 elap:               0.8
 (Enter /udrive/faculty/rpeverati/g16/g16/l702.exe)
 L702 exits ... SP integral derivatives will be done elsewhere.
 Leave Link  702 at Wed Oct  7 14:03:58 2020, MaxMem=  2684354560 cpu:               0.7 elap:               0.5
 (Enter /udrive/faculty/rpeverati/g16/g16/l703.exe)
 Integral derivatives from FoFJK, PRISM(SPDF).
 Compute integral first derivatives, UseDBF=F ICtDFT=           0.
 Calling FoFJK, ICntrl=      2527 FMM=F ISym2X=1 I1Cent= 0 IOpClX= 0 NMat=1 NMatS=1 NMatT=0.
 FoFJK:  IHMeth= 1 ICntrl=    2527 DoSepK=F KAlg= 0 I1Cent=           0 FoldK=F
 IRaf=         0 NMat=       1 IRICut=       1 DoRegI=T DoRafI=F ISym2E= 1 IDoP0=0 IntGTp=1.
 FoFCou: FMM=F IPFlag=           0 FMFlag=      100000 FMFlg1=         800
         NFxFlg=           0 DoJE=F BraDBF=F KetDBF=F FulRan=T
         wScrn=  0.000000 ICntrl=      2527 IOpCl=  0 I1Cent=           0 NGrid=           0
         NMat0=    1 NMatS0=      1 NMatT0=    0 NMatD0=    1 NMtDS0=    0 NMtDT0=    0
 Petite list used in FoFCou.
 Leave Link  703 at Wed Oct  7 14:03:59 2020, MaxMem=  2684354560 cpu:               4.2 elap:               0.7
 (Enter /udrive/faculty/rpeverati/g16/g16/l716.exe)
 Dipole        =-2.22044605D-16-2.22044605D-16-7.18742638D-01
 ***** Axes restored to original set *****
 -------------------------------------------------------------------
 Center     Atomic                   Forces (Hartrees/Bohr)
 Number     Number              X              Y              Z
 -------------------------------------------------------------------
      1        7          -0.000000000    0.000000000    0.013532605
      2        1           0.003774616    0.006537827   -0.004510868
      3        1           0.003774616   -0.006537827   -0.004510868
      4        1          -0.007549232   -0.000000000   -0.004510868
 -------------------------------------------------------------------
 Cartesian Forces:  Max     0.013532605 RMS     0.005881808
 Leave Link  716 at Wed Oct  7 14:04:00 2020, MaxMem=  2684354560 cpu:               1.2 elap:               0.5
 (Enter /udrive/faculty/rpeverati/g16/g16/l103.exe)

 GradGradGradGradGradGradGradGradGradGradGradGradGradGradGradGradGradGrad
 Berny optimization.
 Optmz: redundant internal coordinate code flag= 1
 FormGI is forming the generalized inverse of G from B-inverse, IUseBI=4.
 Internal  Forces:  Max     0.008685966 RMS     0.005789698
 Search for a local minimum.
 Step number   1 out of a maximum of  100
 All quantities printed in internal units (Hartrees-Bohrs-Radians)
 RMS Force = .57897D-02 SwitMx=.10000D-02 MixMth= 1
 Mixed Optimization -- RFO/linear search
 Second derivative matrix not updated -- first step.
 The second derivative matrix:
                          R1        R2        R3        A1        A2
           R1           0.45857
           R2           0.00000   0.45857
           R3           0.00000   0.00000   0.45857
           A1           0.00000   0.00000   0.00000   0.16000
           A2           0.00000   0.00000   0.00000   0.00000   0.16000
           A3           0.00000   0.00000   0.00000   0.00000   0.00000
           D1           0.00000   0.00000   0.00000   0.00000   0.00000
                          A3        D1
           A3           0.16000
           D1           0.00000   0.00887
 ITU=  0
 Eigenvectors of the second derivative matrix:
                           1         2         3         4         5
     Eigenvalues --     0.06351   0.16000   0.16000   0.45857   0.45857
   1         R1        -0.00000  -0.00000  -0.00000   0.85326   0.51458
   2         R2        -0.00000  -0.00000  -0.00000   0.50842  -0.85695
   3         R3        -0.00000   0.00000  -0.00000  -0.11598   0.02916
   4         A1        -0.51935   0.19748  -0.46364  -0.00000   0.00000
   5         A2        -0.21426   0.41121   0.83900   0.00000  -0.00000
   6         A3        -0.21426  -0.88989   0.28481  -0.00000  -0.00000
   7         D1        -0.79904  -0.00000   0.00000  -0.00000   0.00000
                           6
     Eigenvalues --     0.45857
   1         R1         0.08457
   2         R2         0.08457
   3         R3         0.99282
   4         A1        -0.00000
   5         A2        -0.00000
   6         A3        -0.00000
   7         D1        -0.00000
 Iter=   1 RLamda= 0.00000000D+00 Sum=-5.95623819D-04.
 Iter=   2 RLamda=-5.95623819D-04 Sum=-5.94140925D-04.
 Iter=   3 RLamda=-5.94140925D-04 Sum=-5.94144597D-04.
 RFO step:  Lambda=-5.94140925D-04 EMin= 6.35086103D-02
 Linear search not attempted -- first point.
 Iteration  1 RMS(Cart)=  0.01121266 RMS(Int)=  0.00026047
 Iteration  2 RMS(Cart)=  0.00017998 RMS(Int)=  0.00015622
 Iteration  3 RMS(Cart)=  0.00000005 RMS(Int)=  0.00015622
 ITry= 1 IFail=0 DXMaxC= 2.25D-02 DCOld= 1.00D+10 DXMaxT= 3.00D-01 DXLimC= 3.00D+00 Rises=F
 ClnCor:  largest displacement from symmetrization is 5.09D-04 for atom     4.
 Variable       Old X    -DE/DX   Delta X   Delta X   Delta X     New X
                                 (Linear)    (Quad)   (Total)
    R1        1.90993   0.00869   0.00000   0.01892   0.01905   1.92898
    R2        1.90993   0.00869   0.00000   0.01892   0.01905   1.92898
    R3        1.90993   0.00869   0.00000   0.01892   0.01905   1.92898
    A1        1.86718  -0.00032   0.00000  -0.01316  -0.01403   1.85315
    A2        1.86718  -0.00155   0.00000  -0.01430  -0.01403   1.85315
    A3        1.86718  -0.00155   0.00000  -0.01430  -0.01403   1.85315
    D1        1.99606  -0.00184   0.00000  -0.02864  -0.02872   1.96734
         Item               Value     Threshold  Converged?
 Maximum Force            0.008686     0.000450     NO 
 RMS     Force            0.005790     0.000300     NO 
 Maximum Displacement     0.022492     0.001800     NO 
 RMS     Displacement     0.011223     0.001200     NO 
 Predicted change in Energy=-2.966828D-04
 Lowest energy point so far.  Saving SCF results.
 Largest change from initial coordinates is atom    1       0.006 Angstoms.
 GradGradGradGradGradGradGradGradGradGradGradGradGradGradGradGradGradGrad

 Leave Link  103 at Wed Oct  7 14:04:01 2020, MaxMem=  2684354560 cpu:               4.1 elap:               1.0
 (Enter /udrive/faculty/rpeverati/g16/g16/l202.exe)
                          Input orientation:                          
 ---------------------------------------------------------------------
 Center     Atomic      Atomic             Coordinates (Angstroms)
 Number     Number       Type             X           Y           Z
 ---------------------------------------------------------------------
      1          7           0       -0.000000    0.000000    0.294129
      2          1           0        0.471220    0.816177   -0.098022
      3          1           0        0.471220   -0.816177   -0.098022
      4          1           0       -0.942440    0.000000   -0.098022
 ---------------------------------------------------------------------
                    Distance matrix (angstroms):
                    1          2          3          4
     1  N    0.000000
     2  H    1.020772   0.000000
     3  H    1.020772   1.632354   0.000000
     4  H    1.020772   1.632354   1.632354   0.000000
 Stoichiometry    H3N
 Framework group  C3V[C3(N),3SGV(H)]
 Deg. of freedom     2
 Full point group                 C3V     NOp   6
 RotChk:  IX=0 Diff= 1.57D-16
 Largest Abelian subgroup         CS      NOp   2
 Largest concise Abelian subgroup CS      NOp   2
                         Standard orientation:                         
 ---------------------------------------------------------------------
 Center     Atomic      Atomic             Coordinates (Angstroms)
 Number     Number       Type             X           Y           Z
 ---------------------------------------------------------------------
      1          7           0        0.000000    0.000000    0.117645
      2          1           0        0.000000    0.942440   -0.274506
      3          1           0        0.816177   -0.471220   -0.274506
      4          1           0       -0.816177   -0.471220   -0.274506
 ---------------------------------------------------------------------
 Rotational constants (GHZ):         292.9548731         292.9548731         188.1928438
 Leave Link  202 at Wed Oct  7 14:04:03 2020, MaxMem=  2684354560 cpu:               1.7 elap:               0.8
 (Enter /udrive/faculty/rpeverati/g16/g16/l301.exe)
 Standard basis: 6-31G(d) (5D, 7F)
 Ernie: Thresh=  0.10000D-02 Tol=  0.10000D-05 Strict=F.
 There are    15 symmetry adapted cartesian basis functions of A'  symmetry.
 There are     6 symmetry adapted cartesian basis functions of A"  symmetry.
 There are    14 symmetry adapted basis functions of A'  symmetry.
 There are     6 symmetry adapted basis functions of A"  symmetry.
    20 basis functions,    40 primitive gaussians,    21 cartesian basis functions
     5 alpha electrons        5 beta electrons
       nuclear repulsion energy        11.8591227751 Hartrees.
 IExCor= 3630 DFT=T Ex+Corr=B97D3 ExCW=0 ScaHFX=  0.000000
 ScaDFX=  1.000000  1.000000  1.000000  1.000000 ScalE2=  1.000000  1.000000
 IRadAn=      5 IRanWt=     -1 IRanGd=            0 ICorTp=0 IEmpDi=141
 NAtoms=    4 NActive=    4 NUniq=    2 SFac= 4.00D+00 NAtFMM=   60 NAOKFM=F Big=F
 Integral buffers will be    131072 words long.
 Raffenetti 2 integral format.
 Two-electron integral symmetry is turned on.
 R6Disp:  Grimme-D3(BJ) Dispersion energy=       -0.0026836886 Hartrees.
 Nuclear repulsion after empirical dispersion term =       11.8564390865 Hartrees.
 Leave Link  301 at Wed Oct  7 14:04:04 2020, MaxMem=  2684354560 cpu:               1.7 elap:               0.7
 (Enter /udrive/faculty/rpeverati/g16/g16/l302.exe)
 NPDir=0 NMtPBC=     1 NCelOv=     1 NCel=       1 NClECP=     1 NCelD=      1
         NCelK=      1 NCelE2=     1 NClLst=     1 CellRange=     0.0.
 One-electron integrals computed using PRISM.
 One-electron integral symmetry used in STVInt
 NBasis=    20 RedAO= T EigKep=  3.95D-02  NBF=    14     6
 NBsUse=    20 1.00D-06 EigRej= -1.00D+00 NBFU=    14     6
 Precomputing XC quadrature grid using
 IXCGrd= 4 IRadAn=           5 IRanWt=          -1 IRanGd=           0 AccXCQ= 0.00D+00.
 Generated NRdTot=       0 NPtTot=           0 NUsed=           0 NTot=          32
 NSgBfM=    21    21    21    21    21 MxSgAt=     4 MxSgA2=     4.
 Leave Link  302 at Wed Oct  7 14:04:05 2020, MaxMem=  2684354560 cpu:               3.7 elap:               0.7
 (Enter /udrive/faculty/rpeverati/g16/g16/l303.exe)
 DipDrv:  MaxL=1.
 Leave Link  303 at Wed Oct  7 14:04:05 2020, MaxMem=  2684354560 cpu:               1.0 elap:               0.5
 (Enter /udrive/faculty/rpeverati/g16/g16/l401.exe)
 Initial guess from the checkpoint file:  "MN_71_NH3_BH76_B97DBJ_631Gs.chk"
 SCF N**3 symmetry information disabled.
 B after Tr=     0.000000    0.000000   -0.000000
         Rot=    1.000000    0.000000    0.000000   -0.000000 Ang=   0.00 deg.
 Guess basis will be translated and rotated to current coordinates.
 JPrj=2 DoOrth=T DoCkMO=T.
 Initial guess orbital symmetries:
       Occupied  (A1) (A1) (E) (E) (A1)
       Virtual   (A1) (E) (E) (E) (E) (A1) (A1) (E) (E) (A1) (E)
                 (E) (A1) (E) (E)
 The electronic state of the initial guess is 1-A1.
 Generating alternative initial guess.
 ExpMin= 1.61D-01 ExpMax= 4.17D+03 ExpMxC= 6.27D+02 IAcc=2 IRadAn=         4 AccDes= 0.00D+00
 Harris functional with IExCor= 3630 and IRadAn=       4 diagonalized for initial guess.
 HarFok:  IExCor= 3630 AccDes= 0.00D+00 IRadAn=         4 IDoV= 1 UseB2=F ITyADJ=14
 ICtDFT=  3500011 ScaDFX=  1.000000  1.000000  1.000000  1.000000
 FoFCou: FMM=F IPFlag=           0 FMFlag=      100000 FMFlg1=           0
         NFxFlg=           0 DoJE=T BraDBF=F KetDBF=T FulRan=T
         wScrn=  0.000000 ICntrl=       500 IOpCl=  0 I1Cent=   200000004 NGrid=           0
         NMat0=    1 NMatS0=      1 NMatT0=    0 NMatD0=    1 NMtDS0=    0 NMtDT0=    0
 Petite list used in FoFCou.
 Harris En= -56.5592323827769    
 Leave Link  401 at Wed Oct  7 14:04:06 2020, MaxMem=  2684354560 cpu:               3.9 elap:               0.7
 (Enter /udrive/faculty/rpeverati/g16/g16/l502.exe)
 Keep J ints in memory in symmetry-blocked form, NReq=10364782.
 FoFCou: FMM=F IPFlag=           0 FMFlag=           0 FMFlg1=           0
         NFxFlg=           0 DoJE=F BraDBF=F KetDBF=F FulRan=T
         wScrn=  0.000000 ICntrl=       600 IOpCl=  0 I1Cent=           0 NGrid=           0
         NMat0=    1 NMatS0=    210 NMatT0=    0 NMatD0=    1 NMtDS0=    0 NMtDT0=    0
 Petite list used in FoFCou.
 Closed shell SCF:
 Using DIIS extrapolation, IDIIS=  1040.
 NGot=  2684354560 LenX=  2684340664 LenY=  2684339782
 Requested convergence on RMS density matrix=1.00D-08 within 120 cycles.
 Requested convergence on MAX density matrix=1.00D-06.
 Requested convergence on             energy=1.00D-06.
 No special actions if energy rises.
 Integral accuracy reduced to 1.0D-05 until final iterations.

 Cycle   1  Pass 0  IDiag  1:
 E= -56.5135815405716    
 DIIS: error= 1.93D-03 at cycle   1 NSaved=   1.
 NSaved= 1 IEnMin= 1 EnMin= -56.5135815405716     IErMin= 1 ErrMin= 1.93D-03
 ErrMax= 1.93D-03  0.00D+00 EMaxC= 1.00D-01 BMatC= 8.42D-05 BMatP= 8.42D-05
 IDIUse=3 WtCom= 9.81D-01 WtEn= 1.93D-02
 Coeff-Com:  0.100D+01
 Coeff-En:   0.100D+01
 Coeff:      0.100D+01
 Gap=     0.261 Goal=   None    Shift=    0.000
 GapD=    0.261 DampG=1.000 DampE=1.000 DampFc=1.0000 IDamp=-1.
 RMSDP=1.34D-03 MaxDP=1.11D-02              OVMax= 9.84D-03

 Cycle   2  Pass 0  IDiag  1:
 E= -56.5136222352721     Delta-E=       -0.000040694700 Rises=F Damp=F
 DIIS: error= 2.51D-03 at cycle   2 NSaved=   2.
 NSaved= 2 IEnMin= 2 EnMin= -56.5136222352721     IErMin= 1 ErrMin= 1.93D-03
 ErrMax= 2.51D-03  0.00D+00 EMaxC= 1.00D-01 BMatC= 1.06D-04 BMatP= 8.42D-05
 IDIUse=3 WtCom= 1.66D-01 WtEn= 8.34D-01
 Coeff-Com:  0.537D+00 0.463D+00
 Coeff-En:   0.367D+00 0.633D+00
 Coeff:      0.395D+00 0.605D+00
 Gap=     0.265 Goal=   None    Shift=    0.000
 RMSDP=6.24D-04 MaxDP=4.44D-03 DE=-4.07D-05 OVMax= 4.40D-03

 Cycle   3  Pass 0  IDiag  1:
 E= -56.5136828345222     Delta-E=       -0.000060599250 Rises=F Damp=F
 DIIS: error= 1.48D-03 at cycle   3 NSaved=   3.
 NSaved= 3 IEnMin= 3 EnMin= -56.5136828345222     IErMin= 3 ErrMin= 1.48D-03
 ErrMax= 1.48D-03  0.00D+00 EMaxC= 1.00D-01 BMatC= 3.83D-05 BMatP= 8.42D-05
 IDIUse=3 WtCom= 9.85D-01 WtEn= 1.48D-02
 Coeff-Com:  0.682D-02 0.374D+00 0.619D+00
 Coeff-En:   0.000D+00 0.294D+00 0.706D+00
 Coeff:      0.672D-02 0.373D+00 0.620D+00
 Gap=     0.263 Goal=   None    Shift=    0.000
 RMSDP=2.23D-04 MaxDP=1.63D-03 DE=-6.06D-05 OVMax= 1.67D-03

 Cycle   4  Pass 0  IDiag  1:
 E= -56.5137159588865     Delta-E=       -0.000033124364 Rises=F Damp=F
 DIIS: error= 4.75D-05 at cycle   4 NSaved=   4.
 NSaved= 4 IEnMin= 4 EnMin= -56.5137159588865     IErMin= 4 ErrMin= 4.75D-05
 ErrMax= 4.75D-05  0.00D+00 EMaxC= 1.00D-01 BMatC= 3.67D-08 BMatP= 3.83D-05
 IDIUse=1 WtCom= 1.00D+00 WtEn= 0.00D+00
 Coeff-Com:  0.166D-02 0.106D+00 0.177D+00 0.716D+00
 Coeff:      0.166D-02 0.106D+00 0.177D+00 0.716D+00
 Gap=     0.263 Goal=   None    Shift=    0.000
 RMSDP=8.62D-06 MaxDP=6.24D-05 DE=-3.31D-05 OVMax= 6.60D-05

 Initial convergence to 1.0D-05 achieved.  Increase integral accuracy.
 Cycle   5  Pass 1  IDiag  1:
 E= -56.5137163818572     Delta-E=       -0.000000422971 Rises=F Damp=F
 DIIS: error= 2.41D-06 at cycle   1 NSaved=   1.
 NSaved= 1 IEnMin= 1 EnMin= -56.5137163818572     IErMin= 1 ErrMin= 2.41D-06
 ErrMax= 2.41D-06  0.00D+00 EMaxC= 1.00D-01 BMatC= 1.65D-10 BMatP= 1.65D-10
 IDIUse=1 WtCom= 1.00D+00 WtEn= 0.00D+00
 Coeff-Com:  0.100D+01
 Coeff:      0.100D+01
 Gap=     0.263 Goal=   None    Shift=    0.000
 RMSDP=8.62D-06 MaxDP=6.24D-05 DE=-4.23D-07 OVMax= 7.84D-06

 Cycle   6  Pass 1  IDiag  1:
 E= -56.5137163818033     Delta-E=        0.000000000054 Rises=F Damp=F
 DIIS: error= 3.49D-06 at cycle   2 NSaved=   2.
 NSaved= 2 IEnMin= 1 EnMin= -56.5137163818572     IErMin= 1 ErrMin= 2.41D-06
 ErrMax= 3.49D-06  0.00D+00 EMaxC= 1.00D-01 BMatC= 2.43D-10 BMatP= 1.65D-10
 IDIUse=1 WtCom= 1.00D+00 WtEn= 0.00D+00
 Coeff-Com:  0.553D+00 0.447D+00
 Coeff:      0.553D+00 0.447D+00
 Gap=     0.263 Goal=   None    Shift=    0.000
 RMSDP=6.42D-07 MaxDP=4.62D-06 DE= 5.39D-11 OVMax= 4.99D-06

 Cycle   7  Pass 1  IDiag  1:
 E= -56.5137163820079     Delta-E=       -0.000000000205 Rises=F Damp=F
 DIIS: error= 6.93D-07 at cycle   3 NSaved=   3.
 NSaved= 3 IEnMin= 3 EnMin= -56.5137163820079     IErMin= 3 ErrMin= 6.93D-07
 ErrMax= 6.93D-07  0.00D+00 EMaxC= 1.00D-01 BMatC= 9.47D-12 BMatP= 1.65D-10
 IDIUse=1 WtCom= 1.00D+00 WtEn= 0.00D+00
 Coeff-Com:  0.165D+00 0.203D+00 0.632D+00
 Coeff:      0.165D+00 0.203D+00 0.632D+00
 Gap=     0.263 Goal=   None    Shift=    0.000
 RMSDP=1.44D-07 MaxDP=8.66D-07 DE=-2.05D-10 OVMax= 1.07D-06

 Cycle   8  Pass 1  IDiag  1:
 E= -56.5137163820159     Delta-E=       -0.000000000008 Rises=F Damp=F
 DIIS: error= 7.25D-08 at cycle   4 NSaved=   4.
 NSaved= 4 IEnMin= 4 EnMin= -56.5137163820159     IErMin= 4 ErrMin= 7.25D-08
 ErrMax= 7.25D-08  0.00D+00 EMaxC= 1.00D-01 BMatC= 8.99D-14 BMatP= 9.47D-12
 IDIUse=1 WtCom= 1.00D+00 WtEn= 0.00D+00
 Coeff-Com:  0.631D-02 0.503D-02 0.980D-01 0.891D+00
 Coeff:      0.631D-02 0.503D-02 0.980D-01 0.891D+00
 Gap=     0.263 Goal=   None    Shift=    0.000
 RMSDP=1.29D-08 MaxDP=7.85D-08 DE=-7.97D-12 OVMax= 8.77D-08

 Cycle   9  Pass 1  IDiag  1:
 E= -56.5137163820161     Delta-E=       -0.000000000000 Rises=F Damp=F
 DIIS: error= 8.66D-10 at cycle   5 NSaved=   5.
 NSaved= 5 IEnMin= 5 EnMin= -56.5137163820161     IErMin= 5 ErrMin= 8.66D-10
 ErrMax= 8.66D-10  0.00D+00 EMaxC= 1.00D-01 BMatC= 1.86D-17 BMatP= 8.99D-14
 IDIUse=1 WtCom= 1.00D+00 WtEn= 0.00D+00
 Coeff-Com:  0.864D-04-0.252D-03 0.605D-02 0.709D-01 0.923D+00
 Coeff:      0.864D-04-0.252D-03 0.605D-02 0.709D-01 0.923D+00
 Gap=     0.263 Goal=   None    Shift=    0.000
 RMSDP=2.31D-10 MaxDP=1.22D-09 DE=-2.13D-13 OVMax= 1.69D-09

 SCF Done:  E(RB97D3) =  -56.5137163820     A.U. after    9 cycles
            NFock=  9  Conv=0.23D-09     -V/T= 2.0049
 KE= 5.623546898927D+01 PE=-1.557960577255D+02 EE= 3.119043326774D+01
 Leave Link  502 at Wed Oct  7 14:04:08 2020, MaxMem=  2684354560 cpu:              11.2 elap:               1.5
 (Enter /udrive/faculty/rpeverati/g16/g16/l508.exe)
 QCSCF skips out because SCF is already converged.
 Leave Link  508 at Wed Oct  7 14:04:09 2020, MaxMem=  2684354560 cpu:               0.6 elap:               0.6
 (Enter /udrive/faculty/rpeverati/g16/g16/l701.exe)
 ... and contract with generalized density number  0.
 Compute integral first derivatives.
 R6Disp: Adding Grimme-D3(BJ) dispersion energy 1st derivatives to the gradient.
 Leave Link  701 at Wed Oct  7 14:04:11 2020, MaxMem=  2684354560 cpu:               5.5 elap:               1.3
 (Enter /udrive/faculty/rpeverati/g16/g16/l702.exe)
 L702 exits ... SP integral derivatives will be done elsewhere.
 Leave Link  702 at Wed Oct  7 14:04:12 2020, MaxMem=  2684354560 cpu:               1.3 elap:               1.3
 (Enter /udrive/faculty/rpeverati/g16/g16/l703.exe)
 Integral derivatives from FoFJK, PRISM(SPDF).
 Compute integral first derivatives, UseDBF=F ICtDFT=           0.
 Calling FoFJK, ICntrl=      2527 FMM=F ISym2X=1 I1Cent= 0 IOpClX= 0 NMat=1 NMatS=1 NMatT=0.
 FoFJK:  IHMeth= 1 ICntrl=    2527 DoSepK=F KAlg= 0 I1Cent=           0 FoldK=F
 IRaf=         0 NMat=       1 IRICut=       1 DoRegI=T DoRafI=F ISym2E= 1 IDoP0=0 IntGTp=1.
 FoFCou: FMM=F IPFlag=           0 FMFlag=      100000 FMFlg1=         800
         NFxFlg=           0 DoJE=F BraDBF=F KetDBF=F FulRan=T
         wScrn=  0.000000 ICntrl=      2527 IOpCl=  0 I1Cent=           0 NGrid=           0
         NMat0=    1 NMatS0=      1 NMatT0=    0 NMatD0=    1 NMtDS0=    0 NMtDT0=    0
 Petite list used in FoFCou.
 Leave Link  703 at Wed Oct  7 14:04:14 2020, MaxMem=  2684354560 cpu:               4.2 elap:               1.1
 (Enter /udrive/faculty/rpeverati/g16/g16/l716.exe)
 Dipole        = 2.22044605D-16 4.44089210D-16-7.33975634D-01
 ***** Axes restored to original set *****
 -------------------------------------------------------------------
 Center     Atomic                   Forces (Hartrees/Bohr)
 Number     Number              X              Y              Z
 -------------------------------------------------------------------
      1        7          -0.000000000   -0.000000000    0.004367848
      2        1           0.000348732    0.000604022   -0.001455949
      3        1           0.000348732   -0.000604022   -0.001455949
      4        1          -0.000697465    0.000000000   -0.001455949
 -------------------------------------------------------------------
 Cartesian Forces:  Max     0.004367848 RMS     0.001497132
 Leave Link  716 at Wed Oct  7 14:04:15 2020, MaxMem=  2684354560 cpu:               1.2 elap:               0.9
 (Enter /udrive/faculty/rpeverati/g16/g16/l103.exe)

 GradGradGradGradGradGradGradGradGradGradGradGradGradGradGradGradGradGrad
 Berny optimization.
 Optmz: redundant internal coordinate code flag= 1
 Using GEDIIS/GDIIS optimizer.
 Red2BG:  D1=  7.27D-01 OD1=  5.33D-02 B2RMS=  0.00D+00 IAprox=0
 FormGI is forming the generalized inverse of G from B-inverse, IUseBI=4.
 Internal  Forces:  Max     0.001412435 RMS     0.001169984
 Search for a local minimum.
 Step number   2 out of a maximum of  100
 All quantities printed in internal units (Hartrees-Bohrs-Radians)
 RMS Force = .11700D-02 SwitMx=.10000D-02 MixMth= 1
 Mixed Optimization -- RFO/linear search
 Update second derivatives using D2CorX and points    1    2
 DE= -3.70D-04 DEPred=-2.97D-04 R= 1.25D+00
 TightC=F SS=  1.41D+00  RLast= 5.00D-02 DXNew= 5.0454D-01 1.5013D-01
 Trust test= 1.25D+00 RLast= 5.00D-02 DXMaxT set to 3.00D-01
 The second derivative matrix:
                          R1        R2        R3        A1        A2
           R1           0.45637
           R2          -0.00221   0.45637
           R3          -0.00221  -0.00221   0.45637
           A1           0.03200   0.03200   0.03200   0.15162
           A2           0.02767   0.02767   0.02767  -0.00835   0.15182
           A3           0.02767   0.02767   0.02767  -0.00835  -0.00818
           D1          -0.00336  -0.00336  -0.00336  -0.00092  -0.00067
                          A3        D1
           A3           0.15182
           D1          -0.00067   0.00916
 ITU=  1  0
 Use linear search instead of GDIIS.
 Eigenvectors of the second derivative matrix:
                           1         2         3         4         5
     Eigenvalues --     0.05109   0.15302   0.16000   0.45857   0.45857
   1         R1         0.06894  -0.05344  -0.00000  -0.45961   0.67485
   2         R2         0.06894  -0.05344  -0.00000  -0.35464  -0.73546
   3         R3         0.06894  -0.05344  -0.00000   0.81424   0.06061
   4         A1        -0.48560  -0.53298   0.00000  -0.00000  -0.00000
   5         A2        -0.26594   0.59161   0.70711  -0.00000  -0.00000
   6         A3        -0.26594   0.59161  -0.70711  -0.00000  -0.00000
   7         D1        -0.78005  -0.08577   0.00000  -0.00000  -0.00000
                           6
     Eigenvalues --     0.46042
   1         R1         0.57072
   2         R2         0.57072
   3         R3         0.57072
   4         A1         0.00874
   5         A2         0.08752
   6         A3         0.08752
   7         D1         0.08619
 Iter=   1 RLamda= 0.00000000D+00 Sum=-6.77191308D-05.
 Iter=   2 RLamda=-6.77191308D-05 Sum=-6.76518465D-05.
 Iter=   3 RLamda=-6.76518465D-05 Sum=-6.76519132D-05.
 RFO step:  Lambda=-6.76518465D-05 EMin= 5.10932866D-02
 Quartic linear search produced a step of  0.34631.
 Iteration  1 RMS(Cart)=  0.01036740 RMS(Int)=  0.00032601
 Iteration  2 RMS(Cart)=  0.00018076 RMS(Int)=  0.00026369
 Iteration  3 RMS(Cart)=  0.00000002 RMS(Int)=  0.00026369
 ITry= 1 IFail=0 DXMaxC= 2.20D-02 DCOld= 1.00D+10 DXMaxT= 3.00D-01 DXLimC= 3.00D+00 Rises=F
 ClnCor:  largest displacement from symmetrization is 1.17D-04 for atom     4.
 Variable       Old X    -DE/DX   Delta X   Delta X   Delta X     New X
                                 (Linear)    (Quad)   (Total)
    R1        1.92898   0.00120   0.00660  -0.00082   0.00581   1.93479
    R2        1.92898   0.00120   0.00660  -0.00082   0.00581   1.93479
    R3        1.92898   0.00120   0.00660  -0.00082   0.00581   1.93479
    A1        1.85315  -0.00028  -0.00486  -0.01161  -0.01708   1.83607
    A2        1.85315  -0.00126  -0.00486  -0.01214  -0.01708   1.83607
    A3        1.85315  -0.00126  -0.00486  -0.01214  -0.01708   1.83607
    D1        1.96734  -0.00141  -0.00995  -0.02368  -0.03327   1.93407
         Item               Value     Threshold  Converged?
 Maximum Force            0.001412     0.000450     NO 
 RMS     Force            0.001170     0.000300     NO 
 Maximum Displacement     0.022014     0.001800     NO 
 RMS     Displacement     0.010418     0.001200     NO 
 Predicted change in Energy=-5.394689D-05
 Lowest energy point so far.  Saving SCF results.
 Largest change from initial coordinates is atom    1       0.015 Angstoms.
 GradGradGradGradGradGradGradGradGradGradGradGradGradGradGradGradGradGrad

 Leave Link  103 at Wed Oct  7 14:04:16 2020, MaxMem=  2684354560 cpu:               3.8 elap:               0.8
 (Enter /udrive/faculty/rpeverati/g16/g16/l202.exe)
                          Input orientation:                          
 ---------------------------------------------------------------------
 Center     Atomic      Atomic             Coordinates (Angstroms)
 Number     Number       Type             X           Y           Z
 ---------------------------------------------------------------------
      1          7           0       -0.000000    0.000000    0.305778
      2          1           0        0.469589    0.813352   -0.101900
      3          1           0        0.469589   -0.813352   -0.101900
      4          1           0       -0.939178    0.000000   -0.101900
 ---------------------------------------------------------------------
                    Distance matrix (angstroms):
                    1          2          3          4
     1  N    0.000000
     2  H    1.023844   0.000000
     3  H    1.023844   1.626704   0.000000
     4  H    1.023844   1.626704   1.626704   0.000000
 Stoichiometry    H3N
 Framework group  C3V[C3(N),3SGV(H)]
 Deg. of freedom     2
 Full point group                 C3V     NOp   6
 RotChk:  IX=0 Diff= 1.57D-16
 Largest Abelian subgroup         CS      NOp   2
 Largest concise Abelian subgroup CS      NOp   2
                         Standard orientation:                         
 ---------------------------------------------------------------------
 Center     Atomic      Atomic             Coordinates (Angstroms)
 Number     Number       Type             X           Y           Z
 ---------------------------------------------------------------------
      1          7           0        0.000000    0.000000    0.122304
      2          1           0        0.000000    0.939178   -0.285375
      3          1           0        0.813352   -0.469589   -0.285375
      4          1           0       -0.813352   -0.469589   -0.285375
 ---------------------------------------------------------------------
 Rotational constants (GHZ):         289.3316848         289.3316848         189.5024282
 Leave Link  202 at Wed Oct  7 14:04:17 2020, MaxMem=  2684354560 cpu:               2.1 elap:               0.7
 (Enter /udrive/faculty/rpeverati/g16/g16/l301.exe)
 Standard basis: 6-31G(d) (5D, 7F)
 Ernie: Thresh=  0.10000D-02 Tol=  0.10000D-05 Strict=F.
 There are    15 symmetry adapted cartesian basis functions of A'  symmetry.
 There are     6 symmetry adapted cartesian basis functions of A"  symmetry.
 There are    14 symmetry adapted basis functions of A'  symmetry.
 There are     6 symmetry adapted basis functions of A"  symmetry.
    20 basis functions,    40 primitive gaussians,    21 cartesian basis functions
     5 alpha electrons        5 beta electrons
       nuclear repulsion energy        11.8298342020 Hartrees.
 IExCor= 3630 DFT=T Ex+Corr=B97D3 ExCW=0 ScaHFX=  0.000000
 ScaDFX=  1.000000  1.000000  1.000000  1.000000 ScalE2=  1.000000  1.000000
 IRadAn=      5 IRanWt=     -1 IRanGd=            0 ICorTp=0 IEmpDi=141
 NAtoms=    4 NActive=    4 NUniq=    2 SFac= 4.00D+00 NAtFMM=   60 NAOKFM=F Big=F
 Integral buffers will be    131072 words long.
 Raffenetti 2 integral format.
 Two-electron integral symmetry is turned on.
 R6Disp:  Grimme-D3(BJ) Dispersion energy=       -0.0026843945 Hartrees.
 Nuclear repulsion after empirical dispersion term =       11.8271498075 Hartrees.
 Leave Link  301 at Wed Oct  7 14:04:18 2020, MaxMem=  2684354560 cpu:               2.4 elap:               0.7
 (Enter /udrive/faculty/rpeverati/g16/g16/l302.exe)
 NPDir=0 NMtPBC=     1 NCelOv=     1 NCel=       1 NClECP=     1 NCelD=      1
         NCelK=      1 NCelE2=     1 NClLst=     1 CellRange=     0.0.
 One-electron integrals computed using PRISM.
 One-electron integral symmetry used in STVInt
 NBasis=    20 RedAO= T EigKep=  3.94D-02  NBF=    14     6
 NBsUse=    20 1.00D-06 EigRej= -1.00D+00 NBFU=    14     6
 Precomputing XC quadrature grid using
 IXCGrd= 4 IRadAn=           5 IRanWt=          -1 IRanGd=           0 AccXCQ= 0.00D+00.
 Generated NRdTot=       0 NPtTot=           0 NUsed=           0 NTot=          32
 NSgBfM=    21    21    21    21    21 MxSgAt=     4 MxSgA2=     4.
 Leave Link  302 at Wed Oct  7 14:04:20 2020, MaxMem=  2684354560 cpu:               3.9 elap:               1.2
 (Enter /udrive/faculty/rpeverati/g16/g16/l303.exe)
 DipDrv:  MaxL=1.
 Leave Link  303 at Wed Oct  7 14:04:21 2020, MaxMem=  2684354560 cpu:               2.8 elap:               0.7
 (Enter /udrive/faculty/rpeverati/g16/g16/l401.exe)
 Initial guess from the checkpoint file:  "MN_71_NH3_BH76_B97DBJ_631Gs.chk"
 SCF N**3 symmetry information disabled.
 B after Tr=     0.000000   -0.000000   -0.000000
         Rot=    1.000000    0.000000    0.000000    0.000000 Ang=   0.00 deg.
 Guess basis will be translated and rotated to current coordinates.
 JPrj=2 DoOrth=T DoCkMO=T.
 Initial guess orbital symmetries:
       Occupied  (A1) (A1) (E) (E) (A1)
       Virtual   (A1) (E) (E) (E) (E) (A1) (E) (E) (A1) (A1) (E)
                 (E) (A1) (E) (E)
 The electronic state of the initial guess is 1-A1.
 Generating alternative initial guess.
 ExpMin= 1.61D-01 ExpMax= 4.17D+03 ExpMxC= 6.27D+02 IAcc=2 IRadAn=         4 AccDes= 0.00D+00
 Harris functional with IExCor= 3630 and IRadAn=       4 diagonalized for initial guess.
 HarFok:  IExCor= 3630 AccDes= 0.00D+00 IRadAn=         4 IDoV= 1 UseB2=F ITyADJ=14
 ICtDFT=  3500011 ScaDFX=  1.000000  1.000000  1.000000  1.000000
 FoFCou: FMM=F IPFlag=           0 FMFlag=      100000 FMFlg1=           0
         NFxFlg=           0 DoJE=T BraDBF=F KetDBF=T FulRan=T
         wScrn=  0.000000 ICntrl=       500 IOpCl=  0 I1Cent=   200000004 NGrid=           0
         NMat0=    1 NMatS0=      1 NMatT0=    0 NMatD0=    1 NMtDS0=    0 NMtDT0=    0
 Petite list used in FoFCou.
 Harris En= -56.5583678825710    
 Leave Link  401 at Wed Oct  7 14:04:22 2020, MaxMem=  2684354560 cpu:               5.3 elap:               0.7
 (Enter /udrive/faculty/rpeverati/g16/g16/l502.exe)
 Keep J ints in memory in symmetry-blocked form, NReq=10364782.
 FoFCou: FMM=F IPFlag=           0 FMFlag=           0 FMFlg1=           0
         NFxFlg=           0 DoJE=F BraDBF=F KetDBF=F FulRan=T
         wScrn=  0.000000 ICntrl=       600 IOpCl=  0 I1Cent=           0 NGrid=           0
         NMat0=    1 NMatS0=    210 NMatT0=    0 NMatD0=    1 NMtDS0=    0 NMtDT0=    0
 Petite list used in FoFCou.
 Closed shell SCF:
 Using DIIS extrapolation, IDIIS=  1040.
 NGot=  2684354560 LenX=  2684340664 LenY=  2684339782
 Requested convergence on RMS density matrix=1.00D-08 within 120 cycles.
 Requested convergence on MAX density matrix=1.00D-06.
 Requested convergence on             energy=1.00D-06.
 No special actions if energy rises.
 Integral accuracy reduced to 1.0D-05 until final iterations.

 Cycle   1  Pass 0  IDiag  1:
 E= -56.5137021701079    
 DIIS: error= 1.91D-03 at cycle   1 NSaved=   1.
 NSaved= 1 IEnMin= 1 EnMin= -56.5137021701079     IErMin= 1 ErrMin= 1.91D-03
 ErrMax= 1.91D-03  0.00D+00 EMaxC= 1.00D-01 BMatC= 4.57D-05 BMatP= 4.57D-05
 IDIUse=3 WtCom= 9.81D-01 WtEn= 1.91D-02
 Coeff-Com:  0.100D+01
 Coeff-En:   0.100D+01
 Coeff:      0.100D+01
 Gap=     0.264 Goal=   None    Shift=    0.000
 GapD=    0.264 DampG=1.000 DampE=1.000 DampFc=1.0000 IDamp=-1.
 RMSDP=8.94D-04 MaxDP=7.49D-03              OVMax= 6.67D-03

 Cycle   2  Pass 0  IDiag  1:
 E= -56.5137597501940     Delta-E=       -0.000057580086 Rises=F Damp=F
 DIIS: error= 9.70D-04 at cycle   2 NSaved=   2.
 NSaved= 2 IEnMin= 2 EnMin= -56.5137597501940     IErMin= 2 ErrMin= 9.70D-04
 ErrMax= 9.70D-04  0.00D+00 EMaxC= 1.00D-01 BMatC= 1.64D-05 BMatP= 4.57D-05
 IDIUse=3 WtCom= 9.90D-01 WtEn= 9.70D-03
 Coeff-Com:  0.311D+00 0.689D+00
 Coeff-En:   0.000D+00 0.100D+01
 Coeff:      0.308D+00 0.692D+00
 Gap=     0.265 Goal=   None    Shift=    0.000
 RMSDP=2.82D-04 MaxDP=1.98D-03 DE=-5.76D-05 OVMax= 2.05D-03

 Cycle   3  Pass 0  IDiag  1:
 E= -56.5137642074529     Delta-E=       -0.000004457259 Rises=F Damp=F
 DIIS: error= 8.21D-04 at cycle   3 NSaved=   3.
 NSaved= 3 IEnMin= 3 EnMin= -56.5137642074529     IErMin= 3 ErrMin= 8.21D-04
 ErrMax= 8.21D-04  0.00D+00 EMaxC= 1.00D-01 BMatC= 1.17D-05 BMatP= 1.64D-05
 IDIUse=3 WtCom= 9.92D-01 WtEn= 8.21D-03
 Coeff-Com:  0.200D-02 0.457D+00 0.541D+00
 Coeff-En:   0.000D+00 0.427D+00 0.573D+00
 Coeff:      0.198D-02 0.457D+00 0.541D+00
 Gap=     0.265 Goal=   None    Shift=    0.000
 RMSDP=1.25D-04 MaxDP=8.98D-04 DE=-4.46D-06 OVMax= 9.09D-04

 Cycle   4  Pass 0  IDiag  1:
 E= -56.5137743923031     Delta-E=       -0.000010184850 Rises=F Damp=F
 DIIS: error= 7.22D-06 at cycle   4 NSaved=   4.
 NSaved= 4 IEnMin= 4 EnMin= -56.5137743923031     IErMin= 4 ErrMin= 7.22D-06
 ErrMax= 7.22D-06  0.00D+00 EMaxC= 1.00D-01 BMatC= 1.42D-09 BMatP= 1.17D-05
 IDIUse=1 WtCom= 1.00D+00 WtEn= 0.00D+00
 Coeff-Com: -0.110D-02 0.704D-01 0.782D-01 0.852D+00
 Coeff:     -0.110D-02 0.704D-01 0.782D-01 0.852D+00
 Gap=     0.265 Goal=   None    Shift=    0.000
 RMSDP=1.64D-06 MaxDP=6.94D-06 DE=-1.02D-05 OVMax= 1.26D-05

 Initial convergence to 1.0D-05 achieved.  Increase integral accuracy.
 Cycle   5  Pass 1  IDiag  1:
 E= -56.5137750170063     Delta-E=       -0.000000624703 Rises=F Damp=F
 DIIS: error= 1.33D-06 at cycle   1 NSaved=   1.
 NSaved= 1 IEnMin= 1 EnMin= -56.5137750170063     IErMin= 1 ErrMin= 1.33D-06
 ErrMax= 1.33D-06  0.00D+00 EMaxC= 1.00D-01 BMatC= 5.12D-11 BMatP= 5.12D-11
 IDIUse=1 WtCom= 1.00D+00 WtEn= 0.00D+00
 Coeff-Com:  0.100D+01
 Coeff:      0.100D+01
 Gap=     0.265 Goal=   None    Shift=    0.000
 RMSDP=1.64D-06 MaxDP=6.94D-06 DE=-6.25D-07 OVMax= 5.43D-06

 Cycle   6  Pass 1  IDiag  1:
 E= -56.5137750170238     Delta-E=       -0.000000000018 Rises=F Damp=F
 DIIS: error= 1.39D-06 at cycle   2 NSaved=   2.
 NSaved= 2 IEnMin= 2 EnMin= -56.5137750170238     IErMin= 1 ErrMin= 1.33D-06
 ErrMax= 1.39D-06  0.00D+00 EMaxC= 1.00D-01 BMatC= 3.57D-11 BMatP= 5.12D-11
 IDIUse=1 WtCom= 1.00D+00 WtEn= 0.00D+00
 Coeff-Com:  0.448D+00 0.552D+00
 Coeff:      0.448D+00 0.552D+00
 Gap=     0.265 Goal=   None    Shift=    0.000
 RMSDP=3.24D-07 MaxDP=2.17D-06 DE=-1.76D-11 OVMax= 2.27D-06

 Cycle   7  Pass 1  IDiag  1:
 E= -56.5137750170496     Delta-E=       -0.000000000026 Rises=F Damp=F
 DIIS: error= 5.68D-07 at cycle   3 NSaved=   3.
 NSaved= 3 IEnMin= 3 EnMin= -56.5137750170496     IErMin= 3 ErrMin= 5.68D-07
 ErrMax= 5.68D-07  0.00D+00 EMaxC= 1.00D-01 BMatC= 6.37D-12 BMatP= 3.57D-11
 IDIUse=1 WtCom= 1.00D+00 WtEn= 0.00D+00
 Coeff-Com:  0.161D+00 0.316D+00 0.523D+00
 Coeff:      0.161D+00 0.316D+00 0.523D+00
 Gap=     0.265 Goal=   None    Shift=    0.000
 RMSDP=9.68D-08 MaxDP=6.77D-07 DE=-2.58D-11 OVMax= 7.80D-07

 Cycle   8  Pass 1  IDiag  1:
 E= -56.5137750170550     Delta-E=       -0.000000000005 Rises=F Damp=F
 DIIS: error= 4.85D-08 at cycle   4 NSaved=   4.
 NSaved= 4 IEnMin= 4 EnMin= -56.5137750170550     IErMin= 4 ErrMin= 4.85D-08
 ErrMax= 4.85D-08  0.00D+00 EMaxC= 1.00D-01 BMatC= 5.21D-14 BMatP= 6.37D-12
 IDIUse=1 WtCom= 1.00D+00 WtEn= 0.00D+00
 Coeff-Com:  0.238D-02 0.126D-01 0.100D+00 0.885D+00
 Coeff:      0.238D-02 0.126D-01 0.100D+00 0.885D+00
 Gap=     0.265 Goal=   None    Shift=    0.000
 RMSDP=8.06D-09 MaxDP=5.26D-08 DE=-5.36D-12 OVMax= 6.23D-08

 SCF Done:  E(RB97D3) =  -56.5137750171     A.U. after    8 cycles
            NFock=  8  Conv=0.81D-08     -V/T= 2.0051
 KE= 5.622798534179D+01 PE=-1.557276003878D+02 EE= 3.115869022146D+01
 Leave Link  502 at Wed Oct  7 14:04:24 2020, MaxMem=  2684354560 cpu:              12.8 elap:               1.6
 (Enter /udrive/faculty/rpeverati/g16/g16/l508.exe)
 QCSCF skips out because SCF is already converged.
 Leave Link  508 at Wed Oct  7 14:04:25 2020, MaxMem=  2684354560 cpu:               0.3 elap:               0.8
 (Enter /udrive/faculty/rpeverati/g16/g16/l701.exe)
 ... and contract with generalized density number  0.
 Compute integral first derivatives.
 R6Disp: Adding Grimme-D3(BJ) dispersion energy 1st derivatives to the gradient.
 Leave Link  701 at Wed Oct  7 14:04:27 2020, MaxMem=  2684354560 cpu:               4.0 elap:               1.0
 (Enter /udrive/faculty/rpeverati/g16/g16/l702.exe)
 L702 exits ... SP integral derivatives will be done elsewhere.
 Leave Link  702 at Wed Oct  7 14:04:28 2020, MaxMem=  2684354560 cpu:               1.4 elap:               1.0
 (Enter /udrive/faculty/rpeverati/g16/g16/l703.exe)
 Integral derivatives from FoFJK, PRISM(SPDF).
 Compute integral first derivatives, UseDBF=F ICtDFT=           0.
 Calling FoFJK, ICntrl=      2527 FMM=F ISym2X=1 I1Cent= 0 IOpClX= 0 NMat=1 NMatS=1 NMatT=0.
 FoFJK:  IHMeth= 1 ICntrl=    2527 DoSepK=F KAlg= 0 I1Cent=           0 FoldK=F
 IRaf=         0 NMat=       1 IRICut=       1 DoRegI=T DoRafI=F ISym2E= 1 IDoP0=0 IntGTp=1.
 FoFCou: FMM=F IPFlag=           0 FMFlag=      100000 FMFlg1=         800
         NFxFlg=           0 DoJE=F BraDBF=F KetDBF=F FulRan=T
         wScrn=  0.000000 ICntrl=      2527 IOpCl=  0 I1Cent=           0 NGrid=           0
         NMat0=    1 NMatS0=      1 NMatT0=    0 NMatD0=    1 NMtDS0=    0 NMtDT0=    0
 Petite list used in FoFCou.
 Leave Link  703 at Wed Oct  7 14:04:29 2020, MaxMem=  2684354560 cpu:               4.1 elap:               0.9
 (Enter /udrive/faculty/rpeverati/g16/g16/l716.exe)
 Dipole        =-2.22044605D-16 1.11022302D-16-7.51980444D-01
 ***** Axes restored to original set *****
 -------------------------------------------------------------------
 Center     Atomic                   Forces (Hartrees/Bohr)
 Number     Number              X              Y              Z
 -------------------------------------------------------------------
      1        7          -0.000000000    0.000000000   -0.000093604
      2        1          -0.000073988   -0.000128151    0.000031201
      3        1          -0.000073988    0.000128151    0.000031201
      4        1           0.000147976    0.000000000    0.000031201
 -------------------------------------------------------------------
 Cartesian Forces:  Max     0.000147976 RMS     0.000080298
 Leave Link  716 at Wed Oct  7 14:04:30 2020, MaxMem=  2684354560 cpu:               1.3 elap:               0.5
 (Enter /udrive/faculty/rpeverati/g16/g16/l103.exe)

 GradGradGradGradGradGradGradGradGradGradGradGradGradGradGradGradGradGrad
 Berny optimization.
 Optmz: redundant internal coordinate code flag= 1
 Using GEDIIS/GDIIS optimizer.
 Red2BG:  D1=  7.18D-01 OD1=  4.71D-02 B2RMS=  0.00D+00 IAprox=0
 FormGI is forming the generalized inverse of G from B-inverse, IUseBI=4.
 Internal  Forces:  Max     0.000148163 RMS     0.000100056
 Search for a local minimum.
 Step number   3 out of a maximum of  100
 All quantities printed in internal units (Hartrees-Bohrs-Radians)
 RMS Force = .10006D-03 SwitMx=.10000D-02 MixMth= 2
 Mixed Optimization -- En-DIIS/RFO-DIIS
 Update second derivatives using D2CorX and points    1    2    3
 DE= -5.86D-05 DEPred=-5.39D-05 R= 1.09D+00
 TightC=F SS=  1.41D+00  RLast= 4.56D-02 DXNew= 5.0454D-01 1.3693D-01
 Trust test= 1.09D+00 RLast= 4.56D-02 DXMaxT set to 3.00D-01
 The second derivative matrix:
                          R1        R2        R3        A1        A2
           R1           0.46259
           R2           0.00402   0.46259
           R3           0.00402   0.00402   0.46259
           A1           0.05597   0.05597   0.05597   0.13562
           A2           0.03538   0.03538   0.03538  -0.02614   0.14057
           A3           0.03538   0.03538   0.03538  -0.02614  -0.01943
           D1          -0.02357  -0.02357  -0.02357  -0.00536   0.00647
                          A3        D1
           A3           0.14057
           D1           0.00647   0.02506
 ITU=  1  1  0
 Use linear search instead of GDIIS.
 Eigenvectors of the second derivative matrix:
                           1         2         3         4         5
     Eigenvalues --     0.04823   0.15206   0.16000   0.45857   0.45857
   1         R1         0.06906  -0.04913  -0.00000   0.56706  -0.58746
   2         R2         0.06906  -0.04913  -0.00000  -0.79229  -0.19735
   3         R3         0.06906  -0.04913  -0.00000   0.22523   0.78482
   4         A1        -0.49621  -0.51919  -0.00000  -0.00000   0.00000
   5         A2        -0.27513   0.59669   0.70711  -0.00000   0.00000
   6         A3        -0.27513   0.59669  -0.70711  -0.00000   0.00000
   7         D1        -0.76686  -0.10547  -0.00000  -0.00000   0.00000
                           6
     Eigenvalues --     0.47916
   1         R1         0.57110
   2         R2         0.57110
   3         R3         0.57110
   4         A1         0.01534
   5         A2         0.08461
   6         A3         0.08461
   7         D1         0.08366
 Iter=   1 RLamda= 0.00000000D+00 Sum=-1.57079327D-07.
 Iter=   2 RLamda=-1.57079327D-07 Sum=-1.57079247D-07.
 RFO step:  Lambda=-1.57079327D-07 EMin= 4.82267710D-02
 Quartic linear search produced a step of  0.00083.
 Iteration  1 RMS(Cart)=  0.00027545 RMS(Int)=  0.00000021
 Iteration  2 RMS(Cart)=  0.00000003 RMS(Int)=  0.00000021
 ITry= 1 IFail=0 DXMaxC= 4.13D-04 DCOld= 1.00D+10 DXMaxT= 3.00D-01 DXLimC= 3.00D+00 Rises=F
 ClnCor:  largest displacement from symmetrization is 1.42D-05 for atom     4.
 Variable       Old X    -DE/DX   Delta X   Delta X   Delta X     New X
                                 (Linear)    (Quad)   (Total)
    R1        1.93479  -0.00015   0.00000  -0.00028  -0.00027   1.93451
    R2        1.93479  -0.00015   0.00000  -0.00028  -0.00027   1.93451
    R3        1.93479  -0.00015   0.00000  -0.00028  -0.00027   1.93451
    A1        1.83607  -0.00001  -0.00001  -0.00019  -0.00022   1.83585
    A2        1.83607  -0.00004  -0.00001  -0.00022  -0.00022   1.83585
    A3        1.83607  -0.00004  -0.00001  -0.00022  -0.00022   1.83585
    D1        1.93407  -0.00004  -0.00003  -0.00038  -0.00042   1.93365
         Item               Value     Threshold  Converged?
 Maximum Force            0.000148     0.000450     YES
 RMS     Force            0.000100     0.000300     YES
 Maximum Displacement     0.000399     0.001800     YES
 RMS     Displacement     0.000272     0.001200     YES
 Predicted change in Energy=-7.852626D-08
 Optimization completed.
    -- Stationary point found.
                           ----------------------------
                           !   Optimized Parameters   !
                           ! (Angstroms and Degrees)  !
 --------------------------                            --------------------------
 ! Name  Definition              Value          Derivative Info.                !
 --------------------------------------------------------------------------------
 ! R1    R(1,2)                  1.0238         -DE/DX =   -0.0001              !
 ! R2    R(1,3)                  1.0238         -DE/DX =   -0.0001              !
 ! R3    R(1,4)                  1.0238         -DE/DX =   -0.0001              !
 ! A1    A(2,1,3)              105.1991         -DE/DX =    0.0                 !
 ! A2    A(2,1,4)              105.1991         -DE/DX =    0.0                 !
 ! A3    A(3,1,4)              105.1991         -DE/DX =    0.0                 !
 ! D1    D(2,1,4,3)            110.8139         -DE/DX =    0.0                 !
 --------------------------------------------------------------------------------
 Lowest energy point so far.  Saving SCF results.
 Largest change from initial coordinates is atom    2       0.022 Angstoms.
 GradGradGradGradGradGradGradGradGradGradGradGradGradGradGradGradGradGrad

 Leave Link  103 at Wed Oct  7 14:04:31 2020, MaxMem=  2684354560 cpu:               2.2 elap:               0.6
 (Enter /udrive/faculty/rpeverati/g16/g16/l202.exe)
                          Input orientation:                          
 ---------------------------------------------------------------------
 Center     Atomic      Atomic             Coordinates (Angstroms)
 Number     Number       Type             X           Y           Z
 ---------------------------------------------------------------------
      1          7           0       -0.000000    0.000000    0.305778
      2          1           0        0.469589    0.813352   -0.101900
      3          1           0        0.469589   -0.813352   -0.101900
      4          1           0       -0.939178    0.000000   -0.101900
 ---------------------------------------------------------------------
                    Distance matrix (angstroms):
                    1          2          3          4
     1  N    0.000000
     2  H    1.023844   0.000000
     3  H    1.023844   1.626704   0.000000
     4  H    1.023844   1.626704   1.626704   0.000000
 Stoichiometry    H3N
 Framework group  C3V[C3(N),3SGV(H)]
 Deg. of freedom     2
 Full point group                 C3V     NOp   6
 RotChk:  IX=0 Diff= 1.57D-16
 Largest Abelian subgroup         CS      NOp   2
 Largest concise Abelian subgroup CS      NOp   2
                         Standard orientation:                         
 ---------------------------------------------------------------------
 Center     Atomic      Atomic             Coordinates (Angstroms)
 Number     Number       Type             X           Y           Z
 ---------------------------------------------------------------------
      1          7           0        0.000000    0.000000    0.122304
      2          1           0        0.000000    0.939178   -0.285375
      3          1           0        0.813352   -0.469589   -0.285375
      4          1           0       -0.813352   -0.469589   -0.285375
 ---------------------------------------------------------------------
 Rotational constants (GHZ):         289.3316848         289.3316848         189.5024282
 Leave Link  202 at Wed Oct  7 14:04:32 2020, MaxMem=  2684354560 cpu:               1.2 elap:               0.5
 (Enter /udrive/faculty/rpeverati/g16/g16/l601.exe)
 Copying SCF densities to generalized density rwf, IOpCl= 0 IROHF=0.

 **********************************************************************

            Population analysis using the SCF density.

 **********************************************************************

 Orbital symmetries:
       Occupied  (A1) (A1) (E) (E) (A1)
       Virtual   (A1) (E) (E) (E) (E) (A1) (E) (E) (A1) (A1) (E)
                 (E) (A1) (E) (E)
 The electronic state is 1-A1.
 Alpha  occ. eigenvalues --  -13.97457  -0.76927  -0.40057  -0.40057  -0.20317
 Alpha virt. eigenvalues --    0.06157   0.14357   0.14357   0.64597   0.64597
 Alpha virt. eigenvalues --    0.68132   0.86072   0.86072   0.87108   1.19399
 Alpha virt. eigenvalues --    1.60227   1.60227   1.85810   2.31419   2.31419
          Condensed to atoms (all electrons):
               1          2          3          4
     1  N    6.947049   0.313944   0.313944   0.313944
     2  H    0.313944   0.452249  -0.031243  -0.031243
     3  H    0.313944  -0.031243   0.452249  -0.031243
     4  H    0.313944  -0.031243  -0.031243   0.452249
 Mulliken charges:
               1
     1  N   -0.888880
     2  H    0.296293
     3  H    0.296293
     4  H    0.296293
 Sum of Mulliken charges =   0.00000
 Mulliken charges with hydrogens summed into heavy atoms:
               1
     1  N    0.000000
 Electronic spatial extent (au):  <R**2>=             26.3364
 Charge=              0.0000 electrons
 Dipole moment (field-independent basis, Debye):
    X=             -0.0000    Y=             -0.0000    Z=             -1.9113  Tot=              1.9113
 Quadrupole moment (field-independent basis, Debye-Ang):
   XX=             -6.1498   YY=             -6.1498   ZZ=             -8.7372
   XY=             -0.0000   XZ=              0.0000   YZ=              0.0000
 Traceless Quadrupole moment (field-independent basis, Debye-Ang):
   XX=              0.8625   YY=              0.8625   ZZ=             -1.7249
   XY=             -0.0000   XZ=              0.0000   YZ=              0.0000
 Octapole moment (field-independent basis, Debye-Ang**2):
  XXX=             -0.0000  YYY=              0.7732  ZZZ=             -1.7124  XYY=              0.0000
  XXY=             -0.7732  XXZ=             -0.8894  XZZ=              0.0000  YZZ=              0.0000
  YYZ=             -0.8894  XYZ=              0.0000
 Hexadecapole moment (field-independent basis, Debye-Ang**3):
 XXXX=             -9.5799 YYYY=             -9.5799 ZZZZ=             -9.8037 XXXY=              0.0000
 XXXZ=              0.0000 YYYX=             -0.0000 YYYZ=             -0.3065 ZZZX=             -0.0000
 ZZZY=             -0.0000 XXYY=             -3.1933 XXZZ=             -3.2530 YYZZ=             -3.2530
 XXYZ=              0.3065 YYXZ=             -0.0000 ZZXY=              0.0000
 N-N= 1.182714980750D+01 E-N=-1.557276015845D+02  KE= 5.622798534179D+01
 No NMR shielding tensors so no spin-rotation constants.
 Leave Link  601 at Wed Oct  7 14:04:33 2020, MaxMem=  2684354560 cpu:               2.8 elap:               0.6
 (Enter /udrive/faculty/rpeverati/g16/g16/l9999.exe)

 Test job not archived.
 1\1\GINC-NODE51\FOpt\RB97D3\6-31G(d)\H3N1\RPEVERATI\07-Oct-2020\0\\#P 
 Opt(MaxCyc=100) B97D3/6-31G* 5D 7F Integral=UltraFineGrid SCF=(NoSymm,
 XQC,MaxCyc=120) IOp(1/33=1)\\TS search on BH76.\\0,1\N,0.,0.,0.3057781
 8\H,0.4695891087,0.8133521949,-0.1019004121\H,0.4695891087,-0.81335219
 49,-0.1019004121\H,-0.9391782174,0.,-0.1019004121\\Version=ES64L-G16Re
 vA.03\State=1-A1\HF=-56.513775\RMSD=8.056e-09\RMSF=8.030e-05\Dipole=0.
 ,0.,-0.7519804\Quadrupole=0.6412244,0.6412244,-1.2824489,0.,0.,0.\PG=C
 03V [C3(N1),3SGV(H1)]\\@


 A COMPLEXITY IS MERELY A DISARRANGEMENT OF SIMPLICITIES.

                                    -- G. O. ABELL IN "EXPLORATION OF THE UNIVERSE"
 Job cpu time:       0 days  0 hours  2 minutes 22.4 seconds.
 Elapsed time:       0 days  0 hours  0 minutes 35.2 seconds.
 File lengths (MBytes):  RWF=      5 Int=      0 D2E=      0 Chk=      1 Scr=      1
 Normal termination of Gaussian 16 at Wed Oct  7 14:04:34 2020.
