 Entering Gaussian System, Link 0=g16
 Input=MN_82_RKT06_BH76_B97DBJ_631Gs.in
 Output=MN_82_RKT06_BH76_B97DBJ_631Gs.log
 Initial command:
 /udrive/faculty/rpeverati/g16/g16/l1.exe "/udrive/scratch-directories/gaussian09/rpeverati/Gau-25896.inp" -scrdir="/udrive/scratch-directories/gaussian09/rpeverati/"
 Entering Link 1 = /udrive/faculty/rpeverati/g16/g16/l1.exe PID=     25897.
  
 Copyright (c) 1988,1990,1992,1993,1995,1998,2003,2009,2016,
            Gaussian, Inc.  All Rights Reserved.
  
 This is part of the Gaussian(R) 16 program.  It is based on
 the Gaussian(R) 09 system (copyright 2009, Gaussian, Inc.),
 the Gaussian(R) 03 system (copyright 2003, Gaussian, Inc.),
 the Gaussian(R) 98 system (copyright 1998, Gaussian, Inc.),
 the Gaussian(R) 94 system (copyright 1995, Gaussian, Inc.),
 the Gaussian 92(TM) system (copyright 1992, Gaussian, Inc.),
 the Gaussian 90(TM) system (copyright 1990, Gaussian, Inc.),
 the Gaussian 88(TM) system (copyright 1988, Gaussian, Inc.),
 the Gaussian 86(TM) system (copyright 1986, Carnegie Mellon
 University), and the Gaussian 82(TM) system (copyright 1983,
 Carnegie Mellon University). Gaussian is a federally registered
 trademark of Gaussian, Inc.
  
 This software contains proprietary and confidential information,
 including trade secrets, belonging to Gaussian, Inc.
  
 This software is provided under written license and may be
 used, copied, transmitted, or stored only in accord with that
 written license.
  
 The following legend is applicable only to US Government
 contracts under FAR:
  
                    RESTRICTED RIGHTS LEGEND
  
 Use, reproduction and disclosure by the US Government is
 subject to restrictions as set forth in subparagraphs (a)
 and (c) of the Commercial Computer Software - Restricted
 Rights clause in FAR 52.227-19.
  
 Gaussian, Inc.
 340 Quinnipiac St., Bldg. 40, Wallingford CT 06492
  
  
 ---------------------------------------------------------------
 Warning -- This program may not be used in any manner that
 competes with the business of Gaussian, Inc. or will provide
 assistance to any competitor of Gaussian, Inc.  The licensee
 of this program is prohibited from giving any competitor of
 Gaussian, Inc. access to this program.  By using this program,
 the user acknowledges that Gaussian, Inc. is engaged in the
 business of creating and licensing software in the field of
 computational chemistry and represents and warrants to the
 licensee that it is not a competitor of Gaussian, Inc. and that
 it will not use this program in any manner prohibited above.
 ---------------------------------------------------------------
  

 Cite this work as:
 Gaussian 16, Revision A.03,
 M. J. Frisch, G. W. Trucks, H. B. Schlegel, G. E. Scuseria, 
 M. A. Robb, J. R. Cheeseman, G. Scalmani, V. Barone, 
 G. A. Petersson, H. Nakatsuji, X. Li, M. Caricato, A. V. Marenich, 
 J. Bloino, B. G. Janesko, R. Gomperts, B. Mennucci, H. P. Hratchian, 
 J. V. Ortiz, A. F. Izmaylov, J. L. Sonnenberg, D. Williams-Young, 
 F. Ding, F. Lipparini, F. Egidi, J. Goings, B. Peng, A. Petrone, 
 T. Henderson, D. Ranasinghe, V. G. Zakrzewski, J. Gao, N. Rega, 
 G. Zheng, W. Liang, M. Hada, M. Ehara, K. Toyota, R. Fukuda, 
 J. Hasegawa, M. Ishida, T. Nakajima, Y. Honda, O. Kitao, H. Nakai, 
 T. Vreven, K. Throssell, J. A. Montgomery, Jr., J. E. Peralta, 
 F. Ogliaro, M. J. Bearpark, J. J. Heyd, E. N. Brothers, K. N. Kudin, 
 V. N. Staroverov, T. A. Keith, R. Kobayashi, J. Normand, 
 K. Raghavachari, A. P. Rendell, J. C. Burant, S. S. Iyengar, 
 J. Tomasi, M. Cossi, J. M. Millam, M. Klene, C. Adamo, R. Cammi, 
 J. W. Ochterski, R. L. Martin, K. Morokuma, O. Farkas, 
 J. B. Foresman, and D. J. Fox, Gaussian, Inc., Wallingford CT, 2016.
 
 ******************************************
 Gaussian 16:  ES64L-G16RevA.03 25-Dec-2016
                 7-Oct-2020 
 ******************************************
 %NoSave
 %nproc=12
 Will use up to   12 processors via shared memory.
 %mem=20GB
 %chk=MN_82_RKT06_BH76_B97DBJ_631Gs
 ----------------------------------------------------------------------
 #P Opt(TS,MaxCyc=50,NoEigenTest,MaxStep=10,AddRedundant) B97D3/6-31G* 
 5D 7F Integral=UltraFineGrid SCF=(NoSymm,XQC,MaxCyc=120) IOp(1/33=1)
 ----------------------------------------------------------------------
 1/5=1,6=50,8=10,11=1,18=120,26=4,33=1,38=1/1,3;
 2/9=110,12=2,17=6,18=5,40=1/2;
 3/5=1,6=6,7=1,8=11,11=2,25=1,30=1,71=1,74=-59,75=-5/1,2,3;
 4/9=2/1;
 5/5=2,7=120,8=3,13=1,38=5/2,8;
 6/7=2,8=2,9=2,10=2,28=1/1;
 7//1,2,3,16;
 1/5=1,6=50,8=10,11=1,18=20,26=4,33=1/3(2);
 2/9=110/2;
 99//99;
 2/9=110/2;
 3/5=1,6=6,7=1,8=11,11=2,25=1,30=1,71=1,74=-59,75=-5/1,2,3;
 4/5=5,9=2,16=3,69=1/1;
 5/5=2,7=120,8=3,13=1,38=5/2,8;
 7//1,2,3,16;
 1/5=1,6=50,8=10,11=1,18=20,26=4,33=1/3(-5);
 2/9=110/2;
 6/7=2,8=2,9=2,10=2,19=2,28=1/1;
 99/9=1/99;
 Leave Link    1 at Wed Oct  7 14:04:14 2020, MaxMem=  2684354560 cpu:               9.5 elap:               1.0
 (Enter /udrive/faculty/rpeverati/g16/g16/l101.exe)
 ONIOM data not found on unit 2.
 ------------------
 TS search on BH76.
 ------------------
 TstMul:  ICh=     0
 TstMul:  Mul=     2
 TstMul:  ICh=     0
 TstMul:  Mul=     2
 Symbolic Z-matrix:
 Charge =  0 Multiplicity = 2
 H                     0.        0.        0. 
 H                     0.        0.        0.92947 
 H                     0.        0.       -0.92947 
 
 RdStrC is calling ZToCFu for IStruc=1 NZ=     3.
 PrtBox:  NBox=     1 Levels=  1 BoxLen=    8.00 SMaxX=        3.51
          Shift=            0.000000            0.000000            1.756450
 Box      1 Number                   0 centers from      1 to      3:
 After GenITR:
 ITRead=  0  0  0
 MicOpt= -1 -1 -1
 Add virtual bond connecting atoms H2         and H1         Dist= 1.76D+00.
 Add virtual bond connecting atoms H3         and H1         Dist= 1.76D+00.
 The following ModRedundant input section has been read:
 
 ITRead=  0  0  0
 MicOpt= -1 -1 -1
 NAtoms=      3 NQM=        3 NQMF=       0 NMMI=      0 NMMIF=      0
                NMic=       0 NMicF=      0.
                    Isotopes and Nuclear Properties:
 (Nuclear quadrupole moments (NQMom) in fm**2, nuclear magnetic moments (NMagM)
  in nuclear magnetons)

  Atom         1           2           3
 IAtWgt=           1           1           1
 AtmWgt=   1.0078250   1.0078250   1.0078250
 NucSpn=           1           1           1
 AtZEff=   0.0000000   0.0000000   0.0000000
 NQMom=    0.0000000   0.0000000   0.0000000
 NMagM=    2.7928460   2.7928460   2.7928460
 AtZNuc=   1.0000000   1.0000000   1.0000000
 No MM parameters found.
 Leave Link  101 at Wed Oct  7 14:04:16 2020, MaxMem=  2684354560 cpu:              13.4 elap:               1.3
 (Enter /udrive/faculty/rpeverati/g16/g16/l103.exe)

 GradGradGradGradGradGradGradGradGradGradGradGradGradGradGradGradGradGrad
 Berny optimization.
 Optmz: redundant internal coordinate code flag= 1
 Initialization pass.
                           ----------------------------
                           !    Initial Parameters    !
                           ! (Angstroms and Degrees)  !
 --------------------------                            --------------------------
 ! Name  Definition              Value          Derivative Info.                !
 --------------------------------------------------------------------------------
 ! R1    R(1,2)                  0.9295         estimate D2E/DX2                !
 ! R2    R(1,3)                  0.9295         estimate D2E/DX2                !
 ! A1    L(2,1,3,-1,-1)        180.0            estimate D2E/DX2                !
 ! A2    L(2,1,3,-2,-2)        180.0            estimate D2E/DX2                !
 --------------------------------------------------------------------------------
 Maximum allowed force set to 1.00D+20.
 Trust Radius=1.00D-01 FncErr=1.00D-07 GrdErr=1.00D-06 EigMax=2.50D+02 EigMin=1.00D-04
 Number of steps in this run=     50 maximum allowed number of steps=    100.
 Search for a saddle point of order  1.
 GradGradGradGradGradGradGradGradGradGradGradGradGradGradGradGradGradGrad

 Leave Link  103 at Wed Oct  7 14:04:17 2020, MaxMem=  2684354560 cpu:               0.8 elap:               0.5
 (Enter /udrive/faculty/rpeverati/g16/g16/l202.exe)
                          Input orientation:                          
 ---------------------------------------------------------------------
 Center     Atomic      Atomic             Coordinates (Angstroms)
 Number     Number       Type             X           Y           Z
 ---------------------------------------------------------------------
      1          1           0        0.000000    0.000000    0.000000
      2          1           0        0.000000    0.000000    0.929473
      3          1           0        0.000000    0.000000   -0.929473
 ---------------------------------------------------------------------
                    Distance matrix (angstroms):
                    1          2          3
     1  H    0.000000
     2  H    0.929473   0.000000
     3  H    0.929473   1.858947   0.000000
 Stoichiometry    H3(2)
 Framework group  D*H[O(H),C*(H.H)]
 Deg. of freedom     1
 Full point group                 D*H     NOp   8
 Largest Abelian subgroup         D2H     NOp   8
 Largest concise Abelian subgroup C2      NOp   2
                         Standard orientation:                         
 ---------------------------------------------------------------------
 Center     Atomic      Atomic             Coordinates (Angstroms)
 Number     Number       Type             X           Y           Z
 ---------------------------------------------------------------------
      1          1           0        0.000000    0.000000    0.000000
      2          1           0        0.000000    0.000000    0.929473
      3          1           0        0.000000    0.000000   -0.929473
 ---------------------------------------------------------------------
 Rotational constants (GHZ):           0.0000000         290.2205843         290.2205843
 Leave Link  202 at Wed Oct  7 14:04:17 2020, MaxMem=  2684354560 cpu:               1.3 elap:               0.4
 (Enter /udrive/faculty/rpeverati/g16/g16/l301.exe)
 Standard basis: 6-31G(d) (5D, 7F)
 Ernie: Thresh=  0.10000D-02 Tol=  0.10000D-05 Strict=F.
 There are     4 symmetry adapted cartesian basis functions of AG  symmetry.
 There are     0 symmetry adapted cartesian basis functions of B1G symmetry.
 There are     0 symmetry adapted cartesian basis functions of B2G symmetry.
 There are     0 symmetry adapted cartesian basis functions of B3G symmetry.
 There are     0 symmetry adapted cartesian basis functions of AU  symmetry.
 There are     2 symmetry adapted cartesian basis functions of B1U symmetry.
 There are     0 symmetry adapted cartesian basis functions of B2U symmetry.
 There are     0 symmetry adapted cartesian basis functions of B3U symmetry.
 There are     4 symmetry adapted basis functions of AG  symmetry.
 There are     0 symmetry adapted basis functions of B1G symmetry.
 There are     0 symmetry adapted basis functions of B2G symmetry.
 There are     0 symmetry adapted basis functions of B3G symmetry.
 There are     0 symmetry adapted basis functions of AU  symmetry.
 There are     2 symmetry adapted basis functions of B1U symmetry.
 There are     0 symmetry adapted basis functions of B2U symmetry.
 There are     0 symmetry adapted basis functions of B3U symmetry.
     6 basis functions,    12 primitive gaussians,     6 cartesian basis functions
     2 alpha electrons        1 beta electrons
       nuclear repulsion energy         1.4233254579 Hartrees.
 IExCor= 3630 DFT=T Ex+Corr=B97D3 ExCW=0 ScaHFX=  0.000000
 ScaDFX=  1.000000  1.000000  1.000000  1.000000 ScalE2=  1.000000  1.000000
 IRadAn=      5 IRanWt=     -1 IRanGd=            0 ICorTp=0 IEmpDi=141
 NAtoms=    3 NActive=    3 NUniq=    2 SFac= 2.25D+00 NAtFMM=   60 NAOKFM=F Big=F
 Integral buffers will be    131072 words long.
 Raffenetti 2 integral format.
 Two-electron integral symmetry is turned on.
 R6Disp:  Grimme-D3(BJ) Dispersion energy=       -0.0019704744 Hartrees.
 Nuclear repulsion after empirical dispersion term =        1.4213549835 Hartrees.
 Leave Link  301 at Wed Oct  7 14:04:18 2020, MaxMem=  2684354560 cpu:               1.7 elap:               0.4
 (Enter /udrive/faculty/rpeverati/g16/g16/l302.exe)
 NPDir=0 NMtPBC=     1 NCelOv=     1 NCel=       1 NClECP=     1 NCelD=      1
         NCelK=      1 NCelE2=     1 NClLst=     1 CellRange=     0.0.
 One-electron integrals computed using PRISM.
 One-electron integral symmetry used in STVInt
 NBasis=     6 RedAO= T EigKep=  4.63D-02  NBF=     4     0     0     0     0     2     0     0
 NBsUse=     6 1.00D-06 EigRej= -1.00D+00 NBFU=     4     0     0     0     0     2     0     0
 Precomputing XC quadrature grid using
 IXCGrd= 4 IRadAn=           5 IRanWt=          -1 IRanGd=           0 AccXCQ= 0.00D+00.
 Generated NRdTot=       0 NPtTot=           0 NUsed=           0 NTot=          32
 NSgBfM=     6     6     6     6     6 MxSgAt=     3 MxSgA2=     3.
 Leave Link  302 at Wed Oct  7 14:04:19 2020, MaxMem=  2684354560 cpu:               2.6 elap:               0.6
 (Enter /udrive/faculty/rpeverati/g16/g16/l303.exe)
 DipDrv:  MaxL=1.
 Leave Link  303 at Wed Oct  7 14:04:20 2020, MaxMem=  2684354560 cpu:               1.8 elap:               0.5
 (Enter /udrive/faculty/rpeverati/g16/g16/l401.exe)
 SCF N**3 symmetry information disabled.
 ExpMin= 1.61D-01 ExpMax= 1.87D+01 ExpMxC= 1.87D+01 IAcc=3 IRadAn=         5 AccDes= 0.00D+00
 Harris functional with IExCor= 3630 and IRadAn=       5 diagonalized for initial guess.
 HarFok:  IExCor= 3630 AccDes= 0.00D+00 IRadAn=         5 IDoV= 1 UseB2=F ITyADJ=14
 ICtDFT=  3500011 ScaDFX=  1.000000  1.000000  1.000000  1.000000
 FoFCou: FMM=F IPFlag=           0 FMFlag=      100000 FMFlg1=           0
         NFxFlg=           0 DoJE=T BraDBF=F KetDBF=T FulRan=T
         wScrn=  0.000000 ICntrl=       500 IOpCl=  0 I1Cent=   200000004 NGrid=           0
         NMat0=    1 NMatS0=      1 NMatT0=    0 NMatD0=    1 NMtDS0=    0 NMtDT0=    0
 Petite list used in FoFCou.
 Harris En= -1.65972213929698    
 JPrj=0 DoOrth=F DoCkMO=F.
 Initial guess orbital symmetries:
 Alpha Orbitals:
       Occupied  (SGG) (SGU)
       Virtual   (SGG) (SGG) (SGU) (SGG)
 Beta  Orbitals:
       Occupied  (SGG)
       Virtual   (SGU) (SGG) (SGG) (SGU) (SGG)
 The electronic state of the initial guess is 2-SGU.
 Initial guess <Sx>= 0.0000 <Sy>= 0.0000 <Sz>= 0.5000 <S**2>= 0.7500 S= 0.5000
 Leave Link  401 at Wed Oct  7 14:04:20 2020, MaxMem=  2684354560 cpu:               2.4 elap:               0.6
 (Enter /udrive/faculty/rpeverati/g16/g16/l502.exe)
 Keep J ints in memory in symmetry-blocked form, NReq=10144312.
 FoFCou: FMM=F IPFlag=           0 FMFlag=           0 FMFlg1=           0
         NFxFlg=           0 DoJE=F BraDBF=F KetDBF=F FulRan=T
         wScrn=  0.000000 ICntrl=       600 IOpCl=  0 I1Cent=           0 NGrid=           0
         NMat0=    1 NMatS0=     21 NMatT0=    0 NMatD0=    1 NMtDS0=    0 NMtDT0=    0
 Petite list used in FoFCou.
 UHF open shell SCF:
 Using DIIS extrapolation, IDIIS=  1040.
 NGot=  2684354560 LenX=  2684352344 LenY=  2684351462
 Requested convergence on RMS density matrix=1.00D-08 within 120 cycles.
 Requested convergence on MAX density matrix=1.00D-06.
 Requested convergence on             energy=1.00D-06.
 No special actions if energy rises.
 Integral accuracy reduced to 1.0D-05 until final iterations.

 Cycle   1  Pass 0  IDiag  1:
 E= -1.66661032350017    
 DIIS: error= 1.97D-02 at cycle   1 NSaved=   1.
 NSaved= 1 IEnMin= 1 EnMin= -1.66661032350017     IErMin= 1 ErrMin= 1.97D-02
 ErrMax= 1.97D-02  0.00D+00 EMaxC= 1.00D-01 BMatC= 6.26D-03 BMatP= 6.26D-03
 IDIUse=3 WtCom= 8.03D-01 WtEn= 1.97D-01
 Coeff-Com:  0.100D+01
 Coeff-En:   0.100D+01
 Coeff:      0.100D+01
 Gap=     0.343 Goal=   None    Shift=    0.000
 Gap=     0.263 Goal=   None    Shift=    0.000
 GapD=    0.263 DampG=1.000 DampE=0.500 DampFc=0.5000 IDamp=-1.
 Damping current iteration by 5.00D-01
 RMSDP=1.40D-02 MaxDP=3.43D-02              OVMax= 4.77D-02

 Cycle   2  Pass 0  IDiag  1:
 E= -1.66820181093098     Delta-E=       -0.001591487431 Rises=F Damp=T
 DIIS: error= 8.93D-03 at cycle   2 NSaved=   2.
 NSaved= 2 IEnMin= 2 EnMin= -1.66820181093098     IErMin= 2 ErrMin= 8.93D-03
 ErrMax= 8.93D-03  0.00D+00 EMaxC= 1.00D-01 BMatC= 1.20D-03 BMatP= 6.26D-03
 IDIUse=3 WtCom= 9.11D-01 WtEn= 8.93D-02
 Coeff-Com: -0.598D+00 0.160D+01
 Coeff-En:   0.000D+00 0.100D+01
 Coeff:     -0.545D+00 0.154D+01
 Gap=     0.344 Goal=   None    Shift=    0.000
 Gap=     0.270 Goal=   None    Shift=    0.000
 RMSDP=4.37D-03 MaxDP=1.18D-02 DE=-1.59D-03 OVMax= 1.53D-02

 Cycle   3  Pass 0  IDiag  1:
 E= -1.66970527332970     Delta-E=       -0.001503462399 Rises=F Damp=F
 DIIS: error= 1.35D-03 at cycle   3 NSaved=   3.
 NSaved= 3 IEnMin= 3 EnMin= -1.66970527332970     IErMin= 3 ErrMin= 1.35D-03
 ErrMax= 1.35D-03  0.00D+00 EMaxC= 1.00D-01 BMatC= 1.78D-05 BMatP= 1.20D-03
 IDIUse=3 WtCom= 9.86D-01 WtEn= 1.35D-02
 Coeff-Com: -0.493D-01 0.108D-01 0.104D+01
 Coeff-En:   0.000D+00 0.000D+00 0.100D+01
 Coeff:     -0.487D-01 0.106D-01 0.104D+01
 Gap=     0.345 Goal=   None    Shift=    0.000
 Gap=     0.271 Goal=   None    Shift=    0.000
 RMSDP=5.82D-04 MaxDP=1.64D-03 DE=-1.50D-03 OVMax= 2.65D-03

 Cycle   4  Pass 0  IDiag  1:
 E= -1.66971482685267     Delta-E=       -0.000009553523 Rises=F Damp=F
 DIIS: error= 7.83D-05 at cycle   4 NSaved=   4.
 NSaved= 4 IEnMin= 4 EnMin= -1.66971482685267     IErMin= 4 ErrMin= 7.83D-05
 ErrMax= 7.83D-05  0.00D+00 EMaxC= 1.00D-01 BMatC= 1.65D-07 BMatP= 1.78D-05
 IDIUse=1 WtCom= 1.00D+00 WtEn= 0.00D+00
 Coeff-Com:  0.377D-02-0.173D-01-0.119D-01 0.103D+01
 Coeff:      0.377D-02-0.173D-01-0.119D-01 0.103D+01
 Gap=     0.345 Goal=   None    Shift=    0.000
 Gap=     0.271 Goal=   None    Shift=    0.000
 RMSDP=4.61D-05 MaxDP=1.45D-04 DE=-9.55D-06 OVMax= 2.07D-04

 Cycle   5  Pass 0  IDiag  1:
 E= -1.66971491401349     Delta-E=       -0.000000087161 Rises=F Damp=F
 DIIS: error= 6.50D-06 at cycle   5 NSaved=   5.
 NSaved= 5 IEnMin= 5 EnMin= -1.66971491401349     IErMin= 5 ErrMin= 6.50D-06
 ErrMax= 6.50D-06  0.00D+00 EMaxC= 1.00D-01 BMatC= 4.93D-10 BMatP= 1.65D-07
 IDIUse=1 WtCom= 1.00D+00 WtEn= 0.00D+00
 Coeff-Com: -0.158D-03 0.581D-03-0.462D-02-0.563D-02 0.101D+01
 Coeff:     -0.158D-03 0.581D-03-0.462D-02-0.563D-02 0.101D+01
 Gap=     0.346 Goal=   None    Shift=    0.000
 Gap=     0.271 Goal=   None    Shift=    0.000
 RMSDP=4.65D-06 MaxDP=1.98D-05 DE=-8.72D-08 OVMax= 1.34D-05

 Initial convergence to 1.0D-05 achieved.  Increase integral accuracy.
 Cycle   6  Pass 1  IDiag  1:
 E= -1.66971623311201     Delta-E=       -0.000001319099 Rises=F Damp=F
 DIIS: error= 3.16D-06 at cycle   1 NSaved=   1.
 NSaved= 1 IEnMin= 1 EnMin= -1.66971623311201     IErMin= 1 ErrMin= 3.16D-06
 ErrMax= 3.16D-06  0.00D+00 EMaxC= 1.00D-01 BMatC= 2.20D-10 BMatP= 2.20D-10
 IDIUse=1 WtCom= 1.00D+00 WtEn= 0.00D+00
 Coeff-Com:  0.100D+01
 Coeff:      0.100D+01
 Gap=     0.346 Goal=   None    Shift=    0.000
 Gap=     0.271 Goal=   None    Shift=    0.000
 RMSDP=4.65D-06 MaxDP=1.98D-05 DE=-1.32D-06 OVMax= 4.43D-06

 Cycle   7  Pass 1  IDiag  1:
 E= -1.66971623320907     Delta-E=       -0.000000000097 Rises=F Damp=F
 DIIS: error= 8.98D-07 at cycle   2 NSaved=   2.
 NSaved= 2 IEnMin= 2 EnMin= -1.66971623320907     IErMin= 2 ErrMin= 8.98D-07
 ErrMax= 8.98D-07  0.00D+00 EMaxC= 1.00D-01 BMatC= 7.93D-12 BMatP= 2.20D-10
 IDIUse=1 WtCom= 1.00D+00 WtEn= 0.00D+00
 Coeff-Com: -0.851D-01 0.109D+01
 Coeff:     -0.851D-01 0.109D+01
 Gap=     0.346 Goal=   None    Shift=    0.000
 Gap=     0.271 Goal=   None    Shift=    0.000
 RMSDP=5.25D-07 MaxDP=1.55D-06 DE=-9.71D-11 OVMax= 2.28D-06

 Cycle   8  Pass 1  IDiag  1:
 E= -1.66971623321320     Delta-E=       -0.000000000004 Rises=F Damp=F
 DIIS: error= 2.79D-07 at cycle   3 NSaved=   3.
 NSaved= 3 IEnMin= 3 EnMin= -1.66971623321320     IErMin= 3 ErrMin= 2.79D-07
 ErrMax= 2.79D-07  0.00D+00 EMaxC= 1.00D-01 BMatC= 9.75D-13 BMatP= 7.93D-12
 IDIUse=1 WtCom= 1.00D+00 WtEn= 0.00D+00
 Coeff-Com: -0.589D-01 0.252D+00 0.807D+00
 Coeff:     -0.589D-01 0.252D+00 0.807D+00
 Gap=     0.346 Goal=   None    Shift=    0.000
 Gap=     0.271 Goal=   None    Shift=    0.000
 RMSDP=1.36D-07 MaxDP=3.33D-07 DE=-4.12D-12 OVMax= 5.30D-07

 Cycle   9  Pass 1  IDiag  1:
 E= -1.66971623321364     Delta-E=       -0.000000000000 Rises=F Damp=F
 DIIS: error= 2.27D-08 at cycle   4 NSaved=   4.
 NSaved= 4 IEnMin= 4 EnMin= -1.66971623321364     IErMin= 4 ErrMin= 2.27D-08
 ErrMax= 2.27D-08  0.00D+00 EMaxC= 1.00D-01 BMatC= 4.77D-15 BMatP= 9.75D-13
 IDIUse=1 WtCom= 1.00D+00 WtEn= 0.00D+00
 Coeff-Com: -0.194D-02-0.916D-02 0.471D-01 0.964D+00
 Coeff:     -0.194D-02-0.916D-02 0.471D-01 0.964D+00
 Gap=     0.346 Goal=   None    Shift=    0.000
 Gap=     0.271 Goal=   None    Shift=    0.000
 RMSDP=6.94D-09 MaxDP=2.76D-08 DE=-4.47D-13 OVMax= 3.86D-08

 SCF Done:  E(UB97D3) =  -1.66971623321     A.U. after    9 cycles
            NFock=  9  Conv=0.69D-08     -V/T= 2.0070
 <Sx>= 0.0000 <Sy>= 0.0000 <Sz>= 0.5000 <S**2>= 0.7528 S= 0.5014
 <L.S>= 0.000000000000E+00
 KE= 1.658157773474D+00 PE=-6.017601829723D+00 EE= 1.268372839502D+00
 Annihilation of the first spin contaminant:
 S**2 before annihilation     0.7528,   after     0.7500
 Leave Link  502 at Wed Oct  7 14:04:21 2020, MaxMem=  2684354560 cpu:               4.6 elap:               0.8
 (Enter /udrive/faculty/rpeverati/g16/g16/l508.exe)
 QCSCF skips out because SCF is already converged.
 Leave Link  508 at Wed Oct  7 14:04:22 2020, MaxMem=  2684354560 cpu:               0.4 elap:               0.4
 (Enter /udrive/faculty/rpeverati/g16/g16/l601.exe)
 Copying SCF densities to generalized density rwf, IOpCl= 1 IROHF=0.

 **********************************************************************

            Population analysis using the SCF density.

 **********************************************************************

 Orbital symmetries:
 Alpha Orbitals:
       Occupied  (SGG) (SGU)
       Virtual   (SGG) (SGG) (SGU) (SGG)
 Beta  Orbitals:
       Occupied  (SGG)
       Virtual   (SGU) (SGG) (SGG) (SGU) (SGG)
 The electronic state is 2-SGU.
 Alpha  occ. eigenvalues --   -0.45805  -0.20848
 Alpha virt. eigenvalues --    0.13702   0.64529   0.73030   0.97071
  Beta  occ. eigenvalues --   -0.42331
  Beta virt. eigenvalues --   -0.15199   0.12246   0.66232   0.74274   0.98203
          Condensed to atoms (all electrons):
               1          2          3
     1  H    0.631799   0.209166   0.209166
     2  H    0.209166   0.893336  -0.127568
     3  H    0.209166  -0.127568   0.893336
          Atomic-Atomic Spin Densities.
               1          2          3
     1  H   -0.057015  -0.000379  -0.000379
     2  H   -0.000379   0.690416  -0.161150
     3  H   -0.000379  -0.161150   0.690416
 Mulliken charges and spin densities:
               1          2
     1  H   -0.050131  -0.057773
     2  H    0.025066   0.528887
     3  H    0.025066   0.528887
 Sum of Mulliken charges =  -0.00000   1.00000
 Mulliken charges and spin densities with hydrogens summed into heavy atoms:
               1          2
 Electronic spatial extent (au):  <R**2>=             13.5225
 Charge=             -0.0000 electrons
 Dipole moment (field-independent basis, Debye):
    X=              0.0000    Y=              0.0000    Z=             -0.0000  Tot=              0.0000
 Quadrupole moment (field-independent basis, Debye-Ang):
   XX=             -3.2584   YY=             -3.2584   ZZ=             -3.3722
   XY=              0.0000   XZ=              0.0000   YZ=              0.0000
 Traceless Quadrupole moment (field-independent basis, Debye-Ang):
   XX=              0.0379   YY=              0.0379   ZZ=             -0.0758
   XY=              0.0000   XZ=              0.0000   YZ=              0.0000
 Octapole moment (field-independent basis, Debye-Ang**2):
  XXX=             -0.0000  YYY=              0.0000  ZZZ=             -0.0000  XYY=             -0.0000
  XXY=              0.0000  XXZ=             -0.0000  XZZ=             -0.0000  YZZ=              0.0000
  YYZ=             -0.0000  XYZ=              0.0000
 Hexadecapole moment (field-independent basis, Debye-Ang**3):
 XXXX=             -3.1445 YYYY=             -3.1445 ZZZZ=            -15.2673 XXXY=              0.0000
 XXXZ=              0.0000 YYYX=              0.0000 YYYZ=              0.0000 ZZZX=              0.0000
 ZZZY=              0.0000 XXYY=             -1.0482 XXZZ=             -3.1242 YYZZ=             -3.1242
 XXYZ=              0.0000 YYXZ=              0.0000 ZZXY=              0.0000
 N-N= 1.421354983533D+00 E-N=-6.017601819406D+00  KE= 1.658157773474D+00
                          Isotropic Fermi Contact Couplings
        Atom                 a.u.       MegaHertz       Gauss      10(-4) cm-1
     1  H(1)              -0.02270    -101.48482     -36.21231     -33.85169
     2  H(1)               0.19987     893.41132     318.79138     298.00994
     3  H(1)               0.19987     893.41132     318.79138     298.00994
 --------------------------------------------------------
       Center         ----  Spin Dipole Couplings  ----
                      3XX-RR        3YY-RR        3ZZ-RR
 --------------------------------------------------------
     1   Atom       -0.111482     -0.111482      0.222964
     2   Atom        0.002244      0.002244     -0.004488
     3   Atom        0.002244      0.002244     -0.004488
 --------------------------------------------------------
                        XY            XZ            YZ
 --------------------------------------------------------
     1   Atom        0.000000     -0.000000      0.000000
     2   Atom        0.000000      0.000000      0.000000
     3   Atom        0.000000      0.000000      0.000000
 --------------------------------------------------------


 ---------------------------------------------------------------------------------
              Anisotropic Spin Dipole Couplings in Principal Axis System
 ---------------------------------------------------------------------------------

       Atom             a.u.   MegaHertz   Gauss  10(-4) cm-1        Axes

              Baa    -0.1115   -59.482   -21.224   -19.841  0.0000  1.0000  0.0000
     1 H(1)   Bbb    -0.1115   -59.482   -21.224   -19.841  1.0000  0.0000  0.0000
              Bcc     0.2230   118.963    42.449    39.682 -0.0000  0.0000  1.0000
 
              Baa    -0.0045    -2.394    -0.854    -0.799 -0.0000  0.0000  1.0000
     2 H(1)   Bbb     0.0022     1.197     0.427     0.399  0.0000  1.0000  0.0000
              Bcc     0.0022     1.197     0.427     0.399  1.0000  0.0000  0.0000
 
              Baa    -0.0045    -2.394    -0.854    -0.799 -0.0000  0.0000  1.0000
     3 H(1)   Bbb     0.0022     1.197     0.427     0.399  0.0000  1.0000  0.0000
              Bcc     0.0022     1.197     0.427     0.399  1.0000  0.0000  0.0000
 

 ---------------------------------------------------------------------------------

 No NMR shielding tensors so no spin-rotation constants.
 Leave Link  601 at Wed Oct  7 14:04:23 2020, MaxMem=  2684354560 cpu:               3.3 elap:               0.6
 (Enter /udrive/faculty/rpeverati/g16/g16/l701.exe)
 ... and contract with generalized density number  0.
 Compute integral first derivatives.
 R6Disp: Adding Grimme-D3(BJ) dispersion energy 1st derivatives to the gradient.
 Leave Link  701 at Wed Oct  7 14:04:24 2020, MaxMem=  2684354560 cpu:               2.0 elap:               0.5
 (Enter /udrive/faculty/rpeverati/g16/g16/l702.exe)
 L702 exits ... SP integral derivatives will be done elsewhere.
 Leave Link  702 at Wed Oct  7 14:04:24 2020, MaxMem=  2684354560 cpu:               1.4 elap:               0.4
 (Enter /udrive/faculty/rpeverati/g16/g16/l703.exe)
 Integral derivatives from FoFJK, PRISM(SPDF).
 Compute integral first derivatives, UseDBF=F ICtDFT=           0.
 Calling FoFJK, ICntrl=      2527 FMM=F ISym2X=1 I1Cent= 0 IOpClX= 0 NMat=1 NMatS=1 NMatT=0.
 FoFJK:  IHMeth= 1 ICntrl=    2527 DoSepK=F KAlg= 0 I1Cent=           0 FoldK=F
 IRaf=         0 NMat=       1 IRICut=       1 DoRegI=T DoRafI=F ISym2E= 1 IDoP0=0 IntGTp=1.
 FoFCou: FMM=F IPFlag=           0 FMFlag=      100000 FMFlg1=         800
         NFxFlg=           0 DoJE=F BraDBF=F KetDBF=F FulRan=T
         wScrn=  0.000000 ICntrl=      2527 IOpCl=  0 I1Cent=           0 NGrid=           0
         NMat0=    1 NMatS0=      1 NMatT0=    0 NMatD0=    1 NMtDS0=    0 NMtDT0=    0
 Petite list used in FoFCou.
 Leave Link  703 at Wed Oct  7 14:04:25 2020, MaxMem=  2684354560 cpu:               2.5 elap:               0.6
 (Enter /udrive/faculty/rpeverati/g16/g16/l716.exe)
 Dipole        = 3.97428556D-18 0.00000000D+00-2.22044605D-16
 ***** Axes restored to original set *****
 -------------------------------------------------------------------
 Center     Atomic                   Forces (Hartrees/Bohr)
 Number     Number              X              Y              Z
 -------------------------------------------------------------------
      1        1           0.000000000    0.000000000    0.000000000
      2        1          -0.000000000   -0.000000000    0.004483608
      3        1          -0.000000000   -0.000000000   -0.004483608
 -------------------------------------------------------------------
 Cartesian Forces:  Max     0.004483608 RMS     0.002113593
 Leave Link  716 at Wed Oct  7 14:04:26 2020, MaxMem=  2684354560 cpu:               2.1 elap:               0.6
 (Enter /udrive/faculty/rpeverati/g16/g16/l103.exe)

 GradGradGradGradGradGradGradGradGradGradGradGradGradGradGradGradGradGrad
 Berny optimization.
 Optmz: redundant internal coordinate code flag= 1
 FormGI is forming the generalized inverse of G from B-inverse, IUseBI=4.
 Internal  Forces:  Max     0.004483608 RMS     0.003170390
 Search for a saddle point.
 Step number   1 out of a maximum of   50
 All quantities printed in internal units (Hartrees-Bohrs-Radians)
 Swapping is turned off.
 Second derivative matrix not updated -- first step.
 The second derivative matrix:
                          R1        R2        A1        A2
           R1           0.21660
           R2           0.00000   0.21660
           A1           0.00000   0.00000   0.00230
           A2           0.00000   0.00000   0.00000   0.00230
 ITU=  0
 Eigenvectors of the second derivative matrix:
                           1         2         3         4
     Eigenvalues --     0.00230   0.00230   0.21660   0.21660
   1         R1         0.00000  -0.00000  -0.70711  -0.70711
   2         R2        -0.00000   0.00000  -0.70711   0.70711
   3         A1        -0.86380  -0.50384   0.00000   0.00000
   4         A2        -0.50384   0.86380   0.00000  -0.00000
 Eigenvalue     1 is   2.30D-03 should be less than     0.000000 Eigenvector:
                          A1        A2        R1        R2
   1                   -0.86380  -0.50384   0.00000  -0.00000
 RLam0= 2.30D-03.
 Iter=   1 RLamda= 0.00000000D+00 Sum=-1.85617677D-04.
 Iter=   2 RLamda=-1.85617677D-04 Sum=-1.85458749D-04.
 Iter=   3 RLamda=-1.85458749D-04 Sum=-1.85458885D-04.
 RFO step:  Lambda0=2.300010000D-03 Lambda=-1.85458749D-04.
 Linear search not attempted -- option 19 set.
 Iteration  1 RMS(Cart)=  0.01799553 RMS(Int)=  0.00021543
 Iteration  2 RMS(Cart)=  0.00018203 RMS(Int)=  0.00000022
 Iteration  3 RMS(Cart)=  0.00000002 RMS(Int)=  0.00000022
 ITry= 1 IFail=0 DXMaxC= 2.05D-02 DCOld= 1.00D+10 DXMaxT= 1.00D-01 DXLimC= 3.00D+00 Rises=F
 ClnCor:  largest displacement from symmetrization is 1.73D-02 for atom     1.
 Variable       Old X    -DE/DX   Delta X   Delta X   Delta X     New X
                                 (Linear)    (Quad)   (Total)
    R1        1.75645   0.00448   0.00000   0.02068   0.02049   1.77694
    R2        1.75645   0.00448   0.00000   0.02068   0.02049   1.77694
    A1        3.14159   0.00000   0.00000   0.02526   0.00000   3.14159
    A2        3.14159  -0.00000   0.00000   0.01474   0.00000   3.14159
         Item               Value     Threshold  Converged?
 Maximum Force            0.004484     0.000450     NO 
 RMS     Force            0.003170     0.000300     NO 
 Maximum Displacement     0.020492     0.001800     NO 
 RMS     Displacement     0.014490     0.001200     NO 
 Predicted change in Energy=-9.279949D-05
 Lowest energy point so far.  Saving SCF results.
 Largest change from initial coordinates is atom    2       0.011 Angstoms.
 GradGradGradGradGradGradGradGradGradGradGradGradGradGradGradGradGradGrad

 Leave Link  103 at Wed Oct  7 14:04:27 2020, MaxMem=  2684354560 cpu:               2.0 elap:               0.5
 (Enter /udrive/faculty/rpeverati/g16/g16/l202.exe)
                          Input orientation:                          
 ---------------------------------------------------------------------
 Center     Atomic      Atomic             Coordinates (Angstroms)
 Number     Number       Type             X           Y           Z
 ---------------------------------------------------------------------
      1          1           0       -0.000000    0.000000   -0.000000
      2          1           0        0.000000    0.000000    0.940317
      3          1           0        0.000000    0.000000   -0.940317
 ---------------------------------------------------------------------
                    Distance matrix (angstroms):
                    1          2          3
     1  H    0.000000
     2  H    0.940317   0.000000
     3  H    0.940317   1.880634   0.000000
 Stoichiometry    H3(2)
 Framework group  D*H[O(H),C*(H.H)]
 Deg. of freedom     1
 Full point group                 D*H     NOp   8
 RotChk:  IX=0 Diff= 0.00D+00
 Largest Abelian subgroup         D2H     NOp   8
 Largest concise Abelian subgroup C2      NOp   2
                         Standard orientation:                         
 ---------------------------------------------------------------------
 Center     Atomic      Atomic             Coordinates (Angstroms)
 Number     Number       Type             X           Y           Z
 ---------------------------------------------------------------------
      1          1           0        0.000000    0.000000    0.000000
      2          1           0        0.000000    0.000000    0.940317
      3          1           0        0.000000    0.000000   -0.940317
 ---------------------------------------------------------------------
 Rotational constants (GHZ):           0.0000000         283.5654803         283.5654803
 Leave Link  202 at Wed Oct  7 14:04:28 2020, MaxMem=  2684354560 cpu:               2.0 elap:               0.6
 (Enter /udrive/faculty/rpeverati/g16/g16/l301.exe)
 Standard basis: 6-31G(d) (5D, 7F)
 Ernie: Thresh=  0.10000D-02 Tol=  0.10000D-05 Strict=F.
 There are     4 symmetry adapted cartesian basis functions of AG  symmetry.
 There are     0 symmetry adapted cartesian basis functions of B1G symmetry.
 There are     0 symmetry adapted cartesian basis functions of B2G symmetry.
 There are     0 symmetry adapted cartesian basis functions of B3G symmetry.
 There are     0 symmetry adapted cartesian basis functions of AU  symmetry.
 There are     2 symmetry adapted cartesian basis functions of B1U symmetry.
 There are     0 symmetry adapted cartesian basis functions of B2U symmetry.
 There are     0 symmetry adapted cartesian basis functions of B3U symmetry.
 There are     4 symmetry adapted basis functions of AG  symmetry.
 There are     0 symmetry adapted basis functions of B1G symmetry.
 There are     0 symmetry adapted basis functions of B2G symmetry.
 There are     0 symmetry adapted basis functions of B3G symmetry.
 There are     0 symmetry adapted basis functions of AU  symmetry.
 There are     2 symmetry adapted basis functions of B1U symmetry.
 There are     0 symmetry adapted basis functions of B2U symmetry.
 There are     0 symmetry adapted basis functions of B3U symmetry.
     6 basis functions,    12 primitive gaussians,     6 cartesian basis functions
     2 alpha electrons        1 beta electrons
       nuclear repulsion energy         1.4069115397 Hartrees.
 IExCor= 3630 DFT=T Ex+Corr=B97D3 ExCW=0 ScaHFX=  0.000000
 ScaDFX=  1.000000  1.000000  1.000000  1.000000 ScalE2=  1.000000  1.000000
 IRadAn=      5 IRanWt=     -1 IRanGd=            0 ICorTp=0 IEmpDi=141
 NAtoms=    3 NActive=    3 NUniq=    2 SFac= 2.25D+00 NAtFMM=   60 NAOKFM=F Big=F
 Integral buffers will be    131072 words long.
 Raffenetti 2 integral format.
 Two-electron integral symmetry is turned on.
 R6Disp:  Grimme-D3(BJ) Dispersion energy=       -0.0020452570 Hartrees.
 Nuclear repulsion after empirical dispersion term =        1.4048662827 Hartrees.
 Leave Link  301 at Wed Oct  7 14:04:29 2020, MaxMem=  2684354560 cpu:               2.2 elap:               0.5
 (Enter /udrive/faculty/rpeverati/g16/g16/l302.exe)
 NPDir=0 NMtPBC=     1 NCelOv=     1 NCel=       1 NClECP=     1 NCelD=      1
         NCelK=      1 NCelE2=     1 NClLst=     1 CellRange=     0.0.
 One-electron integrals computed using PRISM.
 One-electron integral symmetry used in STVInt
 NBasis=     6 RedAO= T EigKep=  4.80D-02  NBF=     4     0     0     0     0     2     0     0
 NBsUse=     6 1.00D-06 EigRej= -1.00D+00 NBFU=     4     0     0     0     0     2     0     0
 Precomputing XC quadrature grid using
 IXCGrd= 4 IRadAn=           5 IRanWt=          -1 IRanGd=           0 AccXCQ= 0.00D+00.
 Generated NRdTot=       0 NPtTot=           0 NUsed=           0 NTot=          32
 NSgBfM=     6     6     6     6     6 MxSgAt=     3 MxSgA2=     3.
 Leave Link  302 at Wed Oct  7 14:04:29 2020, MaxMem=  2684354560 cpu:               2.4 elap:               0.6
 (Enter /udrive/faculty/rpeverati/g16/g16/l303.exe)
 DipDrv:  MaxL=1.
 Leave Link  303 at Wed Oct  7 14:04:30 2020, MaxMem=  2684354560 cpu:               2.1 elap:               0.5
 (Enter /udrive/faculty/rpeverati/g16/g16/l401.exe)
 Initial guess from the checkpoint file:  "MN_82_RKT06_BH76_B97DBJ_631Gs.chk"
 SCF N**3 symmetry information disabled.
 B after Tr=     0.000000    0.000000    0.000000
         Rot=    1.000000    0.000000    0.000000    0.000000 Ang=   0.00 deg.
 Guess basis will be translated and rotated to current coordinates.
 JPrj=2 DoOrth=T DoCkMO=T.
 Initial guess orbital symmetries:
 Alpha Orbitals:
       Occupied  (SGG) (SGU)
       Virtual   (SGG) (SGG) (SGU) (SGG)
 Beta  Orbitals:
       Occupied  (SGG)
       Virtual   (SGU) (SGG) (SGG) (SGU) (SGG)
 The electronic state of the initial guess is 2-SGU.
 Initial guess <Sx>= 0.0000 <Sy>= 0.0000 <Sz>= 0.5000 <S**2>= 0.7529 S= 0.5014
 Generating alternative initial guess.
 ExpMin= 1.61D-01 ExpMax= 1.87D+01 ExpMxC= 1.87D+01 IAcc=2 IRadAn=         4 AccDes= 0.00D+00
 Harris functional with IExCor= 3630 and IRadAn=       4 diagonalized for initial guess.
 HarFok:  IExCor= 3630 AccDes= 0.00D+00 IRadAn=         4 IDoV= 1 UseB2=F ITyADJ=14
 ICtDFT=  3500011 ScaDFX=  1.000000  1.000000  1.000000  1.000000
 FoFCou: FMM=F IPFlag=           0 FMFlag=      100000 FMFlg1=           0
         NFxFlg=           0 DoJE=T BraDBF=F KetDBF=T FulRan=T
         wScrn=  0.000000 ICntrl=       500 IOpCl=  0 I1Cent=   200000004 NGrid=           0
         NMat0=    1 NMatS0=      1 NMatT0=    0 NMatD0=    1 NMtDS0=    0 NMtDT0=    0
 Petite list used in FoFCou.
 Harris En= -1.65952138312954    
 Leave Link  401 at Wed Oct  7 14:04:31 2020, MaxMem=  2684354560 cpu:               3.6 elap:               0.7
 (Enter /udrive/faculty/rpeverati/g16/g16/l502.exe)
 Keep J ints in memory in symmetry-blocked form, NReq=10144312.
 FoFCou: FMM=F IPFlag=           0 FMFlag=           0 FMFlg1=           0
         NFxFlg=           0 DoJE=F BraDBF=F KetDBF=F FulRan=T
         wScrn=  0.000000 ICntrl=       600 IOpCl=  0 I1Cent=           0 NGrid=           0
         NMat0=    1 NMatS0=     21 NMatT0=    0 NMatD0=    1 NMtDS0=    0 NMtDT0=    0
 Petite list used in FoFCou.
 UHF open shell SCF:
 Using DIIS extrapolation, IDIIS=  1040.
 NGot=  2684354560 LenX=  2684352344 LenY=  2684351462
 Requested convergence on RMS density matrix=1.00D-08 within 120 cycles.
 Requested convergence on MAX density matrix=1.00D-06.
 Requested convergence on             energy=1.00D-06.
 No special actions if energy rises.
 Integral accuracy reduced to 1.0D-05 until final iterations.

 Cycle   1  Pass 0  IDiag  1:
 E= -1.66979969764415    
 DIIS: error= 1.59D-03 at cycle   1 NSaved=   1.
 NSaved= 1 IEnMin= 1 EnMin= -1.66979969764415     IErMin= 1 ErrMin= 1.59D-03
 ErrMax= 1.59D-03  0.00D+00 EMaxC= 1.00D-01 BMatC= 5.29D-05 BMatP= 5.29D-05
 IDIUse=3 WtCom= 9.84D-01 WtEn= 1.59D-02
 Coeff-Com:  0.100D+01
 Coeff-En:   0.100D+01
 Coeff:      0.100D+01
 Gap=     0.343 Goal=   None    Shift=    0.000
 Gap=     0.266 Goal=   None    Shift=    0.000
 GapD=    0.266 DampG=1.000 DampE=1.000 DampFc=1.0000 IDamp=-1.
 RMSDP=8.51D-04 MaxDP=2.49D-03              OVMax= 3.90D-03

 Cycle   2  Pass 0  IDiag  1:
 E= -1.66981996033498     Delta-E=       -0.000020262691 Rises=F Damp=F
 DIIS: error= 5.04D-04 at cycle   2 NSaved=   2.
 NSaved= 2 IEnMin= 2 EnMin= -1.66981996033498     IErMin= 2 ErrMin= 5.04D-04
 ErrMax= 5.04D-04  0.00D+00 EMaxC= 1.00D-01 BMatC= 4.56D-06 BMatP= 5.29D-05
 IDIUse=3 WtCom= 9.95D-01 WtEn= 5.04D-03
 Coeff-Com:  0.200D+00 0.800D+00
 Coeff-En:   0.000D+00 0.100D+01
 Coeff:      0.199D+00 0.801D+00
 Gap=     0.343 Goal=   None    Shift=    0.000
 Gap=     0.267 Goal=   None    Shift=    0.000
 RMSDP=3.70D-04 MaxDP=1.04D-03 DE=-2.03D-05 OVMax= 1.36D-03

 Cycle   3  Pass 0  IDiag  1:
 E= -1.66982208077389     Delta-E=       -0.000002120439 Rises=F Damp=F
 DIIS: error= 9.75D-05 at cycle   3 NSaved=   3.
 NSaved= 3 IEnMin= 3 EnMin= -1.66982208077389     IErMin= 3 ErrMin= 9.75D-05
 ErrMax= 9.75D-05  0.00D+00 EMaxC= 1.00D-01 BMatC= 1.29D-07 BMatP= 4.56D-06
 IDIUse=1 WtCom= 1.00D+00 WtEn= 0.00D+00
 Coeff-Com:  0.195D-03 0.135D+00 0.865D+00
 Coeff:      0.195D-03 0.135D+00 0.865D+00
 Gap=     0.343 Goal=   None    Shift=    0.000
 Gap=     0.267 Goal=   None    Shift=    0.000
 RMSDP=4.36D-05 MaxDP=1.06D-04 DE=-2.12D-06 OVMax= 1.58D-04

 Cycle   4  Pass 0  IDiag  1:
 E= -1.66982213740698     Delta-E=       -0.000000056633 Rises=F Damp=F
 DIIS: error= 5.45D-06 at cycle   4 NSaved=   4.
 NSaved= 4 IEnMin= 4 EnMin= -1.66982213740698     IErMin= 4 ErrMin= 5.45D-06
 ErrMax= 5.45D-06  0.00D+00 EMaxC= 1.00D-01 BMatC= 5.37D-10 BMatP= 1.29D-07
 IDIUse=1 WtCom= 1.00D+00 WtEn= 0.00D+00
 Coeff-Com: -0.264D-02-0.140D-01-0.457D-01 0.106D+01
 Coeff:     -0.264D-02-0.140D-01-0.457D-01 0.106D+01
 Gap=     0.343 Goal=   None    Shift=    0.000
 Gap=     0.267 Goal=   None    Shift=    0.000
 RMSDP=2.42D-06 MaxDP=6.31D-06 DE=-5.66D-08 OVMax= 1.19D-05

 Initial convergence to 1.0D-05 achieved.  Increase integral accuracy.
 Cycle   5  Pass 1  IDiag  1:
 E= -1.66982341609326     Delta-E=       -0.000001278686 Rises=F Damp=F
 DIIS: error= 1.93D-06 at cycle   1 NSaved=   1.
 NSaved= 1 IEnMin= 1 EnMin= -1.66982341609326     IErMin= 1 ErrMin= 1.93D-06
 ErrMax= 1.93D-06  0.00D+00 EMaxC= 1.00D-01 BMatC= 1.31D-10 BMatP= 1.31D-10
 IDIUse=1 WtCom= 1.00D+00 WtEn= 0.00D+00
 Coeff-Com:  0.100D+01
 Coeff:      0.100D+01
 Gap=     0.343 Goal=   None    Shift=    0.000
 Gap=     0.267 Goal=   None    Shift=    0.000
 RMSDP=2.42D-06 MaxDP=6.31D-06 DE=-1.28D-06 OVMax= 3.03D-06

 Cycle   6  Pass 1  IDiag  1:
 E= -1.66982341615028     Delta-E=       -0.000000000057 Rises=F Damp=F
 DIIS: error= 5.06D-07 at cycle   2 NSaved=   2.
 NSaved= 2 IEnMin= 2 EnMin= -1.66982341615028     IErMin= 2 ErrMin= 5.06D-07
 ErrMax= 5.06D-07  0.00D+00 EMaxC= 1.00D-01 BMatC= 3.28D-12 BMatP= 1.31D-10
 IDIUse=1 WtCom= 1.00D+00 WtEn= 0.00D+00
 Coeff-Com: -0.985D-01 0.110D+01
 Coeff:     -0.985D-01 0.110D+01
 Gap=     0.343 Goal=   None    Shift=    0.000
 Gap=     0.267 Goal=   None    Shift=    0.000
 RMSDP=3.21D-07 MaxDP=8.52D-07 DE=-5.70D-11 OVMax= 1.31D-06

 Cycle   7  Pass 1  IDiag  1:
 E= -1.66982341615219     Delta-E=       -0.000000000002 Rises=F Damp=F
 DIIS: error= 1.30D-07 at cycle   3 NSaved=   3.
 NSaved= 3 IEnMin= 3 EnMin= -1.66982341615219     IErMin= 3 ErrMin= 1.30D-07
 ErrMax= 1.30D-07  0.00D+00 EMaxC= 1.00D-01 BMatC= 2.19D-13 BMatP= 3.28D-12
 IDIUse=1 WtCom= 1.00D+00 WtEn= 0.00D+00
 Coeff-Com: -0.394D-01 0.159D+00 0.880D+00
 Coeff:     -0.394D-01 0.159D+00 0.880D+00
 Gap=     0.343 Goal=   None    Shift=    0.000
 Gap=     0.267 Goal=   None    Shift=    0.000
 RMSDP=7.09D-08 MaxDP=1.79D-07 DE=-1.90D-12 OVMax= 2.84D-07

 Cycle   8  Pass 1  IDiag  1:
 E= -1.66982341615229     Delta-E=       -0.000000000000 Rises=F Damp=F
 DIIS: error= 2.75D-08 at cycle   4 NSaved=   4.
 NSaved= 4 IEnMin= 4 EnMin= -1.66982341615229     IErMin= 4 ErrMin= 2.75D-08
 ErrMax= 2.75D-08  0.00D+00 EMaxC= 1.00D-01 BMatC= 8.13D-15 BMatP= 2.19D-13
 IDIUse=1 WtCom= 1.00D+00 WtEn= 0.00D+00
 Coeff-Com: -0.376D-02-0.114D-01 0.168D+00 0.847D+00
 Coeff:     -0.376D-02-0.114D-01 0.168D+00 0.847D+00
 Gap=     0.343 Goal=   None    Shift=    0.000
 Gap=     0.267 Goal=   None    Shift=    0.000
 RMSDP=1.08D-08 MaxDP=3.44D-08 DE=-1.01D-13 OVMax= 5.26D-08

 Cycle   9  Pass 1  IDiag  1:
 E= -1.66982341615229     Delta-E=       -0.000000000000 Rises=F Damp=F
 DIIS: error= 6.75D-10 at cycle   5 NSaved=   5.
 NSaved= 5 IEnMin= 5 EnMin= -1.66982341615229     IErMin= 5 ErrMin= 6.75D-10
 ErrMax= 6.75D-10  0.00D+00 EMaxC= 1.00D-01 BMatC= 9.63D-18 BMatP= 8.13D-15
 IDIUse=1 WtCom= 1.00D+00 WtEn= 0.00D+00
 Coeff-Com:  0.406D-03-0.256D-02-0.612D-02-0.223D-02 0.101D+01
 Coeff:      0.406D-03-0.256D-02-0.612D-02-0.223D-02 0.101D+01
 Gap=     0.343 Goal=   None    Shift=    0.000
 Gap=     0.267 Goal=   None    Shift=    0.000
 RMSDP=6.99D-10 MaxDP=2.74D-09 DE=-3.11D-15 OVMax= 2.58D-09

 SCF Done:  E(UB97D3) =  -1.66982341615     A.U. after    9 cycles
            NFock=  9  Conv=0.70D-09     -V/T= 2.0140
 <Sx>= 0.0000 <Sy>= 0.0000 <Sz>= 0.5000 <S**2>= 0.7529 S= 0.5014
 <L.S>= 0.000000000000E+00
 KE= 1.646751337083D+00 PE=-5.981058331852D+00 EE= 1.259617295934D+00
 Annihilation of the first spin contaminant:
 S**2 before annihilation     0.7529,   after     0.7500
 Leave Link  502 at Wed Oct  7 14:04:33 2020, MaxMem=  2684354560 cpu:               7.7 elap:               1.1
 (Enter /udrive/faculty/rpeverati/g16/g16/l508.exe)
 QCSCF skips out because SCF is already converged.
 Leave Link  508 at Wed Oct  7 14:04:33 2020, MaxMem=  2684354560 cpu:               0.4 elap:               0.5
 (Enter /udrive/faculty/rpeverati/g16/g16/l701.exe)
 ... and contract with generalized density number  0.
 Compute integral first derivatives.
 R6Disp: Adding Grimme-D3(BJ) dispersion energy 1st derivatives to the gradient.
 Leave Link  701 at Wed Oct  7 14:04:34 2020, MaxMem=  2684354560 cpu:               2.2 elap:               0.5
 (Enter /udrive/faculty/rpeverati/g16/g16/l702.exe)
 L702 exits ... SP integral derivatives will be done elsewhere.
 Leave Link  702 at Wed Oct  7 14:04:35 2020, MaxMem=  2684354560 cpu:               1.6 elap:               0.6
 (Enter /udrive/faculty/rpeverati/g16/g16/l703.exe)
 Integral derivatives from FoFJK, PRISM(SPDF).
 Compute integral first derivatives, UseDBF=F ICtDFT=           0.
 Calling FoFJK, ICntrl=      2527 FMM=F ISym2X=1 I1Cent= 0 IOpClX= 0 NMat=1 NMatS=1 NMatT=0.
 FoFJK:  IHMeth= 1 ICntrl=    2527 DoSepK=F KAlg= 0 I1Cent=           0 FoldK=F
 IRaf=         0 NMat=       1 IRICut=       1 DoRegI=T DoRafI=F ISym2E= 1 IDoP0=0 IntGTp=1.
 FoFCou: FMM=F IPFlag=           0 FMFlag=      100000 FMFlg1=         800
         NFxFlg=           0 DoJE=F BraDBF=F KetDBF=F FulRan=T
         wScrn=  0.000000 ICntrl=      2527 IOpCl=  0 I1Cent=           0 NGrid=           0
         NMat0=    1 NMatS0=      1 NMatT0=    0 NMatD0=    1 NMtDS0=    0 NMtDT0=    0
 Petite list used in FoFCou.
 Leave Link  703 at Wed Oct  7 14:04:36 2020, MaxMem=  2684354560 cpu:               1.9 elap:               0.8
 (Enter /udrive/faculty/rpeverati/g16/g16/l716.exe)
 Dipole        = 3.92581978D-18 0.00000000D+00 0.00000000D+00
 ***** Axes restored to original set *****
 -------------------------------------------------------------------
 Center     Atomic                   Forces (Hartrees/Bohr)
 Number     Number              X              Y              Z
 -------------------------------------------------------------------
      1        1           0.000000000    0.000000000   -0.000000000
      2        1          -0.000000000   -0.000000000    0.000777714
      3        1          -0.000000000   -0.000000000   -0.000777714
 -------------------------------------------------------------------
 Cartesian Forces:  Max     0.000777714 RMS     0.000366618
 Leave Link  716 at Wed Oct  7 14:04:37 2020, MaxMem=  2684354560 cpu:               1.4 elap:               0.5
 (Enter /udrive/faculty/rpeverati/g16/g16/l103.exe)

 GradGradGradGradGradGradGradGradGradGradGradGradGradGradGradGradGradGrad
 Berny optimization.
 Optmz: redundant internal coordinate code flag= 1
 Red2BG:  D1=  1.00D+00 OD1=  3.33D-16 B2RMS=  0.00D+00 IAprox=1
 Red2BG is reusing G-inverse.
 Internal  Forces:  Max     0.000777714 RMS     0.000549927
 Search for a saddle point.
 Step number   2 out of a maximum of   50
 All quantities printed in internal units (Hartrees-Bohrs-Radians)
 Swapping is turned off.
 Update second derivatives using D2CorX and points    1    2
 The second derivative matrix:
                          R1        R2        A1        A2
           R1           0.19873
           R2          -0.01788   0.19873
           A1           0.00000   0.00000   0.00230
           A2          -0.00000  -0.00000   0.00000   0.00230
 ITU=  0  0
 Eigenvectors of the second derivative matrix:
                           1         2         3         4
     Eigenvalues --     0.00230   0.00230   0.18085   0.21660
   1         R1        -0.00000  -0.00000  -0.70711  -0.70711
   2         R2         0.00000   0.00000  -0.70711   0.70711
   3         A1        -0.87910   0.47664  -0.00000   0.00000
   4         A2         0.47664   0.87910   0.00000  -0.00000
 Eigenvalue     1 is   2.30D-03 should be less than     0.000000 Eigenvector:
                          A1        A2        R2        R1
   1                   -0.87910   0.47664   0.00000  -0.00000
 RLam0= 2.30D-03.
 Iter=   1 RLamda= 0.00000000D+00 Sum=-6.68895110D-06.
 Iter=   2 RLamda=-6.68895110D-06 Sum=-6.68870370D-06.
 RFO step:  Lambda0=2.300010000D-03 Lambda=-6.68895110D-06.
 Linear search not attempted -- option 19 set.
 Iteration  1 RMS(Cart)=  0.00375656 RMS(Int)=  0.00000936
 Iteration  2 RMS(Cart)=  0.00000790 RMS(Int)=  0.00000000
 Iteration  3 RMS(Cart)=  0.00000000 RMS(Int)=  0.00000000
 ITry= 1 IFail=0 DXMaxC= 4.29D-03 DCOld= 1.00D+10 DXMaxT= 1.00D-01 DXLimC= 3.00D+00 Rises=F
 ClnCor:  largest displacement from symmetrization is 3.61D-03 for atom     1.
 Variable       Old X    -DE/DX   Delta X   Delta X   Delta X     New X
                                 (Linear)    (Quad)   (Total)
    R1        1.77694   0.00078   0.00000   0.00430   0.00429   1.78123
    R2        1.77694   0.00078   0.00000   0.00430   0.00429   1.78123
    A1        3.14159   0.00000   0.00000   0.00535   0.00000   3.14159
    A2        3.14159  -0.00000   0.00000  -0.00290   0.00000   3.14159
         Item               Value     Threshold  Converged?
 Maximum Force            0.000778     0.000450     NO 
 RMS     Force            0.000550     0.000300     NO 
 Maximum Displacement     0.004292     0.001800     NO 
 RMS     Displacement     0.003035     0.001200     NO 
 Predicted change in Energy=-3.344463D-06
 Lowest energy point so far.  Saving SCF results.
 Largest change from initial coordinates is atom    2       0.013 Angstoms.
 GradGradGradGradGradGradGradGradGradGradGradGradGradGradGradGradGradGrad

 Leave Link  103 at Wed Oct  7 14:04:38 2020, MaxMem=  2684354560 cpu:               2.1 elap:               0.7
 (Enter /udrive/faculty/rpeverati/g16/g16/l202.exe)
                          Input orientation:                          
 ---------------------------------------------------------------------
 Center     Atomic      Atomic             Coordinates (Angstroms)
 Number     Number       Type             X           Y           Z
 ---------------------------------------------------------------------
      1          1           0        0.000000    0.000000   -0.000000
      2          1           0        0.000000    0.000000    0.942588
      3          1           0        0.000000    0.000000   -0.942588
 ---------------------------------------------------------------------
                    Distance matrix (angstroms):
                    1          2          3
     1  H    0.000000
     2  H    0.942588   0.000000
     3  H    0.942588   1.885177   0.000000
 Stoichiometry    H3(2)
 Framework group  D*H[O(H),C*(H.H)]
 Deg. of freedom     1
 Full point group                 D*H     NOp   8
 RotChk:  IX=0 Diff= 0.00D+00
 Largest Abelian subgroup         D2H     NOp   8
 Largest concise Abelian subgroup C2      NOp   2
                         Standard orientation:                         
 ---------------------------------------------------------------------
 Center     Atomic      Atomic             Coordinates (Angstroms)
 Number     Number       Type             X           Y           Z
 ---------------------------------------------------------------------
      1          1           0        0.000000    0.000000    0.000000
      2          1           0        0.000000    0.000000    0.942588
      3          1           0        0.000000    0.000000   -0.942588
 ---------------------------------------------------------------------
 Rotational constants (GHZ):           0.0000000         282.2005877         282.2005877
 Leave Link  202 at Wed Oct  7 14:04:39 2020, MaxMem=  2684354560 cpu:               2.0 elap:               0.7
 (Enter /udrive/faculty/rpeverati/g16/g16/l301.exe)
 Standard basis: 6-31G(d) (5D, 7F)
 Ernie: Thresh=  0.10000D-02 Tol=  0.10000D-05 Strict=F.
 There are     4 symmetry adapted cartesian basis functions of AG  symmetry.
 There are     0 symmetry adapted cartesian basis functions of B1G symmetry.
 There are     0 symmetry adapted cartesian basis functions of B2G symmetry.
 There are     0 symmetry adapted cartesian basis functions of B3G symmetry.
 There are     0 symmetry adapted cartesian basis functions of AU  symmetry.
 There are     2 symmetry adapted cartesian basis functions of B1U symmetry.
 There are     0 symmetry adapted cartesian basis functions of B2U symmetry.
 There are     0 symmetry adapted cartesian basis functions of B3U symmetry.
 There are     4 symmetry adapted basis functions of AG  symmetry.
 There are     0 symmetry adapted basis functions of B1G symmetry.
 There are     0 symmetry adapted basis functions of B2G symmetry.
 There are     0 symmetry adapted basis functions of B3G symmetry.
 There are     0 symmetry adapted basis functions of AU  symmetry.
 There are     2 symmetry adapted basis functions of B1U symmetry.
 There are     0 symmetry adapted basis functions of B2U symmetry.
 There are     0 symmetry adapted basis functions of B3U symmetry.
     6 basis functions,    12 primitive gaussians,     6 cartesian basis functions
     2 alpha electrons        1 beta electrons
       nuclear repulsion energy         1.4035214946 Hartrees.
 IExCor= 3630 DFT=T Ex+Corr=B97D3 ExCW=0 ScaHFX=  0.000000
 ScaDFX=  1.000000  1.000000  1.000000  1.000000 ScalE2=  1.000000  1.000000
 IRadAn=      5 IRanWt=     -1 IRanGd=            0 ICorTp=0 IEmpDi=141
 NAtoms=    3 NActive=    3 NUniq=    2 SFac= 2.25D+00 NAtFMM=   60 NAOKFM=F Big=F
 Integral buffers will be    131072 words long.
 Raffenetti 2 integral format.
 Two-electron integral symmetry is turned on.
 R6Disp:  Grimme-D3(BJ) Dispersion energy=       -0.0020587749 Hartrees.
 Nuclear repulsion after empirical dispersion term =        1.4014627197 Hartrees.
 Leave Link  301 at Wed Oct  7 14:04:40 2020, MaxMem=  2684354560 cpu:               2.5 elap:               0.7
 (Enter /udrive/faculty/rpeverati/g16/g16/l302.exe)
 NPDir=0 NMtPBC=     1 NCelOv=     1 NCel=       1 NClECP=     1 NCelD=      1
         NCelK=      1 NCelE2=     1 NClLst=     1 CellRange=     0.0.
 One-electron integrals computed using PRISM.
 One-electron integral symmetry used in STVInt
 NBasis=     6 RedAO= T EigKep=  4.83D-02  NBF=     4     0     0     0     0     2     0     0
 NBsUse=     6 1.00D-06 EigRej= -1.00D+00 NBFU=     4     0     0     0     0     2     0     0
 Precomputing XC quadrature grid using
 IXCGrd= 4 IRadAn=           5 IRanWt=          -1 IRanGd=           0 AccXCQ= 0.00D+00.
 Generated NRdTot=       0 NPtTot=           0 NUsed=           0 NTot=          32
 NSgBfM=     6     6     6     6     6 MxSgAt=     3 MxSgA2=     3.
 Leave Link  302 at Wed Oct  7 14:04:41 2020, MaxMem=  2684354560 cpu:               2.6 elap:               0.5
 (Enter /udrive/faculty/rpeverati/g16/g16/l303.exe)
 DipDrv:  MaxL=1.
 Leave Link  303 at Wed Oct  7 14:04:42 2020, MaxMem=  2684354560 cpu:               1.3 elap:               0.5
 (Enter /udrive/faculty/rpeverati/g16/g16/l401.exe)
 Initial guess from the checkpoint file:  "MN_82_RKT06_BH76_B97DBJ_631Gs.chk"
 SCF N**3 symmetry information disabled.
 B after Tr=     0.000000    0.000000    0.000000
         Rot=    1.000000    0.000000    0.000000    0.000000 Ang=   0.00 deg.
 Guess basis will be translated and rotated to current coordinates.
 JPrj=2 DoOrth=T DoCkMO=T.
 Initial guess orbital symmetries:
 Alpha Orbitals:
       Occupied  (SGG) (SGU)
       Virtual   (SGG) (SGG) (SGU) (SGG)
 Beta  Orbitals:
       Occupied  (SGG)
       Virtual   (SGU) (SGG) (SGG) (SGU) (SGG)
 The electronic state of the initial guess is 2-SGU.
 Initial guess <Sx>= 0.0000 <Sy>= 0.0000 <Sz>= 0.5000 <S**2>= 0.7529 S= 0.5015
 Leave Link  401 at Wed Oct  7 14:04:43 2020, MaxMem=  2684354560 cpu:               3.1 elap:               0.8
 (Enter /udrive/faculty/rpeverati/g16/g16/l502.exe)
 Keep J ints in memory in symmetry-blocked form, NReq=10144312.
 FoFCou: FMM=F IPFlag=           0 FMFlag=           0 FMFlg1=           0
         NFxFlg=           0 DoJE=F BraDBF=F KetDBF=F FulRan=T
         wScrn=  0.000000 ICntrl=       600 IOpCl=  0 I1Cent=           0 NGrid=           0
         NMat0=    1 NMatS0=     21 NMatT0=    0 NMatD0=    1 NMtDS0=    0 NMtDT0=    0
 Petite list used in FoFCou.
 UHF open shell SCF:
 Using DIIS extrapolation, IDIIS=  1040.
 NGot=  2684354560 LenX=  2684352344 LenY=  2684351462
 Requested convergence on RMS density matrix=1.00D-08 within 120 cycles.
 Requested convergence on MAX density matrix=1.00D-06.
 Requested convergence on             energy=1.00D-06.
 No special actions if energy rises.

 Cycle   1  Pass 1  IDiag  1:
 E= -1.66982590069022    
 DIIS: error= 3.30D-04 at cycle   1 NSaved=   1.
 NSaved= 1 IEnMin= 1 EnMin= -1.66982590069022     IErMin= 1 ErrMin= 3.30D-04
 ErrMax= 3.30D-04  0.00D+00 EMaxC= 1.00D-01 BMatC= 2.27D-06 BMatP= 2.27D-06
 IDIUse=3 WtCom= 9.97D-01 WtEn= 3.30D-03
 Coeff-Com:  0.100D+01
 Coeff-En:   0.100D+01
 Coeff:      0.100D+01
 Gap=     0.343 Goal=   None    Shift=    0.000
 Gap=     0.265 Goal=   None    Shift=    0.000
 RMSDP=1.76D-04 MaxDP=5.14D-04              OVMax= 8.07D-04

 Cycle   2  Pass 1  IDiag  1:
 E= -1.66982676954591     Delta-E=       -0.000000868856 Rises=F Damp=F
 DIIS: error= 1.04D-04 at cycle   2 NSaved=   2.
 NSaved= 2 IEnMin= 2 EnMin= -1.66982676954591     IErMin= 2 ErrMin= 1.04D-04
 ErrMax= 1.04D-04  0.00D+00 EMaxC= 1.00D-01 BMatC= 1.96D-07 BMatP= 2.27D-06
 IDIUse=3 WtCom= 9.99D-01 WtEn= 1.04D-03
 Coeff-Com:  0.201D+00 0.799D+00
 Coeff-En:   0.000D+00 0.100D+01
 Coeff:      0.200D+00 0.800D+00
 Gap=     0.343 Goal=   None    Shift=    0.000
 Gap=     0.266 Goal=   None    Shift=    0.000
 RMSDP=7.66D-05 MaxDP=2.17D-04 DE=-8.69D-07 OVMax= 2.83D-04

 Cycle   3  Pass 1  IDiag  1:
 E= -1.66982686075917     Delta-E=       -0.000000091213 Rises=F Damp=F
 DIIS: error= 2.01D-05 at cycle   3 NSaved=   3.
 NSaved= 3 IEnMin= 3 EnMin= -1.66982686075917     IErMin= 3 ErrMin= 2.01D-05
 ErrMax= 2.01D-05  0.00D+00 EMaxC= 1.00D-01 BMatC= 5.52D-09 BMatP= 1.96D-07
 IDIUse=1 WtCom= 1.00D+00 WtEn= 0.00D+00
 Coeff-Com:  0.716D-03 0.136D+00 0.864D+00
 Coeff:      0.716D-03 0.136D+00 0.864D+00
 Gap=     0.343 Goal=   None    Shift=    0.000
 Gap=     0.266 Goal=   None    Shift=    0.000
 RMSDP=8.98D-06 MaxDP=2.17D-05 DE=-9.12D-08 OVMax= 3.28D-05

 Cycle   4  Pass 1  IDiag  1:
 E= -1.66982686317740     Delta-E=       -0.000000002418 Rises=F Damp=F
 DIIS: error= 1.13D-06 at cycle   4 NSaved=   4.
 NSaved= 4 IEnMin= 4 EnMin= -1.66982686317740     IErMin= 4 ErrMin= 1.13D-06
 ErrMax= 1.13D-06  0.00D+00 EMaxC= 1.00D-01 BMatC= 2.31D-11 BMatP= 5.52D-09
 IDIUse=1 WtCom= 1.00D+00 WtEn= 0.00D+00
 Coeff-Com: -0.268D-02-0.140D-01-0.456D-01 0.106D+01
 Coeff:     -0.268D-02-0.140D-01-0.456D-01 0.106D+01
 Gap=     0.343 Goal=   None    Shift=    0.000
 Gap=     0.266 Goal=   None    Shift=    0.000
 RMSDP=5.04D-07 MaxDP=1.32D-06 DE=-2.42D-09 OVMax= 2.48D-06

 Cycle   5  Pass 1  IDiag  1:
 E= -1.66982686318927     Delta-E=       -0.000000000012 Rises=F Damp=F
 DIIS: error= 1.17D-07 at cycle   5 NSaved=   5.
 NSaved= 5 IEnMin= 5 EnMin= -1.66982686318927     IErMin= 5 ErrMin= 1.17D-07
 ErrMax= 1.17D-07  0.00D+00 EMaxC= 1.00D-01 BMatC= 2.54D-13 BMatP= 2.31D-11
 IDIUse=1 WtCom= 1.00D+00 WtEn= 0.00D+00
 Coeff-Com:  0.218D-03-0.846D-03-0.804D-02-0.757D-01 0.108D+01
 Coeff:      0.218D-03-0.846D-03-0.804D-02-0.757D-01 0.108D+01
 Gap=     0.343 Goal=   None    Shift=    0.000
 Gap=     0.266 Goal=   None    Shift=    0.000
 RMSDP=8.34D-08 MaxDP=2.02D-07 DE=-1.19D-11 OVMax= 3.11D-07

 Cycle   6  Pass 1  IDiag  1:
 E= -1.66982686318944     Delta-E=       -0.000000000000 Rises=F Damp=F
 DIIS: error= 9.21D-09 at cycle   6 NSaved=   6.
 NSaved= 6 IEnMin= 6 EnMin= -1.66982686318944     IErMin= 6 ErrMin= 9.21D-09
 ErrMax= 9.21D-09  0.00D+00 EMaxC= 1.00D-01 BMatC= 1.05D-15 BMatP= 2.54D-13
 IDIUse=1 WtCom= 1.00D+00 WtEn= 0.00D+00
 Coeff-Com: -0.173D-05 0.125D-03 0.884D-03-0.159D-02-0.844D-01 0.108D+01
 Coeff:     -0.173D-05 0.125D-03 0.884D-03-0.159D-02-0.844D-01 0.108D+01
 Gap=     0.343 Goal=   None    Shift=    0.000
 Gap=     0.266 Goal=   None    Shift=    0.000
 RMSDP=4.37D-09 MaxDP=1.71D-08 DE=-1.67D-13 OVMax= 1.57D-08

 SCF Done:  E(UB97D3) =  -1.66982686319     A.U. after    6 cycles
            NFock=  6  Conv=0.44D-08     -V/T= 2.0155
 <Sx>= 0.0000 <Sy>= 0.0000 <Sz>= 0.5000 <S**2>= 0.7529 S= 0.5015
 <L.S>= 0.000000000000E+00
 KE= 1.644396164844D+00 PE=-5.973482982396D+00 EE= 1.257797234650D+00
 Annihilation of the first spin contaminant:
 S**2 before annihilation     0.7529,   after     0.7500
 Leave Link  502 at Wed Oct  7 14:04:44 2020, MaxMem=  2684354560 cpu:               6.1 elap:               0.9
 (Enter /udrive/faculty/rpeverati/g16/g16/l508.exe)
 QCSCF skips out because SCF is already converged.
 Leave Link  508 at Wed Oct  7 14:04:44 2020, MaxMem=  2684354560 cpu:               0.3 elap:               0.4
 (Enter /udrive/faculty/rpeverati/g16/g16/l701.exe)
 ... and contract with generalized density number  0.
 Compute integral first derivatives.
 R6Disp: Adding Grimme-D3(BJ) dispersion energy 1st derivatives to the gradient.
 Leave Link  701 at Wed Oct  7 14:04:45 2020, MaxMem=  2684354560 cpu:               2.3 elap:               0.5
 (Enter /udrive/faculty/rpeverati/g16/g16/l702.exe)
 L702 exits ... SP integral derivatives will be done elsewhere.
 Leave Link  702 at Wed Oct  7 14:04:46 2020, MaxMem=  2684354560 cpu:               1.7 elap:               0.5
 (Enter /udrive/faculty/rpeverati/g16/g16/l703.exe)
 Integral derivatives from FoFJK, PRISM(SPDF).
 Compute integral first derivatives, UseDBF=F ICtDFT=           0.
 Calling FoFJK, ICntrl=      2527 FMM=F ISym2X=1 I1Cent= 0 IOpClX= 0 NMat=1 NMatS=1 NMatT=0.
 FoFJK:  IHMeth= 1 ICntrl=    2527 DoSepK=F KAlg= 0 I1Cent=           0 FoldK=F
 IRaf=         0 NMat=       1 IRICut=       1 DoRegI=T DoRafI=F ISym2E= 1 IDoP0=0 IntGTp=1.
 FoFCou: FMM=F IPFlag=           0 FMFlag=      100000 FMFlg1=         800
         NFxFlg=           0 DoJE=F BraDBF=F KetDBF=F FulRan=T
         wScrn=  0.000000 ICntrl=      2527 IOpCl=  0 I1Cent=           0 NGrid=           0
         NMat0=    1 NMatS0=      1 NMatT0=    0 NMatD0=    1 NMtDS0=    0 NMtDT0=    0
 Petite list used in FoFCou.
 Leave Link  703 at Wed Oct  7 14:04:47 2020, MaxMem=  2684354560 cpu:               2.0 elap:               0.6
 (Enter /udrive/faculty/rpeverati/g16/g16/l716.exe)
 Dipole        = 3.91508290D-18 0.00000000D+00 0.00000000D+00
 ***** Axes restored to original set *****
 -------------------------------------------------------------------
 Center     Atomic                   Forces (Hartrees/Bohr)
 Number     Number              X              Y              Z
 -------------------------------------------------------------------
      1        1           0.000000000    0.000000000    0.000000000
      2        1          -0.000000000   -0.000000000    0.000027060
      3        1          -0.000000000   -0.000000000   -0.000027060
 -------------------------------------------------------------------
 Cartesian Forces:  Max     0.000027060 RMS     0.000012756
 Leave Link  716 at Wed Oct  7 14:04:47 2020, MaxMem=  2684354560 cpu:               1.4 elap:               0.4
 (Enter /udrive/faculty/rpeverati/g16/g16/l103.exe)

 GradGradGradGradGradGradGradGradGradGradGradGradGradGradGradGradGradGrad
 Berny optimization.
 Optmz: redundant internal coordinate code flag= 1
 Red2BG:  D1=  1.00D+00 OD1=  3.33D-16 B2RMS=  0.00D+00 IAprox=1
 Red2BG is reusing G-inverse.
 Internal  Forces:  Max     0.000027060 RMS     0.000019134
 Search for a saddle point.
 Step number   3 out of a maximum of   50
 All quantities printed in internal units (Hartrees-Bohrs-Radians)
 Swapping is turned off.
 Update second derivatives using D2CorX and points    1    2    3
 The second derivative matrix:
                          R1        R2        A1        A2
           R1           0.19575
           R2          -0.02085   0.19575
           A1           0.00000   0.00000   0.00230
           A2          -0.00000  -0.00000   0.00000   0.00230
 ITU=  0  0  0
 Eigenvectors of the second derivative matrix:
                           1         2         3         4
     Eigenvalues --     0.00230   0.00230   0.17490   0.21660
   1         R1        -0.00000   0.00000  -0.70711  -0.70711
   2         R2         0.00000  -0.00000  -0.70711   0.70711
   3         A1        -0.65285  -0.75749  -0.00000  -0.00000
   4         A2         0.75749  -0.65285   0.00000  -0.00000
 Eigenvalue     1 is   2.30D-03 should be less than     0.000000 Eigenvector:
                          A2        A1        R2        R1
   1                    0.75749  -0.65285   0.00000  -0.00000
 RLam0= 2.30D-03.
 Iter=   1 RLamda= 0.00000000D+00 Sum=-8.37328822D-09.
 RFO step:  Lambda0=2.300010000D-03 Lambda= 0.00000000D+00.
 Linear search not attempted -- option 19 set.
 Iteration  1 RMS(Cart)=  0.00013527 RMS(Int)=  0.00000001
 Iteration  2 RMS(Cart)=  0.00000001 RMS(Int)=  0.00000000
 ITry= 1 IFail=0 DXMaxC= 1.55D-04 DCOld= 1.00D+10 DXMaxT= 1.00D-01 DXLimC= 3.00D+00 Rises=F
 ClnCor:  largest displacement from symmetrization is 1.30D-04 for atom     1.
 Variable       Old X    -DE/DX   Delta X   Delta X   Delta X     New X
                                 (Linear)    (Quad)   (Total)
    R1        1.78123   0.00003   0.00000   0.00015   0.00015   1.78139
    R2        1.78123   0.00003   0.00000   0.00015   0.00015   1.78139
    A1        3.14159   0.00000   0.00000   0.00014   0.00000   3.14159
    A2        3.14159  -0.00000   0.00000  -0.00017   0.00000   3.14159
         Item               Value     Threshold  Converged?
 Maximum Force            0.000027     0.000450     YES
 RMS     Force            0.000019     0.000300     YES
 Maximum Displacement     0.000155     0.001800     YES
 RMS     Displacement     0.000109     0.001200     YES
 Predicted change in Energy=-4.186644D-09
 Optimization completed.
    -- Stationary point found.
                           ----------------------------
                           !   Optimized Parameters   !
                           ! (Angstroms and Degrees)  !
 --------------------------                            --------------------------
 ! Name  Definition              Value          Derivative Info.                !
 --------------------------------------------------------------------------------
 ! R1    R(1,2)                  0.9426         -DE/DX =    0.0                 !
 ! R2    R(1,3)                  0.9426         -DE/DX =    0.0                 !
 ! A1    L(2,1,3,-1,-1)        180.0            -DE/DX =    0.0                 !
 ! A2    L(2,1,3,-2,-2)        180.0            -DE/DX =    0.0                 !
 --------------------------------------------------------------------------------
 Lowest energy point so far.  Saving SCF results.
 Largest change from initial coordinates is atom    2       0.013 Angstoms.
 GradGradGradGradGradGradGradGradGradGradGradGradGradGradGradGradGradGrad

 Leave Link  103 at Wed Oct  7 14:04:48 2020, MaxMem=  2684354560 cpu:               1.6 elap:               0.6
 (Enter /udrive/faculty/rpeverati/g16/g16/l202.exe)
                          Input orientation:                          
 ---------------------------------------------------------------------
 Center     Atomic      Atomic             Coordinates (Angstroms)
 Number     Number       Type             X           Y           Z
 ---------------------------------------------------------------------
      1          1           0        0.000000    0.000000    0.000000
      2          1           0        0.000000    0.000000    0.942588
      3          1           0        0.000000    0.000000   -0.942588
 ---------------------------------------------------------------------
                    Distance matrix (angstroms):
                    1          2          3
     1  H    0.000000
     2  H    0.942588   0.000000
     3  H    0.942588   1.885177   0.000000
 Stoichiometry    H3(2)
 Framework group  D*H[O(H),C*(H.H)]
 Deg. of freedom     1
 Full point group                 D*H     NOp   8
 RotChk:  IX=0 Diff= 0.00D+00
 Largest Abelian subgroup         D2H     NOp   8
 Largest concise Abelian subgroup C2      NOp   2
                         Standard orientation:                         
 ---------------------------------------------------------------------
 Center     Atomic      Atomic             Coordinates (Angstroms)
 Number     Number       Type             X           Y           Z
 ---------------------------------------------------------------------
      1          1           0        0.000000    0.000000    0.000000
      2          1           0        0.000000    0.000000    0.942588
      3          1           0        0.000000    0.000000   -0.942588
 ---------------------------------------------------------------------
 Rotational constants (GHZ):           0.0000000         282.2005877         282.2005877
 Leave Link  202 at Wed Oct  7 14:04:49 2020, MaxMem=  2684354560 cpu:               1.3 elap:               0.4
 (Enter /udrive/faculty/rpeverati/g16/g16/l601.exe)
 Copying SCF densities to generalized density rwf, IOpCl= 1 IROHF=0.

 **********************************************************************

            Population analysis using the SCF density.

 **********************************************************************

 Orbital symmetries:
 Alpha Orbitals:
       Occupied  (SGG) (SGU)
       Virtual   (SGG) (SGG) (SGU) (SGG)
 Beta  Orbitals:
       Occupied  (SGG)
       Virtual   (SGU) (SGG) (SGG) (SGU) (SGG)
 The electronic state is 2-SGU.
 Alpha  occ. eigenvalues --   -0.45398  -0.21054
 Alpha virt. eigenvalues --    0.13231   0.64677   0.73350   0.96012
  Beta  occ. eigenvalues --   -0.41949
  Beta virt. eigenvalues --   -0.15382   0.11889   0.66462   0.74610   0.96939
          Condensed to atoms (all electrons):
               1          2          3
     1  H    0.631990   0.208269   0.208269
     2  H    0.208269   0.888094  -0.120628
     3  H    0.208269  -0.120628   0.888094
          Atomic-Atomic Spin Densities.
               1          2          3
     1  H   -0.058356  -0.000430  -0.000430
     2  H   -0.000430   0.683662  -0.153624
     3  H   -0.000430  -0.153624   0.683662
 Mulliken charges and spin densities:
               1          2
     1  H   -0.048529  -0.059215
     2  H    0.024265   0.529608
     3  H    0.024265   0.529608
 Sum of Mulliken charges =  -0.00000   1.00000
 Mulliken charges and spin densities with hydrogens summed into heavy atoms:
               1          2
 Electronic spatial extent (au):  <R**2>=             13.7145
 Charge=             -0.0000 electrons
 Dipole moment (field-independent basis, Debye):
    X=              0.0000    Y=              0.0000    Z=             -0.0000  Tot=              0.0000
 Quadrupole moment (field-independent basis, Debye-Ang):
   XX=             -3.2799   YY=             -3.2799   ZZ=             -3.3517
   XY=              0.0000   XZ=              0.0000   YZ=              0.0000
 Traceless Quadrupole moment (field-independent basis, Debye-Ang):
   XX=              0.0239   YY=              0.0239   ZZ=             -0.0479
   XY=              0.0000   XZ=              0.0000   YZ=              0.0000
 Octapole moment (field-independent basis, Debye-Ang**2):
  XXX=             -0.0000  YYY=              0.0000  ZZZ=              0.0000  XYY=             -0.0000
  XXY=              0.0000  XXZ=              0.0000  XZZ=             -0.0000  YZZ=              0.0000
  YYZ=              0.0000  XYZ=              0.0000
 Hexadecapole moment (field-independent basis, Debye-Ang**3):
 XXXX=             -3.1776 YYYY=             -3.1776 ZZZZ=            -15.5352 XXXY=              0.0000
 XXXZ=              0.0000 YYYX=              0.0000 YYYZ=              0.0000 ZZZX=              0.0000
 ZZZY=              0.0000 XXYY=             -1.0592 XXZZ=             -3.1845 YYZZ=             -3.1845
 XXYZ=              0.0000 YYXZ=              0.0000 ZZXY=              0.0000
 N-N= 1.401462719713D+00 E-N=-5.973482980838D+00  KE= 1.644396164844D+00
                          Isotropic Fermi Contact Couplings
        Atom                 a.u.       MegaHertz       Gauss      10(-4) cm-1
     1  H(1)              -0.02307    -103.13038     -36.79948     -34.40059
     2  H(1)               0.19918     890.33067     317.69212     296.98235
     3  H(1)               0.19918     890.33067     317.69212     296.98235
 --------------------------------------------------------
       Center         ----  Spin Dipole Couplings  ----
                      3XX-RR        3YY-RR        3ZZ-RR
 --------------------------------------------------------
     1   Atom       -0.108782     -0.108782      0.217564
     2   Atom        0.002329      0.002329     -0.004659
     3   Atom        0.002329      0.002329     -0.004659
 --------------------------------------------------------
                        XY            XZ            YZ
 --------------------------------------------------------
     1   Atom        0.000000     -0.000000      0.000000
     2   Atom        0.000000      0.000000      0.000000
     3   Atom        0.000000      0.000000      0.000000
 --------------------------------------------------------


 ---------------------------------------------------------------------------------
              Anisotropic Spin Dipole Couplings in Principal Axis System
 ---------------------------------------------------------------------------------

       Atom             a.u.   MegaHertz   Gauss  10(-4) cm-1        Axes

              Baa    -0.1088   -58.041   -20.710   -19.360  0.0000  1.0000  0.0000
     1 H(1)   Bbb    -0.1088   -58.041   -20.710   -19.360  1.0000  0.0000  0.0000
              Bcc     0.2176   116.082    41.421    38.721 -0.0000  0.0000  1.0000
 
              Baa    -0.0047    -2.486    -0.887    -0.829 -0.0000  0.0000  1.0000
     2 H(1)   Bbb     0.0023     1.243     0.443     0.415  0.0000  1.0000  0.0000
              Bcc     0.0023     1.243     0.443     0.415  1.0000  0.0000  0.0000
 
              Baa    -0.0047    -2.486    -0.887    -0.829 -0.0000  0.0000  1.0000
     3 H(1)   Bbb     0.0023     1.243     0.443     0.415  0.0000  1.0000  0.0000
              Bcc     0.0023     1.243     0.443     0.415  1.0000  0.0000  0.0000
 

 ---------------------------------------------------------------------------------

 No NMR shielding tensors so no spin-rotation constants.
 Leave Link  601 at Wed Oct  7 14:04:50 2020, MaxMem=  2684354560 cpu:               3.4 elap:               0.6
 (Enter /udrive/faculty/rpeverati/g16/g16/l9999.exe)

 Test job not archived.
 1\1\GINC-NODE55\FTS\UB97D3\6-31G(d)\H3(2)\RPEVERATI\07-Oct-2020\0\\#P 
 Opt(TS,MaxCyc=50,NoEigenTest,MaxStep=10,AddRedundant) B97D3/6-31G* 5D 
 7F Integral=UltraFineGrid SCF=(NoSymm,XQC,MaxCyc=120) IOp(1/33=1)\\TS 
 search on BH76.\\0,2\H,0.,0.,0.\H,0.,0.,0.9425883625\H,0.,0.,-0.942588
 3625\\Version=ES64L-G16RevA.03\State=2-SGU\HF=-1.6698269\S2=0.752917\S
 2-1=0.\S2A=0.75\RMSD=4.367e-09\RMSF=1.276e-05\Dipole=0.,0.,0.\Quadrupo
 le=0.0177939,0.0177939,-0.0355878,0.,0.,0.\PG=D*H [O(H1),C*(H1.H1)]\\@


      HUMANKIND PERIODICALLY GOES THROUGH A SPEEDUP OF ITS AFFAIRS, 
      THEREBY EXPERIENCING THE RACE BETWEEN THE RENEWABLE VITALITY
      OF THE LIVING, AND THE BECKONING VITIATION OF DECADENCE.
      IN THIS PERIODIC RACE, ANY PAUSE BECOMES A LUXURY.
      ONLY THEN CAN ONE REFLECT THAT ALL IS PERMITTED;
      ALL IS POSSIBLE.

                              -- THE APOCRYPHA OF MUAD'DIB
                                 CHILDREN OF DUNE, BY FRANK HERBERT
 Job cpu time:       0 days  0 hours  1 minutes 56.9 seconds.
 Elapsed time:       0 days  0 hours  0 minutes 25.8 seconds.
 File lengths (MBytes):  RWF=      5 Int=      0 D2E=      0 Chk=      1 Scr=      1
 Normal termination of Gaussian 16 at Wed Oct  7 14:04:51 2020.
 Initial command:
 /udrive/faculty/rpeverati/g16/g16/l1.exe "/udrive/scratch-directories/gaussian09/rpeverati/Gau-25896.inp" -scrdir="/udrive/scratch-directories/gaussian09/rpeverati/"
 Entering Link 1 = /udrive/faculty/rpeverati/g16/g16/l1.exe PID=     26550.
  
 Copyright (c) 1988,1990,1992,1993,1995,1998,2003,2009,2016,
            Gaussian, Inc.  All Rights Reserved.
  
 This is part of the Gaussian(R) 16 program.  It is based on
 the Gaussian(R) 09 system (copyright 2009, Gaussian, Inc.),
 the Gaussian(R) 03 system (copyright 2003, Gaussian, Inc.),
 the Gaussian(R) 98 system (copyright 1998, Gaussian, Inc.),
 the Gaussian(R) 94 system (copyright 1995, Gaussian, Inc.),
 the Gaussian 92(TM) system (copyright 1992, Gaussian, Inc.),
 the Gaussian 90(TM) system (copyright 1990, Gaussian, Inc.),
 the Gaussian 88(TM) system (copyright 1988, Gaussian, Inc.),
 the Gaussian 86(TM) system (copyright 1986, Carnegie Mellon
 University), and the Gaussian 82(TM) system (copyright 1983,
 Carnegie Mellon University). Gaussian is a federally registered
 trademark of Gaussian, Inc.
  
 This software contains proprietary and confidential information,
 including trade secrets, belonging to Gaussian, Inc.
  
 This software is provided under written license and may be
 used, copied, transmitted, or stored only in accord with that
 written license.
  
 The following legend is applicable only to US Government
 contracts under FAR:
  
                    RESTRICTED RIGHTS LEGEND
  
 Use, reproduction and disclosure by the US Government is
 subject to restrictions as set forth in subparagraphs (a)
 and (c) of the Commercial Computer Software - Restricted
 Rights clause in FAR 52.227-19.
  
[...]
 --------------------------------------------------------
     1   Atom       -0.108782     -0.108782      0.217564
     2   Atom        0.002329      0.002329     -0.004659
     3   Atom        0.002329      0.002329     -0.004659
 --------------------------------------------------------
                        XY            XZ            YZ
 --------------------------------------------------------
     1   Atom        0.000000     -0.000000      0.000000
     2   Atom        0.000000      0.000000      0.000000
     3   Atom        0.000000      0.000000      0.000000
 --------------------------------------------------------


 ---------------------------------------------------------------------------------
              Anisotropic Spin Dipole Couplings in Principal Axis System
 ---------------------------------------------------------------------------------

       Atom             a.u.   MegaHertz   Gauss  10(-4) cm-1        Axes

              Baa    -0.1088   -58.041   -20.710   -19.360  0.0000  1.0000  0.0000
     1 H(1)   Bbb    -0.1088   -58.041   -20.710   -19.360  1.0000  0.0000  0.0000
              Bcc     0.2176   116.082    41.421    38.721 -0.0000  0.0000  1.0000
 
              Baa    -0.0047    -2.486    -0.887    -0.829 -0.0000  0.0000  1.0000
     2 H(1)   Bbb     0.0023     1.243     0.443     0.415  0.0000  1.0000  0.0000
              Bcc     0.0023     1.243     0.443     0.415  1.0000  0.0000  0.0000
 
              Baa    -0.0047    -2.486    -0.887    -0.829 -0.0000  0.0000  1.0000
     3 H(1)   Bbb     0.0023     1.243     0.443     0.415  0.0000  1.0000  0.0000
              Bcc     0.0023     1.243     0.443     0.415  1.0000  0.0000  0.0000
 

 ---------------------------------------------------------------------------------

 No NMR shielding tensors so no spin-rotation constants.
 Leave Link  601 at Wed Oct  7 14:05:09 2020, MaxMem=  2684354560 cpu:               3.4 elap:               0.7
 (Enter /udrive/faculty/rpeverati/g16/g16/l701.exe)
 ... and contract with generalized density number  0.
 Compute integral second derivatives.
 R6Disp: Adding Grimme-D3(BJ) dispersion energy 2nd derivatives to the Hessian.
 Leave Link  701 at Wed Oct  7 14:05:10 2020, MaxMem=  2684354560 cpu:               2.7 elap:               0.6
 (Enter /udrive/faculty/rpeverati/g16/g16/l702.exe)
 L702 exits ... SP integral derivatives will be done elsewhere.
 Leave Link  702 at Wed Oct  7 14:05:11 2020, MaxMem=  2684354560 cpu:               1.4 elap:               0.5
 (Enter /udrive/faculty/rpeverati/g16/g16/l703.exe)
 Integral derivatives from FoFJK, PRISM(SPDF).
 Compute integral second derivatives, UseDBF=F ICtDFT=           0.
 Calling FoFJK, ICntrl=    100527 FMM=F ISym2X=1 I1Cent= 0 IOpClX= 0 NMat=1 NMatS=1 NMatT=0.
 FoFJK:  IHMeth= 1 ICntrl=  100527 DoSepK=F KAlg= 0 I1Cent=           0 FoldK=F
 IRaf=         0 NMat=       1 IRICut=       1 DoRegI=T DoRafI=F ISym2E= 1 IDoP0=0 IntGTp=1.
 FoFCou: FMM=F IPFlag=           0 FMFlag=      100000 FMFlg1=         800
         NFxFlg=           0 DoJE=F BraDBF=F KetDBF=F FulRan=T
         wScrn=  0.000000 ICntrl=    100527 IOpCl=  0 I1Cent=           0 NGrid=           0
         NMat0=    1 NMatS0=      1 NMatT0=    0 NMatD0=    1 NMtDS0=    0 NMtDT0=    0
 Petite list used in FoFCou.
 Leave Link  703 at Wed Oct  7 14:05:12 2020, MaxMem=  2684354560 cpu:               2.2 elap:               0.7
 (Enter /udrive/faculty/rpeverati/g16/g16/l716.exe)
 Dipole        = 3.91508290D-18 0.00000000D+00-5.56164025D-17
 Polarizability= 7.95661694D-32 0.00000000D+00 0.00000000D+00
                -1.19219756D-15 0.00000000D+00 1.94700636D+01
 Full mass-weighted force constant matrix:
 Low frequencies ---  -20.0646  -20.0646    0.0000    0.0001    0.0001  790.0454
 Low frequencies --- 1056.7173 1056.7173 2134.3216
 Diagonal vibrational polarizability:
        0.0450559       0.0450559       7.3221679
 Harmonic frequencies (cm**-1), IR intensities (KM/Mole), Raman scattering
 activities (A**4/AMU), depolarization ratios for plane and unpolarized
 incident light, reduced masses (AMU), force constants (mDyne/A),
 and normal coordinates:
                      1                      2                      3
                     SGU                    PIU                    PIU
 Frequencies --    790.0454              1056.7173              1056.7173
 Red. masses --      1.0078                 1.0078                 1.0078
 Frc consts  --      0.3706                 0.6631                 0.6631
 IR Inten    --    169.8285                 1.8695                 1.8695
  Atom  AN      X      Y      Z        X      Y      Z        X      Y      Z
     1   1    -0.00  -0.00   0.82     0.82  -0.00   0.00     0.00   0.82   0.00
     2   1     0.00   0.00  -0.41    -0.41   0.00  -0.00    -0.00  -0.41  -0.00
     3   1     0.00   0.00  -0.41    -0.41   0.00  -0.00    -0.00  -0.41  -0.00
                      4
                     SGG
 Frequencies --   2134.3216
 Red. masses --      1.0078
 Frc consts  --      2.7049
 IR Inten    --      0.0000
  Atom  AN      X      Y      Z
     1   1     0.00  -0.00   0.00
     2   1    -0.00   0.00   0.71
     3   1    -0.00   0.00  -0.71

 -------------------
 - Thermochemistry -
 -------------------
 Temperature   298.150 Kelvin.  Pressure   1.00000 Atm.
 Atom     1 has atomic number  1 and mass   1.00783
 Atom     2 has atomic number  1 and mass   1.00783
 Atom     3 has atomic number  1 and mass   1.00783
 Molecular mass:     3.02348 amu.
 Principal axes and moments of inertia in atomic units:
                           1         2         3
     Eigenvalues --     0.00000   6.39524   6.39524
           X           -0.00000   1.00000   0.00000
           Y            0.00000   0.00000   1.00000
           Z            1.00000   0.00000   0.00000
 This molecule is a prolate symmetric top.
 Rotational symmetry number  2.
 Rotational temperature (Kelvin)     13.54349
 Rotational constant (GHZ):         282.200588
 Zero-point vibrational energy      30132.7 (Joules/Mol)
                                    7.20190 (Kcal/Mol)
 Vibrational temperatures:   1136.70  1520.38  1520.38  3070.81
          (Kelvin)
 
 Zero-point correction=                           0.011477 (Hartree/Particle)
 Thermal correction to Energy=                    0.013978
 Thermal correction to Enthalpy=                  0.014922
 Thermal correction to Gibbs Free Energy=        -0.003030
 Sum of electronic and zero-point Energies=             -1.658350
 Sum of electronic and thermal Energies=                -1.655849
 Sum of electronic and thermal Enthalpies=              -1.654905
 Sum of electronic and thermal Free Energies=           -1.672857
 
                     E (Thermal)             CV                S
                      KCal/Mol        Cal/Mol-Kelvin    Cal/Mol-Kelvin
 Total                    8.771              6.281             37.785
 Electronic               0.000              0.000              1.377
 Translational            0.889              2.981             29.289
 Rotational               0.592              1.987              6.754
 Vibrational              7.290              1.313              0.365
                       Q            Log10(Q)             Ln(Q)
 Total Bot       0.247697D+02          1.393921          3.209621
 Total V=0       0.470923D+07          6.672950         15.365034
 Vib (Bot)       0.544507D-05         -5.263997        -12.120801
 Vib (V=0)       0.103522D+01          0.015032          0.034612
 Electronic      0.200000D+01          0.301030          0.693147
 Translational   0.206640D+06          5.315213         12.238731
 Rotational      0.110071D+02          1.041674          2.398543
 
                                                          TS search on BH76.
                                                             IR Spectrum
 
     2                                                                1                                                              
     1                                                                0              7                                               
     3                                                                5              9                                               
     4                                                                7              0                                               
 
                                                                      X              X                                               
                                                                                     X                                               
                                                                                     X                                               
                                                                                     X                                               
                                                                                     X                                               
                                                                                     X                                               
                                                                                     X                                               
                                                                                     X                                               
                                                                                     X                                               
                                                                                     X                                               
                                                                                     X                                               
                                                                                     X                                               
                                                                                     X                                               
                                                                                     X                                               
                                                                                     X                                               
                                                                                     X                                               
                                                                                     X                                               
                                                                                     X                                               
                                                                                     X                                               
                                                                                     X                                               
 
 ***** Axes restored to original set *****
 -------------------------------------------------------------------
 Center     Atomic                   Forces (Hartrees/Bohr)
 Number     Number              X              Y              Z
 -------------------------------------------------------------------
      1        1           0.000000000   -0.000000000   -0.000000000
      2        1          -0.000000000   -0.000000000    0.000027060
      3        1          -0.000000000   -0.000000000   -0.000027060
 -------------------------------------------------------------------
 Cartesian Forces:  Max     0.000027060 RMS     0.000012756
 Force constants in Cartesian coordinates: 
                1             2             3             4             5 
      1  0.283925D-01
      2  0.000000D+00  0.283925D-01
      3  0.000000D+00  0.000000D+00  0.158705D-01
      4 -0.141962D-01  0.000000D+00  0.000000D+00  0.709044D-02
      5  0.000000D+00 -0.141962D-01  0.000000D+00  0.000000D+00  0.709044D-02
      6  0.000000D+00  0.000000D+00 -0.793523D-02  0.000000D+00  0.000000D+00
      7 -0.141962D-01  0.000000D+00  0.000000D+00  0.710579D-02  0.000000D+00
      8  0.000000D+00 -0.141962D-01  0.000000D+00  0.000000D+00  0.710579D-02
      9  0.000000D+00  0.000000D+00 -0.793523D-02  0.000000D+00  0.000000D+00
                6             7             8             9 
      6  0.908369D-01
      7  0.000000D+00  0.709044D-02
      8  0.000000D+00  0.000000D+00  0.709044D-02
      9 -0.829017D-01  0.000000D+00  0.000000D+00  0.908369D-01
 FormGI is forming the generalized inverse of G from B-inverse, IUseBI=4.
 Force constants in internal coordinates: 
                1             2             3             4 
      1  0.908369D-01
      2  0.829017D-01  0.908369D-01
      3  0.000000D+00  0.000000D+00  0.225450D-01
      4  0.000000D+00  0.000000D+00  0.000000D+00  0.225450D-01
 Leave Link  716 at Wed Oct  7 14:05:13 2020, MaxMem=  2684354560 cpu:               7.0 elap:               0.9
 (Enter /udrive/faculty/rpeverati/g16/g16/l103.exe)

 GradGradGradGradGradGradGradGradGradGradGradGradGradGradGradGradGradGrad
 Berny optimization.
 Optmz: redundant internal coordinate code flag= 1
 Red2BG:  D1=  1.00D+00 OD1=  3.33D-16 B2RMS=  0.00D+00 IAprox=1
 Red2BG is reusing G-inverse.
 Internal  Forces:  Max     0.000027060 RMS     0.000019134
 Search for a local minimum.
 Step number   1 out of a maximum of    2
 All quantities printed in internal units (Hartrees-Bohrs-Radians)
 Second derivative matrix not updated -- analytic derivatives used.
 The second derivative matrix:
                          R1        R2        A1        A2
           R1           0.09084
           R2           0.08290   0.09084
           A1          -0.00000   0.00000   0.02254
           A2           0.00000  -0.00000  -0.00000   0.02254
 ITU=  0
 Eigenvectors of the second derivative matrix:
                           1         2         3         4
     Eigenvalues --     0.00794   0.02254   0.02254   0.17374
   1         R1        -0.70711  -0.00000  -0.00000  -0.70711
   2         R2         0.70711   0.00000   0.00000  -0.70711
   3         A1        -0.00000  -0.99366   0.11245   0.00000
   4         A2        -0.00000   0.11245   0.99366  -0.00000
 Angle between quadratic step and forces=   0.00 degrees.
 Linear search not attempted -- first point.
 Iteration  1 RMS(Cart)=  0.00011013 RMS(Int)=  0.00000000
 Iteration  2 RMS(Cart)=  0.00000000 RMS(Int)=  0.00000000
 ITry= 1 IFail=0 DXMaxC= 1.56D-04 DCOld= 1.00D+10 DXMaxT= 3.00D-01 DXLimC= 3.00D+00 Rises=F
 ClnCor:  largest displacement from symmetrization is 5.37D-15 for atom     1.
 Variable       Old X    -DE/DX   Delta X   Delta X   Delta X     New X
                                 (Linear)    (Quad)   (Total)
    R1        1.78123   0.00003   0.00000   0.00016   0.00016   1.78139
    R2        1.78123   0.00003   0.00000   0.00016   0.00016   1.78139
    A1        3.14159   0.00000   0.00000   0.00000   0.00000   3.14159
    A2        3.14159  -0.00000   0.00000  -0.00000   0.00000   3.14159
         Item               Value     Threshold  Converged?
 Maximum Force            0.000027     0.000450     YES
 RMS     Force            0.000019     0.000300     YES
 Maximum Displacement     0.000156     0.001800     YES
 RMS     Displacement     0.000110     0.001200     YES
 Predicted change in Energy=-4.214561D-09
 Optimization completed.
    -- Stationary point found.
                           ----------------------------
                           !   Optimized Parameters   !
                           ! (Angstroms and Degrees)  !
 --------------------------                            --------------------------
 ! Name  Definition              Value          Derivative Info.                !
 --------------------------------------------------------------------------------
 ! R1    R(1,2)                  0.9426         -DE/DX =    0.0                 !
 ! R2    R(1,3)                  0.9426         -DE/DX =    0.0                 !
 ! A1    L(2,1,3,-1,-1)        180.0            -DE/DX =    0.0                 !
 ! A2    L(2,1,3,-2,-2)        180.0            -DE/DX =    0.0                 !
 --------------------------------------------------------------------------------
 GradGradGradGradGradGradGradGradGradGradGradGradGradGradGradGradGradGrad

 Leave Link  103 at Wed Oct  7 14:05:14 2020, MaxMem=  2684354560 cpu:               2.0 elap:               0.5
 (Enter /udrive/faculty/rpeverati/g16/g16/l9999.exe)
 Dipole is zero, so no output in dipole orientation.

 ----------------------------------------------------------------------

 Electric dipole moment (input orientation):
 (Debye = 10**-18 statcoulomb cm , SI units = C m)
                  (au)            (Debye)         (10**-30 SI)
   Tot        0.000000D+00      0.000000D+00      0.000000D+00
   x          0.000000D+00      0.000000D+00      0.000000D+00
   y          0.000000D+00      0.000000D+00      0.000000D+00
   z          0.000000D+00      0.000000D+00      0.000000D+00

 Dipole polarizability, Alpha (input orientation).
 (esu units = cm**3 , SI units = C**2 m**2 J**-1)
 Alpha(0;0):
               (au)            (10**-24 esu)      (10**-40 SI)
   iso        0.649002D+01      0.961722D+00      0.107006D+01
   aniso      0.194701D+02      0.288517D+01      0.321018D+01
   xx         0.000000D+00      0.000000D+00      0.000000D+00
   yx         0.000000D+00      0.000000D+00      0.000000D+00
   yy         0.000000D+00      0.000000D+00      0.000000D+00
   zx         0.000000D+00      0.000000D+00      0.000000D+00
   zy         0.000000D+00      0.000000D+00      0.000000D+00
   zz         0.194701D+02      0.288517D+01      0.321018D+01

 ----------------------------------------------------------------------

 Test job not archived.
 1\1\GINC-NODE55\Freq\UB97D3\6-31G(d)\H3(2)\RPEVERATI\07-Oct-2020\0\\#P
  Freq B97D3/6-31G* 5D 7F Integral=UltraFineGrid SCF=(NoSymm,XQC,MaxCyc
 =120) IOp(1/33=1) Geom=Check Guess=Read\\TS search on BH76.\\0,2\H,0.,
 0.,0.\H,0.,0.,0.9425883625\H,0.,0.,-0.9425883625\\Version=ES64L-G16Rev
 A.03\State=2-SGU\HF=-1.6698269\S2=0.752917\S2-1=0.\S2A=0.75\RMSD=0.000
 e+00\RMSF=1.276e-05\ZeroPoint=0.011477\Thermal=0.0139782\Dipole=0.,0.,
 0.\DipoleDeriv=-0.0358954,0.,0.,0.,-0.0358954,0.,0.,0.,0.3421186,0.017
 9477,0.,0.,0.,0.0179477,0.,0.,0.,-0.1710593,0.0179477,0.,0.,0.,0.01794
 77,0.,0.,0.,-0.1710593\Polar=0.,0.,0.,0.,0.,19.4700636\Quadrupole=0.01
 77939,0.0177939,-0.0355878,0.,0.,0.\PG=D*H [O(H1),C*(H1.H1)]\NImag=0\\
 0.02839245,0.,0.02839245,0.,0.,0.01587046,-0.01419623,0.,0.,0.00709044
 ,0.,-0.01419623,0.,0.,0.00709044,0.,0.,-0.00793523,0.,0.,0.09083691,-0
 .01419623,0.,0.,0.00710579,0.,0.,0.00709044,0.,-0.01419623,0.,0.,0.007
 10579,0.,0.,0.00709044,0.,0.,-0.00793523,0.,0.,-0.08290168,0.,0.,0.090
 83691\\0.,0.,0.,0.,0.,-0.00002706,0.,0.,0.00002706\\\@


 THE ENLIGHTENED ONE, BECAUSE HE SAW MANKIND DROWNING  
 IN THE GREAT SEA OF BIRTH, DEATH, AND SORROW, LONGED TO SAVE 
 THEM, FOR THIS HE WAS MOVED TO PITY.                         
 BECAUSE HE SAW MEN OF THE WORLD STRAYING IN FALSE PATHS, AND 
 NONE TO GUIDE THEM, FOR THIS HE WAS MOVED TO PITY.           
                     ..................                       
 BECAUSE HE SAW THE MEN OF THE WORLD PLOUGHING THEIR FIELDS,  
 SOWING THE SEED, TRAFFICKING, HUCKSTERING, BUYING, SELLING,  
 AND AT THE END WINNOWING NOTHING BUT BITTERNESS,             
 FOR THIS HE WAS MOVED TO PITY......                   
                   BUDAH'S PITY - UPSAKA SILA SUTRA           
 Job cpu time:       0 days  0 hours  1 minutes 25.7 seconds.
 Elapsed time:       0 days  0 hours  0 minutes 16.6 seconds.
 File lengths (MBytes):  RWF=      5 Int=      0 D2E=      0 Chk=      1 Scr=      1
 Normal termination of Gaussian 16 at Wed Oct  7 14:05:15 2020.
