 Entering Gaussian System, Link 0=g16
 Input=MN_81_RKT04_BH76_B97DBJ_631Gs.in
 Output=MN_81_RKT04_BH76_B97DBJ_631Gs.log
 Initial command:
 /udrive/faculty/rpeverati/g16/g16/l1.exe "/udrive/scratch-directories/gaussian09/rpeverati/Gau-497.inp" -scrdir="/udrive/scratch-directories/gaussian09/rpeverati/"
 Entering Link 1 = /udrive/faculty/rpeverati/g16/g16/l1.exe PID=       509.
  
 Copyright (c) 1988,1990,1992,1993,1995,1998,2003,2009,2016,
            Gaussian, Inc.  All Rights Reserved.
  
 This is part of the Gaussian(R) 16 program.  It is based on
 the Gaussian(R) 09 system (copyright 2009, Gaussian, Inc.),
 the Gaussian(R) 03 system (copyright 2003, Gaussian, Inc.),
 the Gaussian(R) 98 system (copyright 1998, Gaussian, Inc.),
 the Gaussian(R) 94 system (copyright 1995, Gaussian, Inc.),
 the Gaussian 92(TM) system (copyright 1992, Gaussian, Inc.),
 the Gaussian 90(TM) system (copyright 1990, Gaussian, Inc.),
 the Gaussian 88(TM) system (copyright 1988, Gaussian, Inc.),
 the Gaussian 86(TM) system (copyright 1986, Carnegie Mellon
 University), and the Gaussian 82(TM) system (copyright 1983,
 Carnegie Mellon University). Gaussian is a federally registered
 trademark of Gaussian, Inc.
  
 This software contains proprietary and confidential information,
 including trade secrets, belonging to Gaussian, Inc.
  
 This software is provided under written license and may be
 used, copied, transmitted, or stored only in accord with that
 written license.
  
 The following legend is applicable only to US Government
 contracts under FAR:
  
                    RESTRICTED RIGHTS LEGEND
  
 Use, reproduction and disclosure by the US Government is
 subject to restrictions as set forth in subparagraphs (a)
 and (c) of the Commercial Computer Software - Restricted
 Rights clause in FAR 52.227-19.
  
 Gaussian, Inc.
 340 Quinnipiac St., Bldg. 40, Wallingford CT 06492
  
  
 ---------------------------------------------------------------
 Warning -- This program may not be used in any manner that
 competes with the business of Gaussian, Inc. or will provide
 assistance to any competitor of Gaussian, Inc.  The licensee
 of this program is prohibited from giving any competitor of
 Gaussian, Inc. access to this program.  By using this program,
 the user acknowledges that Gaussian, Inc. is engaged in the
 business of creating and licensing software in the field of
 computational chemistry and represents and warrants to the
 licensee that it is not a competitor of Gaussian, Inc. and that
 it will not use this program in any manner prohibited above.
 ---------------------------------------------------------------
  

 Cite this work as:
 Gaussian 16, Revision A.03,
 M. J. Frisch, G. W. Trucks, H. B. Schlegel, G. E. Scuseria, 
 M. A. Robb, J. R. Cheeseman, G. Scalmani, V. Barone, 
 G. A. Petersson, H. Nakatsuji, X. Li, M. Caricato, A. V. Marenich, 
 J. Bloino, B. G. Janesko, R. Gomperts, B. Mennucci, H. P. Hratchian, 
 J. V. Ortiz, A. F. Izmaylov, J. L. Sonnenberg, D. Williams-Young, 
 F. Ding, F. Lipparini, F. Egidi, J. Goings, B. Peng, A. Petrone, 
 T. Henderson, D. Ranasinghe, V. G. Zakrzewski, J. Gao, N. Rega, 
 G. Zheng, W. Liang, M. Hada, M. Ehara, K. Toyota, R. Fukuda, 
 J. Hasegawa, M. Ishida, T. Nakajima, Y. Honda, O. Kitao, H. Nakai, 
 T. Vreven, K. Throssell, J. A. Montgomery, Jr., J. E. Peralta, 
 F. Ogliaro, M. J. Bearpark, J. J. Heyd, E. N. Brothers, K. N. Kudin, 
 V. N. Staroverov, T. A. Keith, R. Kobayashi, J. Normand, 
 K. Raghavachari, A. P. Rendell, J. C. Burant, S. S. Iyengar, 
 J. Tomasi, M. Cossi, J. M. Millam, M. Klene, C. Adamo, R. Cammi, 
 J. W. Ochterski, R. L. Martin, K. Morokuma, O. Farkas, 
 J. B. Foresman, and D. J. Fox, Gaussian, Inc., Wallingford CT, 2016.
 
 ******************************************
 Gaussian 16:  ES64L-G16RevA.03 25-Dec-2016
                 7-Oct-2020 
 ******************************************
 %NoSave
 %nproc=12
 Will use up to   12 processors via shared memory.
 %mem=20GB
 %chk=MN_81_RKT04_BH76_B97DBJ_631Gs
 ----------------------------------------------------------------------
 #P Opt(TS,MaxCyc=50,NoEigenTest,MaxStep=10,AddRedundant) B97D3/6-31G* 
 5D 7F Integral=UltraFineGrid SCF=(NoSymm,XQC,MaxCyc=120) IOp(1/33=1)
 ----------------------------------------------------------------------
 1/5=1,6=50,8=10,11=1,18=120,26=4,33=1,38=1/1,3;
 2/9=110,12=2,17=6,18=5,40=1/2;
 3/5=1,6=6,7=1,8=11,11=2,25=1,30=1,71=1,74=-59,75=-5/1,2,3;
 4/9=2/1;
 5/5=2,7=120,8=3,13=1,38=5/2,8;
 6/7=2,8=2,9=2,10=2,28=1/1;
 7//1,2,3,16;
 1/5=1,6=50,8=10,11=1,18=20,26=4,33=1/3(2);
 2/9=110/2;
 99//99;
 2/9=110/2;
 3/5=1,6=6,7=1,8=11,11=2,25=1,30=1,71=1,74=-59,75=-5/1,2,3;
 4/5=5,9=2,16=3,69=1/1;
 5/5=2,7=120,8=3,13=1,38=5/2,8;
 7//1,2,3,16;
 1/5=1,6=50,8=10,11=1,18=20,26=4,33=1/3(-5);
 2/9=110/2;
 6/7=2,8=2,9=2,10=2,19=2,28=1/1;
 99/9=1/99;
 Leave Link    1 at Wed Oct  7 14:04:13 2020, MaxMem=  2684354560 cpu:              10.5 elap:               1.1
 (Enter /udrive/faculty/rpeverati/g16/g16/l101.exe)
 ONIOM data not found on unit 2.
 ------------------
 TS search on BH76.
 ------------------
 TstMul:  ICh=     0
 TstMul:  Mul=     2
 TstMul:  ICh=     0
 TstMul:  Mul=     2
 Symbolic Z-matrix:
 Charge =  0 Multiplicity = 2
 C                    -1.21149   0.00797   0.00041 
 O                     1.29397  -0.10869   0.00013 
 H                     0.00948  -0.11802   0.0028 
 H                    -1.52553  -0.23325   1.01007 
 H                    -1.43067   1.03323  -0.27808 
 H                    -1.55271  -0.71011  -0.7377 
 H                     1.41664   0.8499   -0.00059 
 
 RdStrC is calling ZToCFu for IStruc=1 NZ=     7.
 PrtBox:  NBox=     1 Levels=  1 BoxLen=    8.00 SMaxX=        5.61
          Shift=            2.934200            1.341920            1.394060
 Box      1 Number                   0 centers from      1 to      7:
 After GenITR:
 ITRead=  0  0  0  0  0  0  0
 MicOpt= -1 -1 -1 -1 -1 -1 -1
 Add virtual bond connecting atoms H3         and O2         Dist= 2.43D+00.
 The following ModRedundant input section has been read:
 
 ITRead=  0  0  0  0  0  0  0
 MicOpt= -1 -1 -1 -1 -1 -1 -1
 NAtoms=      7 NQM=        7 NQMF=       0 NMMI=      0 NMMIF=      0
                NMic=       0 NMicF=      0.
                    Isotopes and Nuclear Properties:
 (Nuclear quadrupole moments (NQMom) in fm**2, nuclear magnetic moments (NMagM)
  in nuclear magnetons)

  Atom         1           2           3           4           5           6           7
 IAtWgt=          12          16           1           1           1           1           1
 AtmWgt=  12.0000000  15.9949146   1.0078250   1.0078250   1.0078250   1.0078250   1.0078250
 NucSpn=           0           0           1           1           1           1           1
 AtZEff=   0.0000000   0.0000000   0.0000000   0.0000000   0.0000000   0.0000000   0.0000000
 NQMom=    0.0000000   0.0000000   0.0000000   0.0000000   0.0000000   0.0000000   0.0000000
 NMagM=    0.0000000   0.0000000   2.7928460   2.7928460   2.7928460   2.7928460   2.7928460
 AtZNuc=   6.0000000   8.0000000   1.0000000   1.0000000   1.0000000   1.0000000   1.0000000
 No MM parameters found.
 Leave Link  101 at Wed Oct  7 14:04:16 2020, MaxMem=  2684354560 cpu:              13.2 elap:               1.9
 (Enter /udrive/faculty/rpeverati/g16/g16/l103.exe)

 GradGradGradGradGradGradGradGradGradGradGradGradGradGradGradGradGradGrad
 Berny optimization.
 Optmz: redundant internal coordinate code flag= 1
 Initialization pass.
                           ----------------------------
                           !    Initial Parameters    !
                           ! (Angstroms and Degrees)  !
 --------------------------                            --------------------------
 ! Name  Definition              Value          Derivative Info.                !
 --------------------------------------------------------------------------------
 ! R1    R(1,3)                  1.2274         estimate D2E/DX2                !
 ! R2    R(1,4)                  1.0845         estimate D2E/DX2                !
 ! R3    R(1,5)                  1.0848         estimate D2E/DX2                !
 ! R4    R(1,6)                  1.0848         estimate D2E/DX2                !
 ! R5    R(2,3)                  1.2845         estimate D2E/DX2                !
 ! R6    R(2,7)                  0.9664         estimate D2E/DX2                !
 ! A1    A(3,1,4)              105.2711         estimate D2E/DX2                !
 ! A2    A(3,1,5)              107.367          estimate D2E/DX2                !
 ! A3    A(3,1,6)              104.2563         estimate D2E/DX2                !
 ! A4    A(4,1,5)              112.9983         estimate D2E/DX2                !
 ! A5    A(4,1,6)              113.273          estimate D2E/DX2                !
 ! A6    A(5,1,6)              112.7916         estimate D2E/DX2                !
 ! A7    A(3,2,7)               97.7088         estimate D2E/DX2                !
 ! A8    L(1,3,2,7,-1)         173.692          estimate D2E/DX2                !
 ! A9    L(1,3,2,7,-2)         180.3499         estimate D2E/DX2                !
 ! D1    D(4,1,2,7)           -104.2472         estimate D2E/DX2                !
 ! D2    D(5,1,2,7)             15.3168         estimate D2E/DX2                !
 ! D3    D(6,1,2,7)            134.7639         estimate D2E/DX2                !
 --------------------------------------------------------------------------------
 Maximum allowed force set to 1.00D+20.
 Trust Radius=1.00D-01 FncErr=1.00D-07 GrdErr=1.00D-06 EigMax=2.50D+02 EigMin=1.00D-04
 Number of steps in this run=     50 maximum allowed number of steps=    100.
 Search for a saddle point of order  1.
 GradGradGradGradGradGradGradGradGradGradGradGradGradGradGradGradGradGrad

 Leave Link  103 at Wed Oct  7 14:04:17 2020, MaxMem=  2684354560 cpu:               1.6 elap:               0.5
 (Enter /udrive/faculty/rpeverati/g16/g16/l202.exe)
                          Input orientation:                          
 ---------------------------------------------------------------------
 Center     Atomic      Atomic             Coordinates (Angstroms)
 Number     Number       Type             X           Y           Z
 ---------------------------------------------------------------------
      1          6           0       -1.211488    0.007968    0.000407
      2          8           0        1.293965   -0.108694    0.000133
      3          1           0        0.009476   -0.118020    0.002799
      4          1           0       -1.525528   -0.233250    1.010072
      5          1           0       -1.430668    1.033234   -0.278082
      6          1           0       -1.552712   -0.710113   -0.737705
      7          1           0        1.416639    0.849896   -0.000591
 ---------------------------------------------------------------------
                    Distance matrix (angstroms):
                    1          2          3          4          5
     1  C    0.000000
     2  O    2.508168   0.000000
     3  H    1.227449   1.284526   0.000000
     4  H    1.084542   2.997505   1.839596   0.000000
     5  H    1.084789   2.967327   1.865019   1.808956   0.000000
     6  H    1.084843   3.001613   1.827389   1.811867   1.807044
     7  H    2.759691   0.966408   1.707917   3.294084   2.866665
                    6          7
     6  H    0.000000
     7  H    3.434241   0.000000
 Stoichiometry    CH5O(2)
 Framework group  C1[X(CH5O)]
 Deg. of freedom    15
 Full point group                 C1      NOp   1
 Largest Abelian subgroup         C1      NOp   1
 Largest concise Abelian subgroup C1      NOp   1
                         Standard orientation:                         
 ---------------------------------------------------------------------
 Center     Atomic      Atomic             Coordinates (Angstroms)
 Number     Number       Type             X           Y           Z
 ---------------------------------------------------------------------
      1          6           0       -1.211488    0.007968    0.000407
      2          8           0        1.293965   -0.108694    0.000133
      3          1           0        0.009476   -0.118020    0.002799
      4          1           0       -1.525528   -0.233250    1.010072
      5          1           0       -1.430668    1.033235   -0.278082
      6          1           0       -1.552712   -0.710113   -0.737705
      7          1           0        1.416639    0.849895   -0.000591
 ---------------------------------------------------------------------
 Rotational constants (GHZ):         120.8646308           9.2474374           9.1021904
 Leave Link  202 at Wed Oct  7 14:04:18 2020, MaxMem=  2684354560 cpu:               1.7 elap:               0.7
 (Enter /udrive/faculty/rpeverati/g16/g16/l301.exe)
 Standard basis: 6-31G(d) (5D, 7F)
 Ernie: Thresh=  0.10000D-02 Tol=  0.10000D-05 Strict=F.
 There are    40 symmetry adapted cartesian basis functions of A   symmetry.
 There are    38 symmetry adapted basis functions of A   symmetry.
    38 basis functions,    76 primitive gaussians,    40 cartesian basis functions
    10 alpha electrons        9 beta electrons
       nuclear repulsion energy        37.1187830199 Hartrees.
 IExCor= 3630 DFT=T Ex+Corr=B97D3 ExCW=0 ScaHFX=  0.000000
 ScaDFX=  1.000000  1.000000  1.000000  1.000000 ScalE2=  1.000000  1.000000
 IRadAn=      5 IRanWt=     -1 IRanGd=            0 ICorTp=0 IEmpDi=141
 NAtoms=    7 NActive=    7 NUniq=    7 SFac= 1.00D+00 NAtFMM=   60 NAOKFM=F Big=F
 Integral buffers will be    131072 words long.
 Raffenetti 2 integral format.
 Two-electron integral symmetry is turned on.
 R6Disp:  Grimme-D3(BJ) Dispersion energy=       -0.0073381226 Hartrees.
 Nuclear repulsion after empirical dispersion term =       37.1114448973 Hartrees.
 Leave Link  301 at Wed Oct  7 14:04:19 2020, MaxMem=  2684354560 cpu:               2.0 elap:               0.8
 (Enter /udrive/faculty/rpeverati/g16/g16/l302.exe)
 NPDir=0 NMtPBC=     1 NCelOv=     1 NCel=       1 NClECP=     1 NCelD=      1
         NCelK=      1 NCelE2=     1 NClLst=     1 CellRange=     0.0.
 One-electron integrals computed using PRISM.
 One-electron integral symmetry used in STVInt
 NBasis=    38 RedAO= T EigKep=  1.02D-02  NBF=    38
 NBsUse=    38 1.00D-06 EigRej= -1.00D+00 NBFU=    38
 Precomputing XC quadrature grid using
 IXCGrd= 4 IRadAn=           5 IRanWt=          -1 IRanGd=           0 AccXCQ= 0.00D+00.
 Generated NRdTot=       0 NPtTot=           0 NUsed=           0 NTot=          32
 NSgBfM=    40    40    40    40    40 MxSgAt=     7 MxSgA2=     7.
 Leave Link  302 at Wed Oct  7 14:04:20 2020, MaxMem=  2684354560 cpu:              10.0 elap:               1.3
 (Enter /udrive/faculty/rpeverati/g16/g16/l303.exe)
 DipDrv:  MaxL=1.
 Leave Link  303 at Wed Oct  7 14:04:21 2020, MaxMem=  2684354560 cpu:               3.0 elap:               0.8
 (Enter /udrive/faculty/rpeverati/g16/g16/l401.exe)
 SCF N**3 symmetry information disabled.
 ExpMin= 1.61D-01 ExpMax= 5.48D+03 ExpMxC= 8.25D+02 IAcc=3 IRadAn=         5 AccDes= 0.00D+00
 Harris functional with IExCor= 3630 and IRadAn=       5 diagonalized for initial guess.
 HarFok:  IExCor= 3630 AccDes= 0.00D+00 IRadAn=         5 IDoV= 1 UseB2=F ITyADJ=14
 ICtDFT=  3500011 ScaDFX=  1.000000  1.000000  1.000000  1.000000
 FoFCou: FMM=F IPFlag=           0 FMFlag=      100000 FMFlg1=           0
         NFxFlg=           0 DoJE=T BraDBF=F KetDBF=T FulRan=T
         wScrn=  0.000000 ICntrl=       500 IOpCl=  0 I1Cent=   200000004 NGrid=           0
         NMat0=    1 NMatS0=      1 NMatT0=    0 NMatD0=    1 NMtDS0=    0 NMtDT0=    0
 Petite list used in FoFCou.
 Harris En= -116.219599211917    
 JPrj=0 DoOrth=F DoCkMO=F.
 Initial guess <Sx>= 0.0000 <Sy>= 0.0000 <Sz>= 0.5000 <S**2>= 0.7500 S= 0.5000
 Leave Link  401 at Wed Oct  7 14:04:23 2020, MaxMem=  2684354560 cpu:              13.1 elap:               1.8
 (Enter /udrive/faculty/rpeverati/g16/g16/l502.exe)
 Keep J ints in memory in canonical form, NReq=10631630.
 FoFCou: FMM=F IPFlag=           0 FMFlag=           0 FMFlg1=           0
         NFxFlg=           0 DoJE=F BraDBF=F KetDBF=F FulRan=T
         wScrn=  0.000000 ICntrl=       600 IOpCl=  0 I1Cent=           0 NGrid=           0
         NMat0=    1 NMatS0=    741 NMatT0=    0 NMatD0=    1 NMtDS0=    0 NMtDT0=    0
 Symmetry not used in FoFCou.
 Two-electron integral symmetry not used.
 UHF open shell SCF:
 Using DIIS extrapolation, IDIIS=  1040.
 NGot=  2684354560 LenX=  2684075284 LenY=  2684073243
 Requested convergence on RMS density matrix=1.00D-08 within 120 cycles.
 Requested convergence on MAX density matrix=1.00D-06.
 Requested convergence on             energy=1.00D-06.
 No special actions if energy rises.
 Integral accuracy reduced to 1.0D-05 until final iterations.

 Cycle   1  Pass 0  IDiag  1:
 E= -116.081600412657    
 DIIS: error= 5.87D-02 at cycle   1 NSaved=   1.
 NSaved= 1 IEnMin= 1 EnMin= -116.081600412657     IErMin= 1 ErrMin= 5.87D-02
 ErrMax= 5.87D-02  0.00D+00 EMaxC= 1.00D-01 BMatC= 3.62D-01 BMatP= 3.62D-01
 IDIUse=3 WtCom= 4.13D-01 WtEn= 5.87D-01
 Coeff-Com:  0.100D+01
 Coeff-En:   0.100D+01
 Coeff:      0.100D+01
 Gap=     0.202 Goal=   None    Shift=    0.000
 Gap=     0.032 Goal=   None    Shift=    0.000
 GapD=    0.032 DampG=0.250 DampE=0.500 DampFc=0.2500 IDamp=-1.
 Damping current iteration by 2.50D-01
 RMSDP=1.79D-02 MaxDP=1.62D-01              OVMax= 2.27D-01

 Cycle   2  Pass 0  IDiag  1:
 E= -116.114672089079     Delta-E=       -0.033071676422 Rises=F Damp=T
 DIIS: error= 2.61D-02 at cycle   2 NSaved=   2.
 NSaved= 2 IEnMin= 2 EnMin= -116.114672089079     IErMin= 2 ErrMin= 2.61D-02
 ErrMax= 2.61D-02  0.00D+00 EMaxC= 1.00D-01 BMatC= 6.05D-02 BMatP= 3.62D-01
 IDIUse=3 WtCom= 7.39D-01 WtEn= 2.61D-01
 Coeff-Com: -0.602D+00 0.160D+01
 Coeff-En:   0.000D+00 0.100D+01
 Coeff:     -0.445D+00 0.144D+01
 Gap=     0.300 Goal=   None    Shift=    0.000
 Gap=     0.058 Goal=   None    Shift=    0.000
 RMSDP=4.28D-03 MaxDP=5.43D-02 DE=-3.31D-02 OVMax= 1.59D-01

 Cycle   3  Pass 0  IDiag  1:
 E= -116.163751839014     Delta-E=       -0.049079749935 Rises=F Damp=F
 DIIS: error= 1.69D-02 at cycle   3 NSaved=   3.
 NSaved= 3 IEnMin= 3 EnMin= -116.163751839014     IErMin= 3 ErrMin= 1.69D-02
 ErrMax= 1.69D-02  0.00D+00 EMaxC= 1.00D-01 BMatC= 2.09D-02 BMatP= 6.05D-02
 IDIUse=3 WtCom= 8.31D-01 WtEn= 1.69D-01
 Coeff-Com: -0.278D+00 0.848D+00 0.430D+00
 Coeff-En:   0.000D+00 0.000D+00 0.100D+01
 Coeff:     -0.231D+00 0.704D+00 0.527D+00
 Gap=     0.301 Goal=   None    Shift=    0.000
 Gap=     0.046 Goal=   None    Shift=    0.000
 RMSDP=2.44D-03 MaxDP=3.15D-02 DE=-4.91D-02 OVMax= 6.53D-02

 Cycle   4  Pass 0  IDiag  1:
 E= -116.167966421757     Delta-E=       -0.004214582743 Rises=F Damp=F
 DIIS: error= 9.50D-03 at cycle   4 NSaved=   4.
 NSaved= 4 IEnMin= 4 EnMin= -116.167966421757     IErMin= 4 ErrMin= 9.50D-03
 ErrMax= 9.50D-03  0.00D+00 EMaxC= 1.00D-01 BMatC= 6.89D-03 BMatP= 2.09D-02
 IDIUse=3 WtCom= 9.05D-01 WtEn= 9.50D-02
 Coeff-Com:  0.102D+00-0.148D+00 0.381D+00 0.665D+00
 Coeff-En:   0.000D+00 0.000D+00 0.262D+00 0.738D+00
 Coeff:      0.919D-01-0.134D+00 0.370D+00 0.672D+00
 Gap=     0.305 Goal=   None    Shift=    0.000
 Gap=     0.056 Goal=   None    Shift=    0.000
 RMSDP=1.02D-03 MaxDP=1.08D-02 DE=-4.21D-03 OVMax= 3.18D-02

 Cycle   5  Pass 0  IDiag  1:
 E= -116.169778322571     Delta-E=       -0.001811900814 Rises=F Damp=F
 DIIS: error= 1.01D-03 at cycle   5 NSaved=   5.
 NSaved= 5 IEnMin= 5 EnMin= -116.169778322571     IErMin= 5 ErrMin= 1.01D-03
 ErrMax= 1.01D-03  0.00D+00 EMaxC= 1.00D-01 BMatC= 9.97D-05 BMatP= 6.89D-03
 IDIUse=3 WtCom= 9.90D-01 WtEn= 1.01D-02
 Coeff-Com:  0.267D-01-0.639D-01 0.599D-01 0.196D+00 0.781D+00
 Coeff-En:   0.000D+00 0.000D+00 0.000D+00 0.000D+00 0.100D+01
 Coeff:      0.264D-01-0.633D-01 0.593D-01 0.194D+00 0.783D+00
 Gap=     0.297 Goal=   None    Shift=    0.000
 Gap=     0.056 Goal=   None    Shift=    0.000
 RMSDP=1.30D-04 MaxDP=1.96D-03 DE=-1.81D-03 OVMax= 4.48D-03

 Cycle   6  Pass 0  IDiag  1:
 E= -116.169804581359     Delta-E=       -0.000026258788 Rises=F Damp=F
 DIIS: error= 1.28D-04 at cycle   6 NSaved=   6.
 NSaved= 6 IEnMin= 6 EnMin= -116.169804581359     IErMin= 6 ErrMin= 1.28D-04
 ErrMax= 1.28D-04  0.00D+00 EMaxC= 1.00D-01 BMatC= 3.20D-06 BMatP= 9.97D-05
 IDIUse=3 WtCom= 9.99D-01 WtEn= 1.28D-03
 Coeff-Com: -0.877D-02 0.919D-02-0.322D-01-0.405D-01 0.157D+00 0.916D+00
 Coeff-En:   0.000D+00 0.000D+00 0.000D+00 0.000D+00 0.000D+00 0.100D+01
 Coeff:     -0.876D-02 0.918D-02-0.321D-01-0.404D-01 0.156D+00 0.916D+00
 Gap=     0.297 Goal=   None    Shift=    0.000
 Gap=     0.056 Goal=   None    Shift=    0.000
 RMSDP=2.86D-05 MaxDP=3.26D-04 DE=-2.63D-05 OVMax= 4.21D-04

 Cycle   7  Pass 0  IDiag  1:
 E= -116.169805604582     Delta-E=       -0.000001023223 Rises=F Damp=F
 DIIS: error= 1.53D-05 at cycle   7 NSaved=   7.
 NSaved= 7 IEnMin= 7 EnMin= -116.169805604582     IErMin= 7 ErrMin= 1.53D-05
 ErrMax= 1.53D-05  0.00D+00 EMaxC= 1.00D-01 BMatC= 3.04D-08 BMatP= 3.20D-06
 IDIUse=1 WtCom= 1.00D+00 WtEn= 0.00D+00
 Coeff-Com: -0.833D-03 0.177D-02-0.243D-02-0.655D-02-0.224D-01 0.187D-01
 Coeff-Com:  0.101D+01
 Coeff:     -0.833D-03 0.177D-02-0.243D-02-0.655D-02-0.224D-01 0.187D-01
 Coeff:      0.101D+01
 Gap=     0.297 Goal=   None    Shift=    0.000
 Gap=     0.056 Goal=   None    Shift=    0.000
 RMSDP=3.65D-06 MaxDP=6.14D-05 DE=-1.02D-06 OVMax= 6.43D-05

 Initial convergence to 1.0D-05 achieved.  Increase integral accuracy.
 Cycle   8  Pass 1  IDiag  1:
 E= -116.169805754465     Delta-E=       -0.000000149882 Rises=F Damp=F
 DIIS: error= 4.89D-06 at cycle   1 NSaved=   1.
 NSaved= 1 IEnMin= 1 EnMin= -116.169805754465     IErMin= 1 ErrMin= 4.89D-06
 ErrMax= 4.89D-06  0.00D+00 EMaxC= 1.00D-01 BMatC= 2.40D-09 BMatP= 2.40D-09
 IDIUse=1 WtCom= 1.00D+00 WtEn= 0.00D+00
 Coeff-Com:  0.100D+01
 Coeff:      0.100D+01
 Gap=     0.297 Goal=   None    Shift=    0.000
 Gap=     0.056 Goal=   None    Shift=    0.000
 RMSDP=3.65D-06 MaxDP=6.14D-05 DE=-1.50D-07 OVMax= 3.50D-05

 Cycle   9  Pass 1  IDiag  1:
 E= -116.169805754682     Delta-E=       -0.000000000217 Rises=F Damp=F
 DIIS: error= 4.88D-06 at cycle   2 NSaved=   2.
 NSaved= 2 IEnMin= 2 EnMin= -116.169805754682     IErMin= 2 ErrMin= 4.88D-06
 ErrMax= 4.88D-06  0.00D+00 EMaxC= 1.00D-01 BMatC= 2.18D-09 BMatP= 2.40D-09
 IDIUse=1 WtCom= 1.00D+00 WtEn= 0.00D+00
 Coeff-Com:  0.486D+00 0.514D+00
 Coeff:      0.486D+00 0.514D+00
 Gap=     0.297 Goal=   None    Shift=    0.000
 Gap=     0.056 Goal=   None    Shift=    0.000
 RMSDP=8.84D-07 MaxDP=1.17D-05 DE=-2.17D-10 OVMax= 2.85D-05

 Cycle  10  Pass 1  IDiag  1:
 E= -116.169805754997     Delta-E=       -0.000000000315 Rises=F Damp=F
 DIIS: error= 3.75D-06 at cycle   3 NSaved=   3.
 NSaved= 3 IEnMin= 3 EnMin= -116.169805754997     IErMin= 3 ErrMin= 3.75D-06
 ErrMax= 3.75D-06  0.00D+00 EMaxC= 1.00D-01 BMatC= 1.19D-09 BMatP= 2.18D-09
 IDIUse=1 WtCom= 1.00D+00 WtEn= 0.00D+00
 Coeff-Com:  0.202D+00 0.390D+00 0.408D+00
 Coeff:      0.202D+00 0.390D+00 0.408D+00
 Gap=     0.297 Goal=   None    Shift=    0.000
 Gap=     0.056 Goal=   None    Shift=    0.000
 RMSDP=3.71D-07 MaxDP=4.35D-06 DE=-3.15D-10 OVMax= 1.07D-05

 Cycle  11  Pass 1  IDiag  1:
 E= -116.169805755270     Delta-E=       -0.000000000273 Rises=F Damp=F
 DIIS: error= 2.86D-07 at cycle   4 NSaved=   4.
 NSaved= 4 IEnMin= 4 EnMin= -116.169805755270     IErMin= 4 ErrMin= 2.86D-07
 ErrMax= 2.86D-07  0.00D+00 EMaxC= 1.00D-01 BMatC= 8.02D-12 BMatP= 1.19D-09
 IDIUse=1 WtCom= 1.00D+00 WtEn= 0.00D+00
 Coeff-Com: -0.532D-01-0.320D-01 0.281D-01 0.106D+01
 Coeff:     -0.532D-01-0.320D-01 0.281D-01 0.106D+01
 Gap=     0.297 Goal=   None    Shift=    0.000
 Gap=     0.056 Goal=   None    Shift=    0.000
 RMSDP=5.13D-08 MaxDP=1.00D-06 DE=-2.73D-10 OVMax= 9.86D-07

 Cycle  12  Pass 1  IDiag  1:
 E= -116.169805755273     Delta-E=       -0.000000000003 Rises=F Damp=F
 DIIS: error= 5.72D-08 at cycle   5 NSaved=   5.
 NSaved= 5 IEnMin= 5 EnMin= -116.169805755273     IErMin= 5 ErrMin= 5.72D-08
 ErrMax= 5.72D-08  0.00D+00 EMaxC= 1.00D-01 BMatC= 2.73D-13 BMatP= 8.02D-12
 IDIUse=1 WtCom= 1.00D+00 WtEn= 0.00D+00
 Coeff-Com: -0.121D-01-0.133D-01-0.126D-01 0.986D-01 0.939D+00
 Coeff:     -0.121D-01-0.133D-01-0.126D-01 0.986D-01 0.939D+00
 Gap=     0.297 Goal=   None    Shift=    0.000
 Gap=     0.056 Goal=   None    Shift=    0.000
 RMSDP=1.23D-08 MaxDP=1.46D-07 DE=-3.04D-12 OVMax= 1.42D-07

 Cycle  13  Pass 1  IDiag  1:
 E= -116.169805755273     Delta-E=       -0.000000000000 Rises=F Damp=F
 DIIS: error= 1.77D-08 at cycle   6 NSaved=   6.
 NSaved= 6 IEnMin= 6 EnMin= -116.169805755273     IErMin= 6 ErrMin= 1.77D-08
 ErrMax= 1.77D-08  0.00D+00 EMaxC= 1.00D-01 BMatC= 5.34D-14 BMatP= 2.73D-13
 IDIUse=1 WtCom= 1.00D+00 WtEn= 0.00D+00
 Coeff-Com: -0.148D-03-0.161D-02-0.705D-02-0.445D-01 0.317D+00 0.737D+00
 Coeff:     -0.148D-03-0.161D-02-0.705D-02-0.445D-01 0.317D+00 0.737D+00
 Gap=     0.297 Goal=   None    Shift=    0.000
 Gap=     0.056 Goal=   None    Shift=    0.000
 RMSDP=3.85D-09 MaxDP=3.65D-08 DE=-2.84D-14 OVMax= 6.12D-08

 SCF Done:  E(UB97D3) =  -116.169805755     A.U. after   13 cycles
            NFock= 13  Conv=0.38D-08     -V/T= 2.0043
 <Sx>= 0.0000 <Sy>= 0.0000 <Sz>= 0.5000 <S**2>= 0.7548 S= 0.5024
 <L.S>= 0.000000000000E+00
 KE= 1.156720458078D+02 PE=-3.469545415255D+02 EE= 7.800124506500D+01
 Annihilation of the first spin contaminant:
 S**2 before annihilation     0.7548,   after     0.7500
 Leave Link  502 at Wed Oct  7 14:04:31 2020, MaxMem=  2684354560 cpu:              68.4 elap:               6.8
 (Enter /udrive/faculty/rpeverati/g16/g16/l508.exe)
 QCSCF skips out because SCF is already converged.
 Leave Link  508 at Wed Oct  7 14:04:32 2020, MaxMem=  2684354560 cpu:               1.1 elap:               0.7
 (Enter /udrive/faculty/rpeverati/g16/g16/l601.exe)
 Copying SCF densities to generalized density rwf, IOpCl= 1 IROHF=0.

 **********************************************************************

            Population analysis using the SCF density.

 **********************************************************************

 Orbital symmetries:
 Alpha Orbitals:
       Occupied  (A) (A) (A) (A) (A) (A) (A) (A) (A) (A)
       Virtual   (A) (A) (A) (A) (A) (A) (A) (A) (A) (A) (A) (A)
                 (A) (A) (A) (A) (A) (A) (A) (A) (A) (A) (A) (A)
                 (A) (A) (A) (A)
 Beta  Orbitals:
       Occupied  (A) (A) (A) (A) (A) (A) (A) (A) (A)
       Virtual   (A) (A) (A) (A) (A) (A) (A) (A) (A) (A) (A) (A)
                 (A) (A) (A) (A) (A) (A) (A) (A) (A) (A) (A) (A)
                 (A) (A) (A) (A) (A)
 The electronic state is 2-A.
 Alpha  occ. eigenvalues --  -18.76924  -9.91443  -0.89525  -0.65083  -0.43084
 Alpha  occ. eigenvalues --   -0.37734  -0.37543  -0.35903  -0.23612  -0.22917
 Alpha virt. eigenvalues --    0.06792   0.10601   0.13877   0.14168   0.25767
 Alpha virt. eigenvalues --    0.48153   0.48283   0.51055   0.73332   0.77489
 Alpha virt. eigenvalues --    0.83505   0.83651   0.85785   0.86601   0.93314
 Alpha virt. eigenvalues --    1.03939   1.17166   1.52134   1.54940   1.58900
 Alpha virt. eigenvalues --    1.67142   1.69002   1.71238   1.79822   2.13641
 Alpha virt. eigenvalues --    2.13772   2.32483   2.44799
  Beta  occ. eigenvalues --  -18.75989  -9.91201  -0.85655  -0.63043  -0.40411
  Beta  occ. eigenvalues --   -0.36800  -0.36726  -0.32925  -0.21493
  Beta virt. eigenvalues --   -0.15925   0.07560   0.11340   0.14467   0.14740
  Beta virt. eigenvalues --    0.27341   0.48550   0.48693   0.53825   0.74211
  Beta virt. eigenvalues --    0.78826   0.84304   0.84457   0.86789   0.87908
  Beta virt. eigenvalues --    0.95105   1.06817   1.18813   1.55118   1.58205
  Beta virt. eigenvalues --    1.61952   1.69959   1.70810   1.75001   1.83590
  Beta virt. eigenvalues --    2.15366   2.15445   2.34285   2.48200
          Condensed to atoms (all electrons):
               1          2          3          4          5          6
     1  C    5.387958  -0.060315   0.231666   0.363337   0.364058   0.365451
     2  O   -0.060315   8.363889   0.109760  -0.000567   0.000330  -0.000099
     3  H    0.231666   0.109760   0.376476  -0.011420  -0.012867  -0.011113
     4  H    0.363337  -0.000567  -0.011420   0.508080  -0.025353  -0.024821
     5  H    0.364058   0.000330  -0.012867  -0.025353   0.519957  -0.024284
     6  H    0.365451  -0.000099  -0.011113  -0.024821  -0.024284   0.501423
     7  H    0.015711   0.211321  -0.029795  -0.000181  -0.000876  -0.000008
               7
     1  C    0.015711
     2  O    0.211321
     3  H   -0.029795
     4  H   -0.000181
     5  H   -0.000876
     6  H   -0.000008
     7  H    0.422348
          Atomic-Atomic Spin Densities.
               1          2          3          4          5          6
     1  C    0.585621  -0.090044   0.030055  -0.013484  -0.010864  -0.014837
     2  O   -0.090044   0.741414  -0.036899   0.002795   0.002477   0.002901
     3  H    0.030055  -0.036899  -0.041594   0.000590   0.000708   0.000469
     4  H   -0.013484   0.002795   0.000590  -0.011405   0.003003   0.003834
     5  H   -0.010864   0.002477   0.000708   0.003003  -0.015470   0.003117
     6  H   -0.014837   0.002901   0.000469   0.003834   0.003117  -0.009240
     7  H    0.004396  -0.005751   0.003921  -0.000170  -0.000228  -0.000152
               7
     1  C    0.004396
     2  O   -0.005751
     3  H    0.003921
     4  H   -0.000170
     5  H   -0.000228
     6  H   -0.000152
     7  H   -0.020997
 Mulliken charges and spin densities:
               1          2
     1  C   -0.667865   0.490842
     2  O   -0.624318   0.616891
     3  H    0.347293  -0.042749
     4  H    0.190925  -0.014838
     5  H    0.179035  -0.017258
     6  H    0.193450  -0.013907
     7  H    0.381479  -0.018982
 Sum of Mulliken charges =   0.00000   1.00000
 Mulliken charges and spin densities with hydrogens summed into heavy atoms:
               1          2
     1  C    0.242839   0.402090
     2  O   -0.242839   0.597910
 Electronic spatial extent (au):  <R**2>=            156.0199
 Charge=              0.0000 electrons
 Dipole moment (field-independent basis, Debye):
    X=             -1.3850    Y=              1.5139    Z=             -0.0023  Tot=              2.0519
 Quadrupole moment (field-independent basis, Debye-Ang):
   XX=            -14.4948   YY=            -12.4992   ZZ=            -14.3037
   XY=              2.5149   XZ=              0.0007   YZ=              0.0139
 Traceless Quadrupole moment (field-independent basis, Debye-Ang):
   XX=             -0.7289   YY=              1.2667   ZZ=             -0.5378
   XY=              2.5149   XZ=              0.0007   YZ=              0.0139
 Octapole moment (field-independent basis, Debye-Ang**2):
  XXX=              5.4817  YYY=              1.9350  ZZZ=              0.5104  XYY=              2.8059
  XXY=              3.3104  XXZ=             -0.0083  XZZ=              0.1225  YZZ=             -0.2827
  YYZ=             -0.5124  XYZ=             -0.0628
 Hexadecapole moment (field-independent basis, Debye-Ang**3):
 XXXX=           -150.1095 YYYY=            -19.5727 ZZZZ=            -18.7970 XXXY=              6.2815
 XXXZ=             -0.0018 YYYX=              1.6789 YYYZ=             -0.0265 ZZZX=             -0.8275
 ZZZY=              0.0468 XXYY=            -24.9203 XXZZ=            -27.6648 YYZZ=             -6.6239
 XXYZ=              0.1585 YYXZ=              0.8235 ZZXY=              1.2198
 N-N= 3.711144489734D+01 E-N=-3.469545406256D+02  KE= 1.156720458078D+02
                          Isotropic Fermi Contact Couplings
        Atom                 a.u.       MegaHertz       Gauss      10(-4) cm-1
     1  C(13)              0.14666     164.87746      58.83238      54.99720
     2  O(17)              0.12504     -75.80062     -27.04755     -25.28436
     3  H(1)              -0.00863     -38.55414     -13.75708     -12.86028
     4  H(1)              -0.00378     -16.91408      -6.03536      -5.64193
     5  H(1)              -0.00489     -21.87650      -7.80608      -7.29721
     6  H(1)              -0.00338     -15.09278      -5.38548      -5.03441
     7  H(1)              -0.01100     -49.18830     -17.55161     -16.40745
 --------------------------------------------------------
       Center         ----  Spin Dipole Couplings  ----
                      3XX-RR        3YY-RR        3ZZ-RR
 --------------------------------------------------------
     1   Atom        0.535170     -0.266051     -0.269120
     2   Atom        2.291568     -1.105431     -1.186137
     3   Atom        0.232843     -0.115005     -0.117838
     4   Atom        0.000738     -0.032005      0.031267
     5   Atom       -0.001073      0.032036     -0.030963
     6   Atom        0.001410     -0.001523      0.000114
     7   Atom       -0.026868      0.116700     -0.089832
 --------------------------------------------------------
                        XY            XZ            YZ
 --------------------------------------------------------
     1   Atom       -0.045855      0.002588     -0.000290
     2   Atom       -0.433267     -0.002688      0.000463
     3   Atom       -0.010994     -0.000205     -0.000139
     4   Atom        0.002220     -0.017538     -0.016129
     5   Atom       -0.015075      0.003638     -0.018412
     6   Atom        0.011580      0.014035      0.035252
     7   Atom        0.027380     -0.000072     -0.000155
 --------------------------------------------------------


 ---------------------------------------------------------------------------------
              Anisotropic Spin Dipole Couplings in Principal Axis System
 ---------------------------------------------------------------------------------

       Atom             a.u.   MegaHertz   Gauss  10(-4) cm-1        Axes

              Baa    -0.2692   -36.120   -12.888   -12.048  0.0124  0.2716  0.9623
     1 C(13)  Bbb    -0.2686   -36.047   -12.862   -12.024  0.0557  0.9607 -0.2718
              Bcc     0.5378    72.167    25.751    24.072  0.9984 -0.0570  0.0032
 
              Baa    -1.1861    85.828    30.626    28.629  0.0002 -0.0048  1.0000
     2 O(17)  Bbb    -1.1598    83.924    29.946    27.994  0.1246  0.9922  0.0047
              Bcc     2.3460  -169.752   -60.572   -56.623  0.9922 -0.1246 -0.0008
 
              Baa    -0.1178   -62.877   -22.436   -20.974  0.0024  0.0583  0.9983
     3 H(1)   Bbb    -0.1153   -61.542   -21.960   -20.528  0.0315  0.9978 -0.0583
              Bcc     0.2332   124.419    44.396    41.502  0.9995 -0.0316 -0.0006
 
              Baa    -0.0360   -19.205    -6.853    -6.406  0.0597  0.9671  0.2475
     4 H(1)   Bbb    -0.0065    -3.490    -1.245    -1.164  0.9198 -0.1496  0.3628
              Bcc     0.0425    22.696     8.098     7.570 -0.3879 -0.2060  0.8984
 
              Baa    -0.0360   -19.184    -6.845    -6.399  0.0136  0.2642  0.9644
     5 H(1)   Bbb    -0.0066    -3.510    -1.252    -1.171  0.9421  0.3197 -0.1008
              Bcc     0.0425    22.694     8.098     7.570 -0.3350  0.9099 -0.2445
 
              Baa    -0.0360   -19.228    -6.861    -6.414 -0.0465 -0.7061  0.7066
     6 H(1)   Bbb    -0.0065    -3.476    -1.240    -1.160  0.9138 -0.3158 -0.2554
              Bcc     0.0426    22.704     8.101     7.573  0.4035  0.6338  0.6599
 
              Baa    -0.0898   -47.930   -17.103   -15.988  0.0009  0.0006  1.0000
     7 H(1)   Bbb    -0.0319   -17.027    -6.076    -5.680  0.9834 -0.1812 -0.0007
              Bcc     0.1217    64.957    23.178    21.667  0.1812  0.9834 -0.0008
 

 ---------------------------------------------------------------------------------

 No NMR shielding tensors so no spin-rotation constants.
 Leave Link  601 at Wed Oct  7 14:04:34 2020, MaxMem=  2684354560 cpu:              11.7 elap:               1.8
 (Enter /udrive/faculty/rpeverati/g16/g16/l701.exe)
 ... and contract with generalized density number  0.
 Compute integral first derivatives.
 R6Disp: Adding Grimme-D3(BJ) dispersion energy 1st derivatives to the gradient.
 Leave Link  701 at Wed Oct  7 14:04:36 2020, MaxMem=  2684354560 cpu:               6.1 elap:               1.3
 (Enter /udrive/faculty/rpeverati/g16/g16/l702.exe)
 L702 exits ... SP integral derivatives will be done elsewhere.
 Leave Link  702 at Wed Oct  7 14:04:36 2020, MaxMem=  2684354560 cpu:               1.7 elap:               0.5
 (Enter /udrive/faculty/rpeverati/g16/g16/l703.exe)
 Integral derivatives from FoFJK, PRISM(SPDF).
 Compute integral first derivatives, UseDBF=F ICtDFT=           0.
 Calling FoFJK, ICntrl=      2527 FMM=F ISym2X=0 I1Cent= 0 IOpClX= 0 NMat=1 NMatS=1 NMatT=0.
 FoFJK:  IHMeth= 1 ICntrl=    2527 DoSepK=F KAlg= 0 I1Cent=           0 FoldK=F
 IRaf=         0 NMat=       1 IRICut=       1 DoRegI=T DoRafI=F ISym2E= 0 IDoP0=0 IntGTp=1.
 FoFCou: FMM=F IPFlag=           0 FMFlag=      100000 FMFlg1=         800
         NFxFlg=           0 DoJE=F BraDBF=F KetDBF=F FulRan=T
         wScrn=  0.000000 ICntrl=      2527 IOpCl=  0 I1Cent=           0 NGrid=           0
         NMat0=    1 NMatS0=      1 NMatT0=    0 NMatD0=    1 NMtDS0=    0 NMtDT0=    0
 Symmetry not used in FoFCou.
 Leave Link  703 at Wed Oct  7 14:04:38 2020, MaxMem=  2684354560 cpu:              11.9 elap:               1.4
 (Enter /udrive/faculty/rpeverati/g16/g16/l716.exe)
 Dipole        =-5.44919891D-01 5.95600670D-01-9.19928375D-04
 ***** Axes restored to original set *****
 -------------------------------------------------------------------
 Center     Atomic                   Forces (Hartrees/Bohr)
 Number     Number              X              Y              Z
 -------------------------------------------------------------------
      1        6           0.000262332    0.000734405    0.000059630
      2        8           0.000057072   -0.012458046   -0.000098302
      3        1           0.001918177   -0.003584978    0.000119330
      4        1          -0.002240305   -0.001475815    0.006291921
      5        1          -0.001627725    0.006528971   -0.001783414
      6        1          -0.002270649   -0.004426469   -0.004585057
      7        1           0.003901098    0.014681932   -0.000004109
 -------------------------------------------------------------------
 Cartesian Forces:  Max     0.014681932 RMS     0.005090448
 Leave Link  716 at Wed Oct  7 14:04:39 2020, MaxMem=  2684354560 cpu:               1.9 elap:               0.7
 (Enter /udrive/faculty/rpeverati/g16/g16/l103.exe)

 GradGradGradGradGradGradGradGradGradGradGradGradGradGradGradGradGradGrad
 Berny optimization.
 Optmz: redundant internal coordinate code flag= 1
 FormGI is forming the generalized inverse of G from B-inverse, IUseBI=4.
 Internal  Forces:  Max     0.015058524 RMS     0.004920337
 Search for a saddle point.
 Step number   1 out of a maximum of   50
 All quantities printed in internal units (Hartrees-Bohrs-Radians)
 Swapping is turned off.
 Second derivative matrix not updated -- first step.
 The second derivative matrix:
                          R1        R2        R3        R4        R5
           R1           0.22765
           R2           0.00000   0.35451
           R3           0.00000   0.00000   0.35422
           R4           0.00000   0.00000   0.00000   0.35415
           R5           0.00000   0.00000   0.00000   0.00000   0.19397
           R6           0.00000   0.00000   0.00000   0.00000   0.00000
           A1           0.00000   0.00000   0.00000   0.00000   0.00000
           A2           0.00000   0.00000   0.00000   0.00000   0.00000
           A3           0.00000   0.00000   0.00000   0.00000   0.00000
           A4           0.00000   0.00000   0.00000   0.00000   0.00000
           A5           0.00000   0.00000   0.00000   0.00000   0.00000
           A6           0.00000   0.00000   0.00000   0.00000   0.00000
           A7           0.00000   0.00000   0.00000   0.00000   0.00000
           A8           0.00000   0.00000   0.00000   0.00000   0.00000
           A9           0.00000   0.00000   0.00000   0.00000   0.00000
           D1           0.00000   0.00000   0.00000   0.00000   0.00000
           D2           0.00000   0.00000   0.00000   0.00000   0.00000
           D3           0.00000   0.00000   0.00000   0.00000   0.00000
                          R6        A1        A2        A3        A4
           R6           0.54118
           A1           0.00000   0.16000
           A2           0.00000   0.00000   0.16000
           A3           0.00000   0.00000   0.00000   0.16000
           A4           0.00000   0.00000   0.00000   0.00000   0.16000
           A5           0.00000   0.00000   0.00000   0.00000   0.00000
           A6           0.00000   0.00000   0.00000   0.00000   0.00000
           A7           0.00000   0.00000   0.00000   0.00000   0.00000
           A8           0.00000   0.00000   0.00000   0.00000   0.00000
           A9           0.00000   0.00000   0.00000   0.00000   0.00000
           D1           0.00000   0.00000   0.00000   0.00000   0.00000
           D2           0.00000   0.00000   0.00000   0.00000   0.00000
           D3           0.00000   0.00000   0.00000   0.00000   0.00000
                          A5        A6        A7        A8        A9
           A5           0.16000
           A6           0.00000   0.16000
           A7           0.00000   0.00000   0.16000
           A8           0.00000   0.00000   0.00000   0.00230
           A9           0.00000   0.00000   0.00000   0.00000   0.00230
           D1           0.00000   0.00000   0.00000   0.00000   0.00000
           D2           0.00000   0.00000   0.00000   0.00000   0.00000
           D3           0.00000   0.00000   0.00000   0.00000   0.00000
                          D1        D2        D3
           D1           0.00230
           D2           0.00000   0.00230
           D3           0.00000   0.00000   0.00230
 ITU=  0
 Eigenvectors of the second derivative matrix:
                           1         2         3         4         5
     Eigenvalues --     0.00230   0.00230   0.00230   0.10693   0.10730
   1         R1         0.00000  -0.00000  -0.00000   0.00185  -0.00100
   2         R2         0.00000  -0.00000  -0.00000  -0.00000  -0.00000
   3         R3        -0.00000  -0.00000  -0.00000  -0.00000   0.00000
   4         R4        -0.00000  -0.00000   0.00000  -0.00000   0.00000
   5         R5         0.00000  -0.00000  -0.00000  -0.00241   0.00140
   6         R6        -0.00000  -0.00000   0.00000  -0.00001  -0.00002
   7         A1        -0.00000   0.00000   0.00000  -0.20091  -0.16382
   8         A2        -0.00000  -0.00000   0.00000   0.24943  -0.07126
   9         A3         0.00000  -0.00000  -0.00000  -0.07755   0.24868
  10         A4         0.00000   0.00000  -0.00000   0.14372  -0.59984
  11         A5         0.00000   0.00000   0.00000  -0.57889   0.17299
  12         A6         0.00000   0.00000   0.00000   0.44619   0.42697
  13         A7         0.00000  -0.00000   0.00000   0.00021   0.00032
  14         A8        -0.00059   0.97966  -0.08891  -0.09051   0.05175
  15         A9        -0.41228   0.08269   0.90087   0.03428   0.05212
  16         D1        -0.51927  -0.16381  -0.24420  -0.32197   0.33503
  17         D2        -0.55292   0.01917  -0.16105  -0.13627  -0.45255
  18         D3        -0.50465   0.07887  -0.30814   0.45271   0.10845
                           6         7         8         9        10
     Eigenvalues --     0.16000   0.16000   0.16000   0.16000   0.19397
   1         R1         0.00000  -0.00000   0.00000  -0.00000   0.00002
   2         R2        -0.00000   0.00000   0.00000   0.00000   0.00000
   3         R3        -0.00000   0.00000   0.00000  -0.00000   0.00000
   4         R4         0.00000   0.00000   0.00000   0.00000  -0.00000
   5         R5         0.00000   0.00000   0.00000  -0.00000  -0.99999
   6         R6        -0.00000   0.00000  -0.00000  -0.00000  -0.00000
   7         A1         0.12118   0.06636  -0.81125   0.28679   0.00047
   8         A2         0.26094   0.58820   0.35357   0.46795  -0.00128
   9         A3         0.74324  -0.19260   0.07543  -0.40696   0.00098
  10         A4        -0.15844  -0.27372   0.17743  -0.31216  -0.00217
  11         A5        -0.38430   0.05598   0.32898   0.05253   0.00299
  12         A6        -0.40961  -0.17194  -0.18006  -0.03419  -0.00087
  13         A7        -0.15573   0.71057  -0.19760  -0.65711  -0.00000
  14         A8         0.00000  -0.00000  -0.00000  -0.00000  -0.00019
  15         A9        -0.00000   0.00000   0.00000  -0.00000   0.00001
  16         D1        -0.00000  -0.00000  -0.00000  -0.00000  -0.00080
  17         D2        -0.00000  -0.00000   0.00000  -0.00000   0.00020
  18         D3        -0.00000   0.00000   0.00000  -0.00000   0.00060
                          11        12        13        14        15
     Eigenvalues --     0.22765   0.35415   0.35422   0.35451   0.54118
   1         R1         0.99999   0.00000   0.00000   0.00000   0.00000
   2         R2        -0.00000   0.00000  -0.00000   1.00000  -0.00000
   3         R3        -0.00000  -0.00000   1.00000   0.00000  -0.00000
   4         R4        -0.00000   1.00000   0.00000  -0.00000   0.00000
   5         R5         0.00004  -0.00000   0.00000  -0.00000  -0.00000
   6         R6        -0.00000  -0.00000   0.00000   0.00000   1.00000
   7         A1         0.00045  -0.00000   0.00000   0.00000  -0.00003
   8         A2        -0.00115  -0.00000  -0.00000  -0.00000   0.00001
   9         A3         0.00084  -0.00000   0.00000   0.00000   0.00002
  10         A4        -0.00186   0.00000  -0.00000   0.00000  -0.00005
  11         A5         0.00268  -0.00000  -0.00000  -0.00000  -0.00002
  12         A6        -0.00087   0.00000   0.00000   0.00000   0.00008
  13         A7        -0.00000   0.00000  -0.00000   0.00000   0.00000
  14         A8        -0.00028  -0.00000   0.00000   0.00000   0.00000
  15         A9         0.00001   0.00000   0.00000  -0.00000  -0.00001
  16         D1        -0.00119  -0.00000   0.00000  -0.00000  -0.00002
  17         D2         0.00026  -0.00000   0.00000  -0.00000   0.00008
  18         D3         0.00093   0.00000   0.00000   0.00000  -0.00006
 Eigenvalue     1 is   2.30D-03 should be less than     0.000000 Eigenvector:
                          D2        D1        D3        A9        A8
   1                   -0.55292  -0.51927  -0.50465  -0.41228  -0.00059
                          A7        A1        A2        A6        A4
   1                    0.00000  -0.00000  -0.00000   0.00000   0.00000
 RLam0= 2.30D-03.
 Iter=   1 RLamda= 0.00000000D+00 Sum=-2.31638122D-03.
 Iter=   2 RLamda=-2.31638122D-03 Sum=-1.71891614D-03.
 Iter=   3 RLamda=-1.71891614D-03 Sum=-1.80799504D-03.
 Iter=   4 RLamda=-1.80799504D-03 Sum=-1.79310819D-03.
 Iter=   5 RLamda=-1.79310819D-03 Sum=-1.79555191D-03.
 Iter=   6 RLamda=-1.79555191D-03 Sum=-1.79514957D-03.
 Iter=   7 RLamda=-1.79514957D-03 Sum=-1.79521578D-03.
 Iter=   8 RLamda=-1.79521578D-03 Sum=-1.79520489D-03.
 Iter=   9 RLamda=-1.79520489D-03 Sum=-1.79520668D-03.
 RFO step:  Lambda0=2.301460724D-03 Lambda=-1.79520489D-03.
 Linear search not attempted -- option 19 set.
 Maximum step size (   0.100) exceeded in Quadratic search.
    -- Step size scaled by   0.236
 Iteration  1 RMS(Cart)=  0.04268689 RMS(Int)=  0.00162172
 Iteration  2 RMS(Cart)=  0.00200068 RMS(Int)=  0.00024259
 Iteration  3 RMS(Cart)=  0.00000161 RMS(Int)=  0.00024259
 Iteration  4 RMS(Cart)=  0.00000000 RMS(Int)=  0.00024259
 ITry= 1 IFail=0 DXMaxC= 1.01D-01 DCOld= 1.00D+10 DXMaxT= 1.00D-01 DXLimC= 3.00D+00 Rises=F
 Variable       Old X    -DE/DX   Delta X   Delta X   Delta X     New X
                                 (Linear)    (Quad)   (Total)
    R1        2.31954   0.00599   0.00000   0.00615   0.00616   2.32570
    R2        2.04949   0.00683   0.00000   0.00452   0.00452   2.05401
    R3        2.04995   0.00696   0.00000   0.00461   0.00461   2.05456
    R4        2.05006   0.00676   0.00000   0.00448   0.00448   2.05454
    R5        2.42740   0.00397   0.00000   0.00479   0.00478   2.43218
    R6        1.82625   0.01506   0.00000   0.00654   0.00654   1.83279
    A1        1.83733   0.00036   0.00000   0.00052   0.00033   1.83766
    A2        1.87391   0.00032   0.00000   0.00050   0.00063   1.87454
    A3        1.81962   0.00010   0.00000   0.00011   0.00014   1.81976
    A4        1.97219  -0.00016   0.00000  -0.00016  -0.00031   1.97189
    A5        1.97699  -0.00031   0.00000  -0.00053  -0.00081   1.97618
    A6        1.96858  -0.00018   0.00000  -0.00027   0.00017   1.96876
    A7        1.70534   0.00366   0.00000   0.00534   0.00534   1.71068
    A8        3.03150  -0.00163   0.00000  -0.09293  -0.09284   2.93865
    A9        3.14770   0.00013   0.00000  -0.03295  -0.03304   3.11466
    D1       -1.81946   0.00014   0.00000  -0.03844  -0.03832  -1.85778
    D2        0.26733   0.00001   0.00000  -0.05712  -0.05659   0.21073
    D3        2.35207  -0.00014   0.00000  -0.06042  -0.06104   2.29103
         Item               Value     Threshold  Converged?
 Maximum Force            0.015059     0.000450     NO 
 RMS     Force            0.004920     0.000300     NO 
 Maximum Displacement     0.101045     0.001800     NO 
 RMS     Displacement     0.043124     0.001200     NO 
 Predicted change in Energy=-3.655453D-04
 Lowest energy point so far.  Saving SCF results.
 Largest change from initial coordinates is atom    3       0.052 Angstoms.
 GradGradGradGradGradGradGradGradGradGradGradGradGradGradGradGradGradGrad

 Leave Link  103 at Wed Oct  7 14:04:43 2020, MaxMem=  2684354560 cpu:              24.0 elap:               2.9
 (Enter /udrive/faculty/rpeverati/g16/g16/l202.exe)
                          Input orientation:                          
 ---------------------------------------------------------------------
 Center     Atomic      Atomic             Coordinates (Angstroms)
 Number     Number       Type             X           Y           Z
 ---------------------------------------------------------------------
      1          6           0       -1.203836    0.003075    0.000593
      2          8           0        1.298967   -0.092898    0.021260
      3          1           0        0.014421   -0.171491    0.004534
      4          1           0       -1.530479   -0.232949    1.010062
      5          1           0       -1.382840    1.040275   -0.271873
      6          1           0       -1.572493   -0.697877   -0.744252
      7          1           0        1.375946    0.872885   -0.023290
 ---------------------------------------------------------------------
                    Distance matrix (angstroms):
                    1          2          3          4          5
     1  C    0.000000
     2  O    2.504728   0.000000
     3  H    1.230707   1.287057   0.000000
     4  H    1.086936   3.000518   1.844337   0.000000
     5  H    1.087228   2.926106   1.870058   1.812803   0.000000
     6  H    1.087214   3.032704   1.831955   1.815362   1.811154
     7  H    2.722575   0.969869   1.716171   3.276887   2.775016
                    6          7
     6  H    0.000000
     7  H    3.417655   0.000000
 Stoichiometry    CH5O(2)
 Framework group  C1[X(CH5O)]
 Deg. of freedom    15
 Full point group                 C1      NOp   1
 RotChk:  IX=0 Diff= 6.56D-02
 Largest Abelian subgroup         C1      NOp   1
 Largest concise Abelian subgroup C1      NOp   1
                         Standard orientation:                         
 ---------------------------------------------------------------------
 Center     Atomic      Atomic             Coordinates (Angstroms)
 Number     Number       Type             X           Y           Z
 ---------------------------------------------------------------------
      1          6           0       -1.207688    0.008142    0.000757
      2          8           0        1.294352   -0.107876    0.000371
      3          1           0        0.009140   -0.175769   -0.011323
      4          1           0       -1.529820   -0.270810    1.000680
      5          1           0       -1.380137    1.057954   -0.223345
      6          1           0       -1.586616   -0.655532   -0.772538
      7          1           0        1.378742    0.858314   -0.000988
 ---------------------------------------------------------------------
 Rotational constants (GHZ):         119.9510086           9.2851961           9.1356400
 Leave Link  202 at Wed Oct  7 14:04:44 2020, MaxMem=  2684354560 cpu:               2.0 elap:               0.6
 (Enter /udrive/faculty/rpeverati/g16/g16/l301.exe)
 Standard basis: 6-31G(d) (5D, 7F)
 Ernie: Thresh=  0.10000D-02 Tol=  0.10000D-05 Strict=F.
 There are    40 symmetry adapted cartesian basis functions of A   symmetry.
 There are    38 symmetry adapted basis functions of A   symmetry.
    38 basis functions,    76 primitive gaussians,    40 cartesian basis functions
    10 alpha electrons        9 beta electrons
       nuclear repulsion energy        37.1063597510 Hartrees.
 IExCor= 3630 DFT=T Ex+Corr=B97D3 ExCW=0 ScaHFX=  0.000000
 ScaDFX=  1.000000  1.000000  1.000000  1.000000 ScalE2=  1.000000  1.000000
 IRadAn=      5 IRanWt=     -1 IRanGd=            0 ICorTp=0 IEmpDi=141
 NAtoms=    7 NActive=    7 NUniq=    7 SFac= 1.00D+00 NAtFMM=   60 NAOKFM=F Big=F
 Integral buffers will be    131072 words long.
 Raffenetti 2 integral format.
 Two-electron integral symmetry is turned on.
 R6Disp:  Grimme-D3(BJ) Dispersion energy=       -0.0073791280 Hartrees.
 Nuclear repulsion after empirical dispersion term =       37.0989806231 Hartrees.
 Leave Link  301 at Wed Oct  7 14:04:44 2020, MaxMem=  2684354560 cpu:               1.8 elap:               0.6
 (Enter /udrive/faculty/rpeverati/g16/g16/l302.exe)
 NPDir=0 NMtPBC=     1 NCelOv=     1 NCel=       1 NClECP=     1 NCelD=      1
         NCelK=      1 NCelE2=     1 NClLst=     1 CellRange=     0.0.
 One-electron integrals computed using PRISM.
 One-electron integral symmetry used in STVInt
 NBasis=    38 RedAO= T EigKep=  1.10D-02  NBF=    38
 NBsUse=    38 1.00D-06 EigRej= -1.00D+00 NBFU=    38
 Precomputing XC quadrature grid using
 IXCGrd= 4 IRadAn=           5 IRanWt=          -1 IRanGd=           0 AccXCQ= 0.00D+00.
 Generated NRdTot=       0 NPtTot=           0 NUsed=           0 NTot=          32
 NSgBfM=    40    40    40    40    40 MxSgAt=     7 MxSgA2=     7.
 Leave Link  302 at Wed Oct  7 14:04:46 2020, MaxMem=  2684354560 cpu:               6.1 elap:               1.1
 (Enter /udrive/faculty/rpeverati/g16/g16/l303.exe)
 DipDrv:  MaxL=1.
 Leave Link  303 at Wed Oct  7 14:04:47 2020, MaxMem=  2684354560 cpu:               3.0 elap:               1.0
 (Enter /udrive/faculty/rpeverati/g16/g16/l401.exe)
 Initial guess from the checkpoint file:  "MN_81_RKT04_BH76_B97DBJ_631Gs.chk"
 SCF N**3 symmetry information disabled.
 B after Tr=     0.000000   -0.000000   -0.000000
         Rot=    0.999786   -0.020657   -0.000266    0.001337 Ang=  -2.37 deg.
 Guess basis will be translated and rotated to current coordinates.
 JPrj=2 DoOrth=T DoCkMO=T.
 Initial guess <Sx>= 0.0000 <Sy>= 0.0000 <Sz>= 0.5000 <S**2>= 0.7548 S= 0.5024
 Generating alternative initial guess.
 ExpMin= 1.61D-01 ExpMax= 5.48D+03 ExpMxC= 8.25D+02 IAcc=2 IRadAn=         4 AccDes= 0.00D+00
 Harris functional with IExCor= 3630 and IRadAn=       4 diagonalized for initial guess.
 HarFok:  IExCor= 3630 AccDes= 0.00D+00 IRadAn=         4 IDoV= 1 UseB2=F ITyADJ=14
 ICtDFT=  3500011 ScaDFX=  1.000000  1.000000  1.000000  1.000000
 FoFCou: FMM=F IPFlag=           0 FMFlag=      100000 FMFlg1=           0
         NFxFlg=           0 DoJE=T BraDBF=F KetDBF=T FulRan=T
         wScrn=  0.000000 ICntrl=       500 IOpCl=  0 I1Cent=   200000004 NGrid=           0
         NMat0=    1 NMatS0=      1 NMatT0=    0 NMatD0=    1 NMtDS0=    0 NMtDT0=    0
 Petite list used in FoFCou.
 Harris En= -116.217583756462    
 Leave Link  401 at Wed Oct  7 14:04:50 2020, MaxMem=  2684354560 cpu:              16.1 elap:               2.2
 (Enter /udrive/faculty/rpeverati/g16/g16/l502.exe)
 Keep J ints in memory in canonical form, NReq=10631630.
 FoFCou: FMM=F IPFlag=           0 FMFlag=           0 FMFlg1=           0
         NFxFlg=           0 DoJE=F BraDBF=F KetDBF=F FulRan=T
         wScrn=  0.000000 ICntrl=       600 IOpCl=  0 I1Cent=           0 NGrid=           0
         NMat0=    1 NMatS0=    741 NMatT0=    0 NMatD0=    1 NMtDS0=    0 NMtDT0=    0
 Symmetry not used in FoFCou.
 Two-electron integral symmetry not used.
 UHF open shell SCF:
 Using DIIS extrapolation, IDIIS=  1040.
 NGot=  2684354560 LenX=  2684075284 LenY=  2684073243
 Requested convergence on RMS density matrix=1.00D-08 within 120 cycles.
 Requested convergence on MAX density matrix=1.00D-06.
 Requested convergence on             energy=1.00D-06.
 No special actions if energy rises.
 Integral accuracy reduced to 1.0D-05 until final iterations.

 Cycle   1  Pass 0  IDiag  1:
 E= -116.169082793119    
 DIIS: error= 2.66D-03 at cycle   1 NSaved=   1.
 NSaved= 1 IEnMin= 1 EnMin= -116.169082793119     IErMin= 1 ErrMin= 2.66D-03
 ErrMax= 2.66D-03  0.00D+00 EMaxC= 1.00D-01 BMatC= 2.06D-03 BMatP= 2.06D-03
 IDIUse=3 WtCom= 9.73D-01 WtEn= 2.66D-02
 Coeff-Com:  0.100D+01
 Coeff-En:   0.100D+01
 Coeff:      0.100D+01
 Gap=     0.478 Goal=   None    Shift=    0.000
 Gap=     0.488 Goal=   None    Shift=    0.000
 GapD=    0.478 DampG=2.000 DampE=1.000 DampFc=2.0000 IDamp=-1.
 RMSDP=1.33D-03 MaxDP=8.68D-03              OVMax= 1.39D-02

 Cycle   2  Pass 0  IDiag  1:
 E= -116.170065286556     Delta-E=       -0.000982493436 Rises=F Damp=F
 DIIS: error= 4.65D-04 at cycle   2 NSaved=   2.
 NSaved= 2 IEnMin= 2 EnMin= -116.170065286556     IErMin= 2 ErrMin= 4.65D-04
 ErrMax= 4.65D-04  0.00D+00 EMaxC= 1.00D-01 BMatC= 2.46D-05 BMatP= 2.06D-03
 IDIUse=3 WtCom= 9.95D-01 WtEn= 4.65D-03
 Coeff-Com:  0.704D-02 0.993D+00
 Coeff-En:   0.000D+00 0.100D+01
 Coeff:      0.701D-02 0.993D+00
 Gap=     0.295 Goal=   None    Shift=    0.000
 Gap=     0.056 Goal=   None    Shift=    0.000
 RMSDP=1.28D-04 MaxDP=1.28D-03 DE=-9.82D-04 OVMax= 2.36D-03

 Cycle   3  Pass 0  IDiag  1:
 E= -116.170061966675     Delta-E=        0.000003319881 Rises=F Damp=F
 DIIS: error= 7.00D-04 at cycle   3 NSaved=   3.
 NSaved= 3 IEnMin= 2 EnMin= -116.170065286556     IErMin= 2 ErrMin= 4.65D-04
 ErrMax= 7.00D-04  0.00D+00 EMaxC= 1.00D-01 BMatC= 4.20D-05 BMatP= 2.46D-05
 IDIUse=3 WtCom= 2.74D-01 WtEn= 7.26D-01
 Coeff-Com: -0.376D-02 0.578D+00 0.426D+00
 Coeff-En:   0.000D+00 0.593D+00 0.407D+00
 Coeff:     -0.103D-02 0.589D+00 0.412D+00
 Gap=     0.295 Goal=   None    Shift=    0.000
 Gap=     0.057 Goal=   None    Shift=    0.000
 RMSDP=8.86D-05 MaxDP=1.01D-03 DE= 3.32D-06 OVMax= 2.80D-03

 Cycle   4  Pass 0  IDiag  1:
 E= -116.170072282989     Delta-E=       -0.000010316314 Rises=F Damp=F
 DIIS: error= 2.51D-04 at cycle   4 NSaved=   4.
 NSaved= 4 IEnMin= 4 EnMin= -116.170072282989     IErMin= 4 ErrMin= 2.51D-04
 ErrMax= 2.51D-04  0.00D+00 EMaxC= 1.00D-01 BMatC= 5.54D-06 BMatP= 2.46D-05
 IDIUse=3 WtCom= 9.97D-01 WtEn= 2.51D-03
 Coeff-Com: -0.268D-02 0.232D+00 0.271D+00 0.499D+00
 Coeff-En:   0.000D+00 0.000D+00 0.758D-01 0.924D+00
 Coeff:     -0.267D-02 0.231D+00 0.271D+00 0.501D+00
 Gap=     0.294 Goal=   None    Shift=    0.000
 Gap=     0.056 Goal=   None    Shift=    0.000
 RMSDP=3.27D-05 MaxDP=4.29D-04 DE=-1.03D-05 OVMax= 8.45D-04

 Cycle   5  Pass 0  IDiag  1:
 E= -116.170073439758     Delta-E=       -0.000001156769 Rises=F Damp=F
 DIIS: error= 1.05D-04 at cycle   5 NSaved=   5.
 NSaved= 5 IEnMin= 5 EnMin= -116.170073439758     IErMin= 5 ErrMin= 1.05D-04
 ErrMax= 1.05D-04  0.00D+00 EMaxC= 1.00D-01 BMatC= 8.53D-07 BMatP= 5.54D-06
 IDIUse=3 WtCom= 9.99D-01 WtEn= 1.05D-03
 Coeff-Com: -0.433D-03-0.315D-01 0.519D-01 0.308D+00 0.672D+00
 Coeff-En:   0.000D+00 0.000D+00 0.000D+00 0.100D+00 0.900D+00
 Coeff:     -0.433D-03-0.315D-01 0.519D-01 0.308D+00 0.672D+00
 Gap=     0.294 Goal=   None    Shift=    0.000
 Gap=     0.056 Goal=   None    Shift=    0.000
 RMSDP=1.17D-05 MaxDP=1.15D-04 DE=-1.16D-06 OVMax= 2.13D-04

 Cycle   6  Pass 0  IDiag  1:
 E= -116.170073622112     Delta-E=       -0.000000182354 Rises=F Damp=F
 DIIS: error= 9.56D-06 at cycle   6 NSaved=   6.
 NSaved= 6 IEnMin= 6 EnMin= -116.170073622112     IErMin= 6 ErrMin= 9.56D-06
 ErrMax= 9.56D-06  0.00D+00 EMaxC= 1.00D-01 BMatC= 1.82D-08 BMatP= 8.53D-07
 IDIUse=1 WtCom= 1.00D+00 WtEn= 0.00D+00
 Coeff-Com:  0.572D-04-0.264D-01-0.242D-02 0.815D-01 0.217D+00 0.730D+00
 Coeff:      0.572D-04-0.264D-01-0.242D-02 0.815D-01 0.217D+00 0.730D+00
 Gap=     0.294 Goal=   None    Shift=    0.000
 Gap=     0.056 Goal=   None    Shift=    0.000
 RMSDP=2.49D-06 MaxDP=1.99D-05 DE=-1.82D-07 OVMax= 4.76D-05

 Initial convergence to 1.0D-05 achieved.  Increase integral accuracy.
 Cycle   7  Pass 1  IDiag  1:
 E= -116.170074408317     Delta-E=       -0.000000786205 Rises=F Damp=F
 DIIS: error= 1.52D-06 at cycle   1 NSaved=   1.
 NSaved= 1 IEnMin= 1 EnMin= -116.170074408317     IErMin= 1 ErrMin= 1.52D-06
 ErrMax= 1.52D-06  0.00D+00 EMaxC= 1.00D-01 BMatC= 6.30D-10 BMatP= 6.30D-10
 IDIUse=1 WtCom= 1.00D+00 WtEn= 0.00D+00
 Coeff-Com:  0.100D+01
 Coeff:      0.100D+01
 Gap=     0.294 Goal=   None    Shift=    0.000
 Gap=     0.056 Goal=   None    Shift=    0.000
 RMSDP=2.49D-06 MaxDP=1.99D-05 DE=-7.86D-07 OVMax= 2.19D-05

 Cycle   8  Pass 1  IDiag  1:
 E= -116.170074408531     Delta-E=       -0.000000000214 Rises=F Damp=F
 DIIS: error= 5.36D-07 at cycle   2 NSaved=   2.
 NSaved= 2 IEnMin= 2 EnMin= -116.170074408531     IErMin= 2 ErrMin= 5.36D-07
 ErrMax= 5.36D-07  0.00D+00 EMaxC= 1.00D-01 BMatC= 6.60D-11 BMatP= 6.30D-10
 IDIUse=1 WtCom= 1.00D+00 WtEn= 0.00D+00
 Coeff-Com:  0.159D+00 0.841D+00
 Coeff:      0.159D+00 0.841D+00
 Gap=     0.294 Goal=   None    Shift=    0.000
 Gap=     0.056 Goal=   None    Shift=    0.000
 RMSDP=2.26D-07 MaxDP=2.94D-06 DE=-2.14D-10 OVMax= 7.88D-06

 Cycle   9  Pass 1  IDiag  1:
 E= -116.170074408551     Delta-E=       -0.000000000020 Rises=F Damp=F
 DIIS: error= 5.32D-07 at cycle   3 NSaved=   3.
 NSaved= 3 IEnMin= 3 EnMin= -116.170074408551     IErMin= 3 ErrMin= 5.32D-07
 ErrMax= 5.32D-07  0.00D+00 EMaxC= 1.00D-01 BMatC= 2.71D-11 BMatP= 6.60D-11
 IDIUse=1 WtCom= 1.00D+00 WtEn= 0.00D+00
 Coeff-Com:  0.590D-02 0.362D+00 0.633D+00
 Coeff:      0.590D-02 0.362D+00 0.633D+00
 Gap=     0.294 Goal=   None    Shift=    0.000
 Gap=     0.056 Goal=   None    Shift=    0.000
 RMSDP=1.13D-07 MaxDP=1.21D-06 DE=-1.98D-11 OVMax= 3.20D-06

 Cycle  10  Pass 1  IDiag  1:
 E= -116.170074408554     Delta-E=       -0.000000000004 Rises=F Damp=F
 DIIS: error= 4.61D-07 at cycle   4 NSaved=   4.
 NSaved= 4 IEnMin= 4 EnMin= -116.170074408554     IErMin= 4 ErrMin= 4.61D-07
 ErrMax= 4.61D-07  0.00D+00 EMaxC= 1.00D-01 BMatC= 1.73D-11 BMatP= 2.71D-11
 IDIUse=1 WtCom= 1.00D+00 WtEn= 0.00D+00
 Coeff-Com: -0.316D-01 0.849D-01 0.462D+00 0.485D+00
 Coeff:     -0.316D-01 0.849D-01 0.462D+00 0.485D+00
 Gap=     0.294 Goal=   None    Shift=    0.000
 Gap=     0.056 Goal=   None    Shift=    0.000
 RMSDP=6.35D-08 MaxDP=7.12D-07 DE=-3.75D-12 OVMax= 1.75D-06

 Cycle  11  Pass 1  IDiag  1:
 E= -116.170074408558     Delta-E=       -0.000000000004 Rises=F Damp=F
 DIIS: error= 1.28D-07 at cycle   5 NSaved=   5.
 NSaved= 5 IEnMin= 5 EnMin= -116.170074408558     IErMin= 5 ErrMin= 1.28D-07
 ErrMax= 1.28D-07  0.00D+00 EMaxC= 1.00D-01 BMatC= 1.49D-12 BMatP= 1.73D-11
 IDIUse=1 WtCom= 1.00D+00 WtEn= 0.00D+00
 Coeff-Com: -0.158D-01-0.337D-01 0.815D-01 0.255D+00 0.713D+00
 Coeff:     -0.158D-01-0.337D-01 0.815D-01 0.255D+00 0.713D+00
 Gap=     0.294 Goal=   None    Shift=    0.000
 Gap=     0.056 Goal=   None    Shift=    0.000
 RMSDP=3.09D-08 MaxDP=4.64D-07 DE=-3.87D-12 OVMax= 1.20D-06

 Cycle  12  Pass 1  IDiag  1:
 E= -116.170074408559     Delta-E=       -0.000000000000 Rises=F Damp=F
 DIIS: error= 6.46D-08 at cycle   6 NSaved=   6.
 NSaved= 6 IEnMin= 6 EnMin= -116.170074408559     IErMin= 6 ErrMin= 6.46D-08
 ErrMax= 6.46D-08  0.00D+00 EMaxC= 1.00D-01 BMatC= 3.19D-13 BMatP= 1.49D-12
 IDIUse=1 WtCom= 1.00D+00 WtEn= 0.00D+00
 Coeff-Com: -0.186D-02-0.378D-01-0.581D-01 0.247D-01 0.408D+00 0.665D+00
 Coeff:     -0.186D-02-0.378D-01-0.581D-01 0.247D-01 0.408D+00 0.665D+00
 Gap=     0.294 Goal=   None    Shift=    0.000
 Gap=     0.056 Goal=   None    Shift=    0.000
 RMSDP=1.29D-08 MaxDP=2.11D-07 DE=-3.69D-13 OVMax= 5.49D-07

 Cycle  13  Pass 1  IDiag  1:
 E= -116.170074408559     Delta-E=       -0.000000000000 Rises=F Damp=F
 DIIS: error= 3.63D-09 at cycle   7 NSaved=   7.
 NSaved= 7 IEnMin= 7 EnMin= -116.170074408559     IErMin= 7 ErrMin= 3.63D-09
 ErrMax= 3.63D-09  0.00D+00 EMaxC= 1.00D-01 BMatC= 3.58D-15 BMatP= 3.19D-13
 IDIUse=1 WtCom= 1.00D+00 WtEn= 0.00D+00
 Coeff-Com:  0.702D-03-0.429D-02-0.163D-01-0.132D-01 0.356D-01 0.125D+00
 Coeff-Com:  0.872D+00
 Coeff:      0.702D-03-0.429D-02-0.163D-01-0.132D-01 0.356D-01 0.125D+00
 Coeff:      0.872D+00
 Gap=     0.294 Goal=   None    Shift=    0.000
 Gap=     0.056 Goal=   None    Shift=    0.000
 RMSDP=2.14D-09 MaxDP=3.55D-08 DE=-3.69D-13 OVMax= 9.31D-08

 SCF Done:  E(UB97D3) =  -116.170074409     A.U. after   13 cycles
            NFock= 13  Conv=0.21D-08     -V/T= 2.0045
 <Sx>= 0.0000 <Sy>= 0.0000 <Sz>= 0.5000 <S**2>= 0.7548 S= 0.5024
 <L.S>= 0.000000000000E+00
 KE= 1.156512716717D+02 PE=-3.469117680393D+02 EE= 7.799144133593D+01
 Annihilation of the first spin contaminant:
 S**2 before annihilation     0.7548,   after     0.7500
 Leave Link  502 at Wed Oct  7 14:04:56 2020, MaxMem=  2684354560 cpu:              52.9 elap:               5.8
 (Enter /udrive/faculty/rpeverati/g16/g16/l508.exe)
 QCSCF skips out because SCF is already converged.
 Leave Link  508 at Wed Oct  7 14:04:57 2020, MaxMem=  2684354560 cpu:               1.0 elap:               0.6
 (Enter /udrive/faculty/rpeverati/g16/g16/l701.exe)
 ... and contract with generalized density number  0.
 Compute integral first derivatives.
 R6Disp: Adding Grimme-D3(BJ) dispersion energy 1st derivatives to the gradient.
 Leave Link  701 at Wed Oct  7 14:04:59 2020, MaxMem=  2684354560 cpu:               8.3 elap:               1.6
 (Enter /udrive/faculty/rpeverati/g16/g16/l702.exe)
 L702 exits ... SP integral derivatives will be done elsewhere.
 Leave Link  702 at Wed Oct  7 14:05:00 2020, MaxMem=  2684354560 cpu:               2.2 elap:               0.7
 (Enter /udrive/faculty/rpeverati/g16/g16/l703.exe)
 Integral derivatives from FoFJK, PRISM(SPDF).
 Compute integral first derivatives, UseDBF=F ICtDFT=           0.
 Calling FoFJK, ICntrl=      2527 FMM=F ISym2X=0 I1Cent= 0 IOpClX= 0 NMat=1 NMatS=1 NMatT=0.
 FoFJK:  IHMeth= 1 ICntrl=    2527 DoSepK=F KAlg= 0 I1Cent=           0 FoldK=F
 IRaf=         0 NMat=       1 IRICut=       1 DoRegI=T DoRafI=F ISym2E= 0 IDoP0=0 IntGTp=1.
 FoFCou: FMM=F IPFlag=           0 FMFlag=      100000 FMFlg1=         800
         NFxFlg=           0 DoJE=F BraDBF=F KetDBF=F FulRan=T
         wScrn=  0.000000 ICntrl=      2527 IOpCl=  0 I1Cent=           0 NGrid=           0
         NMat0=    1 NMatS0=      1 NMatT0=    0 NMatD0=    1 NMtDS0=    0 NMtDT0=    0
 Symmetry not used in FoFCou.
 Leave Link  703 at Wed Oct  7 14:05:02 2020, MaxMem=  2684354560 cpu:              11.9 elap:               1.6
 (Enter /udrive/faculty/rpeverati/g16/g16/l716.exe)
 Dipole        =-5.61306213D-01 5.85288333D-01-4.05178399D-03
 ***** Axes restored to original set *****
 -------------------------------------------------------------------
 Center     Atomic                   Forces (Hartrees/Bohr)
 Number     Number              X              Y              Z
 -------------------------------------------------------------------
      1        6           0.000241380   -0.000440138    0.000015706
      2        8           0.000728091   -0.009944104    0.000297525
      3        1           0.001421730   -0.001463614    0.000388644
      4        1          -0.001813687   -0.000926456    0.004773169
      5        1          -0.001212676    0.004816559   -0.001270946
      6        1          -0.002101792   -0.003190220   -0.003723798
      7        1           0.002736953    0.011147974   -0.000480300
 -------------------------------------------------------------------
 Cartesian Forces:  Max     0.011147974 RMS     0.003889836
 Leave Link  716 at Wed Oct  7 14:05:03 2020, MaxMem=  2684354560 cpu:               1.4 elap:               0.6
 (Enter /udrive/faculty/rpeverati/g16/g16/l103.exe)

 GradGradGradGradGradGradGradGradGradGradGradGradGradGradGradGradGradGrad
 Berny optimization.
 Optmz: redundant internal coordinate code flag= 1
 Red2BG:  D1=  1.37D-01 OD1=  1.98D-01 B2RMS=  0.00D+00 IAprox=0
 FormGI is forming the generalized inverse of G from B-inverse, IUseBI=4.
 Internal  Forces:  Max     0.011338649 RMS     0.003796362
 Search for a saddle point.
 Step number   2 out of a maximum of   50
 All quantities printed in internal units (Hartrees-Bohrs-Radians)
 Swapping is turned off.
 Update second derivatives using D2CorX and points    1    2
 The second derivative matrix:
                          R1        R2        R3        R4        R5
           R1           0.22764
           R2          -0.00007   0.35452
           R3          -0.00011   0.00005   0.35435
           R4          -0.00003  -0.00004  -0.00005   0.35413
           R5           0.00005  -0.00012  -0.00022  -0.00001   0.19416
           R6          -0.00013   0.00005   0.00013  -0.00006  -0.00024
           A1           0.00001  -0.00001  -0.00003   0.00000   0.00003
           A2           0.00003  -0.00004  -0.00008   0.00001   0.00009
           A3           0.00008  -0.00009  -0.00019   0.00002   0.00022
           A4          -0.00007   0.00008   0.00017  -0.00002  -0.00019
           A5           0.00003  -0.00002  -0.00005   0.00001   0.00006
           A6          -0.00006   0.00006   0.00013  -0.00002  -0.00015
           A7           0.00006  -0.00014  -0.00026  -0.00000   0.00023
           A8           0.00179  -0.00061  -0.00177   0.00081   0.00327
           A9           0.00046  -0.00002  -0.00024   0.00024   0.00071
           D1           0.00046   0.00005  -0.00012   0.00026   0.00064
           D2           0.00073   0.00003  -0.00028   0.00040   0.00107
           D3           0.00080   0.00001  -0.00034   0.00044   0.00119
                          R6        A1        A2        A3        A4
           R6           0.54130
           A1          -0.00003   0.16000
           A2          -0.00009   0.00001   0.16004
           A3          -0.00020   0.00003   0.00009   0.16021
           A4           0.00018  -0.00002  -0.00008  -0.00019   0.16017
           A5          -0.00005   0.00001   0.00003   0.00006  -0.00005
           A6           0.00013  -0.00002  -0.00006  -0.00015   0.00013
           A7          -0.00028   0.00003   0.00011   0.00026  -0.00023
           A8          -0.00164   0.00039   0.00121   0.00268  -0.00240
           A9          -0.00018   0.00008   0.00024   0.00051  -0.00046
           D1          -0.00003   0.00007   0.00020   0.00040  -0.00036
           D2          -0.00017   0.00012   0.00035   0.00072  -0.00065
           D3          -0.00021   0.00013   0.00039   0.00081  -0.00073
                          A5        A6        A7        A8        A9
           A5           0.16002
           A6          -0.00004   0.16010
           A7           0.00008  -0.00018   0.16028
           A8           0.00064  -0.00183   0.00387   0.02433
           A9           0.00010  -0.00034   0.00084   0.00230   0.00207
           D1           0.00007  -0.00026   0.00074   0.00030  -0.00071
           D2           0.00014  -0.00048   0.00125   0.00204  -0.00075
           D3           0.00016  -0.00054   0.00139   0.00265  -0.00072
                          D1        D2        D3
           D1           0.00112
           D2          -0.00150   0.00051
           D3          -0.00155  -0.00181   0.00048
 ITU=  0  0
 Eigenvectors of the second derivative matrix:
                           1         2         3         4         5
     Eigenvalues --    -0.00330   0.00230   0.02416   0.10605   0.10870
   1         R1        -0.00439  -0.00000   0.00931  -0.00508  -0.00285
   2         R2        -0.00033   0.00000  -0.00175   0.00047   0.00032
   3         R3         0.00073   0.00000  -0.00540   0.00109   0.00071
   4         R4        -0.00162   0.00000   0.00270  -0.00029  -0.00015
   5         R5        -0.00717  -0.00000   0.02036   0.00047  -0.00042
   6         R6         0.00015   0.00000  -0.00314   0.00056   0.00048
   7         A1        -0.00142   0.00000   0.00597   0.22202  -0.13861
   8         A2        -0.00173  -0.00000   0.00398  -0.26093  -0.06366
   9         A3        -0.00626  -0.00000   0.02430   0.08924   0.23671
  10         A4         0.00665   0.00000  -0.02633  -0.14197  -0.61680
  11         A5        -0.00316   0.00000   0.01664   0.55779   0.16943
  12         A6         0.00429  -0.00000  -0.01853  -0.44478   0.42993
  13         A7        -0.01009   0.00000   0.02994  -0.00769  -0.00679
  14         A8        -0.11212   0.06057  -0.96654   0.13656   0.06830
  15         A9         0.27545  -0.95005  -0.09472  -0.03333   0.05503
  16         D1         0.55976   0.17029   0.11373   0.32705   0.33262
  17         D2         0.56050   0.07912  -0.08553   0.14765  -0.44301
  18         D3         0.53270   0.24182  -0.18214  -0.44377   0.10983
                           6         7         8         9        10
     Eigenvalues --     0.15999   0.16000   0.16000   0.16088   0.19424
   1         R1        -0.00029  -0.00000  -0.00000   0.00315   0.00302
   2         R2        -0.00011  -0.00000  -0.00000  -0.00108  -0.00084
   3         R3        -0.00013  -0.00000  -0.00000  -0.00221  -0.00163
   4         R4        -0.00008   0.00000   0.00000   0.00030   0.00011
   5         R5        -0.00027  -0.00000   0.00000   0.01524  -0.99962
   6         R6        -0.00009   0.00000   0.00000  -0.00117  -0.00080
   7         A1        -0.13435   0.31594   0.79921  -0.01780   0.00073
   8         A2         0.36755  -0.63779   0.22342  -0.39834  -0.00737
   9         A3         0.45125   0.54397  -0.29951  -0.41951  -0.00518
  10         A4        -0.09934   0.14434  -0.37607   0.17430   0.00051
  11         A5        -0.14685  -0.41284  -0.25235   0.19860   0.00628
  12         A6        -0.33290   0.07746   0.01355   0.33451   0.00331
  13         A7        -0.70779  -0.01541  -0.12787  -0.69372  -0.00970
  14         A8        -0.00295   0.00000  -0.00000  -0.03899  -0.02039
  15         A9        -0.00092  -0.00000  -0.00000  -0.00711  -0.00393
  16         D1        -0.00109  -0.00000  -0.00000  -0.00872  -0.00568
  17         D2        -0.00152  -0.00000  -0.00000  -0.00857  -0.00503
  18         D3        -0.00162  -0.00000  -0.00000  -0.00922  -0.00469
                          11        12        13        14        15
     Eigenvalues --     0.22766   0.35412   0.35435   0.35455   0.54131
   1         R1         0.99990  -0.00038   0.00066   0.00086  -0.00043
   2         R2         0.00062   0.06297   0.34376  -0.93694   0.00026
   3         R3         0.00104   0.19167  -0.92548  -0.32666   0.00074
   4         R4         0.00012   0.97944   0.15900   0.12416  -0.00033
   5         R5         0.00279  -0.00030   0.00111   0.00124  -0.00072
   6         R6         0.00047   0.00017   0.00067   0.00054   0.99999
   7         A1         0.00132  -0.00002   0.00013   0.00013   0.00002
   8         A2        -0.00138  -0.00006   0.00038   0.00040  -0.00029
   9         A3         0.00327  -0.00008   0.00079   0.00080  -0.00060
  10         A4        -0.00476   0.00007  -0.00064  -0.00066   0.00065
  11         A5         0.00517   0.00002   0.00017   0.00016  -0.00005
  12         A6        -0.00294   0.00004  -0.00062  -0.00062   0.00011
  13         A7         0.00162  -0.00028   0.00109   0.00121  -0.00078
  14         A8         0.00855   0.00127   0.00480   0.00385  -0.00321
  15         A9         0.00219   0.00054   0.00077   0.00041  -0.00031
  16         D1        -0.00005   0.00066   0.00054   0.00013  -0.00001
  17         D2         0.00369   0.00096   0.00090   0.00030  -0.00059
  18         D3         0.00528   0.00103   0.00113   0.00047  -0.00021
 RLam0= 7.11D-06.
 Iter=   1 RLamda= 0.00000000D+00 Sum=-7.63423621D-04.
 Iter=   2 RLamda=-7.63423621D-04 Sum=-7.54873937D-04.
 Iter=   3 RLamda=-7.54873937D-04 Sum=-7.54952717D-04.
 Iter=   4 RLamda=-7.54952717D-04 Sum=-7.54951990D-04.
 RFO step:  Lambda0=7.114947976D-06 Lambda=-7.54952717D-04.
 Linear search not attempted -- option 19 set.
 Maximum step size (   0.100) exceeded in Quadratic search.
    -- Step size scaled by   0.970
 Iteration  1 RMS(Cart)=  0.03115104 RMS(Int)=  0.00061899
 Iteration  2 RMS(Cart)=  0.00079133 RMS(Int)=  0.00011805
 Iteration  3 RMS(Cart)=  0.00000078 RMS(Int)=  0.00011805
 ITry= 1 IFail=0 DXMaxC= 7.81D-02 DCOld= 1.00D+10 DXMaxT= 1.00D-01 DXLimC= 3.00D+00 Rises=F
 Variable       Old X    -DE/DX   Delta X   Delta X   Delta X     New X
                                 (Linear)    (Quad)   (Total)
    R1        2.32570   0.00488   0.00000   0.02025   0.02024   2.34594
    R2        2.05401   0.00518   0.00000   0.01419   0.01419   2.06820
    R3        2.05456   0.00511   0.00000   0.01418   0.01418   2.06874
    R4        2.05454   0.00532   0.00000   0.01440   0.01440   2.06893
    R5        2.43218   0.00353   0.00000   0.01671   0.01671   2.44889
    R6        1.83279   0.01134   0.00000   0.02041   0.02041   1.85320
    A1        1.83766   0.00036   0.00000   0.00215   0.00221   1.83987
    A2        1.87454   0.00039   0.00000   0.00184   0.00175   1.87629
    A3        1.81976   0.00045   0.00000   0.00194   0.00200   1.82176
    A4        1.97189  -0.00044   0.00000  -0.00208  -0.00218   1.96970
    A5        1.97618  -0.00010   0.00000  -0.00051  -0.00031   1.97587
    A6        1.96876  -0.00046   0.00000  -0.00241  -0.00254   1.96622
    A7        1.71068   0.00338   0.00000   0.01914   0.01914   1.72982
    A8        2.93865   0.00096   0.00000   0.02036   0.02029   2.95894
    A9        3.11466   0.00029   0.00000   0.08646   0.08647   3.20113
    D1       -1.85778  -0.00001   0.00000   0.01077   0.01050  -1.84728
    D2        0.21073   0.00002   0.00000   0.02209   0.02207   0.23281
    D3        2.29103  -0.00007   0.00000   0.01029   0.01058   2.30161
         Item               Value     Threshold  Converged?
 Maximum Force            0.011339     0.000450     NO 
 RMS     Force            0.003796     0.000300     NO 
 Maximum Displacement     0.078059     0.001800     NO 
 RMS     Displacement     0.031409     0.001200     NO 
 Predicted change in Energy=-3.767842D-04
 Lowest energy point so far.  Saving SCF results.
 Largest change from initial coordinates is atom    6       0.014 Angstoms.
 GradGradGradGradGradGradGradGradGradGradGradGradGradGradGradGradGradGrad

 Leave Link  103 at Wed Oct  7 14:05:06 2020, MaxMem=  2684354560 cpu:              22.3 elap:               2.8
 (Enter /udrive/faculty/rpeverati/g16/g16/l202.exe)
                          Input orientation:                          
 ---------------------------------------------------------------------
 Center     Atomic      Atomic             Coordinates (Angstroms)
 Number     Number       Type             X           Y           Z
 ---------------------------------------------------------------------
      1          6           0       -1.214196    0.002136    0.004848
      2          8           0        1.310153   -0.097340   -0.000171
      3          1           0        0.016200   -0.160708    0.031854
      4          1           0       -1.561839   -0.239212    1.014157
[...]
           R1           0.12604
           R2           0.00169   0.34441
           R3           0.00139   0.00056   0.34400
           R4           0.00169   0.00032   0.00056   0.34440
           R5           0.09350  -0.00033  -0.00001  -0.00033   0.04137
           R6           0.00257  -0.00013   0.00040  -0.00013  -0.00567
           A1           0.01255   0.00152  -0.00627  -0.00665  -0.00495
           A2           0.01398  -0.00651   0.00056  -0.00651  -0.00228
           A3           0.01256  -0.00665  -0.00627   0.00152  -0.00495
           A4          -0.01132   0.00660   0.00686  -0.00352   0.00294
           A5          -0.01054   0.00690  -0.00373   0.00690   0.00447
           A6          -0.01132  -0.00352   0.00686   0.00660   0.00294
           A7           0.00049  -0.00092   0.00101  -0.00091   0.00888
           A8           0.00312   0.00158  -0.00334   0.00157   0.00423
           A9          -0.00000  -0.00222  -0.00000   0.00222  -0.00000
           D1           0.00021  -0.00005  -0.00509   0.00466  -0.00101
           D2           0.00000   0.00489  -0.00000  -0.00489  -0.00000
           D3          -0.00021  -0.00466   0.00509   0.00005   0.00101
                          R6        A1        A2        A3        A4
           R6           0.46427
           A1          -0.00127   0.07241
           A2          -0.00027  -0.00440   0.07742
           A3          -0.00127  -0.00437  -0.00439   0.07242
           A4           0.00085  -0.02269  -0.02678  -0.00468   0.05523
           A5           0.00068  -0.02673  -0.00467  -0.02674  -0.00475
           A6           0.00085  -0.00468  -0.02677  -0.02269  -0.00494
           A7           0.00747   0.00086  -0.00173   0.00085   0.00008
           A8          -0.00354   0.00324  -0.00000   0.00324  -0.00601
           A9          -0.00000   0.00022  -0.00000  -0.00022  -0.00285
           D1           0.00015  -0.00026  -0.00514   0.00575  -0.01916
           D2           0.00000   0.00318   0.00000  -0.00318   0.02023
           D3          -0.00015  -0.00574   0.00514   0.00026  -0.00065
                          A5        A6        A7        A8        A9
           A5           0.05980
           A6          -0.00475   0.05523
           A7          -0.00015   0.00008   0.09991
           A8           0.00673  -0.00601   0.00339   0.02869
           A9           0.00001   0.00285   0.00000  -0.00000   0.00505
           D1           0.01868   0.00066  -0.00005   0.00162   0.00059
           D2          -0.00000  -0.02023  -0.00000   0.00000  -0.00191
           D3          -0.01868   0.01916   0.00005  -0.00162   0.00058
                          D1        D2        D3
           D1           0.01623
           D2          -0.00821   0.01600
           D3          -0.00760  -0.00821   0.01623
 ITU=  0
 Eigenvectors of the second derivative matrix:
                           1         2         3         4         5
     Eigenvalues --    -0.02388   0.00002   0.00485   0.02673   0.06827
   1         R1         0.54335  -0.00000  -0.00003   0.05095   0.00979
   2         R2        -0.00716   0.00047  -0.00499   0.00155  -0.02158
   3         R3        -0.00683  -0.00000  -0.00000  -0.00091   0.04693
   4         R4        -0.00717  -0.00047   0.00500   0.00154  -0.02224
   5         R5        -0.81659   0.00000   0.00001  -0.03448  -0.02366
   6         R6        -0.01364   0.00000  -0.00000  -0.00918   0.00391
   7         A1        -0.08404  -0.02162   0.01250   0.03182   0.28058
   8         A2        -0.06526  -0.00001   0.00002  -0.01475  -0.50459
   9         A3        -0.08410   0.02163  -0.01250   0.03181   0.28896
  10         A4         0.06482  -0.00458  -0.00093  -0.04495  -0.23015
  11         A5         0.06848  -0.00001   0.00002   0.05007   0.41217
  12         A6         0.06483   0.00459   0.00090  -0.04494  -0.22420
  13         A7         0.05614  -0.00001   0.00000   0.04863  -0.05773
  14         A8         0.04655   0.00003  -0.00008  -0.95966   0.20261
  15         A9        -0.00004  -0.08968  -0.99056   0.00012   0.00044
  16         D1        -0.02016  -0.57249   0.09342   0.17885   0.36366
  17         D2        -0.00001  -0.57926  -0.03195   0.00003  -0.00339
  18         D3         0.02018  -0.57245   0.09315  -0.17897  -0.35995
                           6         7         8         9        10
     Eigenvalues --     0.06860   0.09226   0.09778   0.10077   0.11145
   1         R1         0.00010  -0.00005   0.08663  -0.06033  -0.09793
   2         R2        -0.03892  -0.01073  -0.00227   0.01180   0.03605
   3         R3         0.00040   0.00001  -0.01478  -0.00353   0.03409
   4         R4         0.03856   0.01073  -0.00225   0.01180   0.03603
   5         R5        -0.00019  -0.00007   0.03052  -0.03154  -0.27911
   6         R6         0.00004  -0.00001   0.01187  -0.01347   0.00653
   7         A1         0.50275  -0.47807   0.16252   0.26768   0.38604
   8         A2        -0.00426   0.00023  -0.49443  -0.31721   0.44782
   9         A3        -0.49780   0.47791   0.16301   0.26775   0.38617
  10         A4         0.34896   0.48140   0.25846   0.10299  -0.32769
  11         A5         0.00344   0.00022  -0.38080  -0.39700  -0.38158
  12         A6        -0.35290  -0.48168   0.25798   0.10294  -0.32755
  13         A7        -0.00051   0.00026  -0.61599   0.74783  -0.22166
  14         A8         0.00174   0.00008  -0.09650  -0.00164   0.01906
  15         A9        -0.04119  -0.03986  -0.00006  -0.00003   0.00000
  16         D1        -0.21411  -0.10266  -0.11540  -0.08018  -0.01087
  17         D2         0.39255   0.23736   0.00009  -0.00001   0.00001
  18         D3        -0.22013  -0.10289   0.11537   0.08022   0.01086
                          11        12        13        14        15
     Eigenvalues --     0.19205   0.34442   0.34499   0.34626   0.46455
   1         R1         0.82539  -0.00086  -0.00001  -0.00454   0.00374
   2         R2         0.00660  -0.37917   0.70575  -0.59538  -0.00089
   3         R3         0.00722   0.84017  -0.00362  -0.53887   0.00428
   4         R4         0.00660  -0.38327  -0.70613  -0.59230  -0.00089
   5         R5         0.50143   0.00085  -0.00000  -0.00200  -0.01209
   6         R6         0.00353  -0.00458   0.00002   0.00156   0.99966
   7         A1         0.09924  -0.01153   0.02039   0.02722  -0.00327
   8         A2         0.13055   0.01861   0.00001   0.03163  -0.00080
   9         A3         0.09933  -0.01164  -0.02020   0.02731  -0.00326
  10         A4        -0.09737   0.01729   0.02647  -0.02353   0.00228
  11         A5        -0.08457  -0.03143   0.00004  -0.02627   0.00164
  12         A6        -0.09736   0.01713  -0.02667  -0.02341   0.00228
  13         A7         0.05367   0.00585  -0.00002   0.00214   0.02011
  14         A8         0.03738  -0.01435   0.00005   0.00060  -0.00817
  15         A9        -0.00002  -0.00004  -0.00981   0.00002  -0.00000
  16         D1        -0.00112  -0.02226  -0.01238  -0.00017   0.00021
  17         D2         0.00000   0.00008   0.02531  -0.00005   0.00000
  18         D3         0.00112   0.02219  -0.01250   0.00023  -0.00021
 Eigenvalue     1 is  -2.39D-02 should be greater than     0.000000 Eigenvector:
                          R5        R1        A3        A1        A5
   1                   -0.81659   0.54335  -0.08410  -0.08404   0.06848
                          A2        A6        A4        A7        A8
   1                   -0.06526   0.06483   0.06482   0.05614   0.04655
 Angle between quadratic step and forces=  80.61 degrees.
 Linear search not attempted -- first point.
 Iteration  1 RMS(Cart)=  0.00024632 RMS(Int)=  0.00000006
 Iteration  2 RMS(Cart)=  0.00000007 RMS(Int)=  0.00000001
 ITry= 1 IFail=0 DXMaxC= 6.56D-04 DCOld= 1.00D+10 DXMaxT= 3.00D-01 DXLimC= 3.00D+00 Rises=F
 Variable       Old X    -DE/DX   Delta X   Delta X   Delta X     New X
                                 (Linear)    (Quad)   (Total)
    R1        2.36028   0.00000   0.00000   0.00003   0.00003   2.36031
    R2        2.06899   0.00000   0.00000   0.00000   0.00000   2.06900
    R3        2.06907  -0.00000   0.00000  -0.00000  -0.00000   2.06907
    R4        2.06900  -0.00000   0.00000  -0.00000  -0.00000   2.06900
    R5        2.43149  -0.00000   0.00000  -0.00004  -0.00004   2.43145
    R6        1.85568   0.00000   0.00000   0.00000   0.00000   1.85568
    A1        1.82939  -0.00001   0.00000  -0.00007  -0.00007   1.82932
    A2        1.87574   0.00000   0.00000   0.00002   0.00002   1.87576
    A3        1.82929   0.00001   0.00000   0.00004   0.00004   1.82933
    A4        1.96845   0.00000   0.00000   0.00001   0.00001   1.96845
    A5        1.97792   0.00000   0.00000   0.00001   0.00001   1.97793
    A6        1.96845  -0.00000   0.00000  -0.00000  -0.00000   1.96845
    A7        1.74170   0.00000   0.00000   0.00000   0.00000   1.74170
    A8        2.96254   0.00000   0.00000   0.00002   0.00002   2.96256
    A9        3.14177  -0.00000   0.00000  -0.00020  -0.00020   3.14157
    D1       -2.07601   0.00000   0.00000   0.00060   0.00060  -2.07541
    D2       -0.00069  -0.00000   0.00000   0.00054   0.00054  -0.00015
    D3        2.07450   0.00000   0.00000   0.00062   0.00062   2.07511
         Item               Value     Threshold  Converged?
 Maximum Force            0.000007     0.000450     YES
 RMS     Force            0.000002     0.000300     YES
 Maximum Displacement     0.000656     0.001800     YES
 RMS     Displacement     0.000246     0.001200     YES
 Predicted change in Energy=-8.997858D-10
 Optimization completed.
    -- Stationary point found.
                           ----------------------------
                           !   Optimized Parameters   !
                           ! (Angstroms and Degrees)  !
 --------------------------                            --------------------------
 ! Name  Definition              Value          Derivative Info.                !
 --------------------------------------------------------------------------------
 ! R1    R(1,3)                  1.249          -DE/DX =    0.0                 !
 ! R2    R(1,4)                  1.0949         -DE/DX =    0.0                 !
 ! R3    R(1,5)                  1.0949         -DE/DX =    0.0                 !
 ! R4    R(1,6)                  1.0949         -DE/DX =    0.0                 !
 ! R5    R(2,3)                  1.2867         -DE/DX =    0.0                 !
 ! R6    R(2,7)                  0.982          -DE/DX =    0.0                 !
 ! A1    A(3,1,4)              104.8165         -DE/DX =    0.0                 !
 ! A2    A(3,1,5)              107.4718         -DE/DX =    0.0                 !
 ! A3    A(3,1,6)              104.8108         -DE/DX =    0.0                 !
 ! A4    A(4,1,5)              112.7836         -DE/DX =    0.0                 !
 ! A5    A(4,1,6)              113.3264         -DE/DX =    0.0                 !
 ! A6    A(5,1,6)              112.7842         -DE/DX =    0.0                 !
 ! A7    A(3,2,7)               99.7918         -DE/DX =    0.0                 !
 ! A8    L(1,3,2,7,-1)         169.7409         -DE/DX =    0.0                 !
 ! A9    L(1,3,2,7,-2)         180.0101         -DE/DX =    0.0                 !
 ! D1    D(4,1,2,7)           -118.9465         -DE/DX =    0.0                 !
 ! D2    D(5,1,2,7)             -0.0397         -DE/DX =    0.0                 !
 ! D3    D(6,1,2,7)            118.8599         -DE/DX =    0.0                 !
 --------------------------------------------------------------------------------
 GradGradGradGradGradGradGradGradGradGradGradGradGradGradGradGradGradGrad

 Leave Link  103 at Wed Oct  7 14:13:26 2020, MaxMem=  2684354560 cpu:              11.3 elap:               1.4
 (Enter /udrive/faculty/rpeverati/g16/g16/l9999.exe)

 ----------------------------------------------------------------------

 Electric dipole moment (input orientation):
 (Debye = 10**-18 statcoulomb cm , SI units = C m)
                  (au)            (Debye)         (10**-30 SI)
   Tot        0.805278D+00      0.204681D+01      0.682743D+01
   x         -0.551666D+00     -0.140220D+01     -0.467722D+01
   y          0.568990D+00      0.144623D+01      0.482410D+01
   z         -0.142786D+00     -0.362926D+00     -0.121059D+01

 Dipole polarizability, Alpha (input orientation).
 (esu units = cm**3 , SI units = C**2 m**2 J**-1)
 Alpha(0;0):
               (au)            (10**-24 esu)      (10**-40 SI)
   iso        0.227423D+02      0.337006D+01      0.374970D+01
   aniso      0.191048D+02      0.283104D+01      0.314995D+01
   xx         0.352044D+02      0.521676D+01      0.580443D+01
   yx         0.138429D+01      0.205130D+00      0.228238D+00
   yy         0.181450D+02      0.268881D+01      0.299170D+01
   zx         0.994578D-01      0.147381D-01      0.163984D-01
   zy        -0.768161D+00     -0.113830D+00     -0.126653D+00
   zz         0.148775D+02      0.220461D+01      0.245296D+01

 ----------------------------------------------------------------------

 Dipole orientation:
     6         -1.39039354          0.93443375          1.57687628
     8          1.31280499         -1.02444506         -1.83385056
     1         -0.18305903          0.05935654         -0.25274402
     1         -3.30748398          0.18997185          1.35043231
     1         -0.47018174          0.26586819          3.30525689
     1         -1.27709501          2.98802409          1.35173586
     1          2.46981403         -1.86287679         -0.64983021

 Electric dipole moment (dipole orientation):
 (Debye = 10**-18 statcoulomb cm , SI units = C m)
                  (au)            (Debye)         (10**-30 SI)
   Tot        0.805278D+00      0.204681D+01      0.682743D+01
   x          0.000000D+00      0.000000D+00      0.000000D+00
   y          0.000000D+00      0.000000D+00      0.000000D+00
   z          0.805278D+00      0.204681D+01      0.682743D+01

 Dipole polarizability, Alpha (dipole orientation).
 (esu units = cm**3 , SI units = C**2 m**2 J**-1)
 Alpha(0;0):
               (au)            (10**-24 esu)      (10**-40 SI)
   iso        0.227423D+02      0.337006D+01      0.374970D+01
   aniso      0.191048D+02      0.283104D+01      0.314995D+01
   xx         0.238163D+02      0.352921D+01      0.392678D+01
   yx        -0.660725D+01     -0.979093D+00     -0.108939D+01
   yy         0.194856D+02      0.288747D+01      0.321275D+01
   zx        -0.676281D+01     -0.100214D+01     -0.111504D+01
   zy         0.490011D+01      0.726121D+00      0.807919D+00
   zz         0.249250D+02      0.369350D+01      0.410957D+01

 ----------------------------------------------------------------------

 Test job not archived.
 1\1\GINC-NODE61\Freq\UB97D3\6-31G(d)\C1H5O1(2)\RPEVERATI\07-Oct-2020\0
 \\#P Freq B97D3/6-31G* 5D 7F Integral=UltraFineGrid SCF=(NoSymm,XQC,Ma
 xCyc=120) IOp(1/33=1) Geom=Check Guess=Read\\TS search on BH76.\\0,2\C
 ,-1.217420481,0.0022997176,0.0066988627\O,1.3054713401,-0.0878309839,0
 .0791959516\H,0.0204553499,-0.1524203909,0.0678838551\H,-1.5834366068,
 -0.2725753989,1.0012862566\H,-1.4056925722,1.052519921,-0.2390909266\H
 ,-1.546546347,-0.6831147977,-0.7810939103\H,1.4268547077,0.8621419165,
 -0.1378466708\\Version=ES64L-G16RevA.03\State=2-A\HF=-116.1704725\S2=0
 .755013\S2-1=0.\S2A=0.750018\RMSD=7.270e-10\RMSF=2.015e-06\ZeroPoint=0
 .0498298\Thermal=0.0545555\Dipole=-0.5516664,0.5689897,-0.1427862\Dipo
 leDeriv=0.5760845,0.0289722,0.0050162,-0.053836,0.0256661,-0.0062418,0
 .0241693,-0.0045471,0.0048947,-0.1869171,0.0373159,-0.0022839,0.019503
 ,-0.1989666,-0.068553,0.0018172,-0.0681991,-0.4815725,-0.625323,-0.013
 3391,-0.013574,-0.0473148,0.1592203,0.0057001,-0.0056747,0.0064033,0.1
 865151,-0.0474861,-0.0252114,0.0773678,0.0049851,0.0628353,0.0316443,0
 .0091089,0.0366105,-0.0597788,-0.035907,0.029286,-0.0088543,0.0185506,
 -0.0959092,0.0381063,-0.0064178,0.0383384,0.0589061,-0.0443103,-0.0541
 723,-0.0592614,0.0025952,0.0120211,-0.0673027,-0.0111004,-0.074061,-0.
 0122266,0.3638589,-0.0028512,0.0015895,0.0555169,0.0351331,0.0666467,-
 0.0119026,0.065455,0.3032619\Polar=35.204442,1.3842874,18.1449895,0.09
 94578,-0.7681612,14.8774712\Quadrupole=-0.5650088,0.9223314,-0.3573226
 ,1.8453588,-0.4297151,-0.2703466\PG=C01 [X(C1H5O1)]\NImag=1\\0.2500095
 1,0.02763623,0.55405751,-0.01261420,0.00005095,0.55155189,-0.10131638,
 0.01358301,-0.00525284,0.07172301,-0.00151343,0.00127303,0.00005939,0.
 04357706,0.45076101,-0.00175480,0.00036713,0.00154534,-0.00864722,-0.1
 0277462,0.02572806,0.01025820,-0.00376001,0.00150281,0.05387886,-0.008
 03080,0.00305148,-0.01978168,0.01390319,-0.03351204,0.00322629,0.00670
 368,-0.02039862,0.00376811,-0.00062915,0.05844948,-0.00258978,0.002864
 32,-0.02149429,-0.00034790,0.00346904,-0.00549378,-0.00081425,-0.00713
 688,0.02926692,-0.06234215,-0.02696464,0.09407172,0.00375403,-0.000259
 28,-0.00071237,-0.01572329,-0.00550143,0.01638563,0.06498978,-0.025215
 19,-0.06683614,0.06055190,-0.00038073,-0.00039359,-0.00027732,0.002225
 34,0.00105664,-0.00142394,0.02692098,0.06329728,0.08369576,0.06193401,
 -0.27460499,0.00150907,-0.00067117,0.00109774,-0.00255746,0.00022955,-
 0.00117983,-0.09326645,-0.06803740,0.29199408,-0.03925798,0.05129126,-
 0.01159679,0.00180363,0.00074247,-0.00012466,-0.01114027,0.01812145,-0
 .00439344,0.00361099,-0.01126579,0.00235370,0.04121255,0.04315623,-0.3
 0125111,0.05881911,-0.00038603,0.00094268,-0.00033881,-0.00104596,-0.0
 0288651,0.00053872,0.00201725,-0.00393312,-0.00072840,-0.04905370,0.32
 054141,-0.00972236,0.05898714,-0.06354336,0.00013650,-0.00031586,-0.00
 041974,0.00001959,0.00093505,-0.00066927,-0.00669675,0.02627306,-0.002
 76919,0.01122899,-0.06458814,0.05963793,-0.05611578,-0.05974364,-0.066
 59508,0.00377625,0.00006871,0.00087721,-0.01519503,-0.01220048,-0.0128
 7750,0.00566699,0.00763109,0.00877855,0.00335562,0.00465695,0.00518420
 ,0.05845866,-0.05368970,-0.15585553,-0.12169098,-0.00099568,0.00025701
 ,0.00065171,0.00295818,0.00101540,0.00031977,0.00273870,0.00692535,0.0
 0704677,-0.01017514,-0.01381255,-0.02129903,0.05885989,0.16171030,-0.0
 5801672,-0.12323440,-0.19180381,-0.00106694,0.00106843,0.00042723,0.00
 078868,-0.00180649,-0.00167659,-0.01028315,-0.01725729,-0.01454587,0.0
 0260993,0.00628391,0.00736623,0.06554661,0.13501477,0.20011091,-0.0012
 3543,-0.00204222,0.00048438,-0.03361940,-0.03458474,0.00731035,-0.0022
 9680,-0.02039726,0.00463725,0.00004364,0.00008430,-0.00051318,0.000415
 47,0.00065526,-0.00015017,0.00005330,0.00030375,0.00042158,0.03663922,
 -0.00427733,0.00212427,-0.00101667,-0.06210131,-0.43244151,0.09860380,
 0.00828239,-0.00372435,0.00136897,0.00104841,-0.00011642,0.00022664,0.
 00033945,0.00039919,0.00000777,0.00072747,-0.00023998,-0.00006893,0.05
 598091,0.43399881,0.00100210,-0.00096915,-0.00165078,0.01366933,0.0991
 6478,-0.02288484,-0.00199086,0.00078437,0.00124683,0.00050136,0.000170
 99,0.00000806,-0.00007773,0.00001360,0.00039740,-0.00091398,-0.0000430
 1,0.00012190,-0.01219022,-0.09912158,0.02276142\\0.00000136,-0.0000000
 5,0.00000673,0.00000086,0.00000075,-0.00000091,-0.00000164,0.00000031,
 -0.00000305,-0.00000337,0.00000055,-0.00000201,0.00000094,0.00000052,0
 .,0.00000205,-0.00000125,-0.00000075,-0.00000020,-0.00000083,-0.000000
 01\\\@


 WE HAVE LEARNED THAT NOTHING IS SIMPLE AND
 RATIONAL EXCEPT WHAT WE OURSELVES HAVE INVENTED;
 THAT GOD THINKS IN TERMS NEITHER OF EUCLID OR RIEMANN; THAT SCIENCE HAS "EXPLAINED" NOTHING;
 THAT THE MORE WE KNOW THE MORE FANTASTIC THE WORLD BECOMES
 AND THE PROFOUNDER THE SURROUNDING DARKNESS.
   --  ALDOUS HUXLEY
 Job cpu time:       0 days  0 hours  3 minutes 42.5 seconds.
 Elapsed time:       0 days  0 hours  0 minutes 27.8 seconds.
 File lengths (MBytes):  RWF=      7 Int=      0 D2E=      0 Chk=      1 Scr=      1
 Normal termination of Gaussian 16 at Wed Oct  7 14:13:27 2020.
