 Entering Gaussian System, Link 0=g16
 Input=MN_94_RKT20_BH76_B97DBJ_631Gs.in
 Output=MN_94_RKT20_BH76_B97DBJ_631Gs.log
 Initial command:
 /udrive/faculty/rpeverati/g16/g16/l1.exe "/udrive/scratch-directories/gaussian09/rpeverati/Gau-633.inp" -scrdir="/udrive/scratch-directories/gaussian09/rpeverati/"
 Entering Link 1 = /udrive/faculty/rpeverati/g16/g16/l1.exe PID=       647.
  
 Copyright (c) 1988,1990,1992,1993,1995,1998,2003,2009,2016,
            Gaussian, Inc.  All Rights Reserved.
  
 This is part of the Gaussian(R) 16 program.  It is based on
 the Gaussian(R) 09 system (copyright 2009, Gaussian, Inc.),
 the Gaussian(R) 03 system (copyright 2003, Gaussian, Inc.),
 the Gaussian(R) 98 system (copyright 1998, Gaussian, Inc.),
 the Gaussian(R) 94 system (copyright 1995, Gaussian, Inc.),
 the Gaussian 92(TM) system (copyright 1992, Gaussian, Inc.),
 the Gaussian 90(TM) system (copyright 1990, Gaussian, Inc.),
 the Gaussian 88(TM) system (copyright 1988, Gaussian, Inc.),
 the Gaussian 86(TM) system (copyright 1986, Carnegie Mellon
 University), and the Gaussian 82(TM) system (copyright 1983,
 Carnegie Mellon University). Gaussian is a federally registered
 trademark of Gaussian, Inc.
  
 This software contains proprietary and confidential information,
 including trade secrets, belonging to Gaussian, Inc.
  
 This software is provided under written license and may be
 used, copied, transmitted, or stored only in accord with that
 written license.
  
 The following legend is applicable only to US Government
 contracts under FAR:
  
                    RESTRICTED RIGHTS LEGEND
  
 Use, reproduction and disclosure by the US Government is
 subject to restrictions as set forth in subparagraphs (a)
 and (c) of the Commercial Computer Software - Restricted
 Rights clause in FAR 52.227-19.
  
 Gaussian, Inc.
 340 Quinnipiac St., Bldg. 40, Wallingford CT 06492
  
  
 ---------------------------------------------------------------
 Warning -- This program may not be used in any manner that
 competes with the business of Gaussian, Inc. or will provide
 assistance to any competitor of Gaussian, Inc.  The licensee
 of this program is prohibited from giving any competitor of
 Gaussian, Inc. access to this program.  By using this program,
 the user acknowledges that Gaussian, Inc. is engaged in the
 business of creating and licensing software in the field of
 computational chemistry and represents and warrants to the
 licensee that it is not a competitor of Gaussian, Inc. and that
 it will not use this program in any manner prohibited above.
 ---------------------------------------------------------------
  

 Cite this work as:
 Gaussian 16, Revision A.03,
 M. J. Frisch, G. W. Trucks, H. B. Schlegel, G. E. Scuseria, 
 M. A. Robb, J. R. Cheeseman, G. Scalmani, V. Barone, 
 G. A. Petersson, H. Nakatsuji, X. Li, M. Caricato, A. V. Marenich, 
 J. Bloino, B. G. Janesko, R. Gomperts, B. Mennucci, H. P. Hratchian, 
 J. V. Ortiz, A. F. Izmaylov, J. L. Sonnenberg, D. Williams-Young, 
 F. Ding, F. Lipparini, F. Egidi, J. Goings, B. Peng, A. Petrone, 
 T. Henderson, D. Ranasinghe, V. G. Zakrzewski, J. Gao, N. Rega, 
 G. Zheng, W. Liang, M. Hada, M. Ehara, K. Toyota, R. Fukuda, 
 J. Hasegawa, M. Ishida, T. Nakajima, Y. Honda, O. Kitao, H. Nakai, 
 T. Vreven, K. Throssell, J. A. Montgomery, Jr., J. E. Peralta, 
 F. Ogliaro, M. J. Bearpark, J. J. Heyd, E. N. Brothers, K. N. Kudin, 
 V. N. Staroverov, T. A. Keith, R. Kobayashi, J. Normand, 
 K. Raghavachari, A. P. Rendell, J. C. Burant, S. S. Iyengar, 
 J. Tomasi, M. Cossi, J. M. Millam, M. Klene, C. Adamo, R. Cammi, 
 J. W. Ochterski, R. L. Martin, K. Morokuma, O. Farkas, 
 J. B. Foresman, and D. J. Fox, Gaussian, Inc., Wallingford CT, 2016.
 
 ******************************************
 Gaussian 16:  ES64L-G16RevA.03 25-Dec-2016
                10-Oct-2020 
 ******************************************
 %NoSave
 %nproc=12
 Will use up to   12 processors via shared memory.
 %mem=20GB
 %chk=MN_94_RKT20_BH76_B97DBJ_631Gs
 ----------------------------------------------------------------------
 #P Opt(TS,MaxCyc=50,NoEigenTest,MaxStep=10,AddRedundant) B97D3/6-31G* 
 5D 7F Integral=UltraFineGrid SCF=(NoSymm,XQC,MaxCyc=120) IOp(1/33=1)
 ----------------------------------------------------------------------
 1/5=1,6=50,8=10,11=1,18=120,26=4,33=1,38=1/1,3;
 2/9=110,12=2,17=6,18=5,40=1/2;
 3/5=1,6=6,7=1,8=11,11=2,25=1,30=1,71=1,74=-59,75=-5/1,2,3;
 4/9=2/1;
 5/5=2,7=120,8=3,13=1,38=5/2,8;
 6/7=2,8=2,9=2,10=2,28=1/1;
 7//1,2,3,16;
 1/5=1,6=50,8=10,11=1,18=20,26=4,33=1/3(2);
 2/9=110/2;
 99//99;
 2/9=110/2;
 3/5=1,6=6,7=1,8=11,11=2,25=1,30=1,71=1,74=-59,75=-5/1,2,3;
 4/5=5,9=2,16=3,69=1/1;
 5/5=2,7=120,8=3,13=1,38=5/2,8;
 7//1,2,3,16;
 1/5=1,6=50,8=10,11=1,18=20,26=4,33=1/3(-5);
 2/9=110/2;
 6/7=2,8=2,9=2,10=2,19=2,28=1/1;
 99/9=1/99;
 Leave Link    1 at Sat Oct 10 18:58:43 2020, MaxMem=  2684354560 cpu:               2.9 elap:               0.3
 (Enter /udrive/faculty/rpeverati/g16/g16/l101.exe)
 ONIOM results not found on unit 2.
 ------------------
 TS search on BH76.
 ------------------
 TstMul:  ICh=     0
 TstMul:  Mul=     2
 TstMul:  ICh=     0
 TstMul:  Mul=     2
 Symbolic Z-matrix:
 Charge =  0 Multiplicity = 2
 C                    -1.4857   -0.44816  -0.00002 
 C                    -0.50504   0.70174   0.00003 
 N                     1.86516  -0.34017  -0.00006 
 H                    -1.35419  -1.07651  -0.8805 
 H                    -1.35416  -1.07661   0.88039 
 H                    -2.51703  -0.08617   0.00003 
 H                    -0.52222   1.31612  -0.89722 
 H                    -0.52221   1.31603   0.89734 
 H                     0.66505   0.14796  -0.00003 
 H                     2.24664   0.15972  -0.8048 
 H                     2.24644   0.15913   0.80515 
 
 RdStrC is calling ZToCFu for IStruc=1 NZ=    11.
 PrtBox:  NBox=     2 Levels=  1 BoxLen=    8.00 SMaxX=        9.00
          Shift=            4.756490            2.034500            1.695500
 Box      1 Number                   0 centers from      1 to      8:
 Box      2 Number                   4 centers from      9 to     11:
 After GenITR:
 ITRead=  0  0  0  0  0  0  0  0  0  0  0
 MicOpt= -1 -1 -1 -1 -1 -1 -1 -1 -1 -1 -1
 Add virtual bond connecting atoms H9         and N3         Dist= 2.45D+00.
 The following ModRedundant input section has been read:
 B       2       9 D                                                           
 B       3       9 D                                                           
 
 ITRead=  0  0  0  0  0  0  0  0  0  0  0
 MicOpt= -1 -1 -1 -1 -1 -1 -1 -1 -1 -1 -1
 NAtoms=     11 NQM=       11 NQMF=       0 NMMI=      0 NMMIF=      0
                NMic=       0 NMicF=      0.
                    Isotopes and Nuclear Properties:
 (Nuclear quadrupole moments (NQMom) in fm**2, nuclear magnetic moments (NMagM)
  in nuclear magnetons)

  Atom         1           2           3           4           5           6           7           8           9          10
 IAtWgt=          12          12          14           1           1           1           1           1           1           1
 AtmWgt=  12.0000000  12.0000000  14.0030740   1.0078250   1.0078250   1.0078250   1.0078250   1.0078250   1.0078250   1.0078250
 NucSpn=           0           0           2           1           1           1           1           1           1           1
 AtZEff=   0.0000000   0.0000000   0.0000000   0.0000000   0.0000000   0.0000000   0.0000000   0.0000000   0.0000000   0.0000000
 NQMom=    0.0000000   0.0000000   2.0440000   0.0000000   0.0000000   0.0000000   0.0000000   0.0000000   0.0000000   0.0000000
 NMagM=    0.0000000   0.0000000   0.4037610   2.7928460   2.7928460   2.7928460   2.7928460   2.7928460   2.7928460   2.7928460
 AtZNuc=   6.0000000   6.0000000   7.0000000   1.0000000   1.0000000   1.0000000   1.0000000   1.0000000   1.0000000   1.0000000

  Atom        11
 IAtWgt=           1
 AtmWgt=   1.0078250
 NucSpn=           1
 AtZEff=   0.0000000
 NQMom=    0.0000000
 NMagM=    2.7928460
 AtZNuc=   1.0000000
 No MM parameters found.
 Leave Link  101 at Sat Oct 10 18:58:43 2020, MaxMem=  2684354560 cpu:               5.2 elap:               0.5
 (Enter /udrive/faculty/rpeverati/g16/g16/l103.exe)

 GradGradGradGradGradGradGradGradGradGradGradGradGradGradGradGradGradGrad
 Berny optimization.
 Optmz: redundant internal coordinate code flag= 1
 Initialization pass.
                           ----------------------------
                           !    Initial Parameters    !
                           ! (Angstroms and Degrees)  !
 --------------------------                            --------------------------
 ! Name  Definition              Value          Derivative Info.                !
 --------------------------------------------------------------------------------
 ! R1    R(1,2)                  1.5113         estimate D2E/DX2                !
 ! R2    R(1,4)                  1.0897         estimate D2E/DX2                !
 ! R3    R(1,5)                  1.0897         estimate D2E/DX2                !
 ! R4    R(1,6)                  1.093          estimate D2E/DX2                !
 ! R5    R(2,7)                  1.0876         estimate D2E/DX2                !
 ! R6    R(2,8)                  1.0876         estimate D2E/DX2                !
 ! R7    R(2,9)                  1.2945         calc D2E/DXDY, step=    0.0026  !
 ! R8    R(3,9)                  1.2956         calc D2E/DXDY, step=    0.0026  !
 ! R9    R(3,10)                 1.0213         estimate D2E/DX2                !
 ! R10   R(3,11)                 1.0213         estimate D2E/DX2                !
 ! A1    A(2,1,4)              111.1289         estimate D2E/DX2                !
 ! A2    A(2,1,5)              111.1291         estimate D2E/DX2                !
 ! A3    A(2,1,6)              111.1178         estimate D2E/DX2                !
 ! A4    A(4,1,5)              107.8011         estimate D2E/DX2                !
 ! A5    A(4,1,6)              107.7512         estimate D2E/DX2                !
 ! A6    A(5,1,6)              107.7509         estimate D2E/DX2                !
 ! A7    A(1,2,7)              114.806          estimate D2E/DX2                !
 ! A8    A(1,2,8)              114.8063         estimate D2E/DX2                !
 ! A9    A(1,2,9)              105.1311         estimate D2E/DX2                !
 ! A10   A(7,2,8)              111.1832         estimate D2E/DX2                !
 ! A11   A(7,2,9)              104.8269         estimate D2E/DX2                !
 ! A12   A(8,2,9)              104.8288         estimate D2E/DX2                !
 ! A13   A(9,3,10)              99.3002         estimate D2E/DX2                !
 ! A14   A(9,3,11)              99.3005         estimate D2E/DX2                !
 ! A15   A(10,3,11)            104.0346         estimate D2E/DX2                !
 ! A16   L(2,9,3,5,-1)         182.9059         estimate D2E/DX2                !
 ! A17   L(2,9,3,5,-2)         181.5726         estimate D2E/DX2                !
 ! D1    D(4,1,2,7)             54.623          estimate D2E/DX2                !
 ! D2    D(4,1,2,8)           -174.6717         estimate D2E/DX2                !
 ! D3    D(4,1,2,9)            -60.0232         estimate D2E/DX2                !
 ! D4    D(5,1,2,7)            174.6701         estimate D2E/DX2                !
 ! D5    D(5,1,2,8)            -54.6247         estimate D2E/DX2                !
 ! D6    D(5,1,2,9)             60.0239         estimate D2E/DX2                !
 ! D7    D(6,1,2,7)            -65.3536         estimate D2E/DX2                !
 ! D8    D(6,1,2,8)             65.3516         estimate D2E/DX2                !
 ! D9    D(6,1,2,9)           -179.9998         estimate D2E/DX2                !
 ! D10   D(1,2,3,10)           127.2114         estimate D2E/DX2                !
 ! D11   D(1,2,3,11)          -127.1723         estimate D2E/DX2                !
 ! D12   D(7,2,3,10)             5.451          estimate D2E/DX2                !
 ! D13   D(7,2,3,11)           111.0674         estimate D2E/DX2                !
 ! D14   D(8,2,3,10)          -111.0278         estimate D2E/DX2                !
 ! D15   D(8,2,3,11)            -5.4114         estimate D2E/DX2                !
 --------------------------------------------------------------------------------
 Maximum allowed force set to 1.00D+20.
 Trust Radius=1.00D-01 FncErr=1.00D-07 GrdErr=1.00D-06 EigMax=2.50D+02 EigMin=1.00D-04
 Number of steps in this run=     50 maximum allowed number of steps=    100.
 Search for a saddle point of order  1.
 GradGradGradGradGradGradGradGradGradGradGradGradGradGradGradGradGradGrad

 Leave Link  103 at Sat Oct 10 18:58:43 2020, MaxMem=  2684354560 cpu:               0.2 elap:               0.1
 (Enter /udrive/faculty/rpeverati/g16/g16/l202.exe)
                          Input orientation:                          
 ---------------------------------------------------------------------
 Center     Atomic      Atomic             Coordinates (Angstroms)
 Number     Number       Type             X           Y           Z
 ---------------------------------------------------------------------
      1          6           0       -1.485702   -0.448156   -0.000019
      2          6           0       -0.505042    0.701742    0.000029
      3          7           0        1.865159   -0.340167   -0.000057
      4          1           0       -1.354191   -1.076505   -0.880503
      5          1           0       -1.354159   -1.076611    0.880387
      6          1           0       -2.517026   -0.086173    0.000025
      7          1           0       -0.522224    1.316117   -0.897220
      8          1           0       -0.522205    1.316032    0.897336
      9          1           0        0.665049    0.147961   -0.000034
     10          1           0        2.246643    0.159717   -0.804804
     11          1           0        2.246442    0.159133    0.805154
 ---------------------------------------------------------------------
                    Distance matrix (angstroms):
                    1          2          3          4          5
     1  C    0.000000
     2  C    1.511277   0.000000
     3  N    3.352601   2.589098   0.000000
     4  H    1.089665   2.158368   3.417835   0.000000
     5  H    1.089667   2.158372   3.417827   1.760890   0.000000
     6  H    1.093006   2.160761   4.389540   1.763030   1.763027
     7  H    2.201344   1.087569   3.041016   2.533197   3.094697
     8  H    2.201348   1.087569   3.041023   3.094697   2.533214
     9  H    2.231834   1.294521   1.295583   2.520292   2.520301
    10  H    3.866211   2.917759   1.021290   3.807884   4.163431
    11  H    3.866006   2.917758   1.021294   4.163268   3.807499
                    6          7          8          9         10
     6  H    0.000000
     7  H    2.598211   0.000000
     8  H    2.598202   1.794556   0.000000
     9  H    3.190677   1.891863   1.891887   0.000000
    10  H    4.837433   3.002070   3.449763   1.774608   0.000000
    11  H    4.837255   3.449957   3.002053   1.774614   1.609958
                   11
    11  H    0.000000
 Stoichiometry    C2H8N(2)
 Framework group  C1[X(C2H8N)]
 Deg. of freedom    27
 Full point group                 C1      NOp   1
 Largest Abelian subgroup         C1      NOp   1
 Largest concise Abelian subgroup C1      NOp   1
                         Standard orientation:                         
 ---------------------------------------------------------------------
 Center     Atomic      Atomic             Coordinates (Angstroms)
 Number     Number       Type             X           Y           Z
 ---------------------------------------------------------------------
      1          6           0       -1.485701   -0.448157   -0.000019
      2          6           0       -0.505041    0.701741    0.000029
      3          7           0        1.865160   -0.340168   -0.000057
      4          1           0       -1.354190   -1.076506   -0.880503
      5          1           0       -1.354158   -1.076612    0.880387
      6          1           0       -2.517025   -0.086173    0.000025
      7          1           0       -0.522224    1.316116   -0.897220
      8          1           0       -0.522204    1.316031    0.897336
      9          1           0        0.665050    0.147961   -0.000034
     10          1           0        2.246644    0.159717   -0.804804
     11          1           0        2.246443    0.159132    0.805154
 ---------------------------------------------------------------------
 Rotational constants (GHZ):          24.9609656           4.8569038           4.3824954
 Leave Link  202 at Sat Oct 10 18:58:43 2020, MaxMem=  2684354560 cpu:               0.2 elap:               0.1
 (Enter /udrive/faculty/rpeverati/g16/g16/l301.exe)
 Standard basis: 6-31G(d) (5D, 7F)
 Ernie: Thresh=  0.10000D-02 Tol=  0.10000D-05 Strict=F.
 There are    61 symmetry adapted cartesian basis functions of A   symmetry.
 There are    58 symmetry adapted basis functions of A   symmetry.
    58 basis functions,   116 primitive gaussians,    61 cartesian basis functions
    14 alpha electrons       13 beta electrons
       nuclear repulsion energy        78.7849072939 Hartrees.
 IExCor= 3630 DFT=T Ex+Corr=B97D3 ExCW=0 ScaHFX=  0.000000
 ScaDFX=  1.000000  1.000000  1.000000  1.000000 ScalE2=  1.000000  1.000000
 IRadAn=      5 IRanWt=     -1 IRanGd=            0 ICorTp=0 IEmpDi=141
 NAtoms=   11 NActive=   11 NUniq=   11 SFac= 1.00D+00 NAtFMM=   60 NAOKFM=F Big=F
 Integral buffers will be    131072 words long.
 Raffenetti 2 integral format.
 Two-electron integral symmetry is turned on.
 R6Disp:  Grimme-D3(BJ) Dispersion energy=       -0.0163068835 Hartrees.
 Nuclear repulsion after empirical dispersion term =       78.7686004104 Hartrees.
 Leave Link  301 at Sat Oct 10 18:58:44 2020, MaxMem=  2684354560 cpu:               0.8 elap:               0.1
 (Enter /udrive/faculty/rpeverati/g16/g16/l302.exe)
 NPDir=0 NMtPBC=     1 NCelOv=     1 NCel=       1 NClECP=     1 NCelD=      1
         NCelK=      1 NCelE2=     1 NClLst=     1 CellRange=     0.0.
 One-electron integrals computed using PRISM.
 One-electron integral symmetry used in STVInt
 NBasis=    58 RedAO= T EigKep=  6.29D-03  NBF=    58
 NBsUse=    58 1.00D-06 EigRej= -1.00D+00 NBFU=    58
 Precomputing XC quadrature grid using
 IXCGrd= 4 IRadAn=           5 IRanWt=          -1 IRanGd=           0 AccXCQ= 0.00D+00.
 Generated NRdTot=       0 NPtTot=           0 NUsed=           0 NTot=          32
 NSgBfM=    61    61    61    61    61 MxSgAt=    11 MxSgA2=    11.
 Leave Link  302 at Sat Oct 10 18:58:44 2020, MaxMem=  2684354560 cpu:               2.9 elap:               0.3
 (Enter /udrive/faculty/rpeverati/g16/g16/l303.exe)
 DipDrv:  MaxL=1.
 Leave Link  303 at Sat Oct 10 18:58:44 2020, MaxMem=  2684354560 cpu:               0.4 elap:               0.1
 (Enter /udrive/faculty/rpeverati/g16/g16/l401.exe)
 SCF N**3 symmetry information disabled.
 ExpMin= 1.61D-01 ExpMax= 4.17D+03 ExpMxC= 6.27D+02 IAcc=3 IRadAn=         5 AccDes= 0.00D+00
 Harris functional with IExCor= 3630 and IRadAn=       5 diagonalized for initial guess.
 HarFok:  IExCor= 3630 AccDes= 0.00D+00 IRadAn=         5 IDoV= 1 UseB2=F ITyADJ=14
 ICtDFT=  3500011 ScaDFX=  1.000000  1.000000  1.000000  1.000000
 FoFCou: FMM=F IPFlag=           0 FMFlag=      100000 FMFlg1=           0
         NFxFlg=           0 DoJE=T BraDBF=F KetDBF=T FulRan=T
         wScrn=  0.000000 ICntrl=       500 IOpCl=  0 I1Cent=   200000004 NGrid=           0
         NMat0=    1 NMatS0=      1 NMatT0=    0 NMatD0=    1 NMtDS0=    0 NMtDT0=    0
 Petite list used in FoFCou.
 Harris En= -135.688384067141    
 JPrj=0 DoOrth=F DoCkMO=F.
 Initial guess <Sx>= 0.0000 <Sy>= 0.0000 <Sz>= 0.5000 <S**2>= 0.7500 S= 0.5000
 Leave Link  401 at Sat Oct 10 18:58:45 2020, MaxMem=  2684354560 cpu:               7.8 elap:               0.7
 (Enter /udrive/faculty/rpeverati/g16/g16/l502.exe)
 Keep J ints in memory in canonical form, NReq=12072039.
 FoFCou: FMM=F IPFlag=           0 FMFlag=           0 FMFlg1=           0
         NFxFlg=           0 DoJE=F BraDBF=F KetDBF=F FulRan=T
         wScrn=  0.000000 ICntrl=       600 IOpCl=  0 I1Cent=           0 NGrid=           0
         NMat0=    1 NMatS0=   1711 NMatT0=    0 NMatD0=    1 NMtDS0=    0 NMtDT0=    0
 Symmetry not used in FoFCou.
 Two-electron integral symmetry not used.
 UHF open shell SCF:
 Using DIIS extrapolation, IDIIS=  1040.
 NGot=  2684354560 LenX=  2682880805 LenY=  2682876643
 Requested convergence on RMS density matrix=1.00D-08 within 120 cycles.
 Requested convergence on MAX density matrix=1.00D-06.
 Requested convergence on             energy=1.00D-06.
 No special actions if energy rises.
 Integral accuracy reduced to 1.0D-05 until final iterations.

 Cycle   1  Pass 0  IDiag  1:
 E= -135.472710341973    
 DIIS: error= 5.46D-02 at cycle   1 NSaved=   1.
 NSaved= 1 IEnMin= 1 EnMin= -135.472710341973     IErMin= 1 ErrMin= 5.46D-02
 ErrMax= 5.46D-02  0.00D+00 EMaxC= 1.00D-01 BMatC= 4.81D-01 BMatP= 4.81D-01
 IDIUse=3 WtCom= 4.54D-01 WtEn= 5.46D-01
 Coeff-Com:  0.100D+01
 Coeff-En:   0.100D+01
 Coeff:      0.100D+01
 Gap=     0.159 Goal=   None    Shift=    0.000
 Gap=     0.108 Goal=   None    Shift=    0.000
 GapD=    0.108 DampG=1.000 DampE=0.500 DampFc=0.5000 IDamp=-1.
 Damping current iteration by 5.00D-01
 RMSDP=1.55D-02 MaxDP=1.74D-01              OVMax= 1.89D-01

 Cycle   2  Pass 0  IDiag  1:
 E= -135.519824077086     Delta-E=       -0.047113735113 Rises=F Damp=T
 DIIS: error= 1.27D-02 at cycle   2 NSaved=   2.
 NSaved= 2 IEnMin= 2 EnMin= -135.519824077086     IErMin= 2 ErrMin= 1.27D-02
 ErrMax= 1.27D-02  0.00D+00 EMaxC= 1.00D-01 BMatC= 2.96D-02 BMatP= 4.81D-01
 IDIUse=3 WtCom= 8.73D-01 WtEn= 1.27D-01
 Coeff-Com:  0.173D+00 0.827D+00
 Coeff-En:   0.279D+00 0.721D+00
 Coeff:      0.187D+00 0.813D+00
 Gap=     0.231 Goal=   None    Shift=    0.000
 Gap=     0.108 Goal=   None    Shift=    0.000
 RMSDP=2.57D-03 MaxDP=4.08D-02 DE=-4.71D-02 OVMax= 1.12D-01

 Cycle   3  Pass 0  IDiag  1:
 E= -135.603571698422     Delta-E=       -0.083747621336 Rises=F Damp=F
 DIIS: error= 5.13D-03 at cycle   3 NSaved=   3.
 NSaved= 3 IEnMin= 3 EnMin= -135.603571698422     IErMin= 3 ErrMin= 5.13D-03
 ErrMax= 5.13D-03  0.00D+00 EMaxC= 1.00D-01 BMatC= 4.30D-03 BMatP= 2.96D-02
 IDIUse=3 WtCom= 9.49D-01 WtEn= 5.13D-02
 Coeff-Com:  0.672D-01 0.310D+00 0.623D+00
 Coeff-En:   0.000D+00 0.000D+00 0.100D+01
 Coeff:      0.637D-01 0.294D+00 0.643D+00
 Gap=     0.238 Goal=   None    Shift=    0.000
 Gap=     0.101 Goal=   None    Shift=    0.000
 RMSDP=1.24D-03 MaxDP=1.79D-02 DE=-8.37D-02 OVMax= 4.67D-02

 Cycle   4  Pass 0  IDiag  1:
 E= -135.603399103448     Delta-E=        0.000172594975 Rises=F Damp=F
 DIIS: error= 6.21D-03 at cycle   4 NSaved=   4.
 NSaved= 4 IEnMin= 3 EnMin= -135.603571698422     IErMin= 3 ErrMin= 5.13D-03
 ErrMax= 6.21D-03  0.00D+00 EMaxC= 1.00D-01 BMatC= 5.17D-03 BMatP= 4.30D-03
 IDIUse=3 WtCom= 1.13D-01 WtEn= 8.87D-01
 Coeff-Com:  0.174D-01 0.596D-01 0.505D+00 0.418D+00
 Coeff-En:   0.000D+00 0.000D+00 0.525D+00 0.475D+00
 Coeff:      0.196D-02 0.672D-02 0.523D+00 0.468D+00
 Gap=     0.237 Goal=   None    Shift=    0.000
 Gap=     0.107 Goal=   None    Shift=    0.000
 RMSDP=7.53D-04 MaxDP=1.06D-02 DE= 1.73D-04 OVMax= 3.19D-02

 Cycle   5  Pass 0  IDiag  1:
 E= -135.604789131619     Delta-E=       -0.001390028171 Rises=F Damp=F
 DIIS: error= 9.08D-04 at cycle   5 NSaved=   5.
 NSaved= 5 IEnMin= 5 EnMin= -135.604789131619     IErMin= 5 ErrMin= 9.08D-04
 ErrMax= 9.08D-04  0.00D+00 EMaxC= 1.00D-01 BMatC= 1.37D-04 BMatP= 4.30D-03
 IDIUse=3 WtCom= 9.91D-01 WtEn= 9.08D-03
 Coeff-Com: -0.612D-02-0.187D-01 0.128D+00 0.184D+00 0.713D+00
 Coeff-En:   0.000D+00 0.000D+00 0.000D+00 0.000D+00 0.100D+01
 Coeff:     -0.606D-02-0.186D-01 0.126D+00 0.183D+00 0.716D+00
 Gap=     0.237 Goal=   None    Shift=    0.000
 Gap=     0.107 Goal=   None    Shift=    0.000
 RMSDP=1.27D-04 MaxDP=1.91D-03 DE=-1.39D-03 OVMax= 4.49D-03

 Cycle   6  Pass 0  IDiag  1:
 E= -135.604825799263     Delta-E=       -0.000036667644 Rises=F Damp=F
 DIIS: error= 1.15D-04 at cycle   6 NSaved=   6.
 NSaved= 6 IEnMin= 6 EnMin= -135.604825799263     IErMin= 6 ErrMin= 1.15D-04
 ErrMax= 1.15D-04  0.00D+00 EMaxC= 1.00D-01 BMatC= 3.82D-06 BMatP= 1.37D-04
 IDIUse=3 WtCom= 9.99D-01 WtEn= 1.15D-03
 Coeff-Com: -0.241D-02-0.758D-02-0.967D-02 0.787D-02 0.140D+00 0.872D+00
 Coeff-En:   0.000D+00 0.000D+00 0.000D+00 0.000D+00 0.000D+00 0.100D+01
 Coeff:     -0.241D-02-0.757D-02-0.966D-02 0.786D-02 0.139D+00 0.872D+00
 Gap=     0.237 Goal=   None    Shift=    0.000
 Gap=     0.107 Goal=   None    Shift=    0.000
 RMSDP=3.20D-05 MaxDP=2.80D-04 DE=-3.67D-05 OVMax= 8.32D-04

 Cycle   7  Pass 0  IDiag  1:
 E= -135.604827058978     Delta-E=       -0.000001259715 Rises=F Damp=F
 DIIS: error= 5.94D-05 at cycle   7 NSaved=   7.
 NSaved= 7 IEnMin= 7 EnMin= -135.604827058978     IErMin= 7 ErrMin= 5.94D-05
 ErrMax= 5.94D-05  0.00D+00 EMaxC= 1.00D-01 BMatC= 8.39D-07 BMatP= 3.82D-06
 IDIUse=1 WtCom= 1.00D+00 WtEn= 0.00D+00
 Coeff-Com: -0.207D-03-0.469D-03-0.190D-01-0.181D-01-0.346D-01 0.334D+00
 Coeff-Com:  0.738D+00
 Coeff:     -0.207D-03-0.469D-03-0.190D-01-0.181D-01-0.346D-01 0.334D+00
 Coeff:      0.738D+00
 Gap=     0.237 Goal=   None    Shift=    0.000
 Gap=     0.107 Goal=   None    Shift=    0.000
 RMSDP=1.12D-05 MaxDP=1.28D-04 DE=-1.26D-06 OVMax= 2.22D-04

 Cycle   8  Pass 0  IDiag  1:
 E= -135.604827287414     Delta-E=       -0.000000228436 Rises=F Damp=F
 DIIS: error= 2.69D-05 at cycle   8 NSaved=   8.
 NSaved= 8 IEnMin= 8 EnMin= -135.604827287414     IErMin= 8 ErrMin= 2.69D-05
 ErrMax= 2.69D-05  0.00D+00 EMaxC= 1.00D-01 BMatC= 1.22D-07 BMatP= 8.39D-07
 IDIUse=1 WtCom= 1.00D+00 WtEn= 0.00D+00
 Coeff-Com:  0.450D-04 0.264D-03-0.914D-02-0.100D-01-0.271D-01 0.121D+00
 Coeff-Com:  0.379D+00 0.545D+00
 Coeff:      0.450D-04 0.264D-03-0.914D-02-0.100D-01-0.271D-01 0.121D+00
 Coeff:      0.379D+00 0.545D+00
 Gap=     0.237 Goal=   None    Shift=    0.000
 Gap=     0.107 Goal=   None    Shift=    0.000
 RMSDP=3.02D-06 MaxDP=4.53D-05 DE=-2.28D-07 OVMax= 6.89D-05

 Initial convergence to 1.0D-05 achieved.  Increase integral accuracy.
 Cycle   9  Pass 1  IDiag  1:
 E= -135.604844786531     Delta-E=       -0.000017499117 Rises=F Damp=F
 DIIS: error= 5.26D-06 at cycle   1 NSaved=   1.
 NSaved= 1 IEnMin= 1 EnMin= -135.604844786531     IErMin= 1 ErrMin= 5.26D-06
 ErrMax= 5.26D-06  0.00D+00 EMaxC= 1.00D-01 BMatC= 7.00D-09 BMatP= 7.00D-09
 IDIUse=1 WtCom= 1.00D+00 WtEn= 0.00D+00
 Coeff-Com:  0.100D+01
 Coeff:      0.100D+01
 Gap=     0.237 Goal=   None    Shift=    0.000
 Gap=     0.107 Goal=   None    Shift=    0.000
 RMSDP=3.02D-06 MaxDP=4.53D-05 DE=-1.75D-05 OVMax= 2.81D-05

 Cycle  10  Pass 1  IDiag  1:
 E= -135.604844786417     Delta-E=        0.000000000114 Rises=F Damp=F
 DIIS: error= 6.23D-06 at cycle   2 NSaved=   2.
 NSaved= 2 IEnMin= 1 EnMin= -135.604844786531     IErMin= 1 ErrMin= 5.26D-06
 ErrMax= 6.23D-06  0.00D+00 EMaxC= 1.00D-01 BMatC= 9.02D-09 BMatP= 7.00D-09
 IDIUse=1 WtCom= 1.00D+00 WtEn= 0.00D+00
 Coeff-Com:  0.536D+00 0.464D+00
 Coeff:      0.536D+00 0.464D+00
 Gap=     0.237 Goal=   None    Shift=    0.000
 Gap=     0.107 Goal=   None    Shift=    0.000
 RMSDP=9.19D-07 MaxDP=1.21D-05 DE= 1.14D-10 OVMax= 2.23D-05

 Cycle  11  Pass 1  IDiag  1:
 E= -135.604844788563     Delta-E=       -0.000000002146 Rises=F Damp=F
 DIIS: error= 2.66D-06 at cycle   3 NSaved=   3.
 NSaved= 3 IEnMin= 3 EnMin= -135.604844788563     IErMin= 3 ErrMin= 2.66D-06
 ErrMax= 2.66D-06  0.00D+00 EMaxC= 1.00D-01 BMatC= 6.64D-10 BMatP= 7.00D-09
 IDIUse=1 WtCom= 1.00D+00 WtEn= 0.00D+00
 Coeff-Com:  0.127D+00 0.224D+00 0.648D+00
 Coeff:      0.127D+00 0.224D+00 0.648D+00
 Gap=     0.237 Goal=   None    Shift=    0.000
 Gap=     0.107 Goal=   None    Shift=    0.000
 RMSDP=4.01D-07 MaxDP=5.42D-06 DE=-2.15D-09 OVMax= 1.50D-05

 Cycle  12  Pass 1  IDiag  1:
 E= -135.604844788630     Delta-E=       -0.000000000067 Rises=F Damp=F
 DIIS: error= 1.71D-06 at cycle   4 NSaved=   4.
 NSaved= 4 IEnMin= 4 EnMin= -135.604844788630     IErMin= 4 ErrMin= 1.71D-06
 ErrMax= 1.71D-06  0.00D+00 EMaxC= 1.00D-01 BMatC= 4.32D-10 BMatP= 6.64D-10
 IDIUse=1 WtCom= 1.00D+00 WtEn= 0.00D+00
 Coeff-Com: -0.149D-01 0.740D-01 0.491D+00 0.450D+00
 Coeff:     -0.149D-01 0.740D-01 0.491D+00 0.450D+00
 Gap=     0.237 Goal=   None    Shift=    0.000
 Gap=     0.107 Goal=   None    Shift=    0.000
 RMSDP=2.04D-07 MaxDP=3.16D-06 DE=-6.70D-11 OVMax= 8.13D-06

 Cycle  13  Pass 1  IDiag  1:
 E= -135.604844788744     Delta-E=       -0.000000000114 Rises=F Damp=F
 DIIS: error= 2.30D-07 at cycle   5 NSaved=   5.
 NSaved= 5 IEnMin= 5 EnMin= -135.604844788744     IErMin= 5 ErrMin= 2.30D-07
 ErrMax= 2.30D-07  0.00D+00 EMaxC= 1.00D-01 BMatC= 1.15D-11 BMatP= 4.32D-10
 IDIUse=1 WtCom= 1.00D+00 WtEn= 0.00D+00
 Coeff-Com: -0.229D-01-0.204D-02 0.101D+00 0.178D+00 0.747D+00
 Coeff:     -0.229D-01-0.204D-02 0.101D+00 0.178D+00 0.747D+00
 Gap=     0.237 Goal=   None    Shift=    0.000
 Gap=     0.107 Goal=   None    Shift=    0.000
 RMSDP=4.14D-08 MaxDP=4.04D-07 DE=-1.14D-10 OVMax= 1.48D-06

 Cycle  14  Pass 1  IDiag  1:
 E= -135.604844788748     Delta-E=       -0.000000000004 Rises=F Damp=F
 DIIS: error= 5.09D-08 at cycle   6 NSaved=   6.
 NSaved= 6 IEnMin= 6 EnMin= -135.604844788748     IErMin= 6 ErrMin= 5.09D-08
 ErrMax= 5.09D-08  0.00D+00 EMaxC= 1.00D-01 BMatC= 7.07D-13 BMatP= 1.15D-11
 IDIUse=1 WtCom= 1.00D+00 WtEn= 0.00D+00
 Coeff-Com: -0.328D-02-0.107D-01-0.418D-01-0.214D-01 0.166D+00 0.911D+00
 Coeff:     -0.328D-02-0.107D-01-0.418D-01-0.214D-01 0.166D+00 0.911D+00
 Gap=     0.237 Goal=   None    Shift=    0.000
 Gap=     0.107 Goal=   None    Shift=    0.000
 RMSDP=1.24D-08 MaxDP=1.43D-07 DE=-3.64D-12 OVMax= 2.14D-07

 Cycle  15  Pass 1  IDiag  1:
 E= -135.604844788749     Delta-E=       -0.000000000001 Rises=F Damp=F
 DIIS: error= 1.56D-08 at cycle   7 NSaved=   7.
 NSaved= 7 IEnMin= 7 EnMin= -135.604844788749     IErMin= 7 ErrMin= 1.56D-08
 ErrMax= 1.56D-08  0.00D+00 EMaxC= 1.00D-01 BMatC= 6.01D-14 BMatP= 7.07D-13
 IDIUse=1 WtCom= 1.00D+00 WtEn= 0.00D+00
 Coeff-Com:  0.450D-03-0.343D-02-0.202D-01-0.190D-01 0.847D-02 0.311D+00
 Coeff-Com:  0.723D+00
 Coeff:      0.450D-03-0.343D-02-0.202D-01-0.190D-01 0.847D-02 0.311D+00
 Coeff:      0.723D+00
 Gap=     0.237 Goal=   None    Shift=    0.000
 Gap=     0.107 Goal=   None    Shift=    0.000
 RMSDP=3.08D-09 MaxDP=4.12D-08 DE=-5.68D-13 OVMax= 5.57D-08

 SCF Done:  E(UB97D3) =  -135.604844789     A.U. after   15 cycles
            NFock= 15  Conv=0.31D-08     -V/T= 2.0047
 <Sx>= 0.0000 <Sy>= 0.0000 <Sz>= 0.5000 <S**2>= 0.7552 S= 0.5026
 <L.S>= 0.000000000000E+00
 KE= 1.349723380963D+02 PE=-4.725684441790D+02 EE= 1.232226608836D+02
 Annihilation of the first spin contaminant:
 S**2 before annihilation     0.7552,   after     0.7500
 Leave Link  502 at Sat Oct 10 18:58:50 2020, MaxMem=  2684354560 cpu:              66.1 elap:               5.6
 (Enter /udrive/faculty/rpeverati/g16/g16/l508.exe)
 QCSCF skips out because SCF is already converged.
 Leave Link  508 at Sat Oct 10 18:58:50 2020, MaxMem=  2684354560 cpu:               0.0 elap:               0.0
 (Enter /udrive/faculty/rpeverati/g16/g16/l601.exe)
 Copying SCF densities to generalized density rwf, IOpCl= 1 IROHF=0.

 **********************************************************************

            Population analysis using the SCF density.

 **********************************************************************

 Orbital symmetries:
 Alpha Orbitals:
       Occupied  (A) (A) (A) (A) (A) (A) (A) (A) (A) (A) (A) (A)
                 (A) (A)
       Virtual   (A) (A) (A) (A) (A) (A) (A) (A) (A) (A) (A) (A)
                 (A) (A) (A) (A) (A) (A) (A) (A) (A) (A) (A) (A)
                 (A) (A) (A) (A) (A) (A) (A) (A) (A) (A) (A) (A)
                 (A) (A) (A) (A) (A) (A) (A) (A)
 Beta  Orbitals:
       Occupied  (A) (A) (A) (A) (A) (A) (A) (A) (A) (A) (A) (A)
                 (A)
       Virtual   (A) (A) (A) (A) (A) (A) (A) (A) (A) (A) (A) (A)
                 (A) (A) (A) (A) (A) (A) (A) (A) (A) (A) (A) (A)
                 (A) (A) (A) (A) (A) (A) (A) (A) (A) (A) (A) (A)
                 (A) (A) (A) (A) (A) (A) (A) (A) (A)
 The electronic state is 2-A.
 Alpha  occ. eigenvalues --  -13.98779  -9.90306  -9.89452  -0.76900  -0.68542
 Alpha  occ. eigenvalues --   -0.55524  -0.40851  -0.40413  -0.39215  -0.34001
 Alpha  occ. eigenvalues --   -0.32840  -0.30679  -0.23766  -0.16919
 Alpha virt. eigenvalues --    0.06758   0.10526   0.12834   0.13209   0.14685
 Alpha virt. eigenvalues --    0.15498   0.17520   0.20999   0.27731   0.46695
 Alpha virt. eigenvalues --    0.49207   0.52100   0.56612   0.57400   0.62505
 Alpha virt. eigenvalues --    0.68587   0.73789   0.74029   0.82703   0.83109
 Alpha virt. eigenvalues --    0.86023   0.86126   0.88375   0.89281   0.90874
 Alpha virt. eigenvalues --    0.95574   1.14558   1.35202   1.42454   1.46965
 Alpha virt. eigenvalues --    1.52840   1.60120   1.61581   1.74739   1.86954
 Alpha virt. eigenvalues --    1.87187   1.94708   2.04775   2.17024   2.23438
 Alpha virt. eigenvalues --    2.28104   2.30832   2.34461   2.52689
  Beta  occ. eigenvalues --  -13.98213  -9.90043  -9.89460  -0.73986  -0.67439
  Beta  occ. eigenvalues --   -0.54333  -0.39809  -0.38586  -0.38549  -0.32780
  Beta  occ. eigenvalues --   -0.32076  -0.30331  -0.21562
  Beta virt. eigenvalues --   -0.10830   0.07444   0.10816   0.13296   0.13774
  Beta virt. eigenvalues --    0.15114   0.15539   0.18002   0.21718   0.29404
  Beta virt. eigenvalues --    0.47176   0.49405   0.52653   0.57532   0.59348
  Beta virt. eigenvalues --    0.63385   0.71589   0.74215   0.74736   0.82914
  Beta virt. eigenvalues --    0.83699   0.86575   0.86947   0.89163   0.90727
  Beta virt. eigenvalues --    0.91863   0.95914   1.15475   1.36507   1.43970
  Beta virt. eigenvalues --    1.48807   1.54645   1.64311   1.64365   1.77803
  Beta virt. eigenvalues --    1.88262   1.88726   1.96521   2.07604   2.17877
  Beta virt. eigenvalues --    2.24109   2.28966   2.34514   2.35535   2.54150
          Condensed to atoms (all electrons):
               1          2          3          4          5          6
     1  C    5.028114   0.360415   0.002573   0.382492   0.382491   0.375201
     2  C    0.360415   5.369839  -0.118134  -0.034650  -0.034650  -0.034300
     3  N    0.002573  -0.118134   7.158782   0.001277   0.001277  -0.000047
     4  H    0.382492  -0.034650   0.001277   0.549104  -0.028481  -0.031802
     5  H    0.382491  -0.034650   0.001277  -0.028481   0.549113  -0.031803
     6  H    0.375201  -0.034300  -0.000047  -0.031802  -0.031803   0.566637
     7  H   -0.034412   0.364313   0.001317  -0.003558   0.004562  -0.002658
     8  H   -0.034413   0.364311   0.001316   0.004562  -0.003558  -0.002658
     9  H   -0.020739   0.198928   0.174185  -0.003538  -0.003538   0.002756
    10  H   -0.000007   0.012308   0.269952  -0.000022  -0.000033  -0.000005
    11  H   -0.000007   0.012308   0.269953  -0.000033  -0.000022  -0.000005
               7          8          9         10         11
     1  C   -0.034412  -0.034413  -0.020739  -0.000007  -0.000007
     2  C    0.364313   0.364311   0.198928   0.012308   0.012308
     3  N    0.001317   0.001316   0.174185   0.269952   0.269953
     4  H   -0.003558   0.004562  -0.003538  -0.000022  -0.000033
     5  H    0.004562  -0.003558  -0.003538  -0.000033  -0.000022
     6  H   -0.002658  -0.002658   0.002756  -0.000005  -0.000005
     7  H    0.559421  -0.032418  -0.014976  -0.000671  -0.000038
     8  H   -0.032418   0.559429  -0.014976  -0.000038  -0.000671
     9  H   -0.014976  -0.014976   0.463688  -0.028647  -0.028647
    10  H   -0.000671  -0.000038  -0.028647   0.483552  -0.027955
    11  H   -0.000038  -0.000671  -0.028647  -0.027955   0.483554
          Atomic-Atomic Spin Densities.
               1          2          3          4          5          6
     1  C   -0.003210  -0.037914   0.006578   0.004159   0.004159   0.005336
     2  C   -0.037914   0.685223  -0.125992  -0.005458  -0.005458  -0.007841
     3  N    0.006578  -0.125992   0.769944   0.000964   0.000964  -0.000306
     4  H    0.004159  -0.005458   0.000964   0.005869   0.001565  -0.004116
     5  H    0.004159  -0.005458   0.000964   0.001565   0.005871  -0.004117
     6  H    0.005336  -0.007841  -0.000306  -0.004116  -0.004117   0.038264
     7  H    0.004194  -0.015823   0.004504   0.000879   0.000172  -0.001682
     8  H    0.004193  -0.015820   0.004504   0.000172   0.000879  -0.001682
     9  H   -0.001538   0.035953  -0.041793  -0.000268  -0.000268   0.000095
    10  H   -0.000211   0.004785  -0.011324  -0.000047  -0.000018   0.000009
    11  H   -0.000211   0.004785  -0.011324  -0.000018  -0.000047   0.000009
               7          8          9         10         11
     1  C    0.004194   0.004193  -0.001538  -0.000211  -0.000211
     2  C   -0.015823  -0.015820   0.035953   0.004785   0.004785
     3  N    0.004504   0.004504  -0.041793  -0.011324  -0.011324
     4  H    0.000879   0.000172  -0.000268  -0.000047  -0.000018
     5  H    0.000172   0.000879  -0.000268  -0.000018  -0.000047
     6  H   -0.001682  -0.001682   0.000095   0.000009   0.000009
     7  H   -0.015010   0.004361   0.000205  -0.000312  -0.000155
     8  H    0.004361  -0.015013   0.000206  -0.000155  -0.000311
     9  H    0.000205   0.000206  -0.051821   0.003401   0.003401
    10  H   -0.000312  -0.000155   0.003401  -0.019739   0.003456
    11  H   -0.000155  -0.000311   0.003401   0.003456  -0.019739
 Mulliken charges and spin densities:
               1          2
     1  C   -0.441708  -0.014466
     2  C   -0.460689   0.516440
     3  N   -0.762450   0.596718
     4  H    0.164649   0.003702
     5  H    0.164643   0.003702
     6  H    0.158685   0.023970
     7  H    0.159119  -0.018665
     8  H    0.159115  -0.018666
     9  H    0.275505  -0.052426
    10  H    0.291566  -0.020154
    11  H    0.291564  -0.020154
 Sum of Mulliken charges =  -0.00000   1.00000
 Mulliken charges and spin densities with hydrogens summed into heavy atoms:
               1          2
     1  C    0.046269   0.016907
     2  C    0.133051   0.426683
     3  N   -0.179320   0.556410
 Electronic spatial extent (au):  <R**2>=            316.7045
 Charge=             -0.0000 electrons
 Dipole moment (field-independent basis, Debye):
    X=             -0.2316    Y=              1.7059    Z=              0.0006  Tot=              1.7216
 Quadrupole moment (field-independent basis, Debye-Ang):
   XX=            -20.2987   YY=            -23.1459   ZZ=            -19.8962
   XY=              3.4936   XZ=              0.0013   YZ=             -0.0009
 Traceless Quadrupole moment (field-independent basis, Debye-Ang):
   XX=              0.8149   YY=             -2.0323   ZZ=              1.2174
   XY=              3.4936   XZ=              0.0013   YZ=             -0.0009
 Octapole moment (field-independent basis, Debye-Ang**2):
  XXX=              7.3104  YYY=              1.5380  ZZZ=              0.0010  XYY=             -1.8086
  XXY=              6.7987  XXZ=              0.0022  XZZ=              3.7424  YZZ=              0.5280
  YYZ=              0.0002  XYZ=             -0.0019
 Hexadecapole moment (field-independent basis, Debye-Ang**3):
 XXXX=           -283.5828 YYYY=            -76.0698 ZZZZ=            -36.9386 XXXY=             13.1469
 XXXZ=              0.0037 YYYX=              3.8829 YYYZ=             -0.0013 ZZZX=              0.0025
 ZZZY=             -0.0006 XXYY=            -69.1645 XXZZ=            -50.6465 YYZZ=            -16.8430
 XXYZ=             -0.0042 YYXZ=              0.0004 ZZXY=              1.4802
 N-N= 7.876860041040D+01 E-N=-4.725684451593D+02  KE= 1.349723380963D+02
                          Isotropic Fermi Contact Couplings
        Atom                 a.u.       MegaHertz       Gauss      10(-4) cm-1
     1  C(13)             -0.00897     -10.08134      -3.59727      -3.36277
     2  C(13)              0.17179     193.12788      68.91283      64.42053
     3  N(14)              0.11360      36.70501      13.09726      12.24347
     4  H(1)               0.00224       9.99882       3.56783       3.33525
     5  H(1)               0.00224      10.00029       3.56835       3.33574
     6  H(1)               0.01534      68.54912      24.46003      22.86553
     7  H(1)              -0.00520     -23.23086      -8.28935      -7.74898
     8  H(1)              -0.00520     -23.23290      -8.29008      -7.74966
     9  H(1)              -0.01615     -72.20846     -25.76577     -24.08615
    10  H(1)              -0.00938     -41.90997     -14.95452     -13.97966
    11  H(1)              -0.00938     -41.91010     -14.95457     -13.97971
 --------------------------------------------------------
       Center         ----  Spin Dipole Couplings  ----
                      3XX-RR        3YY-RR        3ZZ-RR
 --------------------------------------------------------
     1   Atom        0.026209     -0.009718     -0.016490
     2   Atom        0.423904     -0.139722     -0.284182
     3   Atom        0.693837     -0.047437     -0.646400
     4   Atom        0.001167      0.002784     -0.003951
     5   Atom        0.001167      0.002786     -0.003953
     6   Atom        0.009653     -0.002140     -0.007513
     7   Atom       -0.010524     -0.006841      0.017365
     8   Atom       -0.010524     -0.006848      0.017372
     9   Atom        0.176283     -0.065145     -0.111139
    10   Atom       -0.008009     -0.021550      0.029559
    11   Atom       -0.008033     -0.021629      0.029661
 --------------------------------------------------------
                        XY            XZ            YZ
 --------------------------------------------------------
     1   Atom        0.007272     -0.000000      0.000000
     2   Atom       -0.323468     -0.000020      0.000009
     3   Atom       -0.899878     -0.000159      0.000105
     4   Atom        0.006118      0.004374      0.006052
     5   Atom        0.006118     -0.004374     -0.006051
     6   Atom        0.001484     -0.000000      0.000000
     7   Atom       -0.013312      0.000368     -0.036660
     8   Atom       -0.013311     -0.000369      0.036658
     9   Atom       -0.114735     -0.000006      0.000003
    10   Atom        0.004226     -0.046785     -0.053898
    11   Atom        0.004179      0.046778      0.053861
 --------------------------------------------------------


 ---------------------------------------------------------------------------------
              Anisotropic Spin Dipole Couplings in Principal Axis System
 ---------------------------------------------------------------------------------

       Atom             a.u.   MegaHertz   Gauss  10(-4) cm-1        Axes

              Baa    -0.0165    -2.213    -0.790    -0.738  0.0000 -0.0000  1.0000
     1 C(13)  Bbb    -0.0111    -1.494    -0.533    -0.498 -0.1911  0.9816  0.0000
              Bcc     0.0276     3.707     1.323     1.237  0.9816  0.1911 -0.0000
 
              Baa    -0.2869   -38.502   -13.738   -12.843  0.4142  0.9102  0.0000
     2 C(13)  Bbb    -0.2842   -38.134   -13.607   -12.720  0.0000 -0.0000  1.0000
              Bcc     0.5711    76.636    27.346    25.563  0.9102 -0.4142 -0.0000
 
              Baa    -0.6500   -25.070    -8.945    -8.362  0.5564  0.8309  0.0003
     3 N(14)  Bbb    -0.6464   -24.930    -8.896    -8.316 -0.0001 -0.0003  1.0000
              Bcc     1.2964    50.000    17.841    16.678  0.8309 -0.5564 -0.0001
 
              Baa    -0.0076    -4.057    -1.448    -1.353 -0.1394 -0.4359  0.8891
     4 H(1)   Bbb    -0.0041    -2.179    -0.777    -0.727  0.8020 -0.5763 -0.1568
              Bcc     0.0117     6.236     2.225     2.080  0.5808  0.6913  0.4299
 
              Baa    -0.0076    -4.057    -1.448    -1.353  0.1394  0.4358  0.8892
     5 H(1)   Bbb    -0.0041    -2.179    -0.777    -0.727  0.8021 -0.5763  0.1567
              Bcc     0.0117     6.236     2.225     2.080  0.5807  0.6913 -0.4299
 
              Baa    -0.0075    -4.009    -1.430    -1.337  0.0000 -0.0001  1.0000
     6 H(1)   Bbb    -0.0023    -1.240    -0.442    -0.414 -0.1230  0.9924  0.0001
              Bcc     0.0098     5.249     1.873     1.751  0.9924  0.1230 -0.0000
 
              Baa    -0.0376   -20.061    -7.158    -6.692  0.3731  0.7730  0.5131
     7 H(1)   Bbb    -0.0075    -3.991    -1.424    -1.331  0.9159 -0.2188 -0.3364
              Bcc     0.0451    24.052     8.582     8.023  0.1478 -0.5955  0.7897
 
              Baa    -0.0376   -20.061    -7.158    -6.692  0.3731  0.7731 -0.5130
     8 H(1)   Bbb    -0.0075    -3.991    -1.424    -1.331  0.9160 -0.2188  0.3364
              Bcc     0.0451    24.052     8.582     8.023 -0.1478  0.5954  0.7897
 
              Baa    -0.1111   -59.298   -21.159   -19.780 -0.0011 -0.0029  1.0000
     9 H(1)   Bbb    -0.1110   -59.209   -21.127   -19.750  0.3709  0.9287  0.0031
              Bcc     0.2221   118.508    42.286    39.530  0.9287 -0.3709 -0.0000
 
              Baa    -0.0660   -35.202   -12.561   -11.742  0.4299  0.6799  0.5941
    10 H(1)   Bbb    -0.0175    -9.333    -3.330    -3.113  0.7953 -0.5967  0.1073
              Bcc     0.0835    44.534    15.891    14.855 -0.4274 -0.4263  0.7972
 
              Baa    -0.0660   -35.201   -12.561   -11.742  0.4301  0.6803 -0.5935
    11 H(1)   Bbb    -0.0175    -9.333    -3.330    -3.113  0.7953 -0.5966 -0.1075
              Bcc     0.0835    44.534    15.891    14.855  0.4272  0.4258  0.7976
 

 ---------------------------------------------------------------------------------

 No NMR shielding tensors so no spin-rotation constants.
 Leave Link  601 at Sat Oct 10 18:58:51 2020, MaxMem=  2684354560 cpu:               4.9 elap:               0.5
 (Enter /udrive/faculty/rpeverati/g16/g16/l701.exe)
 ... and contract with generalized density number  0.
 Compute integral first derivatives.
 R6Disp: Adding Grimme-D3(BJ) dispersion energy 1st derivatives to the gradient.
 Leave Link  701 at Sat Oct 10 18:58:51 2020, MaxMem=  2684354560 cpu:               2.7 elap:               0.3
 (Enter /udrive/faculty/rpeverati/g16/g16/l702.exe)
 L702 exits ... SP integral derivatives will be done elsewhere.
 Leave Link  702 at Sat Oct 10 18:58:51 2020, MaxMem=  2684354560 cpu:               0.3 elap:               0.1
 (Enter /udrive/faculty/rpeverati/g16/g16/l703.exe)
 Integral derivatives from FoFJK, PRISM(SPDF).
 Compute integral first derivatives, UseDBF=F ICtDFT=           0.
 Calling FoFJK, ICntrl=      2527 FMM=F ISym2X=0 I1Cent= 0 IOpClX= 0 NMat=1 NMatS=1 NMatT=0.
 FoFJK:  IHMeth= 1 ICntrl=    2527 DoSepK=F KAlg= 0 I1Cent=           0 FoldK=F
 IRaf=         0 NMat=       1 IRICut=       1 DoRegI=T DoRafI=F ISym2E= 0 IDoP0=0 IntGTp=1.
 FoFCou: FMM=F IPFlag=           0 FMFlag=      100000 FMFlg1=         800
         NFxFlg=           0 DoJE=F BraDBF=F KetDBF=F FulRan=T
         wScrn=  0.000000 ICntrl=      2527 IOpCl=  0 I1Cent=           0 NGrid=           0
         NMat0=    1 NMatS0=      1 NMatT0=    0 NMatD0=    1 NMtDS0=    0 NMtDT0=    0
 Symmetry not used in FoFCou.
 Leave Link  703 at Sat Oct 10 18:58:53 2020, MaxMem=  2684354560 cpu:              18.2 elap:               1.6
 (Enter /udrive/faculty/rpeverati/g16/g16/l716.exe)
 Dipole        =-9.11125219D-02 6.71168599D-01 2.51972255D-04
 ***** Axes restored to original set *****
 -------------------------------------------------------------------
 Center     Atomic                   Forces (Hartrees/Bohr)
 Number     Number              X              Y              Z
 -------------------------------------------------------------------
      1        6           0.004285265    0.003355760    0.000000882
      2        6          -0.001876276   -0.002233067    0.000000500
      3        7          -0.006035974   -0.011089200   -0.000002149
      4        1           0.000534683   -0.003873611   -0.005350231
      5        1           0.000534889   -0.003873852    0.005349287
      6        1          -0.006964269    0.002204309    0.000000062
      7        1          -0.000346849    0.004068094   -0.005575793
      8        1          -0.000346839    0.004067314    0.005576144
      9        1          -0.000742113   -0.003966646   -0.000001410
     10        1           0.005480341    0.005673644   -0.006508805
     11        1           0.005477143    0.005667255    0.006511512
 -------------------------------------------------------------------
 Cartesian Forces:  Max     0.011089200 RMS     0.004470865
 Leave Link  716 at Sat Oct 10 18:58:53 2020, MaxMem=  2684354560 cpu:               0.4 elap:               0.1
 (Enter /udrive/faculty/rpeverati/g16/g16/l103.exe)

 GradGradGradGradGradGradGradGradGradGradGradGradGradGradGradGradGradGrad
 Berny optimization.
 Optmz: redundant internal coordinate code flag= 1
 FormGI is forming the generalized inverse of G from B-inverse, IUseBI=4.
 Internal  Forces:  Max     0.009952724 RMS     0.003496494
 Numerically estimating second derivatives.
 Iteration  1 RMS(Cart)=  0.00116150 RMS(Int)=  0.00000168
 Iteration  2 RMS(Cart)=  0.00000019 RMS(Int)=  0.00000167
 Largest change from initial coordinates is atom    3       0.002 Angstoms.
 GradGradGradGradGradGradGradGradGradGradGradGradGradGradGradGradGradGrad

 Leave Link  103 at Sat Oct 10 18:58:53 2020, MaxMem=  2684354560 cpu:               0.4 elap:               0.1
 (Enter /udrive/faculty/rpeverati/g16/g16/l202.exe)
                          Input orientation:                          
 ---------------------------------------------------------------------
 Center     Atomic      Atomic             Coordinates (Angstroms)
 Number     Number       Type             X           Y           Z
 ---------------------------------------------------------------------
      1          6           0       -1.486447   -0.448077   -0.000019
      2          6           0       -0.506065    0.702059    0.000030
      3          7           0        1.866779   -0.340410   -0.000059
      4          1           0       -1.354780   -1.076396   -0.880502
      5          1           0       -1.354755   -1.076498    0.880389
      6          1           0       -2.517858   -0.086344    0.000020
      7          1           0       -0.523390    1.316430   -0.897218
      8          1           0       -0.523380    1.316348    0.897336
      9          1           0        0.666552    0.147432   -0.000026
     10          1           0        2.248138    0.159568   -0.804808
     11          1           0        2.247948    0.158977    0.805152
 ---------------------------------------------------------------------
                    Distance matrix (angstroms):
                    1          2          3          4          5
     1  C    0.000000
     2  C    1.511277   0.000000
     3  N    3.354954   2.591743   0.000000
     4  H    1.089665   2.158368   3.419839   0.000000
     5  H    1.089667   2.158372   3.419839   1.760890   0.000000
     6  H    1.093006   2.160761   4.391992   1.763030   1.763027
     7  H    2.201347   1.087569   3.043505   2.533200   3.094698
     8  H    2.201349   1.087569   3.043522   3.094698   2.533216
     9  H    2.233838   1.297167   1.295583   2.521661   2.521670
    10  H    3.868338   2.920222   1.021290   3.809771   4.165164
    11  H    3.868141   2.920231   1.021294   4.164999   3.809400
                    6          7          8          9         10
     6  H    0.000000
     7  H    2.598213   0.000000
     8  H    2.598204   1.794554   0.000000
     9  H    3.192980   1.894063   1.894086   0.000000
    10  H    4.839726   3.004703   3.452064   1.774609   0.000000
    11  H    4.839559   3.452257   3.004707   1.774615   1.609960
                   11
    11  H    0.000000
 Stoichiometry    C2H8N(2)
 Framework group  C1[X(C2H8N)]
 Deg. of freedom    27
 Full point group                 C1      NOp   1
 RotChk:  IX=0 Diff= 3.79D-04
 Largest Abelian subgroup         C1      NOp   1
 Largest concise Abelian subgroup C1      NOp   1
                         Standard orientation:                         
 ---------------------------------------------------------------------
 Center     Atomic      Atomic             Coordinates (Angstroms)
 Number     Number       Type             X           Y           Z
 ---------------------------------------------------------------------
      1          6           0       -1.486358   -0.448496   -0.000019
      2          6           0       -0.506285    0.701903    0.000031
      3          7           0        1.866839   -0.339929   -0.000059
      4          1           0       -1.354523   -1.076779   -0.880501
      5          1           0       -1.354498   -1.076882    0.880389
      6          1           0       -2.517867   -0.087039    0.000020
      7          1           0       -0.523775    1.316270   -0.897218
      8          1           0       -0.523765    1.316187    0.897336
      9          1           0        0.666481    0.147591   -0.000026
     10          1           0        2.248064    0.160151   -0.804808
     11          1           0        2.247873    0.159560    0.805152
 ---------------------------------------------------------------------
 Rotational constants (GHZ):          24.9530098           4.8498919           4.3765408
 Leave Link  202 at Sat Oct 10 18:58:53 2020, MaxMem=  2684354560 cpu:               0.2 elap:               0.1
 (Enter /udrive/faculty/rpeverati/g16/g16/l301.exe)
 Standard basis: 6-31G(d) (5D, 7F)
 Ernie: Thresh=  0.10000D-02 Tol=  0.10000D-05 Strict=F.
 There are    61 symmetry adapted cartesian basis functions of A   symmetry.
 There are    58 symmetry adapted basis functions of A   symmetry.
    58 basis functions,   116 primitive gaussians,    61 cartesian basis functions
    14 alpha electrons       13 beta electrons
       nuclear repulsion energy        78.7568701604 Hartrees.
 IExCor= 3630 DFT=T Ex+Corr=B97D3 ExCW=0 ScaHFX=  0.000000
 ScaDFX=  1.000000  1.000000  1.000000  1.000000 ScalE2=  1.000000  1.000000
 IRadAn=      5 IRanWt=     -1 IRanGd=            0 ICorTp=0 IEmpDi=141
 NAtoms=   11 NActive=   11 NUniq=   11 SFac= 1.00D+00 NAtFMM=   60 NAOKFM=F Big=F
 Integral buffers will be    131072 words long.
 Raffenetti 2 integral format.
 Two-electron integral symmetry is turned on.
 R6Disp:  Grimme-D3(BJ) Dispersion energy=       -0.0162990979 Hartrees.
 Nuclear repulsion after empirical dispersion term =       78.7405710625 Hartrees.
 Leave Link  301 at Sat Oct 10 18:58:53 2020, MaxMem=  2684354560 cpu:               0.8 elap:               0.1
 (Enter /udrive/faculty/rpeverati/g16/g16/l302.exe)
 NPDir=0 NMtPBC=     1 NCelOv=     1 NCel=       1 NClECP=     1 NCelD=      1
         NCelK=      1 NCelE2=     1 NClLst=     1 CellRange=     0.0.
 One-electron integrals computed using PRISM.
 One-electron integral symmetry used in STVInt
 NBasis=    58 RedAO= T EigKep=  6.32D-03  NBF=    58
 NBsUse=    58 1.00D-06 EigRej= -1.00D+00 NBFU=    58
 Precomputing XC quadrature grid using
 IXCGrd= 4 IRadAn=           5 IRanWt=          -1 IRanGd=           0 AccXCQ= 0.00D+00.
 Generated NRdTot=       0 NPtTot=           0 NUsed=           0 NTot=          32
 NSgBfM=    61    61    61    61    61 MxSgAt=    11 MxSgA2=    11.
 Leave Link  302 at Sat Oct 10 18:58:54 2020, MaxMem=  2684354560 cpu:               2.9 elap:               0.3
 (Enter /udrive/faculty/rpeverati/g16/g16/l303.exe)
 DipDrv:  MaxL=1.
 Leave Link  303 at Sat Oct 10 18:58:54 2020, MaxMem=  2684354560 cpu:               0.4 elap:               0.1
 (Enter /udrive/faculty/rpeverati/g16/g16/l401.exe)
 Initial guess from the checkpoint file:  "MN_94_RKT20_BH76_B97DBJ_631Gs.chk"
 SCF N**3 symmetry information disabled.
 B after Tr=     0.000000   -0.000000   -0.000000
         Rot=    1.000000   -0.000000   -0.000000   -0.000142 Ang=  -0.02 deg.
 Guess basis will be translated and rotated to current coordinates.
 JPrj=2 DoOrth=T DoCkMO=T.
 Initial guess <Sx>= 0.0000 <Sy>= 0.0000 <Sz>= 0.5000 <S**2>= 0.7552 S= 0.5026
 Generating alternative initial guess.
 ExpMin= 1.61D-01 ExpMax= 4.17D+03 ExpMxC= 6.27D+02 IAcc=2 IRadAn=         4 AccDes= 0.00D+00
 Harris functional with IExCor= 3630 and IRadAn=       4 diagonalized for initial guess.
 HarFok:  IExCor= 3630 AccDes= 0.00D+00 IRadAn=         4 IDoV= 1 UseB2=F ITyADJ=14
 ICtDFT=  3500011 ScaDFX=  1.000000  1.000000  1.000000  1.000000
 FoFCou: FMM=F IPFlag=           0 FMFlag=      100000 FMFlg1=           0
         NFxFlg=           0 DoJE=T BraDBF=F KetDBF=T FulRan=T
         wScrn=  0.000000 ICntrl=       500 IOpCl=  0 I1Cent=   200000004 NGrid=           0
         NMat0=    1 NMatS0=      1 NMatT0=    0 NMatD0=    1 NMtDS0=    0 NMtDT0=    0
 Petite list used in FoFCou.
 Harris En= -135.687363950426    
 Leave Link  401 at Sat Oct 10 18:58:54 2020, MaxMem=  2684354560 cpu:               6.3 elap:               0.6
 (Enter /udrive/faculty/rpeverati/g16/g16/l502.exe)
 Keep J ints in memory in canonical form, NReq=12072039.
 FoFCou: FMM=F IPFlag=           0 FMFlag=           0 FMFlg1=           0
         NFxFlg=           0 DoJE=F BraDBF=F KetDBF=F FulRan=T
         wScrn=  0.000000 ICntrl=       600 IOpCl=  0 I1Cent=           0 NGrid=           0
         NMat0=    1 NMatS0=   1711 NMatT0=    0 NMatD0=    1 NMtDS0=    0 NMtDT0=    0
 Symmetry not used in FoFCou.
 Two-electron integral symmetry not used.
 UHF open shell SCF:
 Using DIIS extrapolation, IDIIS=  1040.
 NGot=  2684354560 LenX=  2682880805 LenY=  2682876643
 Requested convergence on RMS density matrix=1.00D-08 within 120 cycles.
 Requested convergence on MAX density matrix=1.00D-06.
 Requested convergence on             energy=1.00D-06.
 No special actions if energy rises.
 Integral accuracy reduced to 1.0D-05 until final iterations.

 Cycle   1  Pass 0  IDiag  1:
 E= -135.604851866061    
 DIIS: error= 7.35D-05 at cycle   1 NSaved=   1.
 NSaved= 1 IEnMin= 1 EnMin= -135.604851866061     IErMin= 1 ErrMin= 7.35D-05
 ErrMax= 7.35D-05  0.00D+00 EMaxC= 1.00D-01 BMatC= 2.37D-06 BMatP= 2.37D-06
 IDIUse=1 WtCom= 1.00D+00 WtEn= 0.00D+00
 Coeff-Com:  0.100D+01
 Coeff:      0.100D+01
 Gap=     0.449 Goal=   None    Shift=    0.000
 Gap=     0.512 Goal=   None    Shift=    0.000
 RMSDP=3.63D-05 MaxDP=4.87D-04              OVMax= 1.26D-03

 Cycle   2  Pass 0  IDiag  1:
 E= -135.604852178570     Delta-E=       -0.000000312509 Rises=F Damp=F
 DIIS: error= 1.33D-04 at cycle   2 NSaved=   2.
 NSaved= 2 IEnMin= 2 EnMin= -135.604852178570     IErMin= 1 ErrMin= 7.35D-05
 ErrMax= 1.33D-04  0.00D+00 EMaxC= 1.00D-01 BMatC= 3.13D-06 BMatP= 2.37D-06
 IDIUse=3 WtCom= 4.65D-01 WtEn= 5.35D-01
 Coeff-Com:  0.550D+00 0.450D+00
 Coeff-En:   0.373D+00 0.627D+00
 Coeff:      0.455D+00 0.545D+00
 Gap=     0.237 Goal=   None    Shift=    0.000
 Gap=     0.107 Goal=   None    Shift=    0.000
 RMSDP=3.08D-05 MaxDP=4.34D-04 DE=-3.13D-07 OVMax= 1.25D-03

 Cycle   3  Pass 0  IDiag  1:
 E= -135.604852424710     Delta-E=       -0.000000246141 Rises=F Damp=F
 DIIS: error= 1.31D-04 at cycle   3 NSaved=   3.
 NSaved= 3 IEnMin= 3 EnMin= -135.604852424710     IErMin= 1 ErrMin= 7.35D-05
 ErrMax= 1.31D-04  0.00D+00 EMaxC= 1.00D-01 BMatC= 2.30D-06 BMatP= 2.37D-06
 IDIUse=3 WtCom= 9.99D-01 WtEn= 1.31D-03
 Coeff-Com:  0.553D-01 0.445D+00 0.500D+00
 Coeff-En:   0.000D+00 0.440D+00 0.560D+00
 Coeff:      0.552D-01 0.445D+00 0.500D+00
 Gap=     0.237 Goal=   None    Shift=    0.000
 Gap=     0.107 Goal=   None    Shift=    0.000
 RMSDP=1.40D-05 MaxDP=2.41D-04 DE=-2.46D-07 OVMax= 6.22D-04

 Cycle   4  Pass 0  IDiag  1:
 E= -135.604853043454     Delta-E=       -0.000000618744 Rises=F Damp=F
 DIIS: error= 1.68D-05 at cycle   4 NSaved=   4.
 NSaved= 4 IEnMin= 4 EnMin= -135.604853043454     IErMin= 4 ErrMin= 1.68D-05
 ErrMax= 1.68D-05  0.00D+00 EMaxC= 1.00D-01 BMatC= 2.92D-08 BMatP= 2.30D-06
 IDIUse=1 WtCom= 1.00D+00 WtEn= 0.00D+00
 Coeff-Com: -0.251D-02 0.165D+00 0.221D+00 0.617D+00
 Coeff:     -0.251D-02 0.165D+00 0.221D+00 0.617D+00
 Gap=     0.237 Goal=   None    Shift=    0.000
 Gap=     0.107 Goal=   None    Shift=    0.000
 RMSDP=2.18D-06 MaxDP=2.55D-05 DE=-6.19D-07 OVMax= 3.05D-05

 Initial convergence to 1.0D-05 achieved.  Increase integral accuracy.
 Cycle   5  Pass 1  IDiag  1:
 E= -135.604870501518     Delta-E=       -0.000017458063 Rises=F Damp=F
 DIIS: error= 4.81D-06 at cycle   1 NSaved=   1.
 NSaved= 1 IEnMin= 1 EnMin= -135.604870501518     IErMin= 1 ErrMin= 4.81D-06
 ErrMax= 4.81D-06  0.00D+00 EMaxC= 1.00D-01 BMatC= 5.85D-09 BMatP= 5.85D-09
 IDIUse=1 WtCom= 1.00D+00 WtEn= 0.00D+00
 Coeff-Com:  0.100D+01
 Coeff:      0.100D+01
 Gap=     0.237 Goal=   None    Shift=    0.000
 Gap=     0.107 Goal=   None    Shift=    0.000
 RMSDP=2.18D-06 MaxDP=2.55D-05 DE=-1.75D-05 OVMax= 2.21D-05

 Cycle   6  Pass 1  IDiag  1:
 E= -135.604870501376     Delta-E=        0.000000000142 Rises=F Damp=F
 DIIS: error= 6.04D-06 at cycle   2 NSaved=   2.
 NSaved= 2 IEnMin= 1 EnMin= -135.604870501518     IErMin= 1 ErrMin= 4.81D-06
 ErrMax= 6.04D-06  0.00D+00 EMaxC= 1.00D-01 BMatC= 7.66D-09 BMatP= 5.85D-09
 IDIUse=1 WtCom= 1.00D+00 WtEn= 0.00D+00
 Coeff-Com:  0.538D+00 0.462D+00
 Coeff:      0.538D+00 0.462D+00
 Gap=     0.237 Goal=   None    Shift=    0.000
 Gap=     0.107 Goal=   None    Shift=    0.000
 RMSDP=8.02D-07 MaxDP=1.08D-05 DE= 1.42D-10 OVMax= 1.68D-05

 Cycle   7  Pass 1  IDiag  1:
 E= -135.604870503336     Delta-E=       -0.000000001960 Rises=F Damp=F
 DIIS: error= 9.58D-07 at cycle   3 NSaved=   3.
 NSaved= 3 IEnMin= 3 EnMin= -135.604870503336     IErMin= 3 ErrMin= 9.58D-07
 ErrMax= 9.58D-07  0.00D+00 EMaxC= 1.00D-01 BMatC= 1.79D-10 BMatP= 5.85D-09
 IDIUse=1 WtCom= 1.00D+00 WtEn= 0.00D+00
 Coeff-Com:  0.107D-01 0.120D+00 0.869D+00
 Coeff:      0.107D-01 0.120D+00 0.869D+00
 Gap=     0.237 Goal=   None    Shift=    0.000
 Gap=     0.107 Goal=   None    Shift=    0.000
 RMSDP=2.01D-07 MaxDP=4.00D-06 DE=-1.96D-09 OVMax= 4.86D-06

 Cycle   8  Pass 1  IDiag  1:
 E= -135.604870503358     Delta-E=       -0.000000000022 Rises=F Damp=F
 DIIS: error= 1.12D-06 at cycle   4 NSaved=   4.
 NSaved= 4 IEnMin= 4 EnMin= -135.604870503358     IErMin= 3 ErrMin= 9.58D-07
 ErrMax= 1.12D-06  0.00D+00 EMaxC= 1.00D-01 BMatC= 1.21D-10 BMatP= 1.79D-10
 IDIUse=1 WtCom= 1.00D+00 WtEn= 0.00D+00
 Coeff-Com: -0.210D-01 0.578D-01 0.575D+00 0.388D+00
 Coeff:     -0.210D-01 0.578D-01 0.575D+00 0.388D+00
 Gap=     0.237 Goal=   None    Shift=    0.000
 Gap=     0.107 Goal=   None    Shift=    0.000
 RMSDP=1.25D-07 MaxDP=2.21D-06 DE=-2.17D-11 OVMax= 5.38D-06

 Cycle   9  Pass 1  IDiag  1:
 E= -135.604870503388     Delta-E=       -0.000000000030 Rises=F Damp=F
 DIIS: error= 3.33D-07 at cycle   5 NSaved=   5.
 NSaved= 5 IEnMin= 5 EnMin= -135.604870503388     IErMin= 5 ErrMin= 3.33D-07
 ErrMax= 3.33D-07  0.00D+00 EMaxC= 1.00D-01 BMatC= 1.06D-11 BMatP= 1.21D-10
 IDIUse=1 WtCom= 1.00D+00 WtEn= 0.00D+00
 Coeff-Com: -0.134D-01-0.113D-01-0.277D-01 0.213D+00 0.839D+00
 Coeff:     -0.134D-01-0.113D-01-0.277D-01 0.213D+00 0.839D+00
 Gap=     0.237 Goal=   None    Shift=    0.000
 Gap=     0.107 Goal=   None    Shift=    0.000
 RMSDP=3.71D-08 MaxDP=5.82D-07 DE=-3.05D-11 OVMax= 8.06D-07

 Cycle  10  Pass 1  IDiag  1:
 E= -135.604870503391     Delta-E=       -0.000000000003 Rises=F Damp=F
 DIIS: error= 3.99D-08 at cycle   6 NSaved=   6.
 NSaved= 6 IEnMin= 6 EnMin= -135.604870503391     IErMin= 6 ErrMin= 3.99D-08
 ErrMax= 3.99D-08  0.00D+00 EMaxC= 1.00D-01 BMatC= 4.20D-13 BMatP= 1.06D-11
 IDIUse=1 WtCom= 1.00D+00 WtEn= 0.00D+00
 Coeff-Com: -0.140D-02-0.101D-01-0.803D-01 0.334D-01 0.250D+00 0.809D+00
 Coeff:     -0.140D-02-0.101D-01-0.803D-01 0.334D-01 0.250D+00 0.809D+00
 Gap=     0.237 Goal=   None    Shift=    0.000
 Gap=     0.107 Goal=   None    Shift=    0.000
 RMSDP=1.07D-08 MaxDP=1.29D-07 DE=-3.35D-12 OVMax= 3.29D-07

 Cycle  11  Pass 1  IDiag  1:
 E= -135.604870503391     Delta-E=        0.000000000000 Rises=F Damp=F
 DIIS: error= 1.68D-08 at cycle   7 NSaved=   7.
 NSaved= 7 IEnMin= 6 EnMin= -135.604870503391     IErMin= 7 ErrMin= 1.68D-08
 ErrMax= 1.68D-08  0.00D+00 EMaxC= 1.00D-01 BMatC= 6.04D-14 BMatP= 4.20D-13
 IDIUse=1 WtCom= 1.00D+00 WtEn= 0.00D+00
 Coeff-Com:  0.272D-03-0.402D-02-0.362D-01 0.253D-02 0.603D-01 0.365D+00
 Coeff-Com:  0.612D+00
 Coeff:      0.272D-03-0.402D-02-0.362D-01 0.253D-02 0.603D-01 0.365D+00
 Coeff:      0.612D+00
 Gap=     0.237 Goal=   None    Shift=    0.000
 Gap=     0.107 Goal=   None    Shift=    0.000
 RMSDP=2.84D-09 MaxDP=3.82D-08 DE= 1.14D-13 OVMax= 4.62D-08

 SCF Done:  E(UB97D3) =  -135.604870503     A.U. after   11 cycles
            NFock= 11  Conv=0.28D-08     -V/T= 2.0047
 <Sx>= 0.0000 <Sy>= 0.0000 <Sz>= 0.5000 <S**2>= 0.7552 S= 0.5026
 <L.S>= 0.000000000000E+00
 KE= 1.349698522981D+02 PE=-4.725103253977D+02 EE= 1.231950315336D+02
 Annihilation of the first spin contaminant:
 S**2 before annihilation     0.7552,   after     0.7500
 Leave Link  502 at Sat Oct 10 18:58:59 2020, MaxMem=  2684354560 cpu:              57.6 elap:               4.9
 (Enter /udrive/faculty/rpeverati/g16/g16/l508.exe)
 QCSCF skips out because SCF is already converged.
 Leave Link  508 at Sat Oct 10 18:58:59 2020, MaxMem=  2684354560 cpu:               0.1 elap:               0.1
 (Enter /udrive/faculty/rpeverati/g16/g16/l701.exe)
 ... and contract with generalized density number  0.
 Compute integral first derivatives.
 R6Disp: Adding Grimme-D3(BJ) dispersion energy 1st derivatives to the gradient.
 Leave Link  701 at Sat Oct 10 18:58:59 2020, MaxMem=  2684354560 cpu:               2.7 elap:               0.3
 (Enter /udrive/faculty/rpeverati/g16/g16/l702.exe)
 L702 exits ... SP integral derivatives will be done elsewhere.
 Leave Link  702 at Sat Oct 10 18:59:00 2020, MaxMem=  2684354560 cpu:               0.3 elap:               0.1
 (Enter /udrive/faculty/rpeverati/g16/g16/l703.exe)
 Integral derivatives from FoFJK, PRISM(SPDF).
 Compute integral first derivatives, UseDBF=F ICtDFT=           0.
 Calling FoFJK, ICntrl=      2527 FMM=F ISym2X=0 I1Cent= 0 IOpClX= 0 NMat=1 NMatS=1 NMatT=0.
 FoFJK:  IHMeth= 1 ICntrl=    2527 DoSepK=F KAlg= 0 I1Cent=           0 FoldK=F
 IRaf=         0 NMat=       1 IRICut=       1 DoRegI=T DoRafI=F ISym2E= 0 IDoP0=0 IntGTp=1.
 FoFCou: FMM=F IPFlag=           0 FMFlag=      100000 FMFlg1=         800
         NFxFlg=           0 DoJE=F BraDBF=F KetDBF=F FulRan=T
         wScrn=  0.000000 ICntrl=      2527 IOpCl=  0 I1Cent=           0 NGrid=           0
         NMat0=    1 NMatS0=      1 NMatT0=    0 NMatD0=    1 NMtDS0=    0 NMtDT0=    0
 Symmetry not used in FoFCou.
 Leave Link  703 at Sat Oct 10 18:59:01 2020, MaxMem=  2684354560 cpu:              18.2 elap:               1.6
 (Enter /udrive/faculty/rpeverati/g16/g16/l716.exe)
 Dipole        =-9.31845135D-02 6.71589322D-01 2.53865786D-04
 ***** Axes restored to original set *****
 -------------------------------------------------------------------
 Center     Atomic                   Forces (Hartrees/Bohr)
 Number     Number              X              Y              Z
 -------------------------------------------------------------------
      1        6           0.004368069    0.003344701    0.000000772
      2        6          -0.001646971   -0.002376346    0.000000821
      3        7          -0.006490209   -0.010879271   -0.000001953
      4        1           0.000528648   -0.003874456   -0.005351300
      5        1           0.000528815   -0.003874656    0.005350381
      6        1          -0.006969822    0.002214977    0.000000027
      7        1          -0.000297634    0.004044505   -0.005581658
      8        1          -0.000297601    0.004043869    0.005581979
      9        1          -0.000684430   -0.003969326   -0.000001757
     10        1           0.005482098    0.005666196   -0.006503143
     11        1           0.005479036    0.005659808    0.006505831
 -------------------------------------------------------------------
 Cartesian Forces:  Max     0.010879271 RMS     0.004474485
 Leave Link  716 at Sat Oct 10 18:59:01 2020, MaxMem=  2684354560 cpu:               0.3 elap:               0.1
 (Enter /udrive/faculty/rpeverati/g16/g16/l103.exe)

 GradGradGradGradGradGradGradGradGradGradGradGradGradGradGradGradGradGrad
 Berny optimization.
 Optmz: redundant internal coordinate code flag= 1
 Red2BG:  D1=  5.23D-02 OD1=  3.26D-03 B2RMS=  0.00D+00 IAprox=0
 FormGI is forming the generalized inverse of G from B-inverse, IUseBI=4.
 Internal  Forces:  Max     0.009945130 RMS     0.003465168
 Numerically estimating second derivatives.
 Iteration  1 RMS(Cart)=  0.00109730 RMS(Int)=  0.00000155
 Iteration  2 RMS(Cart)=  0.00000013 RMS(Int)=  0.00000155
 Largest change from initial coordinates is atom    3       0.002 Angstoms.
 GradGradGradGradGradGradGradGradGradGradGradGradGradGradGradGradGradGrad

 Leave Link  103 at Sat Oct 10 18:59:01 2020, MaxMem=  2684354560 cpu:               0.4 elap:               0.1
 (Enter /udrive/faculty/rpeverati/g16/g16/l202.exe)
                          Input orientation:                          
 ---------------------------------------------------------------------
 Center     Atomic      Atomic             Coordinates (Angstroms)
 Number     Number       Type             X           Y           Z
 ---------------------------------------------------------------------
      1          6           0       -1.486275   -0.448134   -0.000019
      2          6           0       -0.505825    0.701943    0.000029
      3          7           0        1.867016   -0.340533   -0.000057
      4          1           0       -1.354649   -1.076459   -0.880503
      5          1           0       -1.354618   -1.076565    0.880387
      6          1           0       -2.517665   -0.086339    0.000025
      7          1           0       -0.523121    1.316313   -0.897221
      8          1           0       -0.523102    1.316228    0.897338
      9          1           0        0.664366    0.148375   -0.000034
     10          1           0        2.248409    0.159422   -0.804803
     11          1           0        2.248208    0.158838    0.805153
 ---------------------------------------------------------------------
                    Distance matrix (angstroms):
                    1          2          3          4          5
     1  C    0.000000
     2  C    1.511277   0.000000
     3  N    3.355017   2.591743   0.000000
     4  H    1.089665   2.158368   3.419927   0.000000
     5  H    1.089667   2.158372   3.419919   1.760890   0.000000
     6  H    1.093006   2.160761   4.392043   1.763030   1.763027
     7  H    2.201343   1.087569   3.043485   2.533195   3.094695
     8  H    2.201346   1.087569   3.043492   3.094696   2.533212
     9  H    2.231833   1.294521   1.298229   2.520291   2.520300
    10  H    3.868420   2.920255   1.021290   3.809877   4.165253
    11  H    3.868214   2.920255   1.021294   4.165090   3.809493
                    6          7          8          9         10
     6  H    0.000000
     7  H    2.598209   0.000000
     8  H    2.598201   1.794559   0.000000
     9  H    3.190676   1.891864   1.891888   0.000000
    10  H    4.839795   3.004716   3.452066   1.776786   0.000000
    11  H    4.839617   3.452259   3.004699   1.776792   1.609956
                   11
    11  H    0.000000
 Stoichiometry    C2H8N(2)
 Framework group  C1[X(C2H8N)]
 Deg. of freedom    27
 Full point group                 C1      NOp   1
 RotChk:  IX=0 Diff= 9.21D-06
 Largest Abelian subgroup         C1      NOp   1
 Largest concise Abelian subgroup C1      NOp   1
                         Standard orientation:                         
 ---------------------------------------------------------------------
 Center     Atomic      Atomic             Coordinates (Angstroms)
 Number     Number       Type             X           Y           Z
 ---------------------------------------------------------------------
      1          6           0       -1.486313   -0.448503   -0.000019
      2          6           0       -0.506179    0.701844    0.000029
      3          7           0        1.866949   -0.339981   -0.000057
      4          1           0       -1.354514   -1.076792   -0.880503
      5          1           0       -1.354482   -1.076898    0.880387
      6          1           0       -2.517802   -0.086991    0.000025
      7          1           0       -0.523644    1.316209   -0.897221
      8          1           0       -0.523625    1.316124    0.897338
      9          1           0        0.664165    0.148597   -0.000034
     10          1           0        2.248205    0.160079   -0.804803
     11          1           0        2.248004    0.159495    0.805153
 ---------------------------------------------------------------------
 Rotational constants (GHZ):          24.9536154           4.8498826           4.3765520
 Leave Link  202 at Sat Oct 10 18:59:01 2020, MaxMem=  2684354560 cpu:               0.2 elap:               0.1
 (Enter /udrive/faculty/rpeverati/g16/g16/l301.exe)
 Standard basis: 6-31G(d) (5D, 7F)
 Ernie: Thresh=  0.10000D-02 Tol=  0.10000D-05 Strict=F.
 There are    61 symmetry adapted cartesian basis functions of A   symmetry.
 There are    58 symmetry adapted basis functions of A   symmetry.
    58 basis functions,   116 primitive gaussians,    61 cartesian basis functions
    14 alpha electrons       13 beta electrons
       nuclear repulsion energy        78.7573595320 Hartrees.
 IExCor= 3630 DFT=T Ex+Corr=B97D3 ExCW=0 ScaHFX=  0.000000
 ScaDFX=  1.000000  1.000000  1.000000  1.000000 ScalE2=  1.000000  1.000000
 IRadAn=      5 IRanWt=     -1 IRanGd=            0 ICorTp=0 IEmpDi=141
 NAtoms=   11 NActive=   11 NUniq=   11 SFac= 1.00D+00 NAtFMM=   60 NAOKFM=F Big=F
 Integral buffers will be    131072 words long.
 Raffenetti 2 integral format.
 Two-electron integral symmetry is turned on.
 R6Disp:  Grimme-D3(BJ) Dispersion energy=       -0.0163012511 Hartrees.
 Nuclear repulsion after empirical dispersion term =       78.7410582808 Hartrees.
 Leave Link  301 at Sat Oct 10 18:59:02 2020, MaxMem=  2684354560 cpu:               0.8 elap:               0.1
 (Enter /udrive/faculty/rpeverati/g16/g16/l302.exe)
 NPDir=0 NMtPBC=     1 NCelOv=     1 NCel=       1 NClECP=     1 NCelD=      1
         NCelK=      1 NCelE2=     1 NClLst=     1 CellRange=     0.0.
 One-electron integrals computed using PRISM.
 One-electron integral symmetry used in STVInt
 NBasis=    58 RedAO= T EigKep=  6.31D-03  NBF=    58
 NBsUse=    58 1.00D-06 EigRej= -1.00D+00 NBFU=    58
 Precomputing XC quadrature grid using
 IXCGrd= 4 IRadAn=           5 IRanWt=          -1 IRanGd=           0 AccXCQ= 0.00D+00.
 Generated NRdTot=       0 NPtTot=           0 NUsed=           0 NTot=          32
 NSgBfM=    61    61    61    61    61 MxSgAt=    11 MxSgA2=    11.
 Leave Link  302 at Sat Oct 10 18:59:02 2020, MaxMem=  2684354560 cpu:               2.8 elap:               0.3
 (Enter /udrive/faculty/rpeverati/g16/g16/l303.exe)
 DipDrv:  MaxL=1.
 Leave Link  303 at Sat Oct 10 18:59:02 2020, MaxMem=  2684354560 cpu:               0.4 elap:               0.1
 (Enter /udrive/faculty/rpeverati/g16/g16/l401.exe)
 Initial guess from the checkpoint file:  "MN_94_RKT20_BH76_B97DBJ_631Gs.chk"
 SCF N**3 symmetry information disabled.
 B after Tr=    -0.000000    0.000000    0.000000
         Rot=    1.000000    0.000000    0.000000    0.000001 Ang=   0.00 deg.
 Guess basis will be translated and rotated to current coordinates.
 JPrj=2 DoOrth=T DoCkMO=T.
 Initial guess <Sx>= 0.0000 <Sy>= 0.0000 <Sz>= 0.5000 <S**2>= 0.7552 S= 0.5026
 Generating alternative initial guess.
 ExpMin= 1.61D-01 ExpMax= 4.17D+03 ExpMxC= 6.27D+02 IAcc=2 IRadAn=         4 AccDes= 0.00D+00
 Harris functional with IExCor= 3630 and IRadAn=       4 diagonalized for initial guess.
 HarFok:  IExCor= 3630 AccDes= 0.00D+00 IRadAn=         4 IDoV= 1 UseB2=F ITyADJ=14
 ICtDFT=  3500011 ScaDFX=  1.000000  1.000000  1.000000  1.000000
 FoFCou: FMM=F IPFlag=           0 FMFlag=      100000 FMFlg1=           0
         NFxFlg=           0 DoJE=T BraDBF=F KetDBF=T FulRan=T
         wScrn=  0.000000 ICntrl=       500 IOpCl=  0 I1Cent=   200000004 NGrid=           0
         NMat0=    1 NMatS0=      1 NMatT0=    0 NMatD0=    1 NMtDS0=    0 NMtDT0=    0
 Petite list used in FoFCou.
 Harris En= -135.687333468803    
 Leave Link  401 at Sat Oct 10 18:59:03 2020, MaxMem=  2684354560 cpu:               6.3 elap:               0.6
 (Enter /udrive/faculty/rpeverati/g16/g16/l502.exe)
 Keep J ints in memory in canonical form, NReq=12072039.
 FoFCou: FMM=F IPFlag=           0 FMFlag=           0 FMFlg1=           0
         NFxFlg=           0 DoJE=F BraDBF=F KetDBF=F FulRan=T
         wScrn=  0.000000 ICntrl=       600 IOpCl=  0 I1Cent=           0 NGrid=           0
         NMat0=    1 NMatS0=   1711 NMatT0=    0 NMatD0=    1 NMtDS0=    0 NMtDT0=    0
 Symmetry not used in FoFCou.
 Two-electron integral symmetry not used.
 UHF open shell SCF:
 Using DIIS extrapolation, IDIIS=  1040.
 NGot=  2684354560 LenX=  2682880805 LenY=  2682876643
 Requested convergence on RMS density matrix=1.00D-08 within 120 cycles.
 Requested convergence on MAX density matrix=1.00D-06.
 Requested convergence on             energy=1.00D-06.
 No special actions if energy rises.
 Integral accuracy reduced to 1.0D-05 until final iterations.

 Cycle   1  Pass 0  IDiag  1:
 E= -135.604845232582    
 DIIS: error= 1.44D-04 at cycle   1 NSaved=   1.
 NSaved= 1 IEnMin= 1 EnMin= -135.604845232582     IErMin= 1 ErrMin= 1.44D-04
 ErrMax= 1.44D-04  0.00D+00 EMaxC= 1.00D-01 BMatC= 5.76D-06 BMatP= 5.76D-06
 IDIUse=3 WtCom= 9.99D-01 WtEn= 1.44D-03
 Coeff-Com:  0.100D+01
 Coeff-En:   0.100D+01
 Coeff:      0.100D+01
 Gap=     0.449 Goal=   None    Shift=    0.000
 Gap=     0.511 Goal=   None    Shift=    0.000
 RMSDP=6.12D-05 MaxDP=8.19D-04              OVMax= 2.64D-03

 Cycle   2  Pass 0  IDiag  1:
 E= -135.604846137666     Delta-E=       -0.000000905084 Rises=F Damp=F
 DIIS: error= 2.70D-04 at cycle   2 NSaved=   2.
 NSaved= 2 IEnMin= 2 EnMin= -135.604846137666     IErMin= 1 ErrMin= 1.44D-04
 ErrMax= 2.70D-04  0.00D+00 EMaxC= 1.00D-01 BMatC= 1.07D-05 BMatP= 5.76D-06
 IDIUse=3 WtCom= 3.78D-01 WtEn= 6.22D-01
 Coeff-Com:  0.612D+00 0.388D+00
 Coeff-En:   0.383D+00 0.617D+00
 Coeff:      0.470D+00 0.530D+00
 Gap=     0.237 Goal=   None    Shift=    0.000
 Gap=     0.107 Goal=   None    Shift=    0.000
 RMSDP=5.57D-05 MaxDP=7.74D-04 DE=-9.05D-07 OVMax= 2.12D-03

 Cycle   3  Pass 0  IDiag  1:
 E= -135.604847126953     Delta-E=       -0.000000989286 Rises=F Damp=F
 DIIS: error= 2.35D-04 at cycle   3 NSaved=   3.
 NSaved= 3 IEnMin= 3 EnMin= -135.604847126953     IErMin= 1 ErrMin= 1.44D-04
 ErrMax= 2.35D-04  0.00D+00 EMaxC= 1.00D-01 BMatC= 7.00D-06 BMatP= 5.76D-06
 IDIUse=3 WtCom= 3.95D-01 WtEn= 6.05D-01
 Coeff-Com:  0.259D-01 0.439D+00 0.535D+00
 Coeff-En:   0.000D+00 0.425D+00 0.575D+00
 Coeff:      0.102D-01 0.430D+00 0.559D+00
 Gap=     0.237 Goal=   None    Shift=    0.000
 Gap=     0.107 Goal=   None    Shift=    0.000
 RMSDP=2.59D-05 MaxDP=4.70D-04 DE=-9.89D-07 OVMax= 1.23D-03

 Cycle   4  Pass 0  IDiag  1:
 E= -135.604849020928     Delta-E=       -0.000001893976 Rises=F Damp=F
 DIIS: error= 4.00D-05 at cycle   4 NSaved=   4.
 NSaved= 4 IEnMin= 4 EnMin= -135.604849020928     IErMin= 4 ErrMin= 4.00D-05
 ErrMax= 4.00D-05  0.00D+00 EMaxC= 1.00D-01 BMatC= 1.37D-07 BMatP= 5.76D-06
 IDIUse=1 WtCom= 1.00D+00 WtEn= 0.00D+00
 Coeff-Com: -0.152D-01 0.101D+00 0.211D+00 0.704D+00
 Coeff:     -0.152D-01 0.101D+00 0.211D+00 0.704D+00
 Gap=     0.237 Goal=   None    Shift=    0.000
 Gap=     0.107 Goal=   None    Shift=    0.000
 RMSDP=4.15D-06 MaxDP=6.12D-05 DE=-1.89D-06 OVMax= 7.28D-05

[...]
    R9        1.95598   0.00001   0.00000   0.00003   0.00003   1.95601
   R10        1.95600   0.00001   0.00000   0.00002   0.00002   1.95601
    A1        1.94333   0.00001   0.00000   0.00005   0.00005   1.94338
    A2        1.94337   0.00000   0.00000   0.00000   0.00000   1.94337
    A3        1.94042   0.00001   0.00000   0.00011   0.00011   1.94053
    A4        1.88179  -0.00001   0.00000  -0.00007  -0.00007   1.88173
    A5        1.87586  -0.00001   0.00000  -0.00004  -0.00004   1.87582
    A6        1.87588  -0.00001   0.00000  -0.00005  -0.00005   1.87582
    A7        2.00188   0.00000   0.00000  -0.00002  -0.00002   2.00186
    A8        2.00183   0.00000   0.00000   0.00002   0.00002   2.00185
    A9        1.83911  -0.00002   0.00000  -0.00023  -0.00023   1.83888
   A10        1.93648  -0.00000   0.00000   0.00003   0.00003   1.93651
   A11        1.83232   0.00000   0.00000   0.00002   0.00002   1.83234
   A12        1.83209   0.00001   0.00000   0.00018   0.00018   1.83227
   A13        1.74625  -0.00000   0.00000  -0.00002  -0.00002   1.74624
   A14        1.74621   0.00000   0.00000   0.00002   0.00002   1.74623
   A15        1.78589  -0.00000   0.00000  -0.00003  -0.00003   1.78586
   A16        3.28523  -0.00000   0.00000  -0.00000  -0.00000   3.28523
   A17        3.22590   0.00001   0.00000  -0.00011  -0.00011   3.22578
    D1        0.95582  -0.00000   0.00000  -0.00033  -0.00033   0.95549
    D2       -3.05590  -0.00000   0.00000  -0.00028  -0.00028  -3.05618
    D3       -1.05019   0.00000   0.00000  -0.00020  -0.00020  -1.05039
    D4        3.05655  -0.00000   0.00000  -0.00038  -0.00038   3.05616
    D5       -0.95517  -0.00000   0.00000  -0.00034  -0.00034  -0.95551
    D6        1.05054   0.00000   0.00000  -0.00025  -0.00025   1.05029
    D7       -1.13539  -0.00000   0.00000  -0.00038  -0.00038  -1.13577
    D8        1.13608  -0.00000   0.00000  -0.00033  -0.00033   1.13575
    D9       -3.14140   0.00000   0.00000  -0.00025  -0.00025   3.14154
   D10        2.23917  -0.00000   0.00000  -0.00131  -0.00131   2.23786
   D11       -2.23805  -0.00000   0.00000  -0.00133  -0.00133  -2.23938
   D12        0.10245   0.00000   0.00000  -0.00117  -0.00117   0.10128
   D13        1.90841   0.00000   0.00000  -0.00120  -0.00120   1.90722
   D14       -1.90743  -0.00000   0.00000  -0.00128  -0.00128  -1.90872
   D15       -0.10147  -0.00000   0.00000  -0.00131  -0.00131  -0.10278
         Item               Value     Threshold  Converged?
 Maximum Force            0.000018     0.000450     YES
 RMS     Force            0.000006     0.000300     YES
 Maximum Displacement     0.001974     0.001800     NO 
 RMS     Displacement     0.000505     0.001200     YES
 Predicted change in Energy=-8.472448D-09
                           ----------------------------
                           ! Non-Optimized Parameters !
                           ! (Angstroms and Degrees)  !
 --------------------------                            --------------------------
 ! Name  Definition              Value          Derivative Info.                !
 --------------------------------------------------------------------------------
 ! R1    R(1,2)                  1.5153         -DE/DX =    0.0                 !
 ! R2    R(1,4)                  1.0999         -DE/DX =    0.0                 !
 ! R3    R(1,5)                  1.0999         -DE/DX =    0.0                 !
 ! R4    R(1,6)                  1.105          -DE/DX =    0.0                 !
 ! R5    R(2,7)                  1.098          -DE/DX =    0.0                 !
 ! R6    R(2,8)                  1.098          -DE/DX =    0.0                 !
 ! R7    R(2,9)                  1.3153         -DE/DX =    0.0                 !
 ! R8    R(3,9)                  1.3074         -DE/DX =    0.0                 !
 ! R9    R(3,10)                 1.0351         -DE/DX =    0.0                 !
 ! R10   R(3,11)                 1.0351         -DE/DX =    0.0                 !
 ! A1    A(2,1,4)              111.3473         -DE/DX =    0.0                 !
 ! A2    A(2,1,5)              111.3471         -DE/DX =    0.0                 !
 ! A3    A(2,1,6)              111.1842         -DE/DX =    0.0                 !
 ! A4    A(4,1,5)              107.8151         -DE/DX =    0.0                 !
 ! A5    A(4,1,6)              107.4765         -DE/DX =    0.0                 !
 ! A6    A(5,1,6)              107.4768         -DE/DX =    0.0                 !
 ! A7    A(1,2,7)              114.698          -DE/DX =    0.0                 !
 ! A8    A(1,2,8)              114.6978         -DE/DX =    0.0                 !
 ! A9    A(1,2,9)              105.3601         -DE/DX =    0.0                 !
 ! A10   A(7,2,8)              110.9537         -DE/DX =    0.0                 !
 ! A11   A(7,2,9)              104.9854         -DE/DX =    0.0                 !
 ! A12   A(8,2,9)              104.9814         -DE/DX =    0.0                 !
 ! A13   A(9,3,10)             100.0519         -DE/DX =    0.0                 !
 ! A14   A(9,3,11)             100.0518         -DE/DX =    0.0                 !
 ! A15   A(10,3,11)            102.3223         -DE/DX =    0.0                 !
 ! A16   L(2,9,3,5,-1)         188.2296         -DE/DX =    0.0                 !
 ! A17   L(2,9,3,5,-2)         184.8238         -DE/DX =    0.0                 !
 ! D1    D(4,1,2,7)             54.7455         -DE/DX =    0.0                 !
 ! D2    D(4,1,2,8)           -175.1064         -DE/DX =    0.0                 !
 ! D3    D(4,1,2,9)            -60.1829         -DE/DX =    0.0                 !
 ! D4    D(5,1,2,7)            175.1053         -DE/DX =    0.0                 !
 ! D5    D(5,1,2,8)            -54.7466         -DE/DX =    0.0                 !
 ! D6    D(5,1,2,9)             60.1769         -DE/DX =    0.0                 !
 ! D7    D(6,1,2,7)            -65.0746         -DE/DX =    0.0                 !
 ! D8    D(6,1,2,8)             65.0736         -DE/DX =    0.0                 !
 ! D9    D(6,1,2,9)            179.9971         -DE/DX =    0.0                 !
 ! D10   D(1,2,3,10)           128.22           -DE/DX =    0.0                 !
 ! D11   D(1,2,3,11)          -128.3073         -DE/DX =    0.0                 !
 ! D12   D(7,2,3,10)             5.8028         -DE/DX =    0.0                 !
 ! D13   D(7,2,3,11)           109.2755         -DE/DX =    0.0                 !
 ! D14   D(8,2,3,10)          -109.3613         -DE/DX =    0.0                 !
 ! D15   D(8,2,3,11)            -5.8886         -DE/DX =    0.0                 !
 --------------------------------------------------------------------------------
 GradGradGradGradGradGradGradGradGradGradGradGradGradGradGradGradGradGrad

 Leave Link  103 at Sat Oct 10 19:00:29 2020, MaxMem=  2684354560 cpu:               0.6 elap:               0.1
 (Enter /udrive/faculty/rpeverati/g16/g16/l9999.exe)

 ----------------------------------------------------------------------

 Electric dipole moment (input orientation):
 (Debye = 10**-18 statcoulomb cm , SI units = C m)
                  (au)            (Debye)         (10**-30 SI)
   Tot        0.684513D+00      0.173986D+01      0.580354D+01
   x         -0.123153D+00     -0.313024D+00     -0.104414D+01
   y          0.673343D+00      0.171147D+01      0.570884D+01
   z          0.454818D-03      0.115603D-02      0.385611D-02

 Dipole polarizability, Alpha (input orientation).
 (esu units = cm**3 , SI units = C**2 m**2 J**-1)
 Alpha(0;0):
               (au)            (10**-24 esu)      (10**-40 SI)
   iso        0.407121D+02      0.603292D+01      0.671253D+01
   aniso      0.285299D+02      0.422770D+01      0.470395D+01
   xx         0.591532D+02      0.876559D+01      0.975304D+01
   yx        -0.403294D+01     -0.597620D+00     -0.664942D+00
   yy         0.314578D+02      0.466157D+01      0.518669D+01
   zx        -0.342967D-03     -0.508225D-04     -0.565476D-04
   zy        -0.149175D-02     -0.221054D-03     -0.245956D-03
   zz         0.315255D+02      0.467159D+01      0.519785D+01

 ----------------------------------------------------------------------

 Dipole orientation:
     6         -2.92724811         -0.53554076         -0.31591997
     6         -0.68704581         -0.12477093          1.41990199
     7          3.39970097          0.62133295         -1.25435077
     1         -3.24699930          1.11262356         -1.54138664
     1         -2.64300882         -2.19197195         -1.53900732
     1         -4.67855297         -0.85482584          0.77537060
     1         -0.79029286          1.59472591          2.57653834
     1         -0.17492262         -1.76839432          2.57809861
     1          1.25769698          0.23003709         -0.08682309
     1          3.96957026          2.27423811         -0.37740832
     1          4.51713552         -0.72328374         -0.37727267

 Electric dipole moment (dipole orientation):
 (Debye = 10**-18 statcoulomb cm , SI units = C m)
                  (au)            (Debye)         (10**-30 SI)
   Tot        0.684513D+00      0.173986D+01      0.580354D+01
   x          0.000000D+00      0.000000D+00      0.000000D+00
   y          0.000000D+00      0.000000D+00      0.000000D+00
   z          0.684513D+00      0.173986D+01      0.580354D+01

 Dipole polarizability, Alpha (dipole orientation).
 (esu units = cm**3 , SI units = C**2 m**2 J**-1)
 Alpha(0;0):
               (au)            (10**-24 esu)      (10**-40 SI)
   iso        0.407121D+02      0.603292D+01      0.671253D+01
   aniso      0.285299D+02      0.422770D+01      0.470395D+01
   xx         0.560120D+02      0.830012D+01      0.923513D+01
   yx         0.447338D+01      0.662886D+00      0.737560D+00
   yy         0.323427D+02      0.479269D+01      0.533259D+01
   zx        -0.853231D+01     -0.126436D+01     -0.140679D+01
   zy        -0.155759D+01     -0.230811D+00     -0.256812D+00
   zz         0.337818D+02      0.500594D+01      0.556986D+01

 ----------------------------------------------------------------------

 Test job not archived.
 1\1\GINC-NODE04\Freq\UB97D3\6-31G(d)\C2H8N1(2)\RPEVERATI\10-Oct-2020\0
 \\#P Freq B97D3/6-31G* 5D 7F Integral=UltraFineGrid SCF=(NoSymm,XQC,Ma
 xCyc=120) IOp(1/33=1) Geom=Check Guess=Read\\TS search on BH76.\\0,2\C
 ,-1.5189698127,-0.4477672977,-0.0000313785\C,-0.4986691745,0.672638423
 6,0.0000368342\N,1.9184225694,-0.3239091644,-0.0001988008\H,-1.4117773
 263,-1.0868081244,-0.8888436237\H,-1.4120029357,-1.0867701812,0.888842
 2456\H,-2.5495220241,-0.0491873604,-0.0001812148\H,-0.5007283322,1.295
 0915865,-0.9044569264\H,-0.5005261985,1.2947458461,0.9047766688\H,0.67
 38113133,0.0765317687,-0.0000341201\H,2.2814354007,0.2147854233,-0.806
 0423427\H,2.281269455,0.213738884,0.8064259156\\Version=ES64L-G16RevA.
 03\State=2-A\HF=-135.6058417\S2=0.755411\S2-1=0.\S2A=0.750022\RMSD=6.9
 73e-09\RMSF=8.977e-06\ZeroPoint=0.0914121\Thermal=0.0964429\Dipole=-0.
 1231531,0.6733432,0.0004548\DipoleDeriv=-0.125845,-0.0430582,0.0000072
 ,0.1294014,0.0728491,-0.0000236,-0.0000637,-0.0000121,0.0964715,0.7011
 053,-0.1262603,-0.0000414,-0.0909998,0.1259941,-0.0000004,0.000088,-0.
 0000322,0.146024,-0.1790457,0.1051652,0.0000593,0.2016227,-0.2874466,-
 0.0000416,0.0001462,-0.0000727,-0.1643912,0.0641531,-0.0015233,0.02434
 27,-0.0474832,-0.0307824,-0.0956726,0.0013067,-0.1116885,-0.0775008,0.
 0641175,-0.0015593,-0.024324,-0.047491,-0.0307841,0.0956696,-0.0012541
 ,0.1117019,-0.0775257,-0.2044214,0.0471192,-0.0000249,-0.0357657,0.019
 8451,0.0000186,-0.0000001,0.0000146,0.0756568,-0.0761217,0.0151637,-0.
 0094776,0.0080092,-0.0693495,0.0949949,0.0267177,0.0996561,-0.0861115,
 -0.0761927,0.0151622,0.0094742,0.0080327,-0.0693212,-0.09498,-0.026708
 9,-0.0996772,-0.0862146,-0.5851269,0.1706982,0.0000667,0.1364005,0.090
 0878,0.0000053,-0.0000778,0.0000643,0.0940447,0.2086848,-0.0904988,0.0
 534867,-0.1308963,0.0892724,0.1739246,0.0089821,0.117689,0.0399765,0.2
 086928,-0.0904085,-0.0535689,-0.1308305,0.0896354,-0.1738947,-0.009136
 1,-0.1176434,0.0395705\Polar=59.1531601,-4.0329406,31.4578149,-0.00034
 3,-0.0014917,31.5254599\Quadrupole=0.4485774,-1.3602912,0.9117138,2.75
 82137,0.0018994,-0.0013685\PG=C01 [X(C2H8N1)]\NImag=2\\0.48283477,-0.0
 3297122,0.49992337,-0.00000457,-0.00000771,0.55542264,-0.11555701,-0.0
 6771344,-0.00000389,0.23388748,-0.07861669,-0.14275273,0.00000245,0.09
 521871,0.45200785,-0.00000892,-0.00000402,-0.08106751,0.00004682,-0.00
 004299,0.56764963,0.00926842,0.00010066,0.00000132,-0.09123101,0.04710
 104,0.00000718,0.17350039,-0.00299815,0.00013022,0.00000022,0.03323248
 ,-0.01570458,-0.00000763,0.13630478,0.26119311,-0.00000189,0.00000015,
 -0.00035824,0.00001333,-0.00000977,0.00579328,0.00005145,-0.00016362,0
 .51281120,-0.04815585,0.01708519,0.02337378,0.00047101,-0.01372767,-0.
 02069823,-0.00033627,0.00046474,0.00038199,0.05213742,0.01615412,-0.13
 081570,-0.11780159,0.00206547,-0.01384880,-0.02008110,-0.00055575,0.00
 057974,0.00014651,-0.01414192,0.14174730,0.02287283,-0.11714704,-0.216
 60799,-0.00170466,0.00036652,0.00132546,-0.00057207,0.00036105,0.00007
 157,-0.02486793,0.13097438,0.23220509,-0.04815024,0.01705305,-0.023330
 76,0.00046953,-0.01372624,0.02069771,-0.00033657,0.00046502,-0.0003815
 7,-0.00073684,-0.00245569,0.00352162,0.05212586,0.01612189,-0.13080127
 ,0.11779619,0.00206519,-0.01384996,0.02008136,-0.00055468,0.00057910,-
 0.00014573,-0.00245233,0.01218203,-0.01554972,-0.01410786,0.14173165,-
 0.02282917,0.11714536,-0.21662598,0.00170079,-0.00037175,0.00132947,0.
 00057096,-0.00036070,0.00007175,-0.00351715,0.01554792,-0.01978931,0.0
 2482372,-0.13096764,0.23222509,-0.25157222,0.08987009,-0.00003002,-0.0
 2300955,0.00267726,-0.00000224,-0.00063586,0.00094042,0.00000030,-0.00
 284992,0.00132898,-0.00013421,-0.00284257,0.00132585,0.00013337,0.2786
 9290,0.08282321,-0.07742855,0.00001355,-0.02356938,0.00694541,-0.00000
 342,0.00044492,0.00013714,-0.00000016,0.01682645,-0.00725131,0.0012042
 8,0.01682405,-0.00725050,-0.00119976,-0.09190805,0.08491838,-0.0000306
 6,0.00001521,-0.04529088,-0.00000317,-0.00000006,-0.00060821,-0.000000
 90,0.00000035,-0.00004398,0.02526246,-0.00979416,0.00031034,-0.0252638
 8,0.00979415,0.00030327,0.00003352,-0.00001430,0.04429535,0.00164181,-
 0.01406499,0.02049603,-0.03188259,-0.00079680,-0.01047482,0.00262883,-
 0.00031979,0.00018897,0.00046945,0.00053539,-0.00063229,-0.00267862,-0
 .00366461,-0.00073192,0.00091037,0.00109676,-0.00021627,0.03611827,0.0
 0283464,-0.01080354,0.01857126,-0.00811836,-0.12923151,0.12379728,-0.0
 0126077,0.00000279,-0.00073639,0.00085482,0.00063977,-0.00013446,-0.00
 418165,-0.00277651,-0.00026073,-0.00038236,0.00048440,-0.00000556,0.00
 707849,0.13564565,-0.00076923,-0.00102980,0.00214608,-0.00212665,0.119
 35189,-0.22996376,-0.00049353,-0.00036993,0.00051881,0.00054001,0.0003
 8417,0.00078846,-0.00018941,-0.00069195,0.00171478,0.00015439,-0.00011
 375,0.00014605,0.00298142,-0.13270653,0.24309531,0.00164170,-0.0140617
 2,-0.02049972,-0.03187527,-0.00083032,0.01043121,0.00263245,-0.0003193
 5,-0.00018869,-0.00267961,-0.00366274,0.00073139,0.00046993,0.00053625
 ,0.00063249,0.00090849,0.00109671,0.00021677,0.00099092,-0.00063560,-0
 .00160780,0.03611994,0.00283103,-0.01080072,-0.01857494,-0.00814813,-0
 .12913099,-0.12374554,-0.00126300,0.00000283,0.00073547,-0.00418274,-0
 .00277743,0.00025867,0.00085517,0.00064041,0.00013406,-0.00038222,0.00
 048301,0.00000517,-0.00063348,0.01136725,0.01554572,0.00710595,0.13554
 485,0.00077170,0.00102838,0.00214402,0.00208036,-0.11930393,-0.2300482
 8,0.00049206,0.00037057,0.00051933,0.00018823,0.00069184,0.00171488,-0
 .00053962,-0.00038382,0.00078960,-0.00015445,0.00011373,0.00014522,0.0
 0160388,-0.01553484,-0.01799502,-0.00293517,0.13265443,0.24318580,-0.0
 3097997,0.00415744,-0.00000158,0.05996364,-0.03575888,0.00000223,0.055
 09008,-0.04173393,-0.00002262,0.00132556,0.00047124,0.00052860,0.00132
 500,0.00046990,-0.00052684,-0.00004393,-0.00371677,0.00000177,-0.00858
 405,0.00373325,0.00175201,-0.00859481,0.00373975,-0.00174845,-0.055628
 80,-0.00743431,0.00348807,0.00000125,-0.02241277,-0.01826392,0.0000029
 8,-0.01843132,-0.00252279,0.00002172,-0.00077479,-0.00026496,-0.000383
 54,-0.00077350,-0.00026447,0.00038291,-0.00329323,-0.00117941,-0.00000
 085,0.01075477,-0.00566048,-0.00040927,0.01075704,-0.00566127,0.000403
 65,0.05501430,0.03387596,-0.00000074,-0.00000059,0.00010149,-0.0000008
 1,0.00000547,-0.03419676,0.00000712,0.00001514,-0.03346396,-0.00063566
 ,-0.00006821,-0.00000838,0.00063454,0.00006767,-0.00000840,-0.00000054
 ,-0.00000026,0.00077319,-0.01317123,0.00710478,-0.00067229,0.01317553,
 -0.00710839,-0.00067717,0.00000786,-0.00001331,0.06770574,-0.00048557,
 0.00027247,-0.00001825,-0.00061893,-0.00076959,-0.00004711,-0.07530992
 ,-0.06309114,0.09253380,0.00004456,0.00002389,0.00008118,0.00031042,0.
 00023688,-0.00017544,0.00022122,0.00004116,-0.00002952,0.00003859,0.00
 036001,-0.00051663,0.00034730,-0.00028226,-0.00027515,-0.00693584,-0.0
 1171483,0.01667721,0.07719235,0.00062818,-0.00006998,0.00017374,-0.001
 31000,0.00191617,-0.00203552,-0.08101362,-0.12238317,0.16666715,-0.000
 07354,-0.00014475,-0.00003834,0.00012158,-0.00004581,-0.00008835,-0.00
 008829,0.00007092,-0.00002725,-0.00052154,0.00040297,0.00010791,0.0005
 3551,-0.00007075,0.00006807,0.00681344,-0.00177304,-0.00250236,0.07002
 713,0.11673681,-0.00050920,0.00038060,0.00006803,0.00177325,-0.0011786
 2,-0.00010811,0.07929686,0.11368656,-0.24276627,-0.00004315,-0.0000874
 1,-0.00002974,-0.00001545,-0.00008767,0.00001954,-0.00011125,-0.000197
 20,-0.00001511,-0.00022450,0.00005551,0.00032676,-0.00017962,0.0001502
 1,-0.00010538,-0.00311326,0.00191521,0.00022405,-0.09255839,-0.1385030
 4,0.27060704,-0.00048583,0.00027248,0.00001764,-0.00061729,-0.00077080
 ,0.00004618,-0.07527053,-0.06294508,-0.09257508,0.00031050,0.00023702,
 0.00017554,0.00004412,0.00002352,-0.00008082,0.00022107,0.00004093,0.0
 0002988,0.00034703,-0.00028249,0.00027542,0.00003895,0.00035995,0.0005
 1661,-0.00693687,-0.01169135,-0.01669328,0.00519584,0.00488115,0.01568
 471,0.07715301,0.00062730,-0.00006916,-0.00017441,-0.00130976,0.001913
 06,0.00203860,-0.08087224,-0.12201439,-0.16651533,0.00012180,-0.000045
 89,0.00008819,-0.00007394,-0.00014467,0.00003869,-0.00008844,0.0000705
 1,0.00002730,0.00053578,-0.00007080,-0.00006846,-0.00052172,0.00040281
 ,-0.00010808,0.00681026,-0.00177369,0.00250006,0.00489629,0.00536063,0
 .02386586,0.06987468,0.11637157,0.00050985,-0.00038053,0.00006835,-0.0
 0177536,0.00118080,-0.00010522,-0.07936046,-0.11353202,-0.24315349,0.0
 0001564,0.00008766,0.00001961,0.00004309,0.00008717,-0.00002979,0.0001
 1113,0.00019728,-0.00001523,0.00018072,-0.00015032,-0.00010517,0.00022
 360,-0.00005487,0.00032700,0.00312028,-0.00192075,0.00022251,-0.015671
 70,-0.02382199,-0.02822080,0.09260319,0.13830757,0.27099224\\-0.000024
 26,-0.00002165,0.00000202,-0.00000712,-0.00000508,-0.00002107,0.000012
 16,0.00000865,-0.00000776,0.00000379,0.00000651,0.00000157,0.00000147,
 0.00000236,0.00000238,0.00000607,0.00000638,-0.00000099,-0.00000097,0.
 00000609,-0.00000048,0.00000800,-0.00000021,0.00000575,0.00000750,0.00
 000859,0.00001500,-0.00000279,-0.00000665,0.00000703,-0.00000385,-0.00
 000497,-0.00000344\\\@


 THE TEST OF A FIRST RATE INTELLIGENCE IS THE ABILITY TO HOLD TWO OPPOSED
 IDEAS IN THE MIND AT THE SAME TIME, AND STILL RETAIN THE ABILITY TO FUNCTION.
 ONE SHOULD, FOR EXAMPLE, BE ABLE TO SEE THAT THINGS ARE HOPELESS AND YET BE
 DETERMINED TO MAKE THEM OTHERWISE.

                                                       -- F. SCOTT FITZGERALD
 Job cpu time:       0 days  0 hours  7 minutes 15.8 seconds.
 Elapsed time:       0 days  0 hours  0 minutes 37.3 seconds.
 File lengths (MBytes):  RWF=     15 Int=      0 D2E=      0 Chk=      2 Scr=      1
 Normal termination of Gaussian 16 at Sat Oct 10 19:00:29 2020.
