 Entering Gaussian System, Link 0=g16
 Input=MN_13_c2h5ts_BH76_M062XD30_631Gs.in
 Output=MN_13_c2h5ts_BH76_M062XD30_631Gs.log
 Initial command:
 /udrive/faculty/rpeverati/g16/g16/l1.exe "/udrive/scratch-directories/gaussian09/rpeverati/Gau-25128.inp" -scrdir="/udrive/scratch-directories/gaussian09/rpeverati/"
 Entering Link 1 = /udrive/faculty/rpeverati/g16/g16/l1.exe PID=     25145.
  
 Copyright (c) 1988,1990,1992,1993,1995,1998,2003,2009,2016,
            Gaussian, Inc.  All Rights Reserved.
  
 This is part of the Gaussian(R) 16 program.  It is based on
 the Gaussian(R) 09 system (copyright 2009, Gaussian, Inc.),
 the Gaussian(R) 03 system (copyright 2003, Gaussian, Inc.),
 the Gaussian(R) 98 system (copyright 1998, Gaussian, Inc.),
 the Gaussian(R) 94 system (copyright 1995, Gaussian, Inc.),
 the Gaussian 92(TM) system (copyright 1992, Gaussian, Inc.),
 the Gaussian 90(TM) system (copyright 1990, Gaussian, Inc.),
 the Gaussian 88(TM) system (copyright 1988, Gaussian, Inc.),
 the Gaussian 86(TM) system (copyright 1986, Carnegie Mellon
 University), and the Gaussian 82(TM) system (copyright 1983,
 Carnegie Mellon University). Gaussian is a federally registered
 trademark of Gaussian, Inc.
  
 This software contains proprietary and confidential information,
 including trade secrets, belonging to Gaussian, Inc.
  
 This software is provided under written license and may be
 used, copied, transmitted, or stored only in accord with that
 written license.
  
 The following legend is applicable only to US Government
 contracts under FAR:
  
                    RESTRICTED RIGHTS LEGEND
  
 Use, reproduction and disclosure by the US Government is
 subject to restrictions as set forth in subparagraphs (a)
 and (c) of the Commercial Computer Software - Restricted
 Rights clause in FAR 52.227-19.
  
 Gaussian, Inc.
 340 Quinnipiac St., Bldg. 40, Wallingford CT 06492
  
  
 ---------------------------------------------------------------
 Warning -- This program may not be used in any manner that
 competes with the business of Gaussian, Inc. or will provide
 assistance to any competitor of Gaussian, Inc.  The licensee
 of this program is prohibited from giving any competitor of
 Gaussian, Inc. access to this program.  By using this program,
 the user acknowledges that Gaussian, Inc. is engaged in the
 business of creating and licensing software in the field of
 computational chemistry and represents and warrants to the
 licensee that it is not a competitor of Gaussian, Inc. and that
 it will not use this program in any manner prohibited above.
 ---------------------------------------------------------------
  

 Cite this work as:
 Gaussian 16, Revision A.03,
 M. J. Frisch, G. W. Trucks, H. B. Schlegel, G. E. Scuseria, 
 M. A. Robb, J. R. Cheeseman, G. Scalmani, V. Barone, 
 G. A. Petersson, H. Nakatsuji, X. Li, M. Caricato, A. V. Marenich, 
 J. Bloino, B. G. Janesko, R. Gomperts, B. Mennucci, H. P. Hratchian, 
 J. V. Ortiz, A. F. Izmaylov, J. L. Sonnenberg, D. Williams-Young, 
 F. Ding, F. Lipparini, F. Egidi, J. Goings, B. Peng, A. Petrone, 
 T. Henderson, D. Ranasinghe, V. G. Zakrzewski, J. Gao, N. Rega, 
 G. Zheng, W. Liang, M. Hada, M. Ehara, K. Toyota, R. Fukuda, 
 J. Hasegawa, M. Ishida, T. Nakajima, Y. Honda, O. Kitao, H. Nakai, 
 T. Vreven, K. Throssell, J. A. Montgomery, Jr., J. E. Peralta, 
 F. Ogliaro, M. J. Bearpark, J. J. Heyd, E. N. Brothers, K. N. Kudin, 
 V. N. Staroverov, T. A. Keith, R. Kobayashi, J. Normand, 
 K. Raghavachari, A. P. Rendell, J. C. Burant, S. S. Iyengar, 
 J. Tomasi, M. Cossi, J. M. Millam, M. Klene, C. Adamo, R. Cammi, 
 J. W. Ochterski, R. L. Martin, K. Morokuma, O. Farkas, 
 J. B. Foresman, and D. J. Fox, Gaussian, Inc., Wallingford CT, 2016.
 
 ******************************************
 Gaussian 16:  ES64L-G16RevA.03 25-Dec-2016
                 7-Oct-2020 
 ******************************************
 %NoSave
 %nproc=12
 Will use up to   12 processors via shared memory.
 %mem=20GB
 %chk=MN_13_c2h5ts_BH76_M062XD30_631Gs
 ----------------------------------------------------------------------
 #P Opt(TS,MaxCyc=50,NoEigenTest,MaxStep=10,AddRedundant) M062X/6-31G* 
 5D 7F Integral=UltraFineGrid SCF=(NoSymm,XQC,MaxCyc=120) EmpiricalDisp
 ersion=GD3 IOp(1/33=1)
 ----------------------------------------------------------------------
 1/5=1,6=50,8=10,11=1,18=120,26=4,33=1,38=1/1,3;
 2/9=110,12=2,17=6,18=5,40=1/2;
 3/5=1,6=6,7=1,8=11,11=2,25=1,30=1,71=1,74=-55,75=-5,124=31/1,2,3;
 4/9=2/1;
 5/5=2,7=120,8=3,13=1,38=5/2,8;
 6/7=2,8=2,9=2,10=2,28=1/1;
 7//1,2,3,16;
 1/5=1,6=50,8=10,11=1,18=20,26=4,33=1/3(2);
 2/9=110/2;
 99//99;
 2/9=110/2;
 3/5=1,6=6,7=1,8=11,11=2,25=1,30=1,71=1,74=-55,75=-5,124=31/1,2,3;
 4/5=5,9=2,16=3,69=1/1;
 5/5=2,7=120,8=3,13=1,38=5/2,8;
 7//1,2,3,16;
 1/5=1,6=50,8=10,11=1,18=20,26=4,33=1/3(-5);
 2/9=110/2;
 6/7=2,8=2,9=2,10=2,19=2,28=1/1;
 99/9=1/99;
 Leave Link    1 at Wed Oct  7 14:18:59 2020, MaxMem=  2684354560 cpu:               6.9 elap:               0.7
 (Enter /udrive/faculty/rpeverati/g16/g16/l101.exe)
 ONIOM data not found on unit 2.
 ------------------
 TS search on BH76.
 ------------------
 TstMul:  ICh=     0
 TstMul:  Mul=     2
 TstMul:  ICh=     0
 TstMul:  Mul=     2
 Symbolic Z-matrix:
 Charge =  0 Multiplicity = 2
 C                    -0.56788   0.00005  -0.21896 
 C                     0.75114  -0.00004   0.04193 
 H                    -1.49388  -0.00049   1.53177 
 H                    -1.10169   0.92065  -0.40863 
 H                    -1.10202  -0.92023  -0.40911 
 H                     1.29913  -0.92235   0.17376 
 H                     1.2989    0.92232   0.17436 
 
 RdStrC is calling ZToCFu for IStruc=1 NZ=     7.
 PrtBox:  NBox=     1 Levels=  1 BoxLen=    8.00 SMaxX=        5.28
          Shift=            2.823030            1.742980            0.773106
 Box      1 Number                   0 centers from      1 to      7:
 After GenITR:
 ITRead=  0  0  0  0  0  0  0
 MicOpt= -1 -1 -1 -1 -1 -1 -1
 Add virtual bond connecting atoms H3         and C1         Dist= 3.74D+00.
 The following ModRedundant input section has been read:
 
 ITRead=  0  0  0  0  0  0  0
 MicOpt= -1 -1 -1 -1 -1 -1 -1
 NAtoms=      7 NQM=        7 NQMF=       0 NMMI=      0 NMMIF=      0
                NMic=       0 NMicF=      0.
                    Isotopes and Nuclear Properties:
 (Nuclear quadrupole moments (NQMom) in fm**2, nuclear magnetic moments (NMagM)
  in nuclear magnetons)

  Atom         1           2           3           4           5           6           7
 IAtWgt=          12          12           1           1           1           1           1
 AtmWgt=  12.0000000  12.0000000   1.0078250   1.0078250   1.0078250   1.0078250   1.0078250
 NucSpn=           0           0           1           1           1           1           1
 AtZEff=   0.0000000   0.0000000   0.0000000   0.0000000   0.0000000   0.0000000   0.0000000
 NQMom=    0.0000000   0.0000000   0.0000000   0.0000000   0.0000000   0.0000000   0.0000000
 NMagM=    0.0000000   0.0000000   2.7928460   2.7928460   2.7928460   2.7928460   2.7928460
 AtZNuc=   6.0000000   6.0000000   1.0000000   1.0000000   1.0000000   1.0000000   1.0000000
 No MM parameters found.
 Leave Link  101 at Wed Oct  7 14:19:00 2020, MaxMem=  2684354560 cpu:               5.5 elap:               0.7
 (Enter /udrive/faculty/rpeverati/g16/g16/l103.exe)

 GradGradGradGradGradGradGradGradGradGradGradGradGradGradGradGradGradGrad
 Berny optimization.
 Optmz: redundant internal coordinate code flag= 1
 Initialization pass.
                           ----------------------------
                           !    Initial Parameters    !
                           ! (Angstroms and Degrees)  !
 --------------------------                            --------------------------
 ! Name  Definition              Value          Derivative Info.                !
 --------------------------------------------------------------------------------
 ! R1    R(1,2)                  1.3446         estimate D2E/DX2                !
 ! R2    R(1,3)                  1.9805         estimate D2E/DX2                !
 ! R3    R(1,4)                  1.0809         estimate D2E/DX2                !
 ! R4    R(1,5)                  1.0809         estimate D2E/DX2                !
 ! R5    R(2,6)                  1.0809         estimate D2E/DX2                !
 ! R6    R(2,7)                  1.0809         estimate D2E/DX2                !
 ! A1    A(2,1,3)              106.6874         estimate D2E/DX2                !
 ! A2    A(2,1,4)              121.2357         estimate D2E/DX2                !
 ! A3    A(2,1,5)              121.2548         estimate D2E/DX2                !
 ! A4    A(3,1,4)               85.6665         estimate D2E/DX2                !
 ! A5    A(3,1,5)               85.6544         estimate D2E/DX2                !
 ! A6    A(4,1,5)              116.756          estimate D2E/DX2                !
 ! A7    A(1,2,6)              121.4037         estimate D2E/DX2                !
 ! A8    A(1,2,7)              121.3894         estimate D2E/DX2                !
 ! A9    A(6,2,7)              117.147          estimate D2E/DX2                !
 ! D1    D(3,1,2,6)             88.5542         estimate D2E/DX2                !
 ! D2    D(3,1,2,7)            -88.5498         estimate D2E/DX2                !
 ! D3    D(4,1,2,6)           -176.3082         estimate D2E/DX2                !
 ! D4    D(4,1,2,7)              6.5878         estimate D2E/DX2                !
 ! D5    D(5,1,2,6)             -6.5754         estimate D2E/DX2                !
 ! D6    D(5,1,2,7)            176.3206         estimate D2E/DX2                !
 --------------------------------------------------------------------------------
 Maximum allowed force set to 1.00D+20.
 Trust Radius=1.00D-01 FncErr=1.00D-07 GrdErr=1.00D-06 EigMax=2.50D+02 EigMin=1.00D-04
 Number of steps in this run=     50 maximum allowed number of steps=    100.
 Search for a saddle point of order  1.
 GradGradGradGradGradGradGradGradGradGradGradGradGradGradGradGradGradGrad

 Leave Link  103 at Wed Oct  7 14:19:01 2020, MaxMem=  2684354560 cpu:               1.1 elap:               0.4
 (Enter /udrive/faculty/rpeverati/g16/g16/l202.exe)
                          Input orientation:                          
 ---------------------------------------------------------------------
 Center     Atomic      Atomic             Coordinates (Angstroms)
 Number     Number       Type             X           Y           Z
 ---------------------------------------------------------------------
      1          6           0       -0.567876    0.000051   -0.218958
      2          6           0        0.751141   -0.000036    0.041932
      3          1           0       -1.493883   -0.000488    1.531767
      4          1           0       -1.101694    0.920652   -0.408626
      5          1           0       -1.102022   -0.920234   -0.409110
      6          1           0        1.299130   -0.922345    0.173763
      7          1           0        1.298897    0.922324    0.174363
 ---------------------------------------------------------------------
                    Distance matrix (angstroms):
                    1          2          3          4          5
     1  C    0.000000
     2  C    1.344570   0.000000
     3  H    1.980537   2.694390   0.000000
     4  H    1.080945   2.117467   2.183446   0.000000
     5  H    1.080923   2.117644   2.183230   1.840886   0.000000
     6  H    2.119140   1.080891   3.239586   3.082170   2.470886
     7  H    2.118993   1.080890   3.239406   2.470368   3.082187
                    6          7
     6  H    0.000000
     7  H    1.844670   0.000000
 Stoichiometry    C2H5(2)
 Framework group  C1[X(C2H5)]
 Deg. of freedom    15
 Full point group                 C1      NOp   1
 Largest Abelian subgroup         C1      NOp   1
 Largest concise Abelian subgroup C1      NOp   1
                         Standard orientation:                         
 ---------------------------------------------------------------------
 Center     Atomic      Atomic             Coordinates (Angstroms)
 Number     Number       Type             X           Y           Z
 ---------------------------------------------------------------------
      1          6           0       -0.567877    0.000051   -0.218958
      2          6           0        0.751140   -0.000035    0.041932
      3          1           0       -1.493884   -0.000489    1.531767
      4          1           0       -1.101696    0.920651   -0.408626
      5          1           0       -1.102022   -0.920235   -0.409110
      6          1           0        1.299130   -0.922344    0.173763
      7          1           0        1.298896    0.922325    0.174363
 ---------------------------------------------------------------------
 Rotational constants (GHZ):          75.6253969          22.9531614          22.7853600
 Leave Link  202 at Wed Oct  7 14:19:02 2020, MaxMem=  2684354560 cpu:               0.9 elap:               0.5
 (Enter /udrive/faculty/rpeverati/g16/g16/l301.exe)
 Standard basis: 6-31G(d) (5D, 7F)
 Ernie: Thresh=  0.10000D-02 Tol=  0.10000D-05 Strict=F.
 There are    40 symmetry adapted cartesian basis functions of A   symmetry.
 There are    38 symmetry adapted basis functions of A   symmetry.
    38 basis functions,    76 primitive gaussians,    40 cartesian basis functions
     9 alpha electrons        8 beta electrons
       nuclear repulsion energy        36.8524668585 Hartrees.
 IExCor= 4336 DFT=T Ex+Corr=M062X ExCW=0 ScaHFX=  0.540000
 ScaDFX=  1.000000  1.000000  1.000000  1.000000 ScalE2=  1.000000  1.000000
 IRadAn=      5 IRanWt=     -1 IRanGd=            0 ICorTp=0 IEmpDi=131
 NAtoms=    7 NActive=    7 NUniq=    7 SFac= 1.00D+00 NAtFMM=   60 NAOKFM=F Big=F
 Integral buffers will be    131072 words long.
 Raffenetti 2 integral format.
 Two-electron integral symmetry is turned on.
 R6Disp:  Grimme-D3 Dispersion energy=       -0.0000142298 Hartrees.
 Nuclear repulsion after empirical dispersion term =       36.8524526287 Hartrees.
 Leave Link  301 at Wed Oct  7 14:19:02 2020, MaxMem=  2684354560 cpu:               2.3 elap:               0.6
 (Enter /udrive/faculty/rpeverati/g16/g16/l302.exe)
 NPDir=0 NMtPBC=     1 NCelOv=     1 NCel=       1 NClECP=     1 NCelD=      1
         NCelK=      1 NCelE2=     1 NClLst=     1 CellRange=     0.0.
 One-electron integrals computed using PRISM.
 One-electron integral symmetry used in STVInt
 NBasis=    38 RedAO= T EigKep=  8.31D-03  NBF=    38
 NBsUse=    38 1.00D-06 EigRej= -1.00D+00 NBFU=    38
 Precomputing XC quadrature grid using
 IXCGrd= 4 IRadAn=           5 IRanWt=          -1 IRanGd=           0 AccXCQ= 0.00D+00.
 Generated NRdTot=       0 NPtTot=           0 NUsed=           0 NTot=          32
 NSgBfM=    40    40    40    40    40 MxSgAt=     7 MxSgA2=     7.
 Leave Link  302 at Wed Oct  7 14:19:03 2020, MaxMem=  2684354560 cpu:               3.9 elap:               0.7
 (Enter /udrive/faculty/rpeverati/g16/g16/l303.exe)
 DipDrv:  MaxL=1.
 Leave Link  303 at Wed Oct  7 14:19:04 2020, MaxMem=  2684354560 cpu:               1.2 elap:               0.5
 (Enter /udrive/faculty/rpeverati/g16/g16/l401.exe)
 SCF N**3 symmetry information disabled.
 ExpMin= 1.61D-01 ExpMax= 3.05D+03 ExpMxC= 4.57D+02 IAcc=3 IRadAn=         5 AccDes= 0.00D+00
 Harris functional with IExCor= 1009 and IRadAn=       5 diagonalized for initial guess.
 HarFok:  IExCor= 1009 AccDes= 0.00D+00 IRadAn=         5 IDoV= 1 UseB2=F ITyADJ=14
 ICtDFT=  3500011 ScaDFX=  1.000000  1.000000  1.000000  1.000000
 FoFCou: FMM=F IPFlag=           0 FMFlag=      100000 FMFlg1=           0
         NFxFlg=           0 DoJE=T BraDBF=F KetDBF=T FulRan=T
         wScrn=  0.000000 ICntrl=       500 IOpCl=  0 I1Cent=   200000004 NGrid=           0
         NMat0=    1 NMatS0=      1 NMatT0=    0 NMatD0=    1 NMtDS0=    0 NMtDT0=    0
 Petite list used in FoFCou.
 Harris En= -79.0090985555503    
 JPrj=0 DoOrth=F DoCkMO=F.
 Initial guess <Sx>= 0.0000 <Sy>= 0.0000 <Sz>= 0.5000 <S**2>= 0.7500 S= 0.5000
 Leave Link  401 at Wed Oct  7 14:19:05 2020, MaxMem=  2684354560 cpu:               6.9 elap:               1.0
 (Enter /udrive/faculty/rpeverati/g16/g16/l502.exe)
 Keep R1 and R2 ints in memory in canonical form, NReq=10915733.
 FoFCou: FMM=F IPFlag=           0 FMFlag=           0 FMFlg1=           0
         NFxFlg=           0 DoJE=F BraDBF=F KetDBF=F FulRan=T
         wScrn=  0.000000 ICntrl=       600 IOpCl=  0 I1Cent=           0 NGrid=           0
         NMat0=    1 NMatS0=    741 NMatT0=    0 NMatD0=    1 NMtDS0=    0 NMtDT0=    0
 Symmetry not used in FoFCou.
 Two-electron integral symmetry not used.
 UHF open shell SCF:
 Using DIIS extrapolation, IDIIS=  1040.
 NGot=  2684354560 LenX=  2683800373 LenY=  2683798332
 Requested convergence on RMS density matrix=1.00D-08 within 120 cycles.
 Requested convergence on MAX density matrix=1.00D-06.
 Requested convergence on             energy=1.00D-06.
 No special actions if energy rises.
 Integral accuracy reduced to 1.0D-05 until final iterations.

 Cycle   1  Pass 0  IDiag  1:
 E= -78.8996564974159    
 DIIS: error= 5.74D-02 at cycle   1 NSaved=   1.
 NSaved= 1 IEnMin= 1 EnMin= -78.8996564974159     IErMin= 1 ErrMin= 5.74D-02
 ErrMax= 5.74D-02  0.00D+00 EMaxC= 1.00D-01 BMatC= 3.92D-01 BMatP= 3.92D-01
 IDIUse=3 WtCom= 4.26D-01 WtEn= 5.74D-01
 Coeff-Com:  0.100D+01
 Coeff-En:   0.100D+01
 Coeff:      0.100D+01
 Gap=     0.373 Goal=   None    Shift=    0.000
 Gap=     0.187 Goal=   None    Shift=    0.000
 GapD=    0.187 DampG=1.000 DampE=0.500 DampFc=0.5000 IDamp=-1.
 Damping current iteration by 5.00D-01
 RMSDP=1.50D-02 MaxDP=1.54D-01              OVMax= 3.62D-01

 Cycle   2  Pass 0  IDiag  1:
 E= -78.9594902597613     Delta-E=       -0.059833762345 Rises=F Damp=T
 DIIS: error= 1.01D-02 at cycle   2 NSaved=   2.
 NSaved= 2 IEnMin= 2 EnMin= -78.9594902597613     IErMin= 2 ErrMin= 1.01D-02
 ErrMax= 1.01D-02  0.00D+00 EMaxC= 1.00D-01 BMatC= 1.27D-02 BMatP= 3.92D-01
 IDIUse=3 WtCom= 8.99D-01 WtEn= 1.01D-01
 Coeff-Com: -0.210D-01 0.102D+01
 Coeff-En:   0.000D+00 0.100D+01
 Coeff:     -0.189D-01 0.102D+01
 Gap=     0.349 Goal=   None    Shift=    0.000
 Gap=     0.256 Goal=   None    Shift=    0.000
 RMSDP=2.83D-03 MaxDP=5.22D-02 DE=-5.98D-02 OVMax= 2.59D-01

 Cycle   3  Pass 0  IDiag  1:
 E= -79.0254686738129     Delta-E=       -0.065978414052 Rises=F Damp=F
 DIIS: error= 6.18D-03 at cycle   3 NSaved=   3.
 NSaved= 3 IEnMin= 3 EnMin= -79.0254686738129     IErMin= 3 ErrMin= 6.18D-03
 ErrMax= 6.18D-03  0.00D+00 EMaxC= 1.00D-01 BMatC= 2.05D-03 BMatP= 1.27D-02
 IDIUse=3 WtCom= 9.38D-01 WtEn= 6.18D-02
 Coeff-Com: -0.254D-01 0.103D+00 0.922D+00
 Coeff-En:   0.000D+00 0.000D+00 0.100D+01
 Coeff:     -0.238D-01 0.965D-01 0.927D+00
 Gap=     0.324 Goal=   None    Shift=    0.000
 Gap=     0.297 Goal=   None    Shift=    0.000
 RMSDP=1.31D-03 MaxDP=1.70D-02 DE=-6.60D-02 OVMax= 3.94D-02

 Cycle   4  Pass 0  IDiag  1:
 E= -79.0274905506992     Delta-E=       -0.002021876886 Rises=F Damp=F
 DIIS: error= 3.99D-03 at cycle   4 NSaved=   4.
 NSaved= 4 IEnMin= 4 EnMin= -79.0274905506992     IErMin= 4 ErrMin= 3.99D-03
 ErrMax= 3.99D-03  0.00D+00 EMaxC= 1.00D-01 BMatC= 9.76D-04 BMatP= 2.05D-03
 IDIUse=3 WtCom= 9.60D-01 WtEn= 3.99D-02
 Coeff-Com: -0.154D-01-0.286D-01 0.342D+00 0.702D+00
 Coeff-En:   0.000D+00 0.000D+00 0.000D+00 0.100D+01
 Coeff:     -0.148D-01-0.275D-01 0.329D+00 0.714D+00
 Gap=     0.332 Goal=   None    Shift=    0.000
 Gap=     0.300 Goal=   None    Shift=    0.000
 RMSDP=6.09D-04 MaxDP=6.10D-03 DE=-2.02D-03 OVMax= 2.25D-02

 Cycle   5  Pass 0  IDiag  1:
 E= -79.0281301811686     Delta-E=       -0.000639630469 Rises=F Damp=F
 DIIS: error= 2.19D-03 at cycle   5 NSaved=   5.
 NSaved= 5 IEnMin= 5 EnMin= -79.0281301811686     IErMin= 5 ErrMin= 2.19D-03
 ErrMax= 2.19D-03  0.00D+00 EMaxC= 1.00D-01 BMatC= 2.69D-04 BMatP= 9.76D-04
 IDIUse=3 WtCom= 9.78D-01 WtEn= 2.19D-02
 Coeff-Com: -0.482D-02 0.298D-02-0.313D+00 0.186D+00 0.113D+01
 Coeff-En:   0.000D+00 0.000D+00 0.000D+00 0.000D+00 0.100D+01
 Coeff:     -0.471D-02 0.292D-02-0.306D+00 0.182D+00 0.113D+01
 Gap=     0.336 Goal=   None    Shift=    0.000
 Gap=     0.303 Goal=   None    Shift=    0.000
 RMSDP=6.40D-04 MaxDP=8.79D-03 DE=-6.40D-04 OVMax= 2.15D-02

 Cycle   6  Pass 0  IDiag  1:
 E= -79.0284279005173     Delta-E=       -0.000297719349 Rises=F Damp=F
 DIIS: error= 5.55D-04 at cycle   6 NSaved=   6.
 NSaved= 6 IEnMin= 6 EnMin= -79.0284279005173     IErMin= 6 ErrMin= 5.55D-04
 ErrMax= 5.55D-04  0.00D+00 EMaxC= 1.00D-01 BMatC= 1.60D-05 BMatP= 2.69D-04
 IDIUse=3 WtCom= 9.94D-01 WtEn= 5.55D-03
 Coeff-Com: -0.130D-02 0.132D-01-0.595D-01-0.679D-01 0.872D-01 0.103D+01
 Coeff-En:   0.000D+00 0.000D+00 0.000D+00 0.000D+00 0.000D+00 0.100D+01
 Coeff:     -0.130D-02 0.132D-01-0.591D-01-0.675D-01 0.867D-01 0.103D+01
 Gap=     0.337 Goal=   None    Shift=    0.000
 Gap=     0.301 Goal=   None    Shift=    0.000
 RMSDP=1.68D-04 MaxDP=2.13D-03 DE=-2.98D-04 OVMax= 5.73D-03

 Cycle   7  Pass 0  IDiag  1:
 E= -79.0284498613150     Delta-E=       -0.000021960798 Rises=F Damp=F
 DIIS: error= 1.73D-04 at cycle   7 NSaved=   7.
 NSaved= 7 IEnMin= 7 EnMin= -79.0284498613150     IErMin= 7 ErrMin= 1.73D-04
 ErrMax= 1.73D-04  0.00D+00 EMaxC= 1.00D-01 BMatC= 2.50D-06 BMatP= 1.60D-05
 IDIUse=3 WtCom= 9.98D-01 WtEn= 1.73D-03
 Coeff-Com:  0.906D-05-0.159D-02 0.469D-01 0.188D-01-0.119D+00-0.366D+00
 Coeff-Com:  0.142D+01
 Coeff-En:   0.000D+00 0.000D+00 0.000D+00 0.000D+00 0.000D+00 0.000D+00
 Coeff-En:   0.100D+01
 Coeff:      0.904D-05-0.159D-02 0.469D-01 0.187D-01-0.119D+00-0.365D+00
 Coeff:      0.142D+01
 Gap=     0.337 Goal=   None    Shift=    0.000
 Gap=     0.301 Goal=   None    Shift=    0.000
 RMSDP=7.84D-05 MaxDP=1.14D-03 DE=-2.20D-05 OVMax= 2.78D-03

 Cycle   8  Pass 0  IDiag  1:
 E= -79.0284557139440     Delta-E=       -0.000005852629 Rises=F Damp=F
 DIIS: error= 1.01D-04 at cycle   8 NSaved=   8.
 NSaved= 8 IEnMin= 8 EnMin= -79.0284557139440     IErMin= 8 ErrMin= 1.01D-04
 ErrMax= 1.01D-04  0.00D+00 EMaxC= 1.00D-01 BMatC= 6.77D-07 BMatP= 2.50D-06
 IDIUse=3 WtCom= 9.99D-01 WtEn= 1.01D-03
 Coeff-Com:  0.194D-03-0.156D-02-0.213D-02 0.576D-02 0.167D-01-0.129D+00
 Coeff-Com: -0.454D+00 0.156D+01
 Coeff-En:   0.000D+00 0.000D+00 0.000D+00 0.000D+00 0.000D+00 0.000D+00
 Coeff-En:   0.000D+00 0.100D+01
 Coeff:      0.194D-03-0.155D-02-0.213D-02 0.575D-02 0.167D-01-0.129D+00
 Coeff:     -0.454D+00 0.156D+01
 Gap=     0.337 Goal=   None    Shift=    0.000
 Gap=     0.301 Goal=   None    Shift=    0.000
 RMSDP=6.39D-05 MaxDP=8.73D-04 DE=-5.85D-06 OVMax= 2.32D-03

 Cycle   9  Pass 0  IDiag  1:
 E= -79.0284578418216     Delta-E=       -0.000002127878 Rises=F Damp=F
 DIIS: error= 2.30D-05 at cycle   9 NSaved=   9.
 NSaved= 9 IEnMin= 9 EnMin= -79.0284578418216     IErMin= 9 ErrMin= 2.30D-05
 ErrMax= 2.30D-05  0.00D+00 EMaxC= 1.00D-01 BMatC= 7.85D-08 BMatP= 6.77D-07
 IDIUse=1 WtCom= 1.00D+00 WtEn= 0.00D+00
 Coeff-Com: -0.791D-04 0.465D-03-0.737D-02-0.394D-02 0.222D-01 0.631D-01
 Coeff-Com: -0.239D+00-0.134D+00 0.130D+01
 Coeff:     -0.791D-04 0.465D-03-0.737D-02-0.394D-02 0.222D-01 0.631D-01
 Coeff:     -0.239D+00-0.134D+00 0.130D+01
 Gap=     0.337 Goal=   None    Shift=    0.000
 Gap=     0.301 Goal=   None    Shift=    0.000
 RMSDP=2.48D-05 MaxDP=3.35D-04 DE=-2.13D-06 OVMax= 8.51D-04

 Cycle  10  Pass 0  IDiag  1:
 E= -79.0284580415782     Delta-E=       -0.000000199757 Rises=F Damp=F
 DIIS: error= 4.57D-06 at cycle  10 NSaved=  10.
 NSaved=10 IEnMin=10 EnMin= -79.0284580415782     IErMin=10 ErrMin= 4.57D-06
 ErrMax= 4.57D-06  0.00D+00 EMaxC= 1.00D-01 BMatC= 3.59D-09 BMatP= 7.85D-08
 IDIUse=1 WtCom= 1.00D+00 WtEn= 0.00D+00
 Coeff-Com: -0.550D-05-0.414D-04 0.258D-02 0.865D-03-0.608D-02-0.137D-01
 Coeff-Com:  0.981D-01-0.341D-01-0.381D+00 0.133D+01
 Coeff:     -0.550D-05-0.414D-04 0.258D-02 0.865D-03-0.608D-02-0.137D-01
 Coeff:      0.981D-01-0.341D-01-0.381D+00 0.133D+01
 Gap=     0.337 Goal=   None    Shift=    0.000
 Gap=     0.301 Goal=   None    Shift=    0.000
 RMSDP=2.12D-06 MaxDP=2.42D-05 DE=-2.00D-07 OVMax= 4.98D-05

 Initial convergence to 1.0D-05 achieved.  Increase integral accuracy.
 Cycle  11  Pass 1  IDiag  1:
 E= -79.0284701620825     Delta-E=       -0.000012120504 Rises=F Damp=F
 DIIS: error= 1.08D-05 at cycle   1 NSaved=   1.
 NSaved= 1 IEnMin= 1 EnMin= -79.0284701620825     IErMin= 1 ErrMin= 1.08D-05
 ErrMax= 1.08D-05  0.00D+00 EMaxC= 1.00D-01 BMatC= 1.49D-08 BMatP= 1.49D-08
 IDIUse=1 WtCom= 1.00D+00 WtEn= 0.00D+00
 Coeff-Com:  0.100D+01
 Coeff:      0.100D+01
 Gap=     0.337 Goal=   None    Shift=    0.000
 Gap=     0.301 Goal=   None    Shift=    0.000
 RMSDP=2.12D-06 MaxDP=2.42D-05 DE=-1.21D-05 OVMax= 3.66D-05

 Cycle  12  Pass 1  IDiag  1:
 E= -79.0284701661334     Delta-E=       -0.000000004051 Rises=F Damp=F
 DIIS: error= 1.53D-06 at cycle   2 NSaved=   2.
 NSaved= 2 IEnMin= 2 EnMin= -79.0284701661334     IErMin= 2 ErrMin= 1.53D-06
 ErrMax= 1.53D-06  0.00D+00 EMaxC= 1.00D-01 BMatC= 3.90D-10 BMatP= 1.49D-08
 IDIUse=1 WtCom= 1.00D+00 WtEn= 0.00D+00
 Coeff-Com: -0.458D-01 0.105D+01
 Coeff:     -0.458D-01 0.105D+01
 Gap=     0.337 Goal=   None    Shift=    0.000
 Gap=     0.301 Goal=   None    Shift=    0.000
 RMSDP=5.67D-07 MaxDP=8.72D-06 DE=-4.05D-09 OVMax= 1.69D-05

 Cycle  13  Pass 1  IDiag  1:
 E= -79.0284701663806     Delta-E=       -0.000000000247 Rises=F Damp=F
 DIIS: error= 1.70D-06 at cycle   3 NSaved=   3.
 NSaved= 3 IEnMin= 3 EnMin= -79.0284701663806     IErMin= 2 ErrMin= 1.53D-06
 ErrMax= 1.70D-06  0.00D+00 EMaxC= 1.00D-01 BMatC= 3.09D-10 BMatP= 3.90D-10
 IDIUse=1 WtCom= 1.00D+00 WtEn= 0.00D+00
 Coeff-Com: -0.409D-01 0.502D+00 0.539D+00
 Coeff:     -0.409D-01 0.502D+00 0.539D+00
 Gap=     0.337 Goal=   None    Shift=    0.000
 Gap=     0.301 Goal=   None    Shift=    0.000
 RMSDP=2.15D-07 MaxDP=3.43D-06 DE=-2.47D-10 OVMax= 9.64D-06

 Cycle  14  Pass 1  IDiag  1:
 E= -79.0284701665018     Delta-E=       -0.000000000121 Rises=F Damp=F
 DIIS: error= 7.54D-07 at cycle   4 NSaved=   4.
 NSaved= 4 IEnMin= 4 EnMin= -79.0284701665018     IErMin= 4 ErrMin= 7.54D-07
 ErrMax= 7.54D-07  0.00D+00 EMaxC= 1.00D-01 BMatC= 3.97D-11 BMatP= 3.09D-10
 IDIUse=1 WtCom= 1.00D+00 WtEn= 0.00D+00
 Coeff-Com:  0.144D-01-0.280D+00-0.100D-02 0.127D+01
 Coeff:      0.144D-01-0.280D+00-0.100D-02 0.127D+01
 Gap=     0.337 Goal=   None    Shift=    0.000
 Gap=     0.301 Goal=   None    Shift=    0.000
 RMSDP=2.90D-07 MaxDP=4.35D-06 DE=-1.21D-10 OVMax= 9.78D-06

 Cycle  15  Pass 1  IDiag  1:
 E= -79.0284701665820     Delta-E=       -0.000000000080 Rises=F Damp=F
 DIIS: error= 4.14D-07 at cycle   5 NSaved=   5.
 NSaved= 5 IEnMin= 5 EnMin= -79.0284701665820     IErMin= 5 ErrMin= 4.14D-07
 ErrMax= 4.14D-07  0.00D+00 EMaxC= 1.00D-01 BMatC= 9.92D-12 BMatP= 3.97D-11
 IDIUse=1 WtCom= 1.00D+00 WtEn= 0.00D+00
 Coeff-Com:  0.974D-02-0.808D-01-0.129D+00-0.227D+00 0.143D+01
 Coeff:      0.974D-02-0.808D-01-0.129D+00-0.227D+00 0.143D+01
 Gap=     0.337 Goal=   None    Shift=    0.000
 Gap=     0.301 Goal=   None    Shift=    0.000
 RMSDP=2.18D-07 MaxDP=2.82D-06 DE=-8.02D-11 OVMax= 8.16D-06

 Cycle  16  Pass 1  IDiag  1:
 E= -79.0284701666105     Delta-E=       -0.000000000028 Rises=F Damp=F
 DIIS: error= 1.35D-07 at cycle   6 NSaved=   6.
 NSaved= 6 IEnMin= 6 EnMin= -79.0284701666105     IErMin= 6 ErrMin= 1.35D-07
 ErrMax= 1.35D-07  0.00D+00 EMaxC= 1.00D-01 BMatC= 2.53D-12 BMatP= 9.92D-12
 IDIUse=1 WtCom= 1.00D+00 WtEn= 0.00D+00
 Coeff-Com: -0.107D-02 0.538D-01-0.458D-01-0.424D+00 0.411D+00 0.101D+01
 Coeff:     -0.107D-02 0.538D-01-0.458D-01-0.424D+00 0.411D+00 0.101D+01
 Gap=     0.337 Goal=   None    Shift=    0.000
 Gap=     0.301 Goal=   None    Shift=    0.000
 RMSDP=1.06D-07 MaxDP=1.54D-06 DE=-2.85D-11 OVMax= 3.45D-06

 Cycle  17  Pass 1  IDiag  1:
 E= -79.0284701666149     Delta-E=       -0.000000000004 Rises=F Damp=F
 DIIS: error= 3.97D-08 at cycle   7 NSaved=   7.
 NSaved= 7 IEnMin= 7 EnMin= -79.0284701666149     IErMin= 7 ErrMin= 3.97D-08
 ErrMax= 3.97D-08  0.00D+00 EMaxC= 1.00D-01 BMatC= 2.51D-13 BMatP= 2.53D-12
 IDIUse=1 WtCom= 1.00D+00 WtEn= 0.00D+00
 Coeff-Com: -0.206D-02 0.270D-01 0.111D-01-0.272D-01-0.171D+00 0.214D+00
 Coeff-Com:  0.949D+00
 Coeff:     -0.206D-02 0.270D-01 0.111D-01-0.272D-01-0.171D+00 0.214D+00
 Coeff:      0.949D+00
 Gap=     0.337 Goal=   None    Shift=    0.000
 Gap=     0.301 Goal=   None    Shift=    0.000
 RMSDP=1.67D-08 MaxDP=2.17D-07 DE=-4.42D-12 OVMax= 5.26D-07

 Cycle  18  Pass 1  IDiag  1:
 E= -79.0284701666151     Delta-E=       -0.000000000000 Rises=F Damp=F
 DIIS: error= 1.20D-08 at cycle   8 NSaved=   8.
 NSaved= 8 IEnMin= 8 EnMin= -79.0284701666151     IErMin= 8 ErrMin= 1.20D-08
 ErrMax= 1.20D-08  0.00D+00 EMaxC= 1.00D-01 BMatC= 1.04D-14 BMatP= 2.51D-13
 IDIUse=1 WtCom= 1.00D+00 WtEn= 0.00D+00
 Coeff-Com:  0.440D-03-0.785D-02 0.524D-03 0.322D-01 0.667D-02-0.960D-01
 Coeff-Com: -0.261D+00 0.132D+01
 Coeff:      0.440D-03-0.785D-02 0.524D-03 0.322D-01 0.667D-02-0.960D-01
 Coeff:     -0.261D+00 0.132D+01
 Gap=     0.337 Goal=   None    Shift=    0.000
 Gap=     0.301 Goal=   None    Shift=    0.000
 RMSDP=4.30D-09 MaxDP=4.96D-08 DE=-1.71D-13 OVMax= 1.36D-07

 SCF Done:  E(UM062X) =  -79.0284701666     A.U. after   18 cycles
            NFock= 18  Conv=0.43D-08     -V/T= 2.0058
 <Sx>= 0.0000 <Sy>= 0.0000 <Sz>= 0.5000 <S**2>= 0.7663 S= 0.5081
 <L.S>= 0.000000000000E+00
 KE= 7.857559774720D+01 PE=-2.562271365562D+02 EE= 6.177061601375D+01
 Annihilation of the first spin contaminant:
 S**2 before annihilation     0.7663,   after     0.7500
 Leave Link  502 at Wed Oct  7 14:19:11 2020, MaxMem=  2684354560 cpu:              59.4 elap:               5.5
 (Enter /udrive/faculty/rpeverati/g16/g16/l508.exe)
 QCSCF skips out because SCF is already converged.
 Leave Link  508 at Wed Oct  7 14:19:12 2020, MaxMem=  2684354560 cpu:               0.5 elap:               0.4
 (Enter /udrive/faculty/rpeverati/g16/g16/l601.exe)
 Copying SCF densities to generalized density rwf, IOpCl= 1 IROHF=0.

 **********************************************************************

            Population analysis using the SCF density.

 **********************************************************************

 Orbital symmetries:
 Alpha Orbitals:
       Occupied  (A) (A) (A) (A) (A) (A) (A) (A) (A)
       Virtual   (A) (A) (A) (A) (A) (A) (A) (A) (A) (A) (A) (A)
                 (A) (A) (A) (A) (A) (A) (A) (A) (A) (A) (A) (A)
                 (A) (A) (A) (A) (A)
 Beta  Orbitals:
       Occupied  (A) (A) (A) (A) (A) (A) (A) (A)
       Virtual   (A) (A) (A) (A) (A) (A) (A) (A) (A) (A) (A) (A)
                 (A) (A) (A) (A) (A) (A) (A) (A) (A) (A) (A) (A)
                 (A) (A) (A) (A) (A) (A)
 The electronic state is 2-A.
 Alpha  occ. eigenvalues --  -10.54935 -10.54443  -0.86034  -0.66988  -0.54367
 Alpha  occ. eigenvalues --   -0.48589  -0.42303  -0.38828  -0.27324
 Alpha virt. eigenvalues --    0.06389   0.16587   0.18733   0.20564   0.29103
 Alpha virt. eigenvalues --    0.36241   0.51999   0.60313   0.61289   0.66357
 Alpha virt. eigenvalues --    0.73118   0.81524   0.82827   0.91236   0.93716
 Alpha virt. eigenvalues --    1.00424   1.01592   1.18685   1.22846   1.50036
 Alpha virt. eigenvalues --    1.60592   1.86167   1.93529   2.05995   2.12056
 Alpha virt. eigenvalues --    2.32771   2.39968   2.70813   2.72189
  Beta  occ. eigenvalues --  -10.54987 -10.54260  -0.85576  -0.66515  -0.54119
  Beta  occ. eigenvalues --   -0.48204  -0.42138  -0.33669
  Beta virt. eigenvalues --   -0.03556   0.07612   0.16603   0.18763   0.20557
  Beta virt. eigenvalues --    0.29079   0.36315   0.52078   0.60410   0.62299
  Beta virt. eigenvalues --    0.65859   0.73598   0.77678   0.82627   0.91385
  Beta virt. eigenvalues --    0.94144   1.00463   1.02145   1.19099   1.22916
  Beta virt. eigenvalues --    1.50924   1.61278   1.86706   1.94037   2.06595
  Beta virt. eigenvalues --    2.12425   2.33252   2.40852   2.71769   2.72741
          Condensed to atoms (all electrons):
               1          2          3          4          5          6
     1  C    5.012861   0.628153   0.011180   0.389153   0.389150  -0.036696
     2  C    0.628153   4.988834  -0.013799  -0.036596  -0.036584   0.387692
     3  H    0.011180  -0.013799   1.058397  -0.007014  -0.007018   0.000022
     4  H    0.389153  -0.036596  -0.007014   0.508435  -0.034873   0.003999
     5  H    0.389150  -0.036584  -0.007018  -0.034873   0.508402  -0.006483
     6  H   -0.036696   0.387692   0.000022   0.003999  -0.006483   0.517424
     7  H   -0.036704   0.387696   0.000022  -0.006491   0.003998  -0.034707
               7
     1  C   -0.036704
     2  C    0.387696
     3  H    0.000022
     4  H   -0.006491
     5  H    0.003998
     6  H   -0.034707
     7  H    0.517445
          Atomic-Atomic Spin Densities.
               1          2          3          4          5          6
     1  C   -0.122930   0.010058  -0.064245   0.006408   0.006410   0.000715
     2  C    0.010058   0.330947  -0.028297  -0.001048  -0.001047  -0.001785
     3  H   -0.064245  -0.028297   0.978292  -0.007073  -0.007076  -0.000077
     4  H    0.006408  -0.001048  -0.007073   0.008593   0.000502  -0.000059
     5  H    0.006410  -0.001047  -0.007076   0.000502   0.008590   0.000088
     6  H    0.000715  -0.001785  -0.000077  -0.000059   0.000088  -0.015070
     7  H    0.000715  -0.001785  -0.000077   0.000088  -0.000059   0.000969
               7
     1  C    0.000715
     2  C   -0.001785
     3  H   -0.000077
     4  H    0.000088
     5  H   -0.000059
     6  H    0.000969
     7  H   -0.015072
 Mulliken charges and spin densities:
               1          2
     1  C   -0.357097  -0.162869
     2  C   -0.305396   0.307043
     3  H   -0.041790   0.871447
     4  H    0.183387   0.007411
     5  H    0.183407   0.007408
     6  H    0.168750  -0.015219
     7  H    0.168739  -0.015220
 Sum of Mulliken charges =  -0.00000   1.00000
 Mulliken charges and spin densities with hydrogens summed into heavy atoms:
               1          2
     1  C   -0.032093   0.723396
     2  C    0.032093   0.276604
 Electronic spatial extent (au):  <R**2>=            103.3679
 Charge=             -0.0000 electrons
 Dipole moment (field-independent basis, Debye):
    X=              0.3263    Y=              0.0002    Z=             -0.4638  Tot=              0.5671
 Quadrupole moment (field-independent basis, Debye-Ang):
   XX=            -13.9092   YY=            -13.2612   ZZ=            -16.8066
   XY=             -0.0003   XZ=              1.4430   YZ=              0.0010
 Traceless Quadrupole moment (field-independent basis, Debye-Ang):
   XX=              0.7498   YY=              1.3978   ZZ=             -2.1476
   XY=             -0.0003   XZ=              1.4430   YZ=              0.0010
 Octapole moment (field-independent basis, Debye-Ang**2):
  XXX=              3.6455  YYY=              0.0015  ZZZ=             -3.2467  XYY=              0.8801
  XXY=             -0.0006  XXZ=             -1.9383  XZZ=              1.5122  YZZ=              0.0005
  YYZ=             -1.0463  XYZ=             -0.0002
 Hexadecapole moment (field-independent basis, Debye-Ang**3):
 XXXX=            -86.1977 YYYY=            -26.7277 ZZZZ=            -41.4635 XXXY=             -0.0019
 XXXZ=              6.8261 YYYX=             -0.0021 YYYZ=              0.0024 ZZZX=              5.8505
 ZZZY=              0.0025 XXYY=            -16.1361 XXZZ=            -23.0356 YYZZ=            -11.4323
 XXYZ=              0.0023 YYXZ=              2.3094 ZZXY=             -0.0004
 N-N= 3.685245262868D+01 E-N=-2.562271365772D+02  KE= 7.857559774720D+01
                          Isotropic Fermi Contact Couplings
        Atom                 a.u.       MegaHertz       Gauss      10(-4) cm-1
     1  C(13)              0.01036      11.64390       4.15483       3.88399
     2  C(13)              0.03349      37.65056      13.43466      12.55887
     3  H(1)               0.27426    1225.91021     437.43525     408.91963
     4  H(1)               0.00625      27.92311       9.96366       9.31415
     5  H(1)               0.00625      27.92793       9.96538       9.31576
     6  H(1)              -0.00454     -20.27375      -7.23418      -6.76260
     7  H(1)              -0.00454     -20.27469      -7.23451      -6.76291
 --------------------------------------------------------
       Center         ----  Spin Dipole Couplings  ----
                      3XX-RR        3YY-RR        3ZZ-RR
 --------------------------------------------------------
     1   Atom        0.057075      0.039193     -0.096268
     2   Atom       -0.124865     -0.146933      0.271797
     3   Atom        0.002371      0.006792     -0.009164
     4   Atom       -0.001558     -0.009087      0.010645
     5   Atom       -0.001566     -0.009097      0.010663
     6   Atom       -0.005739      0.010288     -0.004549
     7   Atom       -0.005749      0.010294     -0.004545
 --------------------------------------------------------
                        XY            XZ            YZ
 --------------------------------------------------------
     1   Atom       -0.000001      0.030019      0.000026
     2   Atom        0.000034     -0.097029     -0.000146
     3   Atom       -0.000003      0.008392      0.000005
     4   Atom        0.004669     -0.002711     -0.009574
     5   Atom       -0.004669     -0.002712      0.009563
     6   Atom       -0.020524     -0.004551     -0.002854
     7   Atom        0.020522     -0.004539      0.002864
 --------------------------------------------------------


 ---------------------------------------------------------------------------------
              Anisotropic Spin Dipole Couplings in Principal Axis System
 ---------------------------------------------------------------------------------

       Atom             a.u.   MegaHertz   Gauss  10(-4) cm-1        Axes

              Baa    -0.1019   -13.679    -4.881    -4.563 -0.1855 -0.0002  0.9826
     1 C(13)  Bbb     0.0392     5.259     1.877     1.754 -0.0002  1.0000  0.0001
              Bcc     0.0627     8.419     3.004     2.808  0.9826  0.0002  0.1855
 
              Baa    -0.1473   -19.770    -7.054    -6.595  0.9742 -0.0016  0.2255
     2 C(13)  Bbb    -0.1469   -19.717    -7.036    -6.577  0.0015  1.0000  0.0007
              Bcc     0.2943    39.487    14.090    13.171 -0.2255 -0.0003  0.9742
 
              Baa    -0.0136    -7.245    -2.585    -2.417 -0.4656 -0.0003  0.8850
     3 H(1)   Bbb     0.0068     3.621     1.292     1.208  0.8849  0.0151  0.4656
              Bcc     0.0068     3.624     1.293     1.209 -0.0135  0.9999 -0.0068
 
              Baa    -0.0139    -7.419    -2.647    -2.475 -0.2718  0.9064  0.3235
     4 H(1)   Bbb    -0.0017    -0.911    -0.325    -0.304  0.9303  0.1614  0.3293
              Bcc     0.0156     8.330     2.972     2.778 -0.2462 -0.3904  0.8871
 
              Baa    -0.0139    -7.419    -2.647    -2.475  0.2721  0.9065 -0.3228
     5 H(1)   Bbb    -0.0017    -0.914    -0.326    -0.305  0.9303 -0.1620  0.3291
              Bcc     0.0156     8.332     2.973     2.779 -0.2460  0.3899  0.8874
 
              Baa    -0.0215   -11.451    -4.086    -3.820  0.7878  0.5365  0.3025
     6 H(1)   Bbb    -0.0028    -1.519    -0.542    -0.507 -0.2456 -0.1767  0.9531
              Bcc     0.0243    12.970     4.628     4.326 -0.5648  0.8252  0.0074
 
              Baa    -0.0215   -11.451    -4.086    -3.820  0.7880 -0.5365  0.3022
     7 H(1)   Bbb    -0.0028    -1.518    -0.542    -0.506 -0.2457  0.1761  0.9532
              Bcc     0.0243    12.969     4.628     4.326  0.5646  0.8254 -0.0069
 

 ---------------------------------------------------------------------------------

 No NMR shielding tensors so no spin-rotation constants.
 Leave Link  601 at Wed Oct  7 14:19:13 2020, MaxMem=  2684354560 cpu:               5.1 elap:               0.7
 (Enter /udrive/faculty/rpeverati/g16/g16/l701.exe)
 ... and contract with generalized density number  0.
 Compute integral first derivatives.
 R6Disp: Adding Grimme-D3 dispersion energy 1st derivatives to the gradient.
 Leave Link  701 at Wed Oct  7 14:19:14 2020, MaxMem=  2684354560 cpu:               3.6 elap:               0.6
 (Enter /udrive/faculty/rpeverati/g16/g16/l702.exe)
 L702 exits ... SP integral derivatives will be done elsewhere.
 Leave Link  702 at Wed Oct  7 14:19:14 2020, MaxMem=  2684354560 cpu:               1.0 elap:               0.4
 (Enter /udrive/faculty/rpeverati/g16/g16/l703.exe)
 Integral derivatives from FoFJK, PRISM(SPDF).
 Compute integral first derivatives, UseDBF=F ICtDFT=           0.
 Calling FoFJK, ICntrl=      2127 FMM=F ISym2X=0 I1Cent= 0 IOpClX= 1 NMat=1 NMatS=1 NMatT=0.
 FoFJK:  IHMeth= 1 ICntrl=    2127 DoSepK=F KAlg= 0 I1Cent=           0 FoldK=F
 IRaf=         0 NMat=       1 IRICut=       1 DoRegI=T DoRafI=F ISym2E= 0 IDoP0=0 IntGTp=1.
 FoFCou: FMM=F IPFlag=           0 FMFlag=      100000 FMFlg1=         800
         NFxFlg=           0 DoJE=F BraDBF=F KetDBF=F FulRan=T
         wScrn=  0.000000 ICntrl=      2127 IOpCl=  1 I1Cent=           0 NGrid=           0
         NMat0=    1 NMatS0=      1 NMatT0=    0 NMatD0=    1 NMtDS0=    0 NMtDT0=    0
 Symmetry not used in FoFCou.
 Leave Link  703 at Wed Oct  7 14:19:16 2020, MaxMem=  2684354560 cpu:              11.3 elap:               1.3
 (Enter /udrive/faculty/rpeverati/g16/g16/l716.exe)
 Dipole        = 1.28373562D-01 6.79313841D-05-1.82485656D-01
 ***** Axes restored to original set *****
 -------------------------------------------------------------------
 Center     Atomic                   Forces (Hartrees/Bohr)
 Number     Number              X              Y              Z
 -------------------------------------------------------------------
      1        6           0.006984041    0.000021239    0.001978608
      2        6          -0.007048461   -0.000000487   -0.000530769
      3        1           0.000254681    0.000001542   -0.000420741
      4        1          -0.001891851    0.002736317   -0.000608614
      5        1          -0.001880657   -0.002754753   -0.000621053
      6        1           0.001784839   -0.002406252    0.000103521
      7        1           0.001797407    0.002402395    0.000099049
 -------------------------------------------------------------------
 Cartesian Forces:  Max     0.007048461 RMS     0.002617188
 Leave Link  716 at Wed Oct  7 14:19:16 2020, MaxMem=  2684354560 cpu:               1.9 elap:               0.5
 (Enter /udrive/faculty/rpeverati/g16/g16/l103.exe)

 GradGradGradGradGradGradGradGradGradGradGradGradGradGradGradGradGradGrad
 Berny optimization.
 Optmz: redundant internal coordinate code flag= 1
 FormGI is forming the generalized inverse of G from B-inverse, IUseBI=4.
 Internal  Forces:  Max     0.003463583 RMS     0.001593469
 Search for a saddle point.
 Step number   1 out of a maximum of   50
 All quantities printed in internal units (Hartrees-Bohrs-Radians)
 Swapping is turned off.
 Second derivative matrix not updated -- first step.
 The second derivative matrix:
                          R1        R2        R3        R4        R5
           R1           0.56193
           R2           0.00000   0.04448
           R3           0.00000   0.00000   0.35880
           R4           0.00000   0.00000   0.00000   0.35883
           R5           0.00000   0.00000   0.00000   0.00000   0.35887
           R6           0.00000   0.00000   0.00000   0.00000   0.00000
           A1           0.00000   0.00000   0.00000   0.00000   0.00000
           A2           0.00000   0.00000   0.00000   0.00000   0.00000
           A3           0.00000   0.00000   0.00000   0.00000   0.00000
           A4           0.00000   0.00000   0.00000   0.00000   0.00000
           A5           0.00000   0.00000   0.00000   0.00000   0.00000
           A6           0.00000   0.00000   0.00000   0.00000   0.00000
           A7           0.00000   0.00000   0.00000   0.00000   0.00000
           A8           0.00000   0.00000   0.00000   0.00000   0.00000
           A9           0.00000   0.00000   0.00000   0.00000   0.00000
           D1           0.00000   0.00000   0.00000   0.00000   0.00000
           D2           0.00000   0.00000   0.00000   0.00000   0.00000
           D3           0.00000   0.00000   0.00000   0.00000   0.00000
           D4           0.00000   0.00000   0.00000   0.00000   0.00000
           D5           0.00000   0.00000   0.00000   0.00000   0.00000
           D6           0.00000   0.00000   0.00000   0.00000   0.00000
                          R6        A1        A2        A3        A4
           R6           0.35887
           A1           0.00000   0.16000
           A2           0.00000   0.00000   0.16000
           A3           0.00000   0.00000   0.00000   0.16000
           A4           0.00000   0.00000   0.00000   0.00000   0.16000
           A5           0.00000   0.00000   0.00000   0.00000   0.00000
           A6           0.00000   0.00000   0.00000   0.00000   0.00000
           A7           0.00000   0.00000   0.00000   0.00000   0.00000
           A8           0.00000   0.00000   0.00000   0.00000   0.00000
           A9           0.00000   0.00000   0.00000   0.00000   0.00000
           D1           0.00000   0.00000   0.00000   0.00000   0.00000
           D2           0.00000   0.00000   0.00000   0.00000   0.00000
           D3           0.00000   0.00000   0.00000   0.00000   0.00000
           D4           0.00000   0.00000   0.00000   0.00000   0.00000
           D5           0.00000   0.00000   0.00000   0.00000   0.00000
           D6           0.00000   0.00000   0.00000   0.00000   0.00000
                          A5        A6        A7        A8        A9
           A5           0.16000
           A6           0.00000   0.16000
           A7           0.00000   0.00000   0.16000
           A8           0.00000   0.00000   0.00000   0.16000
           A9           0.00000   0.00000   0.00000   0.00000   0.16000
           D1           0.00000   0.00000   0.00000   0.00000   0.00000
           D2           0.00000   0.00000   0.00000   0.00000   0.00000
           D3           0.00000   0.00000   0.00000   0.00000   0.00000
           D4           0.00000   0.00000   0.00000   0.00000   0.00000
           D5           0.00000   0.00000   0.00000   0.00000   0.00000
           D6           0.00000   0.00000   0.00000   0.00000   0.00000
                          D1        D2        D3        D4        D5
           D1           0.02822
           D2           0.00000   0.02822
           D3           0.00000   0.00000   0.02822
           D4           0.00000   0.00000   0.00000   0.02822
           D5           0.00000   0.00000   0.00000   0.00000   0.02822
           D6           0.00000   0.00000   0.00000   0.00000   0.00000
                          D6
           D6           0.02822
 ITU=  0
 Eigenvectors of the second derivative matrix:
                           1         2         3         4         5
     Eigenvalues --     0.02822   0.02827   0.04448   0.05333   0.09156
   1         R1        -0.00000   0.00000  -0.00000  -0.00000  -0.00000
   2         R2         0.00000   0.00000   1.00000   0.00000   0.00000
   3         R3        -0.00000   0.00000   0.00000   0.00000  -0.00000
   4         R4         0.00000   0.00000  -0.00000  -0.00000   0.00000
   5         R5        -0.00000   0.00000   0.00000  -0.00000  -0.00000
   6         R6         0.00000  -0.00000  -0.00000  -0.00000   0.00000
   7         A1        -0.00000  -0.00000  -0.00000   0.25235   0.00002
   8         A2        -0.00000   0.00000   0.00000  -0.02000  -0.13689
   9         A3         0.00000  -0.00000  -0.00000  -0.01999   0.13687
  10         A4         0.00000  -0.00000  -0.00000   0.24245  -0.47082
  11         A5        -0.00000  -0.00000  -0.00000   0.24254   0.47063
  12         A6        -0.00000  -0.00000   0.00000  -0.09186   0.00004
  13         A7        -0.00000  -0.01126  -0.00000   0.00000   0.00000
  14         A8        -0.00000  -0.01126   0.00000  -0.00000   0.00000
  15         A9        -0.00000  -0.01127  -0.00000   0.00000  -0.00000
  16         D1        -0.40825  -0.40817   0.00000   0.00009   0.41608
  17         D2        -0.40825   0.40817  -0.00000   0.00009   0.41608
  18         D3        -0.40825  -0.40817  -0.00000   0.44981  -0.20810
  19         D4        -0.40825   0.40817  -0.00000   0.44981  -0.20810
  20         D5        -0.40825  -0.40817   0.00000  -0.44990  -0.20798
  21         D6        -0.40825   0.40817   0.00000  -0.44990  -0.20798
                           6         7         8         9        10
     Eigenvalues --     0.16000   0.16000   0.16000   0.16000   0.16000
   1         R1         0.00000   0.00000  -0.00000   0.00000  -0.00000
   2         R2         0.00000  -0.00000  -0.00000   0.00000   0.00000
   3         R3         0.00000   0.00000  -0.00000   0.00000  -0.00000
   4         R4        -0.00000  -0.00000   0.00000   0.00000  -0.00000
   5         R5         0.00000  -0.00000   0.00000  -0.00000  -0.00000
   6         R6        -0.00000   0.00000  -0.00000  -0.00000  -0.00000
   7         A1        -0.04536  -0.25818  -0.35229   0.56267  -0.38177
   8         A2         0.59476   0.09438  -0.11775   0.25301   0.43282
   9         A3        -0.61494  -0.08368  -0.37525  -0.23329   0.21792
  10         A4        -0.14938   0.10685   0.21750  -0.36628   0.07271
  11         A5         0.20240   0.15870   0.29245  -0.22501   0.13533
  12         A6         0.01988  -0.01054   0.48576  -0.01943  -0.64120
  13         A7        -0.16134  -0.54442   0.43245   0.22823   0.32465
  14         A8        -0.20537   0.73923  -0.02612   0.27464  -0.04663
  15         A9         0.36628  -0.19459  -0.40585  -0.50228  -0.27769
  16         D1         0.00000   0.00000   0.00000   0.00000   0.00000
  17         D2         0.00000  -0.00000   0.00000  -0.00000  -0.00000
  18         D3        -0.00000   0.00000  -0.00000   0.00000   0.00000
  19         D4        -0.00000   0.00000   0.00000  -0.00000  -0.00000
  20         D5        -0.00000  -0.00000  -0.00000   0.00000   0.00000
  21         D6        -0.00000  -0.00000   0.00000  -0.00000  -0.00000
                          11        12        13        14        15
     Eigenvalues --     0.35880   0.35883   0.35887   0.35887   0.56193
   1         R1        -0.00000   0.00000   0.00000   0.00000   1.00000
   2         R2        -0.00000   0.00000   0.00000   0.00000   0.00000
   3         R3         1.00000   0.00000  -0.00000   0.00000   0.00000
   4         R4         0.00000  -1.00000  -0.00000   0.00000   0.00000
   5         R5        -0.00000   0.00000  -1.00000  -0.00000   0.00000
   6         R6        -0.00000   0.00000  -0.00000   1.00000  -0.00000
   7         A1        -0.00000   0.00000  -0.00000  -0.00000   0.00000
   8         A2        -0.00000  -0.00000   0.00000   0.00000  -0.00000
   9         A3         0.00000   0.00000  -0.00000  -0.00000   0.00000
  10         A4        -0.00000  -0.00000   0.00000   0.00000   0.00000
  11         A5        -0.00000   0.00000   0.00000   0.00000  -0.00000
  12         A6        -0.00000   0.00000  -0.00000   0.00000  -0.00000
  13         A7         0.00000   0.00000  -0.00000   0.00000   0.00000
  14         A8        -0.00000  -0.00000  -0.00000  -0.00000  -0.00000
  15         A9        -0.00000  -0.00000   0.00000   0.00000  -0.00000
  16         D1         0.00000   0.00000  -0.00000  -0.00000   0.00000
  17         D2        -0.00000   0.00000   0.00000   0.00000   0.00000
  18         D3         0.00000  -0.00000   0.00000   0.00000   0.00000
  19         D4        -0.00000  -0.00000   0.00000   0.00000  -0.00000
  20         D5         0.00000  -0.00000   0.00000   0.00000  -0.00000
  21         D6        -0.00000  -0.00000   0.00000   0.00000  -0.00000
 Eigenvalue     1 is   2.82D-02 should be less than     0.000000 Eigenvector:
                          D5        D1        D3        D6        D2
   1                   -0.40825  -0.40825  -0.40825  -0.40825  -0.40825
                          D4        R2        A9        A8        A7
   1                   -0.40825   0.00000  -0.00000  -0.00000  -0.00000
 RLam0= 2.82D-02.
 Iter=   1 RLamda= 0.00000000D+00 Sum=-1.49311642D-04.
 Iter=   2 RLamda=-1.49311642D-04 Sum=-1.49200654D-04.
 Iter=   3 RLamda=-1.49200654D-04 Sum=-1.49200736D-04.
 RFO step:  Lambda0=2.821990441D-02 Lambda=-1.49200654D-04.
 Linear search not attempted -- option 19 set.
 Iteration  1 RMS(Cart)=  0.00668392 RMS(Int)=  0.00004013
 Iteration  2 RMS(Cart)=  0.00003358 RMS(Int)=  0.00000881
 Iteration  3 RMS(Cart)=  0.00000000 RMS(Int)=  0.00000881
 ITry= 1 IFail=0 DXMaxC= 1.51D-02 DCOld= 1.00D+10 DXMaxT= 1.00D-01 DXLimC= 3.00D+00 Rises=F
 Variable       Old X    -DE/DX   Delta X   Delta X   Delta X     New X
                                 (Linear)    (Quad)   (Total)
    R1        2.54087  -0.00346   0.00000  -0.00616  -0.00616   2.53471
    R2        3.74267  -0.00049   0.00000  -0.01101  -0.01101   3.73166
    R3        2.04269   0.00337   0.00000   0.00939   0.00939   2.05208
    R4        2.04265   0.00338   0.00000   0.00943   0.00943   2.05207
    R5        2.04259   0.00297   0.00000   0.00827   0.00827   2.05086
    R6        2.04259   0.00297   0.00000   0.00828   0.00828   2.05087
    A1        1.86205  -0.00012   0.00000  -0.00091  -0.00091   1.86113
    A2        2.11596   0.00020   0.00000   0.00124   0.00124   2.11720
    A3        2.11630   0.00016   0.00000   0.00102   0.00102   2.11731
    A4        1.49516  -0.00002   0.00000  -0.00030  -0.00030   1.49486
    A5        1.49495  -0.00001   0.00000  -0.00023  -0.00023   1.49472
    A6        2.03778  -0.00034   0.00000  -0.00207  -0.00207   2.03571
    A7        2.11889   0.00018   0.00000   0.00124   0.00122   2.12011
    A8        2.11864   0.00020   0.00000   0.00140   0.00137   2.12002
    A9        2.04460  -0.00036   0.00000  -0.00210  -0.00212   2.04248
    D1        1.54556   0.00018   0.00000   0.01759   0.01759   1.56316
    D2       -1.54549  -0.00019   0.00000   0.00465   0.00465  -1.54084
    D3       -3.07716   0.00015   0.00000   0.01708   0.01708  -3.06008
    D4        0.11498  -0.00021   0.00000   0.00413   0.00413   0.11911
    D5       -0.11476   0.00021   0.00000   0.01810   0.01810  -0.09667
    D6        3.07738  -0.00016   0.00000   0.00515   0.00515   3.08253
         Item               Value     Threshold  Converged?
 Maximum Force            0.003464     0.000450     NO 
 RMS     Force            0.001593     0.000300     NO 
 Maximum Displacement     0.015107     0.001800     NO 
 RMS     Displacement     0.006687     0.001200     NO 
 Predicted change in Energy=-6.403205D-05
 Lowest energy point so far.  Saving SCF results.
 Largest change from initial coordinates is atom    6       0.007 Angstoms.
 GradGradGradGradGradGradGradGradGradGradGradGradGradGradGradGradGradGrad

 Leave Link  103 at Wed Oct  7 14:19:17 2020, MaxMem=  2684354560 cpu:               5.4 elap:               0.8
 (Enter /udrive/faculty/rpeverati/g16/g16/l202.exe)
                          Input orientation:                          
 ---------------------------------------------------------------------
 Center     Atomic      Atomic             Coordinates (Angstroms)
 Number     Number       Type             X           Y           Z
 ---------------------------------------------------------------------
      1          6           0       -0.566792   -0.000865   -0.217220
      2          6           0        0.748562   -0.000285    0.045373
      3          1           0       -1.491578    0.004002    1.527553
      4          1           0       -1.103863    0.922784   -0.411223
      5          1           0       -1.104180   -0.925394   -0.406067
      6          1           0        1.302739   -0.925598    0.165769
      7          1           0        1.298805    0.925279    0.180946
 ---------------------------------------------------------------------
                    Distance matrix (angstroms):
                    1          2          3          4          5
     1  C    0.000000
     2  C    1.341309   0.000000
     3  H    1.974712   2.686095   0.000000
     4  H    1.085915   2.119437   2.180215   0.000000
     5  H    1.085911   2.119500   2.180078   1.848185   0.000000
     6  H    2.120602   1.085270   3.244506   3.088878   2.473915
     7  H    2.120550   1.085272   3.232390   2.474568   3.089323
                    6          7
     6  H    0.000000
     7  H    1.850943   0.000000
 Stoichiometry    C2H5(2)
 Framework group  C1[X(C2H5)]
 Deg. of freedom    15
 Full point group                 C1      NOp   1
 RotChk:  IX=3 Diff= 6.20D-02
 Largest Abelian subgroup         C1      NOp   1
 Largest concise Abelian subgroup C1      NOp   1
                         Standard orientation:                         
 ---------------------------------------------------------------------
 Center     Atomic      Atomic             Coordinates (Angstroms)
 Number     Number       Type             X           Y           Z
 ---------------------------------------------------------------------
      1          6           0       -0.566719   -0.010357   -0.217548
      2          6           0        0.749073    0.002313    0.042532
      3          1           0       -1.488579    0.070521    1.526906
      4          1           0       -1.104596    0.903668   -0.450910
      5          1           0       -1.103943   -0.942510   -0.364803
      6          1           0        1.303932   -0.916591    0.202402
      7          1           0        1.299061    0.933173    0.136497
 ---------------------------------------------------------------------
 Rotational constants (GHZ):          75.5461475          23.0209822          22.8042172
 Leave Link  202 at Wed Oct  7 14:19:18 2020, MaxMem=  2684354560 cpu:               1.2 elap:               0.5
 (Enter /udrive/faculty/rpeverati/g16/g16/l301.exe)
 Standard basis: 6-31G(d) (5D, 7F)
 Ernie: Thresh=  0.10000D-02 Tol=  0.10000D-05 Strict=F.
 There are    40 symmetry adapted cartesian basis functions of A   symmetry.
 There are    38 symmetry adapted basis functions of A   symmetry.
    38 basis functions,    76 primitive gaussians,    40 cartesian basis functions
     9 alpha electrons        8 beta electrons
       nuclear repulsion energy        36.8371033098 Hartrees.
 IExCor= 4336 DFT=T Ex+Corr=M062X ExCW=0 ScaHFX=  0.540000
 ScaDFX=  1.000000  1.000000  1.000000  1.000000 ScalE2=  1.000000  1.000000
 IRadAn=      5 IRanWt=     -1 IRanGd=            0 ICorTp=0 IEmpDi=131
 NAtoms=    7 NActive=    7 NUniq=    7 SFac= 1.00D+00 NAtFMM=   60 NAOKFM=F Big=F
 Integral buffers will be    131072 words long.
 Raffenetti 2 integral format.
 Two-electron integral symmetry is turned on.
 R6Disp:  Grimme-D3 Dispersion energy=       -0.0000142682 Hartrees.
 Nuclear repulsion after empirical dispersion term =       36.8370890416 Hartrees.
 Leave Link  301 at Wed Oct  7 14:19:19 2020, MaxMem=  2684354560 cpu:               2.2 elap:               0.6
 (Enter /udrive/faculty/rpeverati/g16/g16/l302.exe)
 NPDir=0 NMtPBC=     1 NCelOv=     1 NCel=       1 NClECP=     1 NCelD=      1
         NCelK=      1 NCelE2=     1 NClLst=     1 CellRange=     0.0.
 One-electron integrals computed using PRISM.
 One-electron integral symmetry used in STVInt
 NBasis=    38 RedAO= T EigKep=  8.23D-03  NBF=    38
 NBsUse=    38 1.00D-06 EigRej= -1.00D+00 NBFU=    38
 Precomputing XC quadrature grid using
 IXCGrd= 4 IRadAn=           5 IRanWt=          -1 IRanGd=           0 AccXCQ= 0.00D+00.
 Generated NRdTot=       0 NPtTot=           0 NUsed=           0 NTot=          32
 NSgBfM=    40    40    40    40    40 MxSgAt=     7 MxSgA2=     7.
 Leave Link  302 at Wed Oct  7 14:19:20 2020, MaxMem=  2684354560 cpu:               3.3 elap:               0.7
 (Enter /udrive/faculty/rpeverati/g16/g16/l303.exe)
 DipDrv:  MaxL=1.
 Leave Link  303 at Wed Oct  7 14:19:21 2020, MaxMem=  2684354560 cpu:               1.5 elap:               0.5
 (Enter /udrive/faculty/rpeverati/g16/g16/l401.exe)
 Initial guess from the checkpoint file:  "MN_13_c2h5ts_BH76_M062XD30_631Gs.chk"
 SCF N**3 symmetry information disabled.
 B after Tr=     0.000000    0.000000    0.000000
         Rot=    0.999758    0.021981   -0.000549   -0.000297 Ang=   2.52 deg.
 Guess basis will be translated and rotated to current coordinates.
 JPrj=2 DoOrth=T DoCkMO=T.
 Initial guess <Sx>= 0.0000 <Sy>= 0.0000 <Sz>= 0.5000 <S**2>= 0.7662 S= 0.5081
 Leave Link  401 at Wed Oct  7 14:19:21 2020, MaxMem=  2684354560 cpu:               4.2 elap:               0.7
 (Enter /udrive/faculty/rpeverati/g16/g16/l502.exe)
 Keep R1 and R2 ints in memory in canonical form, NReq=10915733.
 FoFCou: FMM=F IPFlag=           0 FMFlag=           0 FMFlg1=           0
         NFxFlg=           0 DoJE=F BraDBF=F KetDBF=F FulRan=T
         wScrn=  0.000000 ICntrl=       600 IOpCl=  0 I1Cent=           0 NGrid=           0
         NMat0=    1 NMatS0=    741 NMatT0=    0 NMatD0=    1 NMtDS0=    0 NMtDT0=    0
 Symmetry not used in FoFCou.
 Two-electron integral symmetry not used.
 UHF open shell SCF:
 Using DIIS extrapolation, IDIIS=  1040.
 NGot=  2684354560 LenX=  2683800373 LenY=  2683798332
 Requested convergence on RMS density matrix=1.00D-08 within 120 cycles.
 Requested convergence on MAX density matrix=1.00D-06.
 Requested convergence on             energy=1.00D-06.
 No special actions if energy rises.

 Cycle   1  Pass 1  IDiag  1:
 E= -79.0285079852417    
 DIIS: error= 6.40D-04 at cycle   1 NSaved=   1.
 NSaved= 1 IEnMin= 1 EnMin= -79.0285079852417     IErMin= 1 ErrMin= 6.40D-04
 ErrMax= 6.40D-04  0.00D+00 EMaxC= 1.00D-01 BMatC= 6.83D-05 BMatP= 6.83D-05
 IDIUse=3 WtCom= 9.94D-01 WtEn= 6.40D-03
 Coeff-Com:  0.100D+01
 Coeff-En:   0.100D+01
 Coeff:      0.100D+01
 Gap=     0.702 Goal=   None    Shift=    0.000
 Gap=     0.669 Goal=   None    Shift=    0.000
 RMSDP=1.46D-04 MaxDP=1.20D-03              OVMax= 2.22D-03

 Cycle   2  Pass 1  IDiag  1:
 E= -79.0285365733049     Delta-E=       -0.000028588063 Rises=F Damp=F
 DIIS: error= 1.65D-04 at cycle   2 NSaved=   2.
 NSaved= 2 IEnMin= 2 EnMin= -79.0285365733049     IErMin= 2 ErrMin= 1.65D-04
 ErrMax= 1.65D-04  0.00D+00 EMaxC= 1.00D-01 BMatC= 4.51D-06 BMatP= 6.83D-05
 IDIUse=3 WtCom= 9.98D-01 WtEn= 1.65D-03
 Coeff-Com:  0.534D-01 0.947D+00
 Coeff-En:   0.000D+00 0.100D+01
 Coeff:      0.533D-01 0.947D+00
 Gap=     0.337 Goal=   None    Shift=    0.000
 Gap=     0.302 Goal=   None    Shift=    0.000
 RMSDP=4.35D-05 MaxDP=3.93D-04 DE=-2.86D-05 OVMax= 6.97D-04

 Cycle   3  Pass 1  IDiag  1:
 E= -79.0285380413177     Delta-E=       -0.000001468013 Rises=F Damp=F
 DIIS: error= 1.08D-04 at cycle   3 NSaved=   3.
 NSaved= 3 IEnMin= 3 EnMin= -79.0285380413177     IErMin= 3 ErrMin= 1.08D-04
 ErrMax= 1.08D-04  0.00D+00 EMaxC= 1.00D-01 BMatC= 1.32D-06 BMatP= 4.51D-06
 IDIUse=3 WtCom= 9.99D-01 WtEn= 1.08D-03
 Coeff-Com: -0.367D-01 0.311D+00 0.726D+00
 Coeff-En:   0.000D+00 0.000D+00 0.100D+01
 Coeff:     -0.367D-01 0.311D+00 0.726D+00
 Gap=     0.338 Goal=   None    Shift=    0.000
 Gap=     0.302 Goal=   None    Shift=    0.000
 RMSDP=1.67D-05 MaxDP=1.69D-04 DE=-1.47D-06 OVMax= 2.98D-04

 Cycle   4  Pass 1  IDiag  1:
 E= -79.0285384639356     Delta-E=       -0.000000422618 Rises=F Damp=F
 DIIS: error= 1.94D-05 at cycle   4 NSaved=   4.
 NSaved= 4 IEnMin= 4 EnMin= -79.0285384639356     IErMin= 4 ErrMin= 1.94D-05
 ErrMax= 1.94D-05  0.00D+00 EMaxC= 1.00D-01 BMatC= 7.09D-08 BMatP= 1.32D-06
 IDIUse=1 WtCom= 1.00D+00 WtEn= 0.00D+00
 Coeff-Com: -0.138D-01-0.606D-02 0.171D+00 0.849D+00
 Coeff:     -0.138D-01-0.606D-02 0.171D+00 0.849D+00
 Gap=     0.338 Goal=   None    Shift=    0.000
 Gap=     0.302 Goal=   None    Shift=    0.000
 RMSDP=5.29D-06 MaxDP=5.78D-05 DE=-4.23D-07 OVMax= 1.11D-04

 Cycle   5  Pass 1  IDiag  1:
 E= -79.0285384962402     Delta-E=       -0.000000032305 Rises=F Damp=F
 DIIS: error= 5.66D-06 at cycle   5 NSaved=   5.
 NSaved= 5 IEnMin= 5 EnMin= -79.0285384962402     IErMin= 5 ErrMin= 5.66D-06
 ErrMax= 5.66D-06  0.00D+00 EMaxC= 1.00D-01 BMatC= 2.14D-09 BMatP= 7.09D-08
 IDIUse=1 WtCom= 1.00D+00 WtEn= 0.00D+00
 Coeff-Com:  0.287D-02-0.146D-01-0.516D-01-0.899D-01 0.115D+01
 Coeff:      0.287D-02-0.146D-01-0.516D-01-0.899D-01 0.115D+01
 Gap=     0.338 Goal=   None    Shift=    0.000
 Gap=     0.302 Goal=   None    Shift=    0.000
 RMSDP=2.09D-06 MaxDP=2.55D-05 DE=-3.23D-08 OVMax= 5.29D-05

 Cycle   6  Pass 1  IDiag  1:
 E= -79.0285384987554     Delta-E=       -0.000000002515 Rises=F Damp=F
 DIIS: error= 2.47D-06 at cycle   6 NSaved=   6.
 NSaved= 6 IEnMin= 6 EnMin= -79.0285384987554     IErMin= 6 ErrMin= 2.47D-06
 ErrMax= 2.47D-06  0.00D+00 EMaxC= 1.00D-01 BMatC= 6.61D-10 BMatP= 2.14D-09
 IDIUse=1 WtCom= 1.00D+00 WtEn= 0.00D+00
 Coeff-Com:  0.177D-02-0.543D-02-0.278D-01-0.801D-01 0.473D+00 0.638D+00
 Coeff:      0.177D-02-0.543D-02-0.278D-01-0.801D-01 0.473D+00 0.638D+00
 Gap=     0.338 Goal=   None    Shift=    0.000
 Gap=     0.302 Goal=   None    Shift=    0.000
 RMSDP=4.59D-07 MaxDP=6.26D-06 DE=-2.52D-09 OVMax= 1.39D-05

 Cycle   7  Pass 1  IDiag  1:
 E= -79.0285384990157     Delta-E=       -0.000000000260 Rises=F Damp=F
 DIIS: error= 1.14D-06 at cycle   7 NSaved=   7.
 NSaved= 7 IEnMin= 7 EnMin= -79.0285384990157     IErMin= 7 ErrMin= 1.14D-06
 ErrMax= 1.14D-06  0.00D+00 EMaxC= 1.00D-01 BMatC= 1.08D-10 BMatP= 6.61D-10
 IDIUse=1 WtCom= 1.00D+00 WtEn= 0.00D+00
 Coeff-Com: -0.146D-03 0.212D-02 0.471D-02-0.859D-02-0.139D+00 0.220D+00
 Coeff-Com:  0.921D+00
 Coeff:     -0.146D-03 0.212D-02 0.471D-02-0.859D-02-0.139D+00 0.220D+00
 Coeff:      0.921D+00
 Gap=     0.338 Goal=   None    Shift=    0.000
 Gap=     0.302 Goal=   None    Shift=    0.000
 RMSDP=2.71D-07 MaxDP=3.42D-06 DE=-2.60D-10 OVMax= 9.74D-06

 Cycle   8  Pass 1  IDiag  1:
 E= -79.0285384991011     Delta-E=       -0.000000000085 Rises=F Damp=F
 DIIS: error= 4.38D-07 at cycle   8 NSaved=   8.
 NSaved= 8 IEnMin= 8 EnMin= -79.0285384991011     IErMin= 8 ErrMin= 4.38D-07
 ErrMax= 4.38D-07  0.00D+00 EMaxC= 1.00D-01 BMatC= 9.21D-12 BMatP= 1.08D-10
 IDIUse=1 WtCom= 1.00D+00 WtEn= 0.00D+00
 Coeff-Com: -0.127D-03 0.184D-03 0.193D-02 0.672D-02-0.163D-01-0.920D-01
 Coeff-Com: -0.131D+00 0.123D+01
 Coeff:     -0.127D-03 0.184D-03 0.193D-02 0.672D-02-0.163D-01-0.920D-01
 Coeff:     -0.131D+00 0.123D+01
 Gap=     0.338 Goal=   None    Shift=    0.000
 Gap=     0.302 Goal=   None    Shift=    0.000
 RMSDP=1.46D-07 MaxDP=1.88D-06 DE=-8.54D-11 OVMax= 5.26D-06

 Cycle   9  Pass 1  IDiag  1:
 E= -79.0285384991216     Delta-E=       -0.000000000021 Rises=F Damp=F
 DIIS: error= 1.97D-07 at cycle   9 NSaved=   9.
 NSaved= 9 IEnMin= 9 EnMin= -79.0285384991216     IErMin= 9 ErrMin= 1.97D-07
 ErrMax= 1.97D-07  0.00D+00 EMaxC= 1.00D-01 BMatC= 2.73D-12 BMatP= 9.21D-12
 IDIUse=1 WtCom= 1.00D+00 WtEn= 0.00D+00
 Coeff-Com:  0.770D-04-0.625D-03-0.173D-02-0.352D-03 0.448D-01-0.364D-01
 Coeff-Com: -0.213D+00-0.327D+00 0.153D+01
 Coeff:      0.770D-04-0.625D-03-0.173D-02-0.352D-03 0.448D-01-0.364D-01
 Coeff:     -0.213D+00-0.327D+00 0.153D+01
 Gap=     0.338 Goal=   None    Shift=    0.000
 Gap=     0.302 Goal=   None    Shift=    0.000
 RMSDP=1.21D-07 MaxDP=1.64D-06 DE=-2.05D-11 OVMax= 4.32D-06

 Cycle  10  Pass 1  IDiag  1:
 E= -79.0285384991297     Delta-E=       -0.000000000008 Rises=F Damp=F
 DIIS: error= 8.11D-08 at cycle  10 NSaved=  10.
 NSaved=10 IEnMin=10 EnMin= -79.0285384991297     IErMin=10 ErrMin= 8.11D-08
 ErrMax= 8.11D-08  0.00D+00 EMaxC= 1.00D-01 BMatC= 3.54D-13 BMatP= 2.73D-12
 IDIUse=1 WtCom= 1.00D+00 WtEn= 0.00D+00
 Coeff-Com: -0.263D-05 0.224D-03 0.279D-03-0.157D-02-0.143D-01 0.371D-01
 Coeff-Com:  0.112D+00-0.145D+00-0.573D+00 0.158D+01
 Coeff:     -0.263D-05 0.224D-03 0.279D-03-0.157D-02-0.143D-01 0.371D-01
 Coeff:      0.112D+00-0.145D+00-0.573D+00 0.158D+01
 Gap=     0.338 Goal=   None    Shift=    0.000
 Gap=     0.302 Goal=   None    Shift=    0.000
 RMSDP=5.14D-08 MaxDP=7.14D-07 DE=-8.06D-12 OVMax= 1.76D-06

 Cycle  11  Pass 1  IDiag  1:
 E= -79.0285384991303     Delta-E=       -0.000000000001 Rises=F Damp=F
 DIIS: error= 1.17D-08 at cycle  11 NSaved=  11.
 NSaved=11 IEnMin=11 EnMin= -79.0285384991303     IErMin=11 ErrMin= 1.17D-08
 ErrMax= 1.17D-08  0.00D+00 EMaxC= 1.00D-01 BMatC= 1.21D-14 BMatP= 3.54D-13
 IDIUse=1 WtCom= 1.00D+00 WtEn= 0.00D+00
 Coeff-Com: -0.423D-05-0.340D-05 0.343D-04 0.296D-03-0.349D-04-0.403D-02
 Coeff-Com: -0.843D-02 0.465D-01 0.294D-01-0.322D+00 0.126D+01
 Coeff:     -0.423D-05-0.340D-05 0.343D-04 0.296D-03-0.349D-04-0.403D-02
 Coeff:     -0.843D-02 0.465D-01 0.294D-01-0.322D+00 0.126D+01
 Gap=     0.338 Goal=   None    Shift=    0.000
 Gap=     0.302 Goal=   None    Shift=    0.000
 RMSDP=4.93D-09 MaxDP=6.93D-08 DE=-5.83D-13 OVMax= 1.43D-07

 SCF Done:  E(UM062X) =  -79.0285384991     A.U. after   11 cycles
            NFock= 11  Conv=0.49D-08     -V/T= 2.0060
 <Sx>= 0.0000 <Sy>= 0.0000 <Sz>= 0.5000 <S**2>= 0.7661 S= 0.5080
 <L.S>= 0.000000000000E+00
 KE= 7.855920972831D+01 PE=-2.561857502395D+02 EE= 6.176091297042D+01
 Annihilation of the first spin contaminant:
 S**2 before annihilation     0.7661,   after     0.7500
 Leave Link  502 at Wed Oct  7 14:19:27 2020, MaxMem=  2684354560 cpu:              55.4 elap:               5.0
 (Enter /udrive/faculty/rpeverati/g16/g16/l508.exe)
 QCSCF skips out because SCF is already converged.
 Leave Link  508 at Wed Oct  7 14:19:27 2020, MaxMem=  2684354560 cpu:               0.2 elap:               0.4
 (Enter /udrive/faculty/rpeverati/g16/g16/l701.exe)
 ... and contract with generalized density number  0.
 Compute integral first derivatives.
 R6Disp: Adding Grimme-D3 dispersion energy 1st derivatives to the gradient.
 Leave Link  701 at Wed Oct  7 14:19:28 2020, MaxMem=  2684354560 cpu:               3.7 elap:               0.6
 (Enter /udrive/faculty/rpeverati/g16/g16/l702.exe)
 L702 exits ... SP integral derivatives will be done elsewhere.
 Leave Link  702 at Wed Oct  7 14:19:29 2020, MaxMem=  2684354560 cpu:               0.8 elap:               0.4
 (Enter /udrive/faculty/rpeverati/g16/g16/l703.exe)
 Integral derivatives from FoFJK, PRISM(SPDF).
 Compute integral first derivatives, UseDBF=F ICtDFT=           0.
 Calling FoFJK, ICntrl=      2127 FMM=F ISym2X=0 I1Cent= 0 IOpClX= 1 NMat=1 NMatS=1 NMatT=0.
 FoFJK:  IHMeth= 1 ICntrl=    2127 DoSepK=F KAlg= 0 I1Cent=           0 FoldK=F
 IRaf=         0 NMat=       1 IRICut=       1 DoRegI=T DoRafI=F ISym2E= 0 IDoP0=0 IntGTp=1.
 FoFCou: FMM=F IPFlag=           0 FMFlag=      100000 FMFlg1=         800
         NFxFlg=           0 DoJE=F BraDBF=F KetDBF=F FulRan=T
         wScrn=  0.000000 ICntrl=      2127 IOpCl=  1 I1Cent=           0 NGrid=           0
         NMat0=    1 NMatS0=      1 NMatT0=    0 NMatD0=    1 NMtDS0=    0 NMtDT0=    0
 Symmetry not used in FoFCou.
 Leave Link  703 at Wed Oct  7 14:19:30 2020, MaxMem=  2684354560 cpu:              11.0 elap:               1.2
 (Enter /udrive/faculty/rpeverati/g16/g16/l716.exe)
 Dipole        = 1.28646228D-01-8.50243030D-03-1.85376763D-01
 ***** Axes restored to original set *****
 -------------------------------------------------------------------
 Center     Atomic                   Forces (Hartrees/Bohr)
 Number     Number              X              Y              Z
 -------------------------------------------------------------------
      1        6          -0.000096838   -0.000017557    0.000357600
      2        6          -0.000088159   -0.000033752    0.000044264
      3        1           0.000186278    0.000001068   -0.000345756
      4        1          -0.000238609   -0.000199504    0.000319172
      5        1          -0.000038536    0.000235326   -0.000396186
      6        1           0.000058135    0.000214997    0.000375950
      7        1           0.000217729   -0.000200577   -0.000355044
 -------------------------------------------------------------------
 Cartesian Forces:  Max     0.000396186 RMS     0.000230914
 Leave Link  716 at Wed Oct  7 14:19:31 2020, MaxMem=  2684354560 cpu:               0.8 elap:               0.5
 (Enter /udrive/faculty/rpeverati/g16/g16/l103.exe)

 GradGradGradGradGradGradGradGradGradGradGradGradGradGradGradGradGradGrad
 Berny optimization.
 Optmz: redundant internal coordinate code flag= 1
 Red2BG:  D1=  1.78D-01 OD1=  1.96D-02 B2RMS=  0.00D+00 IAprox=0
 FormGI is forming the generalized inverse of G from B-inverse, IUseBI=4.
 Internal  Forces:  Max     0.000392942 RMS     0.000206678
 Search for a saddle point.
 Step number   2 out of a maximum of   50
 All quantities printed in internal units (Hartrees-Bohrs-Radians)
 Swapping is turned off.
 Update second derivatives using D2CorX and points    1    2
 The second derivative matrix:
                          R1        R2        R3        R4        R5
           R1           0.56327
           R2           0.00073   0.03823
           R3          -0.00162   0.00083   0.36031
           R4          -0.00163   0.00080   0.00153   0.36039
           R5          -0.00146   0.00057   0.00141   0.00143   0.36018
           R6          -0.00145   0.00064   0.00138   0.00140   0.00128
           A1          -0.00000  -0.00079   0.00020   0.00020   0.00016
           A2           0.00024   0.00216  -0.00081  -0.00081  -0.00068
           A3           0.00016   0.00161  -0.00059  -0.00058  -0.00049
           A4          -0.00038  -0.00196   0.00091   0.00090   0.00077
           A5           0.00023   0.00083  -0.00046  -0.00046  -0.00039
           A6          -0.00039  -0.00356   0.00133   0.00132   0.00111
           A7           0.00019   0.00191  -0.00069  -0.00069  -0.00058
           A8           0.00022   0.00218  -0.00080  -0.00079  -0.00066
           A9          -0.00034  -0.00339   0.00124   0.00123   0.00103
           D1          -0.00209   0.00581   0.00072   0.00078   0.00085
           D2          -0.00024   0.00295  -0.00050  -0.00049  -0.00037
           D3          -0.00231   0.00436   0.00134   0.00139   0.00137
           D4          -0.00046   0.00149   0.00011   0.00012   0.00015
           D5          -0.00257   0.00406   0.00169   0.00174   0.00168
           D6          -0.00072   0.00120   0.00046   0.00048   0.00046
                          R6        A1        A2        A3        A4
           R6           0.36012
           A1           0.00017   0.15991
           A2          -0.00069   0.00024   0.15942
           A3          -0.00050   0.00018  -0.00044   0.15967
           A4           0.00078  -0.00021   0.00047   0.00036   0.15964
           A5          -0.00040   0.00008  -0.00018  -0.00013   0.00012
           A6           0.00114  -0.00040   0.00095   0.00072  -0.00078
           A7          -0.00059   0.00022  -0.00052  -0.00039   0.00043
           A8          -0.00068   0.00025  -0.00059  -0.00045   0.00048
           A9           0.00106  -0.00038   0.00092   0.00069  -0.00075
           D1           0.00076   0.00083  -0.00249  -0.00184   0.00242
           D2          -0.00040   0.00037  -0.00098  -0.00073   0.00088
           D3           0.00128   0.00067  -0.00213  -0.00156   0.00213
           D4           0.00012   0.00021  -0.00062  -0.00046   0.00059
           D5           0.00160   0.00065  -0.00213  -0.00156   0.00216
           D6           0.00044   0.00019  -0.00061  -0.00045   0.00062
                          A5        A6        A7        A8        A9
           A5           0.15996
           A6           0.00029   0.15843
           A7          -0.00016   0.00086   0.15953
           A8          -0.00018   0.00098  -0.00053   0.15939
           A9           0.00028  -0.00151   0.00082   0.00094   0.15854
           D1          -0.00109   0.00411  -0.00219  -0.00250   0.00388
           D2          -0.00037   0.00162  -0.00087  -0.00100   0.00154
           D3          -0.00099   0.00350  -0.00185  -0.00212   0.00329
           D4          -0.00026   0.00101  -0.00054  -0.00062   0.00096
           D5          -0.00102   0.00350  -0.00185  -0.00212   0.00329
           D6          -0.00029   0.00101  -0.00053  -0.00061   0.00095
                          D1        D2        D3        D4        D5
           D1           0.02420
           D2          -0.00285   0.02684
           D3          -0.00228  -0.00219   0.02745
           D4          -0.00111  -0.00073  -0.00068   0.02792
           D5          -0.00171  -0.00207  -0.00019  -0.00055   0.02866
           D6          -0.00054  -0.00061  -0.00010  -0.00017   0.00008
                          D6
           D6           0.02823
 ITU=  0  0
 Eigenvectors of the second derivative matrix:
                           1         2         3         4         5
     Eigenvalues --     0.01611   0.02868   0.04212   0.05331   0.09149
   1         R1        -0.00683  -0.00191   0.00190  -0.00056   0.00187
   2         R2         0.39850   0.08089   0.91153  -0.00999  -0.03716
   3         R3         0.00307   0.00228  -0.00508   0.00092  -0.00518
   4         R4         0.00336   0.00234  -0.00509   0.00093  -0.00519
   5         R5         0.00386   0.00222  -0.00445   0.00085  -0.00455
   6         R6         0.00336   0.00213  -0.00446   0.00083  -0.00456
   7         A1         0.00362  -0.00054   0.00532   0.25249   0.00042
   8         A2        -0.02707  -0.00428  -0.00276  -0.02047   0.13257
   9         A3        -0.02899  -0.00514  -0.00264  -0.02108  -0.13835
  10         A4         0.04273   0.00785   0.00555   0.24490   0.46832
  11         A5        -0.03950  -0.00902   0.00276   0.23969  -0.47018
  12         A6         0.05688   0.01007   0.00315  -0.08927   0.00625
  13         A7        -0.02755  -0.01215  -0.00053  -0.00098  -0.00251
  14         A8        -0.03171  -0.01286  -0.00087  -0.00112  -0.00294
  15         A9         0.05253   0.00143   0.00650   0.00179   0.00640
  16         D1        -0.49715  -0.25604   0.22761  -0.01304  -0.37239
  17         D2        -0.27909   0.51153   0.06135  -0.00308  -0.40320
  18         D3        -0.45218  -0.24830   0.23681   0.44010   0.24754
  19         D4        -0.23412   0.51927   0.07055   0.45006   0.21673
  20         D5        -0.44089  -0.24284   0.22178  -0.45963   0.25136
  21         D6        -0.22283   0.52473   0.05552  -0.44967   0.22054
                           6         7         8         9        10
     Eigenvalues --     0.15610   0.16000   0.16000   0.16000   0.16001
   1         R1        -0.00240  -0.00000  -0.00000  -0.00000   0.00036
   2         R2         0.04768   0.00000   0.00000   0.00000  -0.00138
   3         R3         0.01187   0.00000   0.00000   0.00000  -0.00099
   4         R4         0.01182   0.00000   0.00000   0.00000  -0.00100
   5         R5         0.01007   0.00000   0.00000   0.00000  -0.00088
   6         R6         0.01024   0.00000   0.00000   0.00000  -0.00088
   7         A1        -0.09422  -0.02875  -0.54879   0.16397  -0.56260
   8         A2         0.37142   0.02295   0.45015  -0.19127  -0.50060
   9         A3         0.20172  -0.20450  -0.49757  -0.35007   0.41713
  10         A4        -0.04805   0.00833   0.15557  -0.03003   0.43842
  11         A5        -0.01821   0.07423   0.43018   0.01595   0.17205
  12         A6        -0.56514   0.17893   0.04674   0.53352   0.08230
  13         A7         0.26153   0.75248  -0.15608   0.02948   0.07798
  14         A8         0.30334  -0.56324   0.06013   0.49870   0.06395
  15         A9        -0.56550  -0.18912   0.09589  -0.52783  -0.14178
  16         D1        -0.05497  -0.00000  -0.00000  -0.00000   0.00226
  17         D2        -0.02263  -0.00000  -0.00000  -0.00000   0.00038
  18         D3        -0.04217  -0.00000  -0.00000  -0.00000   0.00247
[...]
           A5          -0.00054  -0.01015   0.00610  -0.01181   0.00201
           A6          -0.00103   0.00632  -0.03589  -0.03591   0.00478
           A7          -0.01104  -0.00023   0.01070  -0.00916  -0.00151
           A8           0.00447  -0.00023  -0.00916   0.01070   0.00120
           A9           0.00657   0.00047  -0.00154  -0.00154   0.00034
           D1           0.00052   0.00015  -0.00666   0.00661  -0.00070
           D2           0.00031  -0.00015  -0.00662   0.00665  -0.00182
           D3          -0.00012   0.00511   0.00332  -0.00261   0.00739
           D4          -0.00034   0.00481   0.00336  -0.00258   0.00627
           D5           0.00003  -0.00480   0.00258  -0.00337   0.00116
           D6          -0.00018  -0.00511   0.00262  -0.00333   0.00004
                          A5        A6        A7        A8        A9
           A5           0.01531
           A6           0.00477   0.07159
           A7           0.00120  -0.00150   0.08169
           A8          -0.00151  -0.00150  -0.04464   0.08168
           A9           0.00034   0.00299  -0.03702  -0.03701   0.07398
           D1           0.00183  -0.00017  -0.00095   0.00132  -0.00012
           D2           0.00071   0.00018  -0.00131   0.00093   0.00013
           D3          -0.00005  -0.00289   0.00081  -0.00057   0.00005
           D4          -0.00117  -0.00253   0.00045  -0.00096   0.00030
           D5          -0.00628   0.00253   0.00094  -0.00044  -0.00030
           D6          -0.00740   0.00289   0.00058  -0.00083  -0.00004
                          D1        D2        D3        D4        D5
           D1           0.00865
           D2          -0.00019   0.00864
           D3           0.00555  -0.00484   0.01902
           D4          -0.00329   0.00399   0.00863   0.01591
           D5           0.00399  -0.00329   0.00326  -0.00403   0.01591
           D6          -0.00484   0.00554  -0.00713   0.00326   0.00863
                          D6
           D6           0.01901
 ITU=  0
 Eigenvectors of the second derivative matrix:
                           1         2         3         4         5
     Eigenvalues --    -0.01647   0.01041   0.02519   0.03026   0.03709
   1         R1        -0.05396  -0.00002   0.00146  -0.00005   0.00990
   2         R2         0.96018   0.00078   0.12095   0.00016   0.19020
   3         R3         0.00009   0.00067   0.00097   0.00072   0.00022
   4         R4         0.00007  -0.00064   0.00098  -0.00069   0.00025
   5         R5         0.00267   0.00017   0.00128  -0.00020  -0.00002
   6         R6         0.00267  -0.00019   0.00124   0.00020  -0.00001
   7         A1        -0.02432   0.00013  -0.01501   0.00110  -0.45661
   8         A2         0.01511  -0.00329  -0.01039  -0.01456  -0.02960
   9         A3         0.01519   0.00336  -0.01060   0.01462  -0.02977
  10         A4        -0.08867  -0.34002   0.11532  -0.36537   0.45455
  11         A5        -0.08950   0.33955   0.11454   0.36401   0.45600
  12         A6         0.00321  -0.00000  -0.01465  -0.00002  -0.01227
  13         A7         0.00339  -0.00008  -0.00406   0.00566   0.00164
  14         A8         0.00338   0.00009  -0.00366  -0.00570   0.00155
  15         A9        -0.00591  -0.00002  -0.01405   0.00001   0.00328
  16         D1         0.01460   0.57703  -0.38593   0.02259   0.11478
  17         D2        -0.01562   0.57717   0.38576   0.02369  -0.11423
  18         D3        -0.10405   0.16016  -0.25813  -0.42862   0.36886
  19         D4        -0.13428   0.16029   0.51356  -0.42752   0.13985
  20         D5         0.13422   0.16061  -0.51269  -0.42830  -0.14113
  21         D6         0.10400   0.16074   0.25900  -0.42720  -0.37014
                           6         7         8         9        10
     Eigenvalues --     0.04155   0.10368   0.10487   0.11196   0.14247
   1         R1         0.00651   0.00009   0.00630   0.07025   0.00000
   2         R2        -0.15636   0.00003   0.00297   0.01769  -0.00001
   3         R3        -0.00260   0.01746  -0.02603  -0.01673   0.04799
   4         R4        -0.00262  -0.01748  -0.02605  -0.01669  -0.04798
   5         R5        -0.00135  -0.01422   0.02230  -0.02269   0.05010
   6         R6        -0.00137   0.01415   0.02230  -0.02272  -0.05009
   7         A1        -0.70737   0.00018   0.06483   0.05931   0.00012
   8         A2         0.02070  -0.51431  -0.31779  -0.25196  -0.46172
   9         A3         0.02095   0.51401  -0.31721  -0.25315   0.46185
  10         A4         0.09584   0.08265   0.04159   0.03091   0.07032
  11         A5         0.09604  -0.08230   0.04141   0.03101  -0.07009
  12         A6         0.04967   0.00028   0.63187   0.50193  -0.00014
  13         A7        -0.00433   0.47287   0.25439  -0.31894  -0.52268
  14         A8        -0.00430  -0.47383   0.25416  -0.31781   0.52261
  15         A9         0.00488   0.00096  -0.50823   0.63623   0.00007
  16         D1        -0.06639   0.05760   0.00084  -0.00291   0.05199
  17         D2         0.06644   0.05779  -0.00069   0.00286   0.05185
  18         D3        -0.39333  -0.02170  -0.01846  -0.01569  -0.02397
  19         D4        -0.26051  -0.02151  -0.01998  -0.00991  -0.02411
  20         D5         0.26001  -0.02182   0.01990   0.00996  -0.02406
  21         D6         0.39283  -0.02162   0.01838   0.01574  -0.02420
                          11        12        13        14        15
     Eigenvalues --     0.36913   0.37021   0.37219   0.37333   0.61398
   1         R1         0.00013   0.00044  -0.04582   0.01906  -0.99474
   2         R2         0.00001   0.00006  -0.00414   0.00428  -0.04949
   3         R3        -0.70392   0.06463   0.65359   0.26243  -0.02650
   4         R4         0.70041  -0.06730   0.65664   0.26352  -0.02650
   5         R5        -0.06369  -0.71008   0.25800  -0.64865  -0.02625
   6         R6         0.06212   0.69459   0.26655  -0.66198  -0.02626
   7         A1         0.00001   0.00001   0.00058   0.00187  -0.00327
   8         A2        -0.04605  -0.01839  -0.01684  -0.00772  -0.02023
   9         A3         0.04615   0.01844  -0.01637  -0.00806  -0.02022
  10         A4         0.00642   0.00278   0.00281   0.00058   0.01249
  11         A5        -0.00644  -0.00278   0.00272   0.00061   0.01249
  12         A6        -0.00009  -0.00005   0.03334   0.01581   0.03822
  13         A7        -0.02808  -0.04411  -0.00644   0.01849  -0.02045
  14         A8         0.02812   0.04453  -0.00578   0.01765  -0.02045
  15         A9        -0.00004  -0.00042   0.01223  -0.03614   0.04082
  16         D1         0.00575   0.00216   0.00032  -0.00030  -0.00088
  17         D2         0.00575   0.00217  -0.00027   0.00023   0.00092
  18         D3        -0.00255  -0.00090  -0.00179  -0.00111   0.00522
  19         D4        -0.00255  -0.00088  -0.00237  -0.00058   0.00701
  20         D5        -0.00254  -0.00090   0.00235   0.00059  -0.00699
  21         D6        -0.00254  -0.00088   0.00177   0.00112  -0.00519
 Eigenvalue     1 is  -1.65D-02 should be greater than     0.000000 Eigenvector:
                          R2        D4        D5        D3        D6
   1                    0.96018  -0.13428   0.13422  -0.10405   0.10400
                          A5        A4        R1        A1        D2
   1                   -0.08950  -0.08867  -0.05396  -0.02432  -0.01562
 Angle between quadratic step and forces=  35.58 degrees.
 Linear search not attempted -- first point.
 Iteration  1 RMS(Cart)=  0.00072759 RMS(Int)=  0.00000036
 Iteration  2 RMS(Cart)=  0.00000035 RMS(Int)=  0.00000009
 ITry= 1 IFail=0 DXMaxC= 1.81D-03 DCOld= 1.00D+10 DXMaxT= 3.00D-01 DXLimC= 3.00D+00 Rises=F
 Variable       Old X    -DE/DX   Delta X   Delta X   Delta X     New X
                                 (Linear)    (Quad)   (Total)
    R1        2.53359  -0.00004   0.00000  -0.00019  -0.00019   2.53340
    R2        3.75298  -0.00000   0.00000   0.00043   0.00043   3.75341
    R3        2.05186  -0.00002   0.00000  -0.00004  -0.00004   2.05182
    R4        2.05185  -0.00002   0.00000  -0.00003  -0.00003   2.05182
    R5        2.05073  -0.00002   0.00000  -0.00003  -0.00003   2.05070
    R6        2.05070  -0.00001   0.00000  -0.00001  -0.00001   2.05070
    A1        1.85947   0.00003   0.00000   0.00084   0.00084   1.86031
    A2        2.11864   0.00005   0.00000   0.00050   0.00050   2.11914
    A3        2.11874   0.00004   0.00000   0.00041   0.00041   2.11915
    A4        1.49306  -0.00006   0.00000  -0.00159  -0.00159   1.49146
    A5        1.49189  -0.00002   0.00000  -0.00039  -0.00039   1.49150
    A6        2.03383  -0.00008   0.00000  -0.00075  -0.00075   2.03307
    A7        2.12121   0.00003   0.00000   0.00028   0.00028   2.12149
    A8        2.12120   0.00003   0.00000   0.00028   0.00028   2.12148
    A9        2.04029  -0.00006   0.00000  -0.00058  -0.00058   2.03971
    D1        1.55347  -0.00001   0.00000  -0.00032  -0.00032   1.55314
    D2       -1.55349   0.00001   0.00000   0.00038   0.00038  -1.55312
    D3       -3.07252  -0.00005   0.00000  -0.00156  -0.00156  -3.07408
    D4        0.10370  -0.00003   0.00000  -0.00086  -0.00086   0.10284
    D5       -0.10234  -0.00002   0.00000  -0.00052  -0.00053  -0.10287
    D6        3.07388   0.00001   0.00000   0.00017   0.00017   3.07406
         Item               Value     Threshold  Converged?
 Maximum Force            0.000084     0.000450     YES
 RMS     Force            0.000036     0.000300     YES
 Maximum Displacement     0.001806     0.001800     NO 
 RMS     Displacement     0.000728     0.001200     YES
 Predicted change in Energy=-2.119897D-07
                           ----------------------------
                           ! Non-Optimized Parameters !
                           ! (Angstroms and Degrees)  !
 --------------------------                            --------------------------
 ! Name  Definition              Value          Derivative Info.                !
 --------------------------------------------------------------------------------
 ! R1    R(1,2)                  1.3406         -DE/DX =    0.0                 !
 ! R2    R(1,3)                  1.9862         -DE/DX =    0.0                 !
 ! R3    R(1,4)                  1.0858         -DE/DX =    0.0                 !
 ! R4    R(1,5)                  1.0858         -DE/DX =    0.0                 !
 ! R5    R(2,6)                  1.0852         -DE/DX =    0.0                 !
 ! R6    R(2,7)                  1.0852         -DE/DX =    0.0                 !
 ! A1    A(2,1,3)              106.5881         -DE/DX =    0.0                 !
 ! A2    A(2,1,4)              121.418          -DE/DX =    0.0001              !
 ! A3    A(2,1,5)              121.4183         -DE/DX =    0.0                 !
 ! A4    A(3,1,4)               85.4546         -DE/DX =   -0.0001              !
 ! A5    A(3,1,5)               85.4568         -DE/DX =    0.0                 !
 ! A6    A(4,1,5)              116.4866         -DE/DX =   -0.0001              !
 ! A7    A(1,2,6)              121.5522         -DE/DX =    0.0                 !
 ! A8    A(1,2,7)              121.5521         -DE/DX =    0.0                 !
 ! A9    A(6,2,7)              116.8666         -DE/DX =   -0.0001              !
 ! D1    D(3,1,2,6)             88.9887         -DE/DX =    0.0                 !
 ! D2    D(3,1,2,7)            -88.9871         -DE/DX =    0.0                 !
 ! D3    D(4,1,2,6)           -176.1317         -DE/DX =    0.0                 !
 ! D4    D(4,1,2,7)              5.8926         -DE/DX =    0.0                 !
 ! D5    D(5,1,2,6)             -5.8938         -DE/DX =    0.0                 !
 ! D6    D(5,1,2,7)            176.1305         -DE/DX =    0.0                 !
 --------------------------------------------------------------------------------
 GradGradGradGradGradGradGradGradGradGradGradGradGradGradGradGradGradGrad

 Leave Link  103 at Wed Oct  7 14:20:53 2020, MaxMem=  2684354560 cpu:               1.9 elap:               0.5
 (Enter /udrive/faculty/rpeverati/g16/g16/l9999.exe)

 ----------------------------------------------------------------------

 Electric dipole moment (input orientation):
 (Debye = 10**-18 statcoulomb cm , SI units = C m)
                  (au)            (Debye)         (10**-30 SI)
   Tot        0.223728D+00      0.568661D+00      0.189685D+01
   x          0.127990D+00      0.325318D+00      0.108514D+01
   y          0.567626D-04      0.144276D-03      0.481254D-03
   z         -0.183502D+00     -0.466415D+00     -0.155579D+01

 Dipole polarizability, Alpha (input orientation).
 (esu units = cm**3 , SI units = C**2 m**2 J**-1)
 Alpha(0;0):
               (au)            (10**-24 esu)      (10**-40 SI)
   iso        0.250220D+02      0.370788D+01      0.412557D+01
   aniso      0.178239D+02      0.264123D+01      0.293876D+01
   xx         0.362818D+02      0.537641D+01      0.598206D+01
   yx         0.189592D-02      0.280946D-03      0.312595D-03
   yy         0.206081D+02      0.305380D+01      0.339782D+01
   zx        -0.305471D+01     -0.452661D+00     -0.503653D+00
   zy        -0.293275D-02     -0.434589D-03     -0.483545D-03
   zz         0.181761D+02      0.269343D+01      0.299684D+01

 ----------------------------------------------------------------------

 Dipole orientation:
     6         -1.11427283         -0.00030805         -0.26982091
     6          1.20942191          0.00001792          0.73989385
     1         -0.66038360          0.00040871         -3.99525513
     1         -2.15431042         -1.74551538         -0.55740105
     1         -2.15424126          1.74464389         -0.55911914
     1          2.20487300          1.74775302          1.13987530
     1          2.20556868         -1.74741872          1.13932463

 Electric dipole moment (dipole orientation):
 (Debye = 10**-18 statcoulomb cm , SI units = C m)
                  (au)            (Debye)         (10**-30 SI)
   Tot        0.223728D+00      0.568661D+00      0.189685D+01
   x          0.000000D+00      0.000000D+00      0.000000D+00
   y          0.000000D+00      0.000000D+00      0.000000D+00
   z          0.223728D+00      0.568661D+00      0.189685D+01

 Dipole polarizability, Alpha (dipole orientation).
 (esu units = cm**3 , SI units = C**2 m**2 J**-1)
 Alpha(0;0):
               (au)            (10**-24 esu)      (10**-40 SI)
   iso        0.250220D+02      0.370788D+01      0.412557D+01
   aniso      0.178239D+02      0.264123D+01      0.293876D+01
   xx         0.274897D+02      0.407355D+01      0.453243D+01
   yx         0.199714D-02      0.295945D-03      0.329284D-03
   yy         0.206081D+02      0.305380D+01      0.339782D+01
   zx         0.955077D+01      0.141528D+01      0.157471D+01
   zy        -0.263798D-02     -0.390908D-03     -0.434944D-03
   zz         0.269683D+02      0.399629D+01      0.444647D+01

 ----------------------------------------------------------------------

 Test job not archived.
 1\1\GINC-NODE38\Freq\UM062X\6-31G(d)\C2H5(2)\RPEVERATI\07-Oct-2020\0\\
 #P Freq M062X/6-31G* 5D 7F Integral=UltraFineGrid SCF=(NoSymm,XQC,MaxC
 yc=120) EmpiricalDispersion=GD3 IOp(1/33=1) Geom=Check Guess=Read\\TS 
 search on BH76.\\0,2\C,-0.5653117911,0.000173807,-0.2202137493\C,0.748
 914832,0.0000388197,0.0449921775\H,-1.4961124285,-0.0007248111,1.53414
 5501\H,-1.1038530935,0.9237029986,-0.4100119055\H,-1.1041959186,-0.923
 2099195,-0.4097138486\H,1.3021316308,-0.9248110381,0.1725066693\H,1.30
 21193859,0.9247540259,0.173425534\\Version=ES64L-G16RevA.03\State=2-A\
 HF=-79.0285426\S2=0.765303\S2-1=0.\S2A=0.750012\RMSD=9.614e-10\RMSF=5.
 290e-05\ZeroPoint=0.0533351\Thermal=0.0570061\Dipole=0.1279901,0.00005
 68,-0.1835019\DipoleDeriv=-0.1462312,-0.0000255,0.2221867,-0.0000241,0
 .0914102,-0.0000359,0.0655483,-0.0000983,-0.1758902,0.0353767,-0.00001
 96,-0.0061593,-0.0000451,0.1209618,0.0001909,0.1227567,0.0002145,-0.35
 62872,0.0116949,0.00003,-0.0854184,0.0000185,-0.0383491,-0.0000153,-0.
 0354936,0.0000068,0.017998,0.0376609,0.0355203,-0.0378132,0.0453854,-0
 .0369881,0.0246658,-0.0444745,0.0274721,0.1177592,0.0376393,-0.0355241
 ,-0.0378145,-0.0453495,-0.0369364,-0.0246789,-0.0444808,-0.0274591,0.1
 177098,0.0119429,0.0461134,-0.0274746,0.0626017,-0.050056,0.0149368,-0
 .0318989,0.0071512,0.139362,0.0119166,-0.0460946,-0.0275068,-0.062587,
 -0.0500423,-0.0150634,-0.0319572,-0.0072873,0.1393483\Polar=36.2818159
 ,0.0018959,20.6080953,-3.0547084,-0.0029328,18.1761374\Quadrupole=0.56
 59566,1.0359306,-1.6018872,-0.0001687,1.0675837,0.0004224\PG=C01 [X(C2
 H5)]\NImag=1\\0.75845374,-0.00000820,0.65933789,0.22722713,-0.00005577
 ,0.12370981,-0.50875344,0.00006946,-0.13887511,0.81268319,0.00004688,-
 0.11611200,0.00001204,-0.00004205,0.65949786,-0.10260415,-0.00000843,-
 0.07330012,0.15098718,0.00023745,0.14527800,0.01848018,0.00000759,-0.0
 1527444,-0.01860419,-0.00000019,0.00442706,0.00043864,0.00003260,-0.00
 354207,-0.00002686,-0.00002167,0.00052969,-0.00000047,-0.00000956,0.00
 333784,-0.03773497,-0.00001274,0.02225756,0.02714419,-0.00000219,0.001
 40980,0.00661271,0.00002170,-0.00709370,-0.12193333,0.11860742,-0.0320
 6620,-0.01307964,0.02936686,-0.00549322,-0.00038439,-0.00124472,0.0022
 2258,0.12977285,0.12115149,-0.27466169,0.04346384,-0.00092762,0.004667
 50,-0.00048585,0.00021365,-0.00015293,-0.00019382,-0.13266479,0.283554
 15,-0.04075567,0.04365198,-0.04102455,0.00286187,0.00543757,0.00395813
 ,0.00237619,0.00332268,-0.00836701,0.03310204,-0.04747580,0.03905143,-
 0.12203107,-0.11867811,-0.03205458,-0.01307738,-0.02936116,-0.00550229
 ,-0.00038506,0.00124299,0.00223123,0.00911311,0.01296590,0.00371218,0.
 12986742,-0.12122589,-0.27461468,-0.04338873,0.00093404,0.00467663,0.0
 0049258,-0.00021175,-0.00015202,0.00018695,-0.01297207,-0.01589037,-0.
 00469223,0.13273560,0.28349760,-0.04072545,-0.04357597,-0.04097991,0.0
 0285177,-0.00543747,0.00394846,0.00238230,-0.00331717,-0.00838758,0.00
 370923,0.00469017,0.00262526,0.03308530,0.04739969,0.03903588,-0.01210
 178,0.02937217,-0.00447462,-0.12958447,0.12246405,-0.02084382,0.000226
 59,-0.00000847,-0.00023669,-0.00426866,-0.00100486,-0.00309544,0.00078
 115,-0.00026545,0.00179706,0.13456760,-0.00104050,0.00479453,-0.000939
 54,0.12551431,-0.27663649,0.02894536,-0.00035666,-0.00001076,0.0005863
 2,-0.00091225,0.00145585,-0.00017304,0.00017789,0.00102699,0.00008010,
 -0.13696891,0.28523276,-0.00271947,0.00511687,0.00467349,-0.02240456,0
 .02894284,-0.04062592,-0.00025973,0.00005915,0.00008643,-0.00380399,0.
 00039494,0.01090372,0.00232784,0.00038917,-0.00714885,0.02527975,-0.03
 169469,0.02840329,-0.01211429,-0.02937033,-0.00448218,-0.12958407,-0.1
 2247438,-0.02097077,0.00022823,0.00000883,-0.00023906,0.00078006,0.000
 26622,0.00179883,-0.00426818,0.00100553,-0.00310021,0.01037958,0.01358
 612,0.00158016,0.13457867,0.00104362,0.00479802,0.00093503,-0.12552647
 ,-0.27662319,-0.02918063,0.00035693,-0.00000974,-0.00058623,-0.0001804
 5,0.00102750,-0.00007116,0.00091690,0.00145585,0.00016065,-0.01358853,
 -0.01586287,-0.00320827,0.13697800,0.28521444,-0.00268742,-0.00511595,
 0.00466372,-0.02256535,-0.02919023,-0.04066836,-0.00026409,-0.00005903
 ,0.00009451,0.00232955,-0.00039348,-0.00714698,-0.00379969,-0.00038742
 ,0.01090672,0.00157375,0.00319550,0.00370783,0.02541324,0.03195061,0.0
 2844256\\-0.00015498,0.00000105,0.00002165,0.00009233,0.00001110,0.000
 06752,0.00001312,-0.00000872,0.00001038,0.00006466,0.00005155,-0.00005
 583,0.00004232,-0.00004841,0.00000663,-0.00002227,-0.00003886,-0.00004
 773,-0.00003518,0.00003228,-0.00000262\\\@


 Experience is what you get when you don't get what you want.
 -- Dan Stanford
 Job cpu time:       0 days  0 hours  4 minutes 40.9 seconds.
 Elapsed time:       0 days  0 hours  0 minutes 30.3 seconds.
 File lengths (MBytes):  RWF=      7 Int=      0 D2E=      0 Chk=      1 Scr=      1
 Normal termination of Gaussian 16 at Wed Oct  7 14:20:54 2020.
