 Entering Gaussian System, Link 0=g16
 Input=MN_17_c3h7ts_BH76_M062XD30_631Gs.in
 Output=MN_17_c3h7ts_BH76_M062XD30_631Gs.log
 Initial command:
 /udrive/faculty/rpeverati/g16/g16/l1.exe "/udrive/scratch-directories/gaussian09/rpeverati/Gau-4921.inp" -scrdir="/udrive/scratch-directories/gaussian09/rpeverati/"
 Entering Link 1 = /udrive/faculty/rpeverati/g16/g16/l1.exe PID=      4933.
  
 Copyright (c) 1988,1990,1992,1993,1995,1998,2003,2009,2016,
            Gaussian, Inc.  All Rights Reserved.
  
 This is part of the Gaussian(R) 16 program.  It is based on
 the Gaussian(R) 09 system (copyright 2009, Gaussian, Inc.),
 the Gaussian(R) 03 system (copyright 2003, Gaussian, Inc.),
 the Gaussian(R) 98 system (copyright 1998, Gaussian, Inc.),
 the Gaussian(R) 94 system (copyright 1995, Gaussian, Inc.),
 the Gaussian 92(TM) system (copyright 1992, Gaussian, Inc.),
 the Gaussian 90(TM) system (copyright 1990, Gaussian, Inc.),
 the Gaussian 88(TM) system (copyright 1988, Gaussian, Inc.),
 the Gaussian 86(TM) system (copyright 1986, Carnegie Mellon
 University), and the Gaussian 82(TM) system (copyright 1983,
 Carnegie Mellon University). Gaussian is a federally registered
 trademark of Gaussian, Inc.
  
 This software contains proprietary and confidential information,
 including trade secrets, belonging to Gaussian, Inc.
  
 This software is provided under written license and may be
 used, copied, transmitted, or stored only in accord with that
 written license.
  
 The following legend is applicable only to US Government
 contracts under FAR:
  
                    RESTRICTED RIGHTS LEGEND
  
 Use, reproduction and disclosure by the US Government is
 subject to restrictions as set forth in subparagraphs (a)
 and (c) of the Commercial Computer Software - Restricted
 Rights clause in FAR 52.227-19.
  
 Gaussian, Inc.
 340 Quinnipiac St., Bldg. 40, Wallingford CT 06492
  
  
 ---------------------------------------------------------------
 Warning -- This program may not be used in any manner that
 competes with the business of Gaussian, Inc. or will provide
 assistance to any competitor of Gaussian, Inc.  The licensee
 of this program is prohibited from giving any competitor of
 Gaussian, Inc. access to this program.  By using this program,
 the user acknowledges that Gaussian, Inc. is engaged in the
 business of creating and licensing software in the field of
 computational chemistry and represents and warrants to the
 licensee that it is not a competitor of Gaussian, Inc. and that
 it will not use this program in any manner prohibited above.
 ---------------------------------------------------------------
  

 Cite this work as:
 Gaussian 16, Revision A.03,
 M. J. Frisch, G. W. Trucks, H. B. Schlegel, G. E. Scuseria, 
 M. A. Robb, J. R. Cheeseman, G. Scalmani, V. Barone, 
 G. A. Petersson, H. Nakatsuji, X. Li, M. Caricato, A. V. Marenich, 
 J. Bloino, B. G. Janesko, R. Gomperts, B. Mennucci, H. P. Hratchian, 
 J. V. Ortiz, A. F. Izmaylov, J. L. Sonnenberg, D. Williams-Young, 
 F. Ding, F. Lipparini, F. Egidi, J. Goings, B. Peng, A. Petrone, 
 T. Henderson, D. Ranasinghe, V. G. Zakrzewski, J. Gao, N. Rega, 
 G. Zheng, W. Liang, M. Hada, M. Ehara, K. Toyota, R. Fukuda, 
 J. Hasegawa, M. Ishida, T. Nakajima, Y. Honda, O. Kitao, H. Nakai, 
 T. Vreven, K. Throssell, J. A. Montgomery, Jr., J. E. Peralta, 
 F. Ogliaro, M. J. Bearpark, J. J. Heyd, E. N. Brothers, K. N. Kudin, 
 V. N. Staroverov, T. A. Keith, R. Kobayashi, J. Normand, 
 K. Raghavachari, A. P. Rendell, J. C. Burant, S. S. Iyengar, 
 J. Tomasi, M. Cossi, J. M. Millam, M. Klene, C. Adamo, R. Cammi, 
 J. W. Ochterski, R. L. Martin, K. Morokuma, O. Farkas, 
 J. B. Foresman, and D. J. Fox, Gaussian, Inc., Wallingford CT, 2016.
 
 ******************************************
 Gaussian 16:  ES64L-G16RevA.03 25-Dec-2016
                 7-Oct-2020 
 ******************************************
 %NoSave
 %nproc=12
 Will use up to   12 processors via shared memory.
 %mem=20GB
 %chk=MN_17_c3h7ts_BH76_M062XD30_631Gs
 ----------------------------------------------------------------------
 #P Opt(TS,MaxCyc=50,NoEigenTest,MaxStep=10,AddRedundant) M062X/6-31G* 
 5D 7F Integral=UltraFineGrid SCF=(NoSymm,XQC,MaxCyc=120) EmpiricalDisp
 ersion=GD3 IOp(1/33=1)
 ----------------------------------------------------------------------
 1/5=1,6=50,8=10,11=1,18=120,26=4,33=1,38=1/1,3;
 2/9=110,12=2,17=6,18=5,40=1/2;
 3/5=1,6=6,7=1,8=11,11=2,25=1,30=1,71=1,74=-55,75=-5,124=31/1,2,3;
 4/9=2/1;
 5/5=2,7=120,8=3,13=1,38=5/2,8;
 6/7=2,8=2,9=2,10=2,28=1/1;
 7//1,2,3,16;
 1/5=1,6=50,8=10,11=1,18=20,26=4,33=1/3(2);
 2/9=110/2;
 99//99;
 2/9=110/2;
 3/5=1,6=6,7=1,8=11,11=2,25=1,30=1,71=1,74=-55,75=-5,124=31/1,2,3;
 4/5=5,9=2,16=3,69=1/1;
 5/5=2,7=120,8=3,13=1,38=5/2,8;
 7//1,2,3,16;
 1/5=1,6=50,8=10,11=1,18=20,26=4,33=1/3(-5);
 2/9=110/2;
 6/7=2,8=2,9=2,10=2,19=2,28=1/1;
 99/9=1/99;
 Leave Link    1 at Wed Oct  7 14:18:59 2020, MaxMem=  2684354560 cpu:               8.2 elap:               0.9
 (Enter /udrive/faculty/rpeverati/g16/g16/l101.exe)
 ONIOM data not found on unit 2.
 ------------------
 TS search on BH76.
 ------------------
 TstMul:  ICh=     0
 TstMul:  Mul=     2
 TstMul:  ICh=     0
 TstMul:  Mul=     2
 Symbolic Z-matrix:
 Charge =  0 Multiplicity = 2
 C                    -0.47213   0.64593  -0.00004 
 C                    -1.38262  -0.36389  0. 
 H                    -0.23204   1.16458  -0.91727 
 H                    -0.23234   1.16476   0.91717 
 H                    -1.72713  -0.80981   0.92252 
 H                    -1.72694  -0.81013  -0.92244 
 C                     1.61202  -0.24219   0.00004 
 H                     2.19518   0.66867  -0.00127 
 H                     1.58943  -0.80962  -0.91863 
 H                     1.59025  -0.8076    0.91997 
 
 RdStrC is calling ZToCFu for IStruc=1 NZ=    10.
 PrtBox:  NBox=     1 Levels=  1 BoxLen=    8.00 SMaxX=        7.41
          Shift=            3.263800            1.530930            1.743150
 Box      1 Number                   0 centers from      1 to     10:
 After GenITR:
 ITRead=  0  0  0  0  0  0  0  0  0  0
 MicOpt= -1 -1 -1 -1 -1 -1 -1 -1 -1 -1
 Add virtual bond connecting atoms C7         and C1         Dist= 4.28D+00.
 The following ModRedundant input section has been read:
 
 ITRead=  0  0  0  0  0  0  0  0  0  0
 MicOpt= -1 -1 -1 -1 -1 -1 -1 -1 -1 -1
 NAtoms=     10 NQM=       10 NQMF=       0 NMMI=      0 NMMIF=      0
                NMic=       0 NMicF=      0.
                    Isotopes and Nuclear Properties:
 (Nuclear quadrupole moments (NQMom) in fm**2, nuclear magnetic moments (NMagM)
  in nuclear magnetons)

  Atom         1           2           3           4           5           6           7           8           9          10
 IAtWgt=          12          12           1           1           1           1          12           1           1           1
 AtmWgt=  12.0000000  12.0000000   1.0078250   1.0078250   1.0078250   1.0078250  12.0000000   1.0078250   1.0078250   1.0078250
 NucSpn=           0           0           1           1           1           1           0           1           1           1
 AtZEff=   0.0000000   0.0000000   0.0000000   0.0000000   0.0000000   0.0000000   0.0000000   0.0000000   0.0000000   0.0000000
 NQMom=    0.0000000   0.0000000   0.0000000   0.0000000   0.0000000   0.0000000   0.0000000   0.0000000   0.0000000   0.0000000
 NMagM=    0.0000000   0.0000000   2.7928460   2.7928460   2.7928460   2.7928460   0.0000000   2.7928460   2.7928460   2.7928460
 AtZNuc=   6.0000000   6.0000000   1.0000000   1.0000000   1.0000000   1.0000000   6.0000000   1.0000000   1.0000000   1.0000000
 No MM parameters found.
 Leave Link  101 at Wed Oct  7 14:19:01 2020, MaxMem=  2684354560 cpu:              19.2 elap:               1.8
 (Enter /udrive/faculty/rpeverati/g16/g16/l103.exe)

 GradGradGradGradGradGradGradGradGradGradGradGradGradGradGradGradGradGrad
 Berny optimization.
 Optmz: redundant internal coordinate code flag= 1
 Initialization pass.
                           ----------------------------
                           !    Initial Parameters    !
                           ! (Angstroms and Degrees)  !
 --------------------------                            --------------------------
 ! Name  Definition              Value          Derivative Info.                !
 --------------------------------------------------------------------------------
 ! R1    R(1,2)                  1.3597         estimate D2E/DX2                !
 ! R2    R(1,3)                  1.0807         estimate D2E/DX2                !
 ! R3    R(1,4)                  1.0807         estimate D2E/DX2                !
 ! R4    R(1,7)                  2.2655         estimate D2E/DX2                !
 ! R5    R(2,5)                  1.081          estimate D2E/DX2                !
 ! R6    R(2,6)                  1.081          estimate D2E/DX2                !
 ! R7    R(7,8)                  1.0816         estimate D2E/DX2                !
 ! R8    R(7,9)                  1.08           estimate D2E/DX2                !
 ! R9    R(7,10)                 1.08           estimate D2E/DX2                !
 ! A1    A(2,1,3)              120.3456         estimate D2E/DX2                !
 ! A2    A(2,1,4)              120.3379         estimate D2E/DX2                !
 ! A3    A(2,1,7)              108.9584         estimate D2E/DX2                !
 ! A4    A(3,1,4)              116.1442         estimate D2E/DX2                !
 ! A5    A(3,1,7)               89.0711         estimate D2E/DX2                !
 ! A6    A(4,1,7)               89.0862         estimate D2E/DX2                !
 ! A7    A(1,2,5)              121.3188         estimate D2E/DX2                !
 ! A8    A(1,2,6)              121.3224         estimate D2E/DX2                !
 ! A9    A(5,2,6)              117.1556         estimate D2E/DX2                !
 ! A10   A(1,7,8)               99.5482         estimate D2E/DX2                !
 ! A11   A(1,7,9)              100.7599         estimate D2E/DX2                !
 ! A12   A(1,7,10)             100.7612         estimate D2E/DX2                !
 ! A13   A(8,7,9)              116.9188         estimate D2E/DX2                !
 ! A14   A(8,7,10)             116.923          estimate D2E/DX2                !
 ! A15   A(9,7,10)             116.6828         estimate D2E/DX2                !
 ! D1    D(3,1,2,5)           -172.2135         estimate D2E/DX2                !
 ! D2    D(3,1,2,6)             13.1144         estimate D2E/DX2                !
 ! D3    D(4,1,2,5)            -13.1126         estimate D2E/DX2                !
 ! D4    D(4,1,2,6)            172.2152         estimate D2E/DX2                !
 ! D5    D(7,1,2,5)             87.3445         estimate D2E/DX2                !
 ! D6    D(7,1,2,6)            -87.3276         estimate D2E/DX2                !
 ! D7    D(2,1,7,8)            179.9321         estimate D2E/DX2                !
 ! D8    D(2,1,7,9)             59.9805         estimate D2E/DX2                !
 ! D9    D(2,1,7,10)           -60.1113         estimate D2E/DX2                !
 ! D10   D(3,1,7,8)             58.0149         estimate D2E/DX2                !
 ! D11   D(3,1,7,9)            -61.9367         estimate D2E/DX2                !
 ! D12   D(3,1,7,10)           177.9715         estimate D2E/DX2                !
 ! D13   D(4,1,7,8)            -58.153          estimate D2E/DX2                !
 ! D14   D(4,1,7,9)           -178.1047         estimate D2E/DX2                !
 ! D15   D(4,1,7,10)            61.8035         estimate D2E/DX2                !
 --------------------------------------------------------------------------------
 Maximum allowed force set to 1.00D+20.
 Trust Radius=1.00D-01 FncErr=1.00D-07 GrdErr=1.00D-06 EigMax=2.50D+02 EigMin=1.00D-04
 Number of steps in this run=     50 maximum allowed number of steps=    100.
 Search for a saddle point of order  1.
 GradGradGradGradGradGradGradGradGradGradGradGradGradGradGradGradGradGrad

 Leave Link  103 at Wed Oct  7 14:19:02 2020, MaxMem=  2684354560 cpu:               1.6 elap:               0.7
 (Enter /udrive/faculty/rpeverati/g16/g16/l202.exe)
                          Input orientation:                          
 ---------------------------------------------------------------------
 Center     Atomic      Atomic             Coordinates (Angstroms)
 Number     Number       Type             X           Y           Z
 ---------------------------------------------------------------------
      1          6           0       -0.472132    0.645935   -0.000043
      2          6           0       -1.382618   -0.363885   -0.000002
      3          1           0       -0.232044    1.164576   -0.917265
      4          1           0       -0.232342    1.164761    0.917170
      5          1           0       -1.727129   -0.809810    0.922520
      6          1           0       -1.726938   -0.810133   -0.922435
      7          6           0        1.612017   -0.242189    0.000035
      8          1           0        2.195181    0.668674   -0.001269
      9          1           0        1.589426   -0.809620   -0.918630
     10          1           0        1.590246   -0.807599    0.919969
 ---------------------------------------------------------------------
                    Distance matrix (angstroms):
                    1          2          3          4          5
     1  C    0.000000
     2  C    1.359677   0.000000
     3  H    1.080707   2.121647   0.000000
     4  H    1.080722   2.121579   1.834435   0.000000
     5  H    2.131978   1.081010   3.085172   2.476560   0.000000
     6  H    2.132013   1.081007   2.476734   3.085154   1.844955
     7  C    2.265489   2.997107   2.494191   2.494455   3.510422
     8  H    2.667410   3.723818   2.641285   2.642442   4.292297
     9  H    2.685604   3.142548   2.686114   3.253795   3.793332
    10  H    2.685626   3.143430   3.253559   2.685524   3.317377
                    6          7          8          9         10
     6  H    0.000000
     7  C    3.510289   0.000000
     8  H    4.291670   1.081551   0.000000
     9  H    3.316366   1.080016   1.842238   0.000000
    10  H    3.794492   1.080019   1.842282   1.838601   0.000000
 Stoichiometry    C3H7(2)
 Framework group  C1[X(C3H7)]
 Deg. of freedom    24
 Full point group                 C1      NOp   1
 Largest Abelian subgroup         C1      NOp   1
 Largest concise Abelian subgroup C1      NOp   1
                         Standard orientation:                         
 ---------------------------------------------------------------------
 Center     Atomic      Atomic             Coordinates (Angstroms)
 Number     Number       Type             X           Y           Z
 ---------------------------------------------------------------------
      1          6           0       -0.472132    0.645934   -0.000043
      2          6           0       -1.382618   -0.363886   -0.000002
      3          1           0       -0.232044    1.164576   -0.917265
      4          1           0       -0.232342    1.164761    0.917170
      5          1           0       -1.727128   -0.809811    0.922520
      6          1           0       -1.726938   -0.810134   -0.922435
      7          6           0        1.612017   -0.242189    0.000035
      8          1           0        2.195181    0.668673   -0.001269
      9          1           0        1.589426   -0.809620   -0.918630
     10          1           0        1.590247   -0.807599    0.919969
 ---------------------------------------------------------------------
 Rotational constants (GHZ):          27.7434342           6.4827804           5.8803005
 Leave Link  202 at Wed Oct  7 14:19:03 2020, MaxMem=  2684354560 cpu:               1.6 elap:               0.6
 (Enter /udrive/faculty/rpeverati/g16/g16/l301.exe)
 Standard basis: 6-31G(d) (5D, 7F)
 Ernie: Thresh=  0.10000D-02 Tol=  0.10000D-05 Strict=F.
 There are    59 symmetry adapted cartesian basis functions of A   symmetry.
 There are    56 symmetry adapted basis functions of A   symmetry.
    56 basis functions,   112 primitive gaussians,    59 cartesian basis functions
    13 alpha electrons       12 beta electrons
       nuclear repulsion energy        70.2683584481 Hartrees.
 IExCor= 4336 DFT=T Ex+Corr=M062X ExCW=0 ScaHFX=  0.540000
 ScaDFX=  1.000000  1.000000  1.000000  1.000000 ScalE2=  1.000000  1.000000
 IRadAn=      5 IRanWt=     -1 IRanGd=            0 ICorTp=0 IEmpDi=131
 NAtoms=   10 NActive=   10 NUniq=   10 SFac= 1.00D+00 NAtFMM=   60 NAOKFM=F Big=F
 Integral buffers will be    131072 words long.
 Raffenetti 2 integral format.
 Two-electron integral symmetry is turned on.
 R6Disp:  Grimme-D3 Dispersion energy=       -0.0000645393 Hartrees.
 Nuclear repulsion after empirical dispersion term =       70.2682939088 Hartrees.
 Leave Link  301 at Wed Oct  7 14:19:04 2020, MaxMem=  2684354560 cpu:               2.1 elap:               0.6
 (Enter /udrive/faculty/rpeverati/g16/g16/l302.exe)
 NPDir=0 NMtPBC=     1 NCelOv=     1 NCel=       1 NClECP=     1 NCelD=      1
         NCelK=      1 NCelE2=     1 NClLst=     1 CellRange=     0.0.
 One-electron integrals computed using PRISM.
 One-electron integral symmetry used in STVInt
 NBasis=    56 RedAO= T EigKep=  7.92D-03  NBF=    56
 NBsUse=    56 1.00D-06 EigRej= -1.00D+00 NBFU=    56
 Precomputing XC quadrature grid using
 IXCGrd= 4 IRadAn=           5 IRanWt=          -1 IRanGd=           0 AccXCQ= 0.00D+00.
 Generated NRdTot=       0 NPtTot=           0 NUsed=           0 NTot=          32
 NSgBfM=    59    59    59    59    59 MxSgAt=    10 MxSgA2=    10.
 Leave Link  302 at Wed Oct  7 14:19:05 2020, MaxMem=  2684354560 cpu:               5.1 elap:               1.0
 (Enter /udrive/faculty/rpeverati/g16/g16/l303.exe)
 DipDrv:  MaxL=1.
 Leave Link  303 at Wed Oct  7 14:19:06 2020, MaxMem=  2684354560 cpu:               1.7 elap:               0.5
 (Enter /udrive/faculty/rpeverati/g16/g16/l401.exe)
 SCF N**3 symmetry information disabled.
 ExpMin= 1.61D-01 ExpMax= 3.05D+03 ExpMxC= 4.57D+02 IAcc=3 IRadAn=         5 AccDes= 0.00D+00
 Harris functional with IExCor= 1009 and IRadAn=       5 diagonalized for initial guess.
 HarFok:  IExCor= 1009 AccDes= 0.00D+00 IRadAn=         5 IDoV= 1 UseB2=F ITyADJ=14
 ICtDFT=  3500011 ScaDFX=  1.000000  1.000000  1.000000  1.000000
 FoFCou: FMM=F IPFlag=           0 FMFlag=      100000 FMFlg1=           0
         NFxFlg=           0 DoJE=T BraDBF=F KetDBF=T FulRan=T
         wScrn=  0.000000 ICntrl=       500 IOpCl=  0 I1Cent=   200000004 NGrid=           0
         NMat0=    1 NMatS0=      1 NMatT0=    0 NMatD0=    1 NMtDS0=    0 NMtDT0=    0
 Petite list used in FoFCou.
 Harris En= -118.327694796470    
 JPrj=0 DoOrth=F DoCkMO=F.
 Initial guess <Sx>= 0.0000 <Sy>= 0.0000 <Sz>= 0.5000 <S**2>= 0.7500 S= 0.5000
 Leave Link  401 at Wed Oct  7 14:19:08 2020, MaxMem=  2684354560 cpu:               7.3 elap:               1.0
 (Enter /udrive/faculty/rpeverati/g16/g16/l502.exe)
 Keep R1 and R2 ints in memory in canonical form, NReq=13116790.
 FoFCou: FMM=F IPFlag=           0 FMFlag=           0 FMFlg1=           0
         NFxFlg=           0 DoJE=F BraDBF=F KetDBF=F FulRan=T
         wScrn=  0.000000 ICntrl=       600 IOpCl=  0 I1Cent=           0 NGrid=           0
         NMat0=    1 NMatS0=   1596 NMatT0=    0 NMatD0=    1 NMtDS0=    0 NMtDT0=    0
 Symmetry not used in FoFCou.
 Two-electron integral symmetry not used.
 UHF open shell SCF:
 Using DIIS extrapolation, IDIIS=  1040.
 NGot=  2684354560 LenX=  2681797160 LenY=  2681793238
 Requested convergence on RMS density matrix=1.00D-08 within 120 cycles.
 Requested convergence on MAX density matrix=1.00D-06.
 Requested convergence on             energy=1.00D-06.
 No special actions if energy rises.
 Integral accuracy reduced to 1.0D-05 until final iterations.

 Cycle   1  Pass 0  IDiag  1:
 E= -118.203968328167    
 DIIS: error= 5.19D-02 at cycle   1 NSaved=   1.
 NSaved= 1 IEnMin= 1 EnMin= -118.203968328167     IErMin= 1 ErrMin= 5.19D-02
 ErrMax= 5.19D-02  0.00D+00 EMaxC= 1.00D-01 BMatC= 4.27D-01 BMatP= 4.27D-01
 IDIUse=3 WtCom= 4.81D-01 WtEn= 5.19D-01
 Coeff-Com:  0.100D+01
 Coeff-En:   0.100D+01
 Coeff:      0.100D+01
 Gap=     0.303 Goal=   None    Shift=    0.000
 Gap=     0.297 Goal=   None    Shift=    0.000
 GapD=    0.297 DampG=1.000 DampE=0.500 DampFc=0.5000 IDamp=-1.
 Damping current iteration by 5.00D-01
 RMSDP=9.43D-03 MaxDP=1.08D-01              OVMax= 1.32D-01

 Cycle   2  Pass 0  IDiag  1:
 E= -118.272053945551     Delta-E=       -0.068085617384 Rises=F Damp=T
 DIIS: error= 9.55D-03 at cycle   2 NSaved=   2.
 NSaved= 2 IEnMin= 2 EnMin= -118.272053945551     IErMin= 2 ErrMin= 9.55D-03
 ErrMax= 9.55D-03  0.00D+00 EMaxC= 1.00D-01 BMatC= 1.97D-02 BMatP= 4.27D-01
 IDIUse=3 WtCom= 9.04D-01 WtEn= 9.55D-02
 Coeff-Com: -0.158D+00 0.116D+01
 Coeff-En:   0.000D+00 0.100D+01
 Coeff:     -0.143D+00 0.114D+01
 Gap=     0.314 Goal=   None    Shift=    0.000
 Gap=     0.301 Goal=   None    Shift=    0.000
 RMSDP=1.71D-03 MaxDP=1.66D-02 DE=-6.81D-02 OVMax= 5.97D-02

 Cycle   3  Pass 0  IDiag  1:
 E= -118.330952850740     Delta-E=       -0.058898905189 Rises=F Damp=F
 DIIS: error= 2.64D-03 at cycle   3 NSaved=   3.
 NSaved= 3 IEnMin= 3 EnMin= -118.330952850740     IErMin= 3 ErrMin= 2.64D-03
 ErrMax= 2.64D-03  0.00D+00 EMaxC= 1.00D-01 BMatC= 1.06D-03 BMatP= 1.97D-02
 IDIUse=3 WtCom= 9.74D-01 WtEn= 2.64D-02
 Coeff-Com: -0.462D-02 0.450D-01 0.960D+00
 Coeff-En:   0.000D+00 0.000D+00 0.100D+01
 Coeff:     -0.450D-02 0.438D-01 0.961D+00
 Gap=     0.303 Goal=   None    Shift=    0.000
 Gap=     0.301 Goal=   None    Shift=    0.000
 RMSDP=5.13D-04 MaxDP=1.03D-02 DE=-5.89D-02 OVMax= 2.36D-02

 Cycle   4  Pass 0  IDiag  1:
 E= -118.331683530143     Delta-E=       -0.000730679402 Rises=F Damp=F
 DIIS: error= 2.15D-03 at cycle   4 NSaved=   4.
 NSaved= 4 IEnMin= 4 EnMin= -118.331683530143     IErMin= 4 ErrMin= 2.15D-03
 ErrMax= 2.15D-03  0.00D+00 EMaxC= 1.00D-01 BMatC= 5.48D-04 BMatP= 1.06D-03
 IDIUse=3 WtCom= 9.79D-01 WtEn= 2.15D-02
 Coeff-Com:  0.769D-02-0.490D-01 0.359D+00 0.682D+00
 Coeff-En:   0.000D+00 0.000D+00 0.000D+00 0.100D+01
 Coeff:      0.752D-02-0.480D-01 0.351D+00 0.689D+00
 Gap=     0.303 Goal=   None    Shift=    0.000
 Gap=     0.308 Goal=   None    Shift=    0.000
 RMSDP=2.80D-04 MaxDP=5.65D-03 DE=-7.31D-04 OVMax= 1.45D-02

 Cycle   5  Pass 0  IDiag  1:
 E= -118.331974390102     Delta-E=       -0.000290859959 Rises=F Damp=F
 DIIS: error= 1.09D-03 at cycle   5 NSaved=   5.
 NSaved= 5 IEnMin= 5 EnMin= -118.331974390102     IErMin= 5 ErrMin= 1.09D-03
 ErrMax= 1.09D-03  0.00D+00 EMaxC= 1.00D-01 BMatC= 1.34D-04 BMatP= 5.48D-04
 IDIUse=3 WtCom= 9.89D-01 WtEn= 1.09D-02
 Coeff-Com: -0.219D-03-0.117D-01-0.308D+00 0.849D-01 0.124D+01
 Coeff-En:   0.000D+00 0.000D+00 0.000D+00 0.000D+00 0.100D+01
 Coeff:     -0.217D-03-0.116D-01-0.305D+00 0.840D-01 0.123D+01
 Gap=     0.308 Goal=   None    Shift=    0.000
 Gap=     0.312 Goal=   None    Shift=    0.000
 RMSDP=2.96D-04 MaxDP=4.76D-03 DE=-2.91D-04 OVMax= 1.53D-02

 Cycle   6  Pass 0  IDiag  1:
 E= -118.332140657463     Delta-E=       -0.000166267361 Rises=F Damp=F
 DIIS: error= 3.15D-04 at cycle   6 NSaved=   6.
 NSaved= 6 IEnMin= 6 EnMin= -118.332140657463     IErMin= 6 ErrMin= 3.15D-04
 ErrMax= 3.15D-04  0.00D+00 EMaxC= 1.00D-01 BMatC= 2.12D-05 BMatP= 1.34D-04
 IDIUse=3 WtCom= 9.97D-01 WtEn= 3.15D-03
 Coeff-Com: -0.272D-02 0.823D-02-0.152D+00-0.119D+00 0.322D+00 0.944D+00
 Coeff-En:   0.000D+00 0.000D+00 0.000D+00 0.000D+00 0.000D+00 0.100D+01
 Coeff:     -0.271D-02 0.820D-02-0.152D+00-0.119D+00 0.321D+00 0.944D+00
 Gap=     0.309 Goal=   None    Shift=    0.000
 Gap=     0.314 Goal=   None    Shift=    0.000
 RMSDP=1.33D-04 MaxDP=2.46D-03 DE=-1.66D-04 OVMax= 5.79D-03

 Cycle   7  Pass 0  IDiag  1:
 E= -118.332162693843     Delta-E=       -0.000022036381 Rises=F Damp=F
 DIIS: error= 3.14D-04 at cycle   7 NSaved=   7.
 NSaved= 7 IEnMin= 7 EnMin= -118.332162693843     IErMin= 7 ErrMin= 3.14D-04
 ErrMax= 3.14D-04  0.00D+00 EMaxC= 1.00D-01 BMatC= 4.18D-06 BMatP= 2.12D-05
 IDIUse=3 WtCom= 9.97D-01 WtEn= 3.14D-03
 Coeff-Com: -0.142D-02 0.546D-02-0.191D-01-0.525D-01-0.197D-01 0.365D+00
 Coeff-Com:  0.722D+00
 Coeff-En:   0.000D+00 0.000D+00 0.000D+00 0.000D+00 0.000D+00 0.000D+00
 Coeff-En:   0.100D+01
 Coeff:     -0.141D-02 0.544D-02-0.190D-01-0.524D-01-0.197D-01 0.364D+00
 Coeff:      0.723D+00
 Gap=     0.309 Goal=   None    Shift=    0.000
 Gap=     0.314 Goal=   None    Shift=    0.000
 RMSDP=2.95D-05 MaxDP=3.43D-04 DE=-2.20D-05 OVMax= 2.14D-03

 Cycle   8  Pass 0  IDiag  1:
 E= -118.332165787439     Delta-E=       -0.000003093595 Rises=F Damp=F
 DIIS: error= 8.97D-05 at cycle   8 NSaved=   8.
 NSaved= 8 IEnMin= 8 EnMin= -118.332165787439     IErMin= 8 ErrMin= 8.97D-05
 ErrMax= 8.97D-05  0.00D+00 EMaxC= 1.00D-01 BMatC= 8.91D-07 BMatP= 4.18D-06
 IDIUse=1 WtCom= 1.00D+00 WtEn= 0.00D+00
 Coeff-Com:  0.641D-03-0.229D-02 0.442D-01 0.357D-01-0.792D-01-0.303D+00
 Coeff-Com: -0.353D-02 0.131D+01
 Coeff:      0.641D-03-0.229D-02 0.442D-01 0.357D-01-0.792D-01-0.303D+00
 Coeff:     -0.353D-02 0.131D+01
 Gap=     0.309 Goal=   None    Shift=    0.000
 Gap=     0.314 Goal=   None    Shift=    0.000
 RMSDP=3.29D-05 MaxDP=4.32D-04 DE=-3.09D-06 OVMax= 1.71D-03

 Cycle   9  Pass 0  IDiag  1:
 E= -118.332167551950     Delta-E=       -0.000001764511 Rises=F Damp=F
 DIIS: error= 6.00D-05 at cycle   9 NSaved=   9.
 NSaved= 9 IEnMin= 9 EnMin= -118.332167551950     IErMin= 9 ErrMin= 6.00D-05
 ErrMax= 6.00D-05  0.00D+00 EMaxC= 1.00D-01 BMatC= 1.77D-07 BMatP= 8.91D-07
 IDIUse=1 WtCom= 1.00D+00 WtEn= 0.00D+00
 Coeff-Com:  0.158D-03-0.462D-03-0.791D-02 0.842D-03 0.297D-01-0.757D-02
 Coeff-Com: -0.127D+00-0.481D+00 0.159D+01
 Coeff:      0.158D-03-0.462D-03-0.791D-02 0.842D-03 0.297D-01-0.757D-02
 Coeff:     -0.127D+00-0.481D+00 0.159D+01
 Gap=     0.309 Goal=   None    Shift=    0.000
 Gap=     0.314 Goal=   None    Shift=    0.000
 RMSDP=2.47D-05 MaxDP=3.06D-04 DE=-1.76D-06 OVMax= 1.33D-03

 Cycle  10  Pass 0  IDiag  1:
 E= -118.332168169847     Delta-E=       -0.000000617897 Rises=F Damp=F
 DIIS: error= 1.71D-05 at cycle  10 NSaved=  10.
 NSaved=10 IEnMin=10 EnMin= -118.332168169847     IErMin=10 ErrMin= 1.71D-05
 ErrMax= 1.71D-05  0.00D+00 EMaxC= 1.00D-01 BMatC= 2.68D-08 BMatP= 1.77D-07
 IDIUse=1 WtCom= 1.00D+00 WtEn= 0.00D+00
 Coeff-Com: -0.163D-03 0.569D-03-0.985D-02-0.791D-02 0.169D-01 0.673D-01
 Coeff-Com: -0.406D-02-0.261D+00-0.169D+00 0.137D+01
 Coeff:     -0.163D-03 0.569D-03-0.985D-02-0.791D-02 0.169D-01 0.673D-01
 Coeff:     -0.406D-02-0.261D+00-0.169D+00 0.137D+01
 Gap=     0.309 Goal=   None    Shift=    0.000
 Gap=     0.314 Goal=   None    Shift=    0.000
 RMSDP=1.24D-05 MaxDP=1.44D-04 DE=-6.18D-07 OVMax= 6.33D-04

 Cycle  11  Pass 0  IDiag  1:
 E= -118.332168256307     Delta-E=       -0.000000086460 Rises=F Damp=F
 DIIS: error= 2.52D-06 at cycle  11 NSaved=  11.
 NSaved=11 IEnMin=11 EnMin= -118.332168256307     IErMin=11 ErrMin= 2.52D-06
 ErrMax= 2.52D-06  0.00D+00 EMaxC= 1.00D-01 BMatC= 1.49D-09 BMatP= 2.68D-08
 IDIUse=1 WtCom= 1.00D+00 WtEn= 0.00D+00
 Coeff-Com:  0.168D-04-0.104D-03 0.374D-02 0.284D-02-0.768D-02-0.208D-01
 Coeff-Com:  0.513D-02 0.136D+00-0.814D-01-0.390D+00 0.135D+01
 Coeff:      0.168D-04-0.104D-03 0.374D-02 0.284D-02-0.768D-02-0.208D-01
 Coeff:      0.513D-02 0.136D+00-0.814D-01-0.390D+00 0.135D+01
 Gap=     0.309 Goal=   None    Shift=    0.000
 Gap=     0.314 Goal=   None    Shift=    0.000
 RMSDP=1.20D-06 MaxDP=1.43D-05 DE=-8.65D-08 OVMax= 3.62D-05

 Initial convergence to 1.0D-05 achieved.  Increase integral accuracy.
 Cycle  12  Pass 1  IDiag  1:
 E= -118.332167427909     Delta-E=        0.000000828397 Rises=F Damp=F
 DIIS: error= 5.83D-05 at cycle   1 NSaved=   1.
 NSaved= 1 IEnMin= 1 EnMin= -118.332167427909     IErMin= 1 ErrMin= 5.83D-05
 ErrMax= 5.83D-05  0.00D+00 EMaxC= 1.00D-01 BMatC= 1.29D-07 BMatP= 1.29D-07
 IDIUse=1 WtCom= 1.00D+00 WtEn= 0.00D+00
 Coeff-Com:  0.100D+01
 Coeff:      0.100D+01
 Gap=     0.309 Goal=   None    Shift=    0.000
 Gap=     0.314 Goal=   None    Shift=    0.000
 RMSDP=1.20D-06 MaxDP=1.43D-05 DE= 8.28D-07 OVMax= 9.32D-05

 Cycle  13  Pass 1  IDiag  1:
 E= -118.332167468461     Delta-E=       -0.000000040552 Rises=F Damp=F
 DIIS: error= 6.50D-06 at cycle   2 NSaved=   2.
 NSaved= 2 IEnMin= 2 EnMin= -118.332167468461     IErMin= 2 ErrMin= 6.50D-06
 ErrMax= 6.50D-06  0.00D+00 EMaxC= 1.00D-01 BMatC= 5.95D-09 BMatP= 1.29D-07
 IDIUse=1 WtCom= 1.00D+00 WtEn= 0.00D+00
 Coeff-Com: -0.199D-01 0.102D+01
 Coeff:     -0.199D-01 0.102D+01
 Gap=     0.309 Goal=   None    Shift=    0.000
 Gap=     0.314 Goal=   None    Shift=    0.000
 RMSDP=1.28D-06 MaxDP=1.54D-05 DE=-4.06D-08 OVMax= 4.68D-05

 Cycle  14  Pass 1  IDiag  1:
 E= -118.332167471618     Delta-E=       -0.000000003157 Rises=F Damp=F
 DIIS: error= 2.94D-06 at cycle   3 NSaved=   3.
 NSaved= 3 IEnMin= 3 EnMin= -118.332167471618     IErMin= 3 ErrMin= 2.94D-06
 ErrMax= 2.94D-06  0.00D+00 EMaxC= 1.00D-01 BMatC= 2.03D-09 BMatP= 5.95D-09
 IDIUse=1 WtCom= 1.00D+00 WtEn= 0.00D+00
 Coeff-Com: -0.519D-01 0.320D+00 0.732D+00
 Coeff:     -0.519D-01 0.320D+00 0.732D+00
 Gap=     0.309 Goal=   None    Shift=    0.000
 Gap=     0.314 Goal=   None    Shift=    0.000
 RMSDP=5.57D-07 MaxDP=9.46D-06 DE=-3.16D-09 OVMax= 1.93D-05

 Cycle  15  Pass 1  IDiag  1:
 E= -118.332167472574     Delta-E=       -0.000000000956 Rises=F Damp=F
 DIIS: error= 2.45D-06 at cycle   4 NSaved=   4.
 NSaved= 4 IEnMin= 4 EnMin= -118.332167472574     IErMin= 4 ErrMin= 2.45D-06
 ErrMax= 2.45D-06  0.00D+00 EMaxC= 1.00D-01 BMatC= 3.66D-10 BMatP= 2.03D-09
 IDIUse=1 WtCom= 1.00D+00 WtEn= 0.00D+00
 Coeff-Com: -0.133D-01-0.255D-01 0.199D+00 0.840D+00
 Coeff:     -0.133D-01-0.255D-01 0.199D+00 0.840D+00
 Gap=     0.309 Goal=   None    Shift=    0.000
 Gap=     0.314 Goal=   None    Shift=    0.000
 RMSDP=3.54D-07 MaxDP=4.62D-06 DE=-9.56D-10 OVMax= 2.14D-05

 Cycle  16  Pass 1  IDiag  1:
 E= -118.332167472967     Delta-E=       -0.000000000392 Rises=F Damp=F
 DIIS: error= 1.08D-06 at cycle   5 NSaved=   5.
 NSaved= 5 IEnMin= 5 EnMin= -118.332167472967     IErMin= 5 ErrMin= 1.08D-06
 ErrMax= 1.08D-06  0.00D+00 EMaxC= 1.00D-01 BMatC= 1.42D-10 BMatP= 3.66D-10
 IDIUse=1 WtCom= 1.00D+00 WtEn= 0.00D+00
 Coeff-Com:  0.914D-02-0.873D-01-0.162D+00 0.248D+00 0.992D+00
 Coeff:      0.914D-02-0.873D-01-0.162D+00 0.248D+00 0.992D+00
 Gap=     0.309 Goal=   None    Shift=    0.000
 Gap=     0.314 Goal=   None    Shift=    0.000
 RMSDP=3.59D-07 MaxDP=4.75D-06 DE=-3.92D-10 OVMax= 1.60D-05

 Cycle  17  Pass 1  IDiag  1:
 E= -118.332167473202     Delta-E=       -0.000000000235 Rises=F Damp=F
 DIIS: error= 9.83D-07 at cycle   6 NSaved=   6.
 NSaved= 6 IEnMin= 6 EnMin= -118.332167473202     IErMin= 6 ErrMin= 9.83D-07
 ErrMax= 9.83D-07  0.00D+00 EMaxC= 1.00D-01 BMatC= 4.36D-11 BMatP= 1.42D-10
 IDIUse=1 WtCom= 1.00D+00 WtEn= 0.00D+00
 Coeff-Com:  0.698D-02-0.124D-01-0.126D+00-0.203D+00 0.249D+00 0.109D+01
 Coeff:      0.698D-02-0.124D-01-0.126D+00-0.203D+00 0.249D+00 0.109D+01
 Gap=     0.309 Goal=   None    Shift=    0.000
 Gap=     0.314 Goal=   None    Shift=    0.000
 RMSDP=2.72D-07 MaxDP=2.89D-06 DE=-2.35D-10 OVMax= 1.54D-05

 Cycle  18  Pass 1  IDiag  1:
 E= -118.332167473306     Delta-E=       -0.000000000104 Rises=F Damp=F
 DIIS: error= 3.42D-07 at cycle   7 NSaved=   7.
 NSaved= 7 IEnMin= 7 EnMin= -118.332167473306     IErMin= 7 ErrMin= 3.42D-07
 ErrMax= 3.42D-07  0.00D+00 EMaxC= 1.00D-01 BMatC= 1.11D-11 BMatP= 4.36D-11
 IDIUse=1 WtCom= 1.00D+00 WtEn= 0.00D+00
 Coeff-Com: -0.545D-02 0.410D-01 0.792D-01-0.565D-01-0.441D+00-0.135D+00
 Coeff-Com:  0.152D+01
 Coeff:     -0.545D-02 0.410D-01 0.792D-01-0.565D-01-0.441D+00-0.135D+00
 Coeff:      0.152D+01
 Gap=     0.309 Goal=   None    Shift=    0.000
 Gap=     0.314 Goal=   None    Shift=    0.000
 RMSDP=2.13D-07 MaxDP=2.64D-06 DE=-1.04D-10 OVMax= 1.06D-05

 Cycle  19  Pass 1  IDiag  1:
 E= -118.332167473338     Delta-E=       -0.000000000031 Rises=F Damp=F
 DIIS: error= 1.54D-07 at cycle   8 NSaved=   8.
 NSaved= 8 IEnMin= 8 EnMin= -118.332167473338     IErMin= 8 ErrMin= 1.54D-07
 ErrMax= 1.54D-07  0.00D+00 EMaxC= 1.00D-01 BMatC= 1.20D-12 BMatP= 1.11D-11
 IDIUse=1 WtCom= 1.00D+00 WtEn= 0.00D+00
 Coeff-Com: -0.233D-02 0.120D-01 0.377D-01 0.167D-01-0.128D+00-0.190D+00
 Coeff-Com:  0.346D+00 0.908D+00
 Coeff:     -0.233D-02 0.120D-01 0.377D-01 0.167D-01-0.128D+00-0.190D+00
 Coeff:      0.346D+00 0.908D+00
 Gap=     0.309 Goal=   None    Shift=    0.000
 Gap=     0.314 Goal=   None    Shift=    0.000
 RMSDP=3.81D-08 MaxDP=4.61D-07 DE=-3.11D-11 OVMax= 2.06D-06

 Cycle  20  Pass 1  IDiag  1:
 E= -118.332167473339     Delta-E=       -0.000000000001 Rises=F Damp=F
 DIIS: error= 3.00D-08 at cycle   9 NSaved=   9.
 NSaved= 9 IEnMin= 9 EnMin= -118.332167473339     IErMin= 9 ErrMin= 3.00D-08
 ErrMax= 3.00D-08  0.00D+00 EMaxC= 1.00D-01 BMatC= 2.64D-13 BMatP= 1.20D-12
 IDIUse=1 WtCom= 1.00D+00 WtEn= 0.00D+00
 Coeff-Com:  0.125D-03-0.305D-02-0.627D-03 0.151D-01 0.327D-01-0.432D-01
 Coeff-Com: -0.149D+00 0.325D+00 0.823D+00
 Coeff:      0.125D-03-0.305D-02-0.627D-03 0.151D-01 0.327D-01-0.432D-01
 Coeff:     -0.149D+00 0.325D+00 0.823D+00
 Gap=     0.309 Goal=   None    Shift=    0.000
 Gap=     0.314 Goal=   None    Shift=    0.000
 RMSDP=1.28D-08 MaxDP=1.63D-07 DE=-1.02D-12 OVMax= 5.14D-07

 Cycle  21  Pass 1  IDiag  1:
 E= -118.332167473339     Delta-E=       -0.000000000000 Rises=F Damp=F
 DIIS: error= 7.92D-09 at cycle  10 NSaved=  10.
 NSaved=10 IEnMin=10 EnMin= -118.332167473339     IErMin=10 ErrMin= 7.92D-09
 ErrMax= 7.92D-09  0.00D+00 EMaxC= 1.00D-01 BMatC= 1.02D-14 BMatP= 2.64D-13
 IDIUse=1 WtCom= 1.00D+00 WtEn= 0.00D+00
 Coeff-Com:  0.228D-03-0.142D-02-0.344D-02 0.609D-03 0.136D-01 0.140D-01
 Coeff-Com: -0.497D-01-0.454D-01 0.847D-01 0.987D+00
 Coeff:      0.228D-03-0.142D-02-0.344D-02 0.609D-03 0.136D-01 0.140D-01
 Coeff:     -0.497D-01-0.454D-01 0.847D-01 0.987D+00
 Gap=     0.309 Goal=   None    Shift=    0.000
 Gap=     0.314 Goal=   None    Shift=    0.000
 RMSDP=2.88D-09 MaxDP=3.42D-08 DE=-3.69D-13 OVMax= 1.08D-07

 SCF Done:  E(UM062X) =  -118.332167473     A.U. after   21 cycles
            NFock= 21  Conv=0.29D-08     -V/T= 2.0059
 <Sx>= 0.0000 <Sy>= 0.0000 <Sz>= 0.5000 <S**2>= 0.7824 S= 0.5161
 <L.S>= 0.000000000000E+00
 KE= 1.176438526370D+02 PE=-4.141395992965D+02 EE= 1.078952852774D+02
 Annihilation of the first spin contaminant:
 S**2 before annihilation     0.7824,   after     0.7502
 Leave Link  502 at Wed Oct  7 14:19:19 2020, MaxMem=  2684354560 cpu:             127.1 elap:              11.2
 (Enter /udrive/faculty/rpeverati/g16/g16/l508.exe)
 QCSCF skips out because SCF is already converged.
 Leave Link  508 at Wed Oct  7 14:19:20 2020, MaxMem=  2684354560 cpu:               0.3 elap:               0.6
 (Enter /udrive/faculty/rpeverati/g16/g16/l601.exe)
 Copying SCF densities to generalized density rwf, IOpCl= 1 IROHF=0.

 **********************************************************************

            Population analysis using the SCF density.

 **********************************************************************

 Orbital symmetries:
 Alpha Orbitals:
       Occupied  (A) (A) (A) (A) (A) (A) (A) (A) (A) (A) (A) (A)
                 (A)
       Virtual   (A) (A) (A) (A) (A) (A) (A) (A) (A) (A) (A) (A)
                 (A) (A) (A) (A) (A) (A) (A) (A) (A) (A) (A) (A)
                 (A) (A) (A) (A) (A) (A) (A) (A) (A) (A) (A) (A)
                 (A) (A) (A) (A) (A) (A) (A)
 Beta  Orbitals:
       Occupied  (A) (A) (A) (A) (A) (A) (A) (A) (A) (A) (A) (A)
       Virtual   (A) (A) (A) (A) (A) (A) (A) (A) (A) (A) (A) (A)
                 (A) (A) (A) (A) (A) (A) (A) (A) (A) (A) (A) (A)
                 (A) (A) (A) (A) (A) (A) (A) (A) (A) (A) (A) (A)
                 (A) (A) (A) (A) (A) (A) (A) (A)
 The electronic state is 2-A.
 Alpha  occ. eigenvalues --  -10.54090 -10.53717 -10.52824  -0.84911  -0.76428
 Alpha  occ. eigenvalues --   -0.65636  -0.53304  -0.48300  -0.47171  -0.46117
 Alpha  occ. eigenvalues --   -0.41121  -0.35739  -0.22350
 Alpha virt. eigenvalues --    0.08551   0.14902   0.19231   0.19431   0.22239
 Alpha virt. eigenvalues --    0.22969   0.23163   0.29491   0.37026   0.51083
 Alpha virt. eigenvalues --    0.57325   0.58511   0.60857   0.64832   0.65000
 Alpha virt. eigenvalues --    0.71556   0.74718   0.81055   0.92288   0.93549
 Alpha virt. eigenvalues --    0.97921   0.98886   0.99739   1.02958   1.03929
 Alpha virt. eigenvalues --    1.14251   1.21778   1.42447   1.53869   1.65446
 Alpha virt. eigenvalues --    1.72807   1.75387   1.86596   1.93765   2.10541
 Alpha virt. eigenvalues --    2.10831   2.13648   2.28757   2.28823   2.32680
 Alpha virt. eigenvalues --    2.40825   2.71488   2.72348
  Beta  occ. eigenvalues --  -10.54215 -10.53061 -10.52537  -0.84217  -0.73063
  Beta  occ. eigenvalues --   -0.64974  -0.52971  -0.47475  -0.45978  -0.45280
  Beta  occ. eigenvalues --   -0.40881  -0.31880
  Beta virt. eigenvalues --   -0.00432   0.11643   0.15329   0.19527   0.19658
  Beta virt. eigenvalues --    0.22372   0.23967   0.24151   0.29654   0.37259
  Beta virt. eigenvalues --    0.51683   0.57802   0.60221   0.63214   0.65318
  Beta virt. eigenvalues --    0.67598   0.72605   0.75657   0.82411   0.91947
  Beta virt. eigenvalues --    0.94838   0.99546   1.01099   1.01208   1.03245
  Beta virt. eigenvalues --    1.06293   1.16872   1.22139   1.42784   1.55134
  Beta virt. eigenvalues --    1.66980   1.78555   1.80201   1.87537   1.94829
  Beta virt. eigenvalues --    2.11667   2.14360   2.18882   2.32255   2.33393
  Beta virt. eigenvalues --    2.34510   2.41760   2.72670   2.73020
          Condensed to atoms (all electrons):
               1          2          3          4          5          6
     1  C    4.980388   0.606102   0.390934   0.390931  -0.036682  -0.036679
     2  C    0.606102   5.045116  -0.037152  -0.037158   0.387873   0.387870
     3  H    0.390934  -0.037152   0.527917  -0.035929   0.004184  -0.006700
     4  H    0.390931  -0.037158  -0.035929   0.527928  -0.006703   0.004184
     5  H   -0.036682   0.387873   0.004184  -0.006703   0.531242  -0.036029
     6  H   -0.036679   0.387870  -0.006700   0.004184  -0.036029   0.531239
     7  C    0.041924  -0.028272  -0.013981  -0.013969  -0.000117  -0.000119
     8  H   -0.001851   0.000989  -0.000328  -0.000326  -0.000009  -0.000009
     9  H   -0.004803   0.000188  -0.000874   0.000755  -0.000052   0.000372
    10  H   -0.004800   0.000188   0.000755  -0.000877   0.000371  -0.000052
               7          8          9         10
     1  C    0.041924  -0.001851  -0.004803  -0.004800
     2  C   -0.028272   0.000989   0.000188   0.000188
     3  H   -0.013981  -0.000328  -0.000874   0.000755
     4  H   -0.013969  -0.000326   0.000755  -0.000877
     5  H   -0.000117  -0.000009  -0.000052   0.000371
     6  H   -0.000119  -0.000009   0.000372  -0.000052
     7  C    5.386791   0.370496   0.380834   0.380836
     8  H    0.370496   0.525144  -0.028671  -0.028667
     9  H    0.380834  -0.028671   0.510487  -0.027348
    10  H    0.380836  -0.028667  -0.027348   0.510487
          Atomic-Atomic Spin Densities.
               1          2          3          4          5          6
     1  C   -0.223281  -0.002424   0.008589   0.008583   0.000828   0.000827
     2  C   -0.002424   0.517853  -0.002108  -0.002107  -0.002460  -0.002460
     3  H    0.008589  -0.002108   0.018626   0.000606  -0.000034   0.000115
     4  H    0.008583  -0.002107   0.000606   0.018616   0.000115  -0.000034
     5  H    0.000828  -0.002460  -0.000034   0.000115  -0.023154   0.001421
     6  H    0.000827  -0.002460   0.000115  -0.000034   0.001421  -0.023153
     7  C   -0.031397  -0.039977  -0.012358  -0.012346  -0.000135  -0.000136
     8  H    0.002181   0.000664   0.000642   0.000641   0.000003   0.000003
     9  H    0.002073   0.001686   0.000318   0.000145   0.000000   0.000006
    10  H    0.002072   0.001682   0.000145   0.000318   0.000006   0.000000
               7          8          9         10
     1  C   -0.031397   0.002181   0.002073   0.002072
     2  C   -0.039977   0.000664   0.001686   0.001682
     3  H   -0.012358   0.000642   0.000318   0.000145
     4  H   -0.012346   0.000641   0.000145   0.000318
     5  H   -0.000135   0.000003   0.000000   0.000006
     6  H   -0.000136   0.000003   0.000006   0.000000
     7  C    1.044605  -0.021064  -0.015610  -0.015607
     8  H   -0.021064  -0.028033   0.004407   0.004406
     9  H   -0.015610   0.004407  -0.036972   0.003705
    10  H   -0.015607   0.004406   0.003705  -0.036969
 Mulliken charges and spin densities:
               1          2
     1  C   -0.325464  -0.231949
     2  C   -0.325745   0.470349
     3  H    0.171173   0.014541
     4  H    0.171162   0.014536
     5  H    0.155922  -0.023410
     6  H    0.155922  -0.023410
     7  C   -0.504422   0.895974
     8  H    0.163231  -0.036148
     9  H    0.169112  -0.040242
    10  H    0.169108  -0.040241
 Sum of Mulliken charges =  -0.00000   1.00000
 Mulliken charges and spin densities with hydrogens summed into heavy atoms:
               1          2
     1  C    0.016872  -0.202872
     2  C   -0.013901   0.423529
     7  C   -0.002971   0.779343
 Electronic spatial extent (au):  <R**2>=            256.2381
 Charge=             -0.0000 electrons
 Dipole moment (field-independent basis, Debye):
    X=              0.3251    Y=              0.0492    Z=              0.0000  Tot=              0.3288
 Quadrupole moment (field-independent basis, Debye-Ang):
   XX=            -22.1104   YY=            -20.5074   ZZ=            -19.3612
   XY=              1.4419   XZ=             -0.0005   YZ=              0.0002
 Traceless Quadrupole moment (field-independent basis, Debye-Ang):
   XX=             -1.4507   YY=              0.1523   ZZ=              1.2985
   XY=              1.4419   XZ=             -0.0005   YZ=              0.0002
 Octapole moment (field-independent basis, Debye-Ang**2):
  XXX=              0.5035  YYY=              0.7799  ZZZ=              0.0027  XYY=              0.7576
  XXY=             -1.2031  XXZ=              0.0005  XZZ=             -0.6622  YZZ=             -0.5432
  YYZ=             -0.0023  XYZ=             -0.0016
 Hexadecapole moment (field-independent basis, Debye-Ang**3):
 XXXX=           -258.9970 YYYY=            -66.6876 ZZZZ=            -39.9655 XXXY=              9.9686
 XXXZ=             -0.0043 YYYX=              2.0006 YYYZ=              0.0032 ZZZX=              0.0039
 ZZZY=             -0.0008 XXYY=            -51.0026 XXZZ=            -45.4334 YYZZ=            -15.5473
 XXYZ=             -0.0029 YYXZ=             -0.0035 ZZXY=              0.2777
 N-N= 7.026829390880D+01 E-N=-4.141395994770D+02  KE= 1.176438526370D+02
                          Isotropic Fermi Contact Couplings
        Atom                 a.u.       MegaHertz       Gauss      10(-4) cm-1
     1  C(13)             -0.01750     -19.67264      -7.01969      -6.56209
     2  C(13)              0.05318      59.78458      21.33262      19.94199
     3  H(1)               0.00840      37.55849      13.40180      12.52816
     4  H(1)               0.00840      37.53560      13.39363      12.52053
     5  H(1)              -0.00686     -30.65928     -10.93999     -10.22684
     6  H(1)              -0.00686     -30.65915     -10.93995     -10.22679
     7  C(13)              0.22000     247.32040      88.25007      82.49721
     8  H(1)              -0.01049     -46.89746     -16.73418     -15.64331
     9  H(1)              -0.01245     -55.66286     -19.86189     -18.56713
    10  H(1)              -0.01245     -55.65575     -19.85936     -18.56476
 --------------------------------------------------------
       Center         ----  Spin Dipole Couplings  ----
                      3XX-RR        3YY-RR        3ZZ-RR
 --------------------------------------------------------
     1   Atom       -0.075822      0.006776      0.069046
     2   Atom        0.174472      0.040544     -0.215016
     3   Atom        0.007934      0.004294     -0.012228
     4   Atom        0.007936      0.004293     -0.012229
     5   Atom       -0.005019     -0.012090      0.017109
     6   Atom       -0.005026     -0.012074      0.017100
     7   Atom        0.660704     -0.251000     -0.409704
     8   Atom        0.016558      0.040329     -0.056887
     9   Atom       -0.014300     -0.016548      0.030848
    10   Atom       -0.014304     -0.016791      0.031096
 --------------------------------------------------------
                        XY            XZ            YZ
 --------------------------------------------------------
     1   Atom        0.124704     -0.000041      0.000022
     2   Atom       -0.323520      0.000094     -0.000078
     3   Atom       -0.003483      0.008474      0.000827
     4   Atom       -0.003478     -0.008470     -0.000831
     5   Atom       -0.004617     -0.018975     -0.022252
     6   Atom       -0.004614      0.018971      0.022261
     7   Atom       -0.412952      0.000036     -0.000009
     8   Atom        0.038003     -0.000075     -0.000129
     9   Atom       -0.014768      0.001212      0.054724
    10   Atom       -0.014814     -0.001144     -0.054604
 --------------------------------------------------------


 ---------------------------------------------------------------------------------
              Anisotropic Spin Dipole Couplings in Principal Axis System
 ---------------------------------------------------------------------------------

       Atom             a.u.   MegaHertz   Gauss  10(-4) cm-1        Axes

              Baa    -0.1659   -22.261    -7.943    -7.425  0.8107 -0.5855  0.0002
     1 C(13)  Bbb     0.0690     9.265     3.306     3.091 -0.0000  0.0003  1.0000
              Bcc     0.0968    12.995     4.637     4.335  0.5855  0.8107 -0.0002
 
              Baa    -0.2229   -29.907   -10.672    -9.976  0.6314  0.7755  0.0001
     2 C(13)  Bbb    -0.2150   -28.853   -10.296    -9.624 -0.0002  0.0000  1.0000
              Bcc     0.4379    58.760    20.967    19.600  0.7755 -0.6314  0.0002
 
              Baa    -0.0155    -8.278    -2.954    -2.761 -0.3513 -0.1007  0.9308
     3 H(1)   Bbb     0.0033     1.782     0.636     0.594  0.3055  0.9275  0.2156
              Bcc     0.0122     6.497     2.318     2.167  0.8850 -0.3601  0.2951
 
              Baa    -0.0155    -8.278    -2.954    -2.761  0.3512  0.1007  0.9309
     4 H(1)   Bbb     0.0033     1.783     0.636     0.595  0.3051  0.9276 -0.2155
              Bcc     0.0122     6.494     2.317     2.166  0.8852 -0.3597 -0.2950
 
              Baa    -0.0315   -16.821    -6.002    -5.611  0.4902  0.7043  0.5135
     5 H(1)   Bbb    -0.0033    -1.756    -0.627    -0.586  0.7918 -0.6061  0.0754
              Bcc     0.0348    18.577     6.629     6.197 -0.3643 -0.3696  0.8548
 
              Baa    -0.0315   -16.820    -6.002    -5.611  0.4903  0.7041 -0.5136
     6 H(1)   Bbb    -0.0033    -1.756    -0.627    -0.586  0.7918 -0.6061 -0.0750
              Bcc     0.0348    18.577     6.629     6.196  0.3641  0.3699  0.8547
 
              Baa    -0.4102   -55.049   -19.643   -18.363  0.3598  0.9330 -0.0090
     7 C(13)  Bbb    -0.4097   -54.978   -19.618   -18.339  0.0032  0.0084  1.0000
              Bcc     0.8199   110.028    39.261    36.701  0.9330 -0.3598  0.0000
 
              Baa    -0.0569   -30.352   -10.830   -10.124  0.0004  0.0012  1.0000
     8 H(1)   Bbb    -0.0114    -6.069    -2.166    -2.024  0.8058 -0.5922  0.0004
              Bcc     0.0683    36.421    12.996    12.149  0.5922  0.8058 -0.0012
 
              Baa    -0.0565   -30.163   -10.763   -10.061  0.2970  0.8074 -0.5098
     9 H(1)   Bbb    -0.0109    -5.805    -2.071    -1.936  0.9508 -0.2009  0.2358
              Bcc     0.0674    35.968    12.834    11.997 -0.0880  0.5547  0.8274
 
              Baa    -0.0565   -30.161   -10.762   -10.061  0.2974  0.8085  0.5077
    10 H(1)   Bbb    -0.0109    -5.806    -2.072    -1.937  0.9506 -0.2014 -0.2361
              Bcc     0.0674    35.967    12.834    11.997  0.0886 -0.5529  0.8285
 

 ---------------------------------------------------------------------------------

 No NMR shielding tensors so no spin-rotation constants.
 Leave Link  601 at Wed Oct  7 14:19:21 2020, MaxMem=  2684354560 cpu:               5.8 elap:               0.8
 (Enter /udrive/faculty/rpeverati/g16/g16/l701.exe)
 ... and contract with generalized density number  0.
 Compute integral first derivatives.
 R6Disp: Adding Grimme-D3 dispersion energy 1st derivatives to the gradient.
 Leave Link  701 at Wed Oct  7 14:19:22 2020, MaxMem=  2684354560 cpu:               3.5 elap:               0.6
 (Enter /udrive/faculty/rpeverati/g16/g16/l702.exe)
 L702 exits ... SP integral derivatives will be done elsewhere.
 Leave Link  702 at Wed Oct  7 14:19:23 2020, MaxMem=  2684354560 cpu:               1.7 elap:               0.5
 (Enter /udrive/faculty/rpeverati/g16/g16/l703.exe)
 Integral derivatives from FoFJK, PRISM(SPDF).
 Compute integral first derivatives, UseDBF=F ICtDFT=           0.
 Calling FoFJK, ICntrl=      2127 FMM=F ISym2X=0 I1Cent= 0 IOpClX= 1 NMat=1 NMatS=1 NMatT=0.
 FoFJK:  IHMeth= 1 ICntrl=    2127 DoSepK=F KAlg= 0 I1Cent=           0 FoldK=F
 IRaf=         0 NMat=       1 IRICut=       1 DoRegI=T DoRafI=F ISym2E= 0 IDoP0=0 IntGTp=1.
 FoFCou: FMM=F IPFlag=           0 FMFlag=      100000 FMFlg1=         800
         NFxFlg=           0 DoJE=F BraDBF=F KetDBF=F FulRan=T
         wScrn=  0.000000 ICntrl=      2127 IOpCl=  1 I1Cent=           0 NGrid=           0
         NMat0=    1 NMatS0=      1 NMatT0=    0 NMatD0=    1 NMtDS0=    0 NMtDT0=    0
 Symmetry not used in FoFCou.
 Leave Link  703 at Wed Oct  7 14:19:25 2020, MaxMem=  2684354560 cpu:              14.6 elap:               1.6
 (Enter /udrive/faculty/rpeverati/g16/g16/l716.exe)
 Dipole        = 1.27895771D-01 1.93651141D-02 3.96421831D-06
 ***** Axes restored to original set *****
 -------------------------------------------------------------------
 Center     Atomic                   Forces (Hartrees/Bohr)
 Number     Number              X              Y              Z
 -------------------------------------------------------------------
      1        6          -0.002685958   -0.007859047    0.000011237
      2        6           0.005110504    0.005171021    0.000001157
      3        1           0.000786255    0.001994814   -0.002904484
      4        1           0.000794501    0.001993657    0.002892790
      5        1          -0.001277758   -0.001115036    0.002197852
      6        1          -0.001276375   -0.001115008   -0.002201237
      7        6          -0.003977218    0.002108233   -0.000000815
      8        1           0.001749806    0.001331835    0.000002315
      9        1           0.000386375   -0.001258294   -0.001600343
     10        1           0.000389868   -0.001252175    0.001601528
 -------------------------------------------------------------------
 Cartesian Forces:  Max     0.007859047 RMS     0.002562192
 Leave Link  716 at Wed Oct  7 14:19:26 2020, MaxMem=  2684354560 cpu:               1.8 elap:               0.4
 (Enter /udrive/faculty/rpeverati/g16/g16/l103.exe)

 GradGradGradGradGradGradGradGradGradGradGradGradGradGradGradGradGradGrad
 Berny optimization.
 Optmz: redundant internal coordinate code flag= 1
 FormGI is forming the generalized inverse of G from B-inverse, IUseBI=4.
 Internal  Forces:  Max     0.003895713 RMS     0.001391328
 Search for a saddle point.
 Step number   1 out of a maximum of   50
 All quantities printed in internal units (Hartrees-Bohrs-Radians)
 Swapping is turned off.
 Second derivative matrix not updated -- first step.
 The second derivative matrix:
                          R1        R2        R3        R4        R5
           R1           0.53013
           R2           0.00000   0.35909
           R3           0.00000   0.00000   0.35907
           R4           0.00000   0.00000   0.00000   0.05311
           R5           0.00000   0.00000   0.00000   0.00000   0.35873
           R6           0.00000   0.00000   0.00000   0.00000   0.00000
           R7           0.00000   0.00000   0.00000   0.00000   0.00000
           R8           0.00000   0.00000   0.00000   0.00000   0.00000
           R9           0.00000   0.00000   0.00000   0.00000   0.00000
           A1           0.00000   0.00000   0.00000   0.00000   0.00000
           A2           0.00000   0.00000   0.00000   0.00000   0.00000
           A3           0.00000   0.00000   0.00000   0.00000   0.00000
           A4           0.00000   0.00000   0.00000   0.00000   0.00000
           A5           0.00000   0.00000   0.00000   0.00000   0.00000
           A6           0.00000   0.00000   0.00000   0.00000   0.00000
           A7           0.00000   0.00000   0.00000   0.00000   0.00000
           A8           0.00000   0.00000   0.00000   0.00000   0.00000
           A9           0.00000   0.00000   0.00000   0.00000   0.00000
           A10          0.00000   0.00000   0.00000   0.00000   0.00000
           A11          0.00000   0.00000   0.00000   0.00000   0.00000
           A12          0.00000   0.00000   0.00000   0.00000   0.00000
           A13          0.00000   0.00000   0.00000   0.00000   0.00000
           A14          0.00000   0.00000   0.00000   0.00000   0.00000
           A15          0.00000   0.00000   0.00000   0.00000   0.00000
           D1           0.00000   0.00000   0.00000   0.00000   0.00000
           D2           0.00000   0.00000   0.00000   0.00000   0.00000
           D3           0.00000   0.00000   0.00000   0.00000   0.00000
           D4           0.00000   0.00000   0.00000   0.00000   0.00000
           D5           0.00000   0.00000   0.00000   0.00000   0.00000
           D6           0.00000   0.00000   0.00000   0.00000   0.00000
           D7           0.00000   0.00000   0.00000   0.00000   0.00000
           D8           0.00000   0.00000   0.00000   0.00000   0.00000
           D9           0.00000   0.00000   0.00000   0.00000   0.00000
           D10          0.00000   0.00000   0.00000   0.00000   0.00000
           D11          0.00000   0.00000   0.00000   0.00000   0.00000
           D12          0.00000   0.00000   0.00000   0.00000   0.00000
           D13          0.00000   0.00000   0.00000   0.00000   0.00000
           D14          0.00000   0.00000   0.00000   0.00000   0.00000
           D15          0.00000   0.00000   0.00000   0.00000   0.00000
                          R6        R7        R8        R9        A1
           R6           0.35873
           R7           0.00000   0.35808
           R8           0.00000   0.00000   0.35992
           R9           0.00000   0.00000   0.00000   0.35992
           A1           0.00000   0.00000   0.00000   0.00000   0.16000
           A2           0.00000   0.00000   0.00000   0.00000   0.00000
           A3           0.00000   0.00000   0.00000   0.00000   0.00000
           A4           0.00000   0.00000   0.00000   0.00000   0.00000
           A5           0.00000   0.00000   0.00000   0.00000   0.00000
           A6           0.00000   0.00000   0.00000   0.00000   0.00000
           A7           0.00000   0.00000   0.00000   0.00000   0.00000
           A8           0.00000   0.00000   0.00000   0.00000   0.00000
           A9           0.00000   0.00000   0.00000   0.00000   0.00000
           A10          0.00000   0.00000   0.00000   0.00000   0.00000
           A11          0.00000   0.00000   0.00000   0.00000   0.00000
           A12          0.00000   0.00000   0.00000   0.00000   0.00000
           A13          0.00000   0.00000   0.00000   0.00000   0.00000
           A14          0.00000   0.00000   0.00000   0.00000   0.00000
           A15          0.00000   0.00000   0.00000   0.00000   0.00000
           D1           0.00000   0.00000   0.00000   0.00000   0.00000
           D2           0.00000   0.00000   0.00000   0.00000   0.00000
           D3           0.00000   0.00000   0.00000   0.00000   0.00000
           D4           0.00000   0.00000   0.00000   0.00000   0.00000
           D5           0.00000   0.00000   0.00000   0.00000   0.00000
           D6           0.00000   0.00000   0.00000   0.00000   0.00000
           D7           0.00000   0.00000   0.00000   0.00000   0.00000
           D8           0.00000   0.00000   0.00000   0.00000   0.00000
           D9           0.00000   0.00000   0.00000   0.00000   0.00000
           D10          0.00000   0.00000   0.00000   0.00000   0.00000
           D11          0.00000   0.00000   0.00000   0.00000   0.00000
           D12          0.00000   0.00000   0.00000   0.00000   0.00000
           D13          0.00000   0.00000   0.00000   0.00000   0.00000
           D14          0.00000   0.00000   0.00000   0.00000   0.00000
           D15          0.00000   0.00000   0.00000   0.00000   0.00000
                          A2        A3        A4        A5        A6
           A2           0.16000
           A3           0.00000   0.25000
           A4           0.00000   0.00000   0.16000
           A5           0.00000   0.00000   0.00000   0.16000
           A6           0.00000   0.00000   0.00000   0.00000   0.16000
           A7           0.00000   0.00000   0.00000   0.00000   0.00000
           A8           0.00000   0.00000   0.00000   0.00000   0.00000
           A9           0.00000   0.00000   0.00000   0.00000   0.00000
           A10          0.00000   0.00000   0.00000   0.00000   0.00000
           A11          0.00000   0.00000   0.00000   0.00000   0.00000
           A12          0.00000   0.00000   0.00000   0.00000   0.00000
           A13          0.00000   0.00000   0.00000   0.00000   0.00000
           A14          0.00000   0.00000   0.00000   0.00000   0.00000
           A15          0.00000   0.00000   0.00000   0.00000   0.00000
           D1           0.00000   0.00000   0.00000   0.00000   0.00000
           D2           0.00000   0.00000   0.00000   0.00000   0.00000
           D3           0.00000   0.00000   0.00000   0.00000   0.00000
           D4           0.00000   0.00000   0.00000   0.00000   0.00000
           D5           0.00000   0.00000   0.00000   0.00000   0.00000
           D6           0.00000   0.00000   0.00000   0.00000   0.00000
           D7           0.00000   0.00000   0.00000   0.00000   0.00000
           D8           0.00000   0.00000   0.00000   0.00000   0.00000
           D9           0.00000   0.00000   0.00000   0.00000   0.00000
           D10          0.00000   0.00000   0.00000   0.00000   0.00000
           D11          0.00000   0.00000   0.00000   0.00000   0.00000
           D12          0.00000   0.00000   0.00000   0.00000   0.00000
           D13          0.00000   0.00000   0.00000   0.00000   0.00000
           D14          0.00000   0.00000   0.00000   0.00000   0.00000
           D15          0.00000   0.00000   0.00000   0.00000   0.00000
                          A7        A8        A9        A10       A11
           A7           0.16000
           A8           0.00000   0.16000
           A9           0.00000   0.00000   0.16000
           A10          0.00000   0.00000   0.00000   0.16000
           A11          0.00000   0.00000   0.00000   0.00000   0.16000
           A12          0.00000   0.00000   0.00000   0.00000   0.00000
           A13          0.00000   0.00000   0.00000   0.00000   0.00000
           A14          0.00000   0.00000   0.00000   0.00000   0.00000
           A15          0.00000   0.00000   0.00000   0.00000   0.00000
           D1           0.00000   0.00000   0.00000   0.00000   0.00000
           D2           0.00000   0.00000   0.00000   0.00000   0.00000
           D3           0.00000   0.00000   0.00000   0.00000   0.00000
           D4           0.00000   0.00000   0.00000   0.00000   0.00000
           D5           0.00000   0.00000   0.00000   0.00000   0.00000
           D6           0.00000   0.00000   0.00000   0.00000   0.00000
           D7           0.00000   0.00000   0.00000   0.00000   0.00000
           D8           0.00000   0.00000   0.00000   0.00000   0.00000
           D9           0.00000   0.00000   0.00000   0.00000   0.00000
           D10          0.00000   0.00000   0.00000   0.00000   0.00000
           D11          0.00000   0.00000   0.00000   0.00000   0.00000
           D12          0.00000   0.00000   0.00000   0.00000   0.00000
           D13          0.00000   0.00000   0.00000   0.00000   0.00000
           D14          0.00000   0.00000   0.00000   0.00000   0.00000
           D15          0.00000   0.00000   0.00000   0.00000   0.00000
                          A12       A13       A14       A15       D1
           A12          0.16000
           A13          0.00000   0.16000
           A14          0.00000   0.00000   0.16000
           A15          0.00000   0.00000   0.00000   0.16000
           D1           0.00000   0.00000   0.00000   0.00000   0.02622
           D2           0.00000   0.00000   0.00000   0.00000   0.00000
           D3           0.00000   0.00000   0.00000   0.00000   0.00000
           D4           0.00000   0.00000   0.00000   0.00000   0.00000
           D5           0.00000   0.00000   0.00000   0.00000   0.00000
           D6           0.00000   0.00000   0.00000   0.00000   0.00000
           D7           0.00000   0.00000   0.00000   0.00000   0.00000
           D8           0.00000   0.00000   0.00000   0.00000   0.00000
           D9           0.00000   0.00000   0.00000   0.00000   0.00000
           D10          0.00000   0.00000   0.00000   0.00000   0.00000
           D11          0.00000   0.00000   0.00000   0.00000   0.00000
           D12          0.00000   0.00000   0.00000   0.00000   0.00000
           D13          0.00000   0.00000   0.00000   0.00000   0.00000
           D14          0.00000   0.00000   0.00000   0.00000   0.00000
           D15          0.00000   0.00000   0.00000   0.00000   0.00000
                          D2        D3        D4        D5        D6
           D2           0.02622
           D3           0.00000   0.02622
           D4           0.00000   0.00000   0.02622
           D5           0.00000   0.00000   0.00000   0.02622
           D6           0.00000   0.00000   0.00000   0.00000   0.02622
           D7           0.00000   0.00000   0.00000   0.00000   0.00000
           D8           0.00000   0.00000   0.00000   0.00000   0.00000
           D9           0.00000   0.00000   0.00000   0.00000   0.00000
           D10          0.00000   0.00000   0.00000   0.00000   0.00000
           D11          0.00000   0.00000   0.00000   0.00000   0.00000
           D12          0.00000   0.00000   0.00000   0.00000   0.00000
           D13          0.00000   0.00000   0.00000   0.00000   0.00000
           D14          0.00000   0.00000   0.00000   0.00000   0.00000
           D15          0.00000   0.00000   0.00000   0.00000   0.00000
                          D7        D8        D9        D10       D11
           D7           0.00230
           D8           0.00000   0.00230
           D9           0.00000   0.00000   0.00230
           D10          0.00000   0.00000   0.00000   0.00230
           D11          0.00000   0.00000   0.00000   0.00000   0.00230
           D12          0.00000   0.00000   0.00000   0.00000   0.00000
           D13          0.00000   0.00000   0.00000   0.00000   0.00000
           D14          0.00000   0.00000   0.00000   0.00000   0.00000
           D15          0.00000   0.00000   0.00000   0.00000   0.00000
                          D12       D13       D14       D15
           D12          0.00230
           D13          0.00000   0.00230
           D14          0.00000   0.00000   0.00230
           D15          0.00000   0.00000   0.00000   0.00230
 ITU=  0
 Eigenvectors of the second derivative matrix:
                           1         2         3         4         5
     Eigenvalues --     0.00230   0.02622   0.02639   0.05311   0.05392
   1         R1        -0.00000  -0.00000   0.00000  -0.00000   0.00000
   2         R2        -0.00000  -0.00000  -0.00000   0.00000   0.00000
   3         R3         0.00000   0.00000  -0.00000  -0.00000  -0.00000
   4         R4        -0.00000   0.00000   0.00000  -1.00000   0.00000
   5         R5        -0.00000   0.00000   0.00000   0.00000   0.00000
   6         R6         0.00000  -0.00000   0.00000   0.00000  -0.00000
   7         R7        -0.00000   0.00000   0.00000  -0.00000   0.00000
   8         R8        -0.00000   0.00000   0.00000  -0.00000  -0.00000
   9         R9        -0.00000  -0.00000  -0.00000  -0.00000  -0.00000
  10         A1         0.00000  -0.00000  -0.00000   0.00000   0.02381
  11         A2         0.00000   0.00000   0.00000  -0.00000   0.02414
  12         A3        -0.00000  -0.00000   0.00000   0.00000   0.13582
  13         A4        -0.00000   0.00000  -0.00000  -0.00000  -0.28368
  14         A5        -0.00000  -0.00000   0.00000   0.00000   0.24291
  15         A6         0.00000   0.00000   0.00000   0.00000   0.24313
  16         A7        -0.00000   0.00000  -0.02074  -0.00000   0.00000
  17         A8         0.00000   0.00000  -0.02074   0.00000  -0.00000
  18         A9         0.00000  -0.00000  -0.02082  -0.00000   0.00000
  19         A10        0.00000   0.00000   0.00000   0.00000  -0.00000
  20         A11       -0.00000  -0.00000   0.00000   0.00000   0.00000
  21         A12       -0.00000  -0.00000  -0.00000   0.00000  -0.00000
  22         A13        0.00000   0.00000  -0.00000  -0.00000   0.00000
  23         A14        0.00000  -0.00000  -0.00000  -0.00000   0.00000
  24         A15        0.00000   0.00000   0.00000   0.00000  -0.00000
  25         D1         0.00000   0.40825  -0.40798   0.00000   0.40307
  26         D2        -0.00000   0.40825   0.40798   0.00000   0.40307
  27         D3         0.00000   0.40825  -0.40798  -0.00000  -0.40320
  28         D4        -0.00000   0.40825   0.40798  -0.00000  -0.40320
  29         D5         0.00000   0.40825  -0.40798  -0.00000   0.00014
  30         D6         0.00000   0.40825   0.40798   0.00000   0.00014
  31         D7         0.33333  -0.00000   0.00000   0.00000  -0.00018
  32         D8         0.33333  -0.00000   0.00000   0.00000  -0.00018
  33         D9         0.33333  -0.00000   0.00000   0.00000  -0.00018
  34         D10        0.33333   0.00000   0.00000  -0.00000  -0.14809
  35         D11        0.33333   0.00000   0.00000  -0.00000  -0.14809
  36         D12        0.33333   0.00000   0.00000  -0.00000  -0.14809
  37         D13        0.33333   0.00000   0.00000   0.00000   0.14827
  38         D14        0.33333   0.00000   0.00000   0.00000   0.14827
  39         D15        0.33333   0.00000   0.00000   0.00000   0.14827
                           6         7         8         9        10
     Eigenvalues --     0.06085   0.07245   0.07332   0.09012   0.11652
   1         R1         0.00000  -0.00000   0.00000  -0.00000  -0.00000
   2         R2         0.00000  -0.00000   0.00000  -0.00000  -0.00000
   3         R3        -0.00000  -0.00000  -0.00000  -0.00000  -0.00000
   4         R4        -0.00000   0.00000  -0.00000   0.00000   0.00000
   5         R5        -0.00000   0.00000  -0.00000  -0.00000  -0.00000
   6         R6         0.00000  -0.00000  -0.00000   0.00000  -0.00000
   7         R7        -0.00000  -0.00000   0.00000  -0.00000   0.00000
   8         R8        -0.00000   0.00000   0.00000  -0.00000   0.00000
   9         R9        -0.00000   0.00000  -0.00000   0.00000   0.00000
  10         A1        -0.33338   0.00000   0.00000  -0.31691   0.37250
  11         A2         0.33336  -0.00000  -0.00000  -0.31667  -0.37271
  12         A3        -0.00006   0.00000   0.00000   0.10100  -0.00001
  13         A4         0.00014  -0.00000   0.00000   0.49788   0.00018
  14         A5        -0.23384   0.00000   0.00000   0.19492  -0.45527
  15         A6         0.23353  -0.00000  -0.00000   0.19469   0.45548
  16         A7         0.00000   0.00000   0.00000   0.00000   0.00000
  17         A8         0.00000  -0.00000   0.00000   0.00000  -0.00000
  18         A9        -0.00000   0.00000  -0.00000  -0.00000   0.00000
  19         A10       -0.00000  -0.15698  -0.00012   0.00000   0.00000
  20         A11       -0.00000   0.08405  -0.13035  -0.00000  -0.00000
  21         A12        0.00000   0.08381   0.13050  -0.00000  -0.00000
  22         A13       -0.00000  -0.26323  -0.45648  -0.00000  -0.00000
  23         A14        0.00000  -0.26400   0.45601  -0.00000   0.00000
  24         A15        0.00000   0.51683   0.00044   0.00000   0.00000
  25         D1        -0.14806   0.00000   0.00000   0.16436  -0.13224
  26         D2        -0.14806   0.00000   0.00000   0.16436  -0.13224
  27         D3        -0.14763  -0.00000   0.00000  -0.16429  -0.13234
  28         D4        -0.14763  -0.00000   0.00000  -0.16429  -0.13234
  29         D5         0.29569  -0.00000  -0.00000  -0.00008   0.26458
  30         D6         0.29569  -0.00000  -0.00000  -0.00008   0.26458
  31         D7        -0.30045   0.00030  -0.34949  -0.00007   0.14726
  32         D8        -0.30045   0.30403   0.17501  -0.00007   0.14726
  33         D9        -0.30045  -0.30433   0.17449  -0.00007   0.14726
  34         D10        0.15028   0.00030  -0.34949   0.24406  -0.07358
  35         D11        0.15028   0.30403   0.17501   0.24406  -0.07358
  36         D12        0.15028  -0.30433   0.17449   0.24406  -0.07358
  37         D13        0.15017   0.00030  -0.34949  -0.24399  -0.07368
  38         D14        0.15017   0.30403   0.17501  -0.24399  -0.07368
  39         D15        0.15017  -0.30433   0.17449  -0.24399  -0.07368
                          11        12        13        14        15
     Eigenvalues --     0.16000   0.16000   0.16000   0.16000   0.16000
   1         R1         0.00000  -0.00000   0.00000   0.00000  -0.00000
   2         R2         0.00000  -0.00000  -0.00000   0.00000  -0.00000
   3         R3        -0.00000   0.00000  -0.00000  -0.00000  -0.00000
   4         R4         0.00000  -0.00000   0.00000  -0.00000   0.00000
   5         R5        -0.00000   0.00000   0.00000   0.00000   0.00000
   6         R6        -0.00000   0.00000   0.00000   0.00000  -0.00000
   7         R7        -0.00000   0.00000   0.00000  -0.00000   0.00000
   8         R8        -0.00000   0.00000  -0.00000   0.00000   0.00000
   9         R9         0.00000  -0.00000   0.00000  -0.00000  -0.00000
  10         A1        -0.00000   0.00000   0.00000  -0.00000   0.00000
  11         A2         0.00000  -0.00000  -0.00000  -0.00000  -0.00000
  12         A3        -0.00000  -0.00000   0.00000  -0.00000   0.00000
  13         A4        -0.00000   0.00000   0.00000   0.00000  -0.00000
  14         A5         0.00000   0.00000  -0.00000  -0.00000  -0.00000
  15         A6        -0.00000   0.00000   0.00000   0.00000   0.00000
  16         A7         0.32731   0.05861   0.35715  -0.30646  -0.57923
  17         A8        -0.30902  -0.00636  -0.06601  -0.45641   0.59946
  18         A9        -0.01822  -0.05204  -0.28998   0.75984  -0.02014
  19         A10        0.55542  -0.66533  -0.25818  -0.12669   0.15438
  20         A11       -0.55136  -0.59098   0.40888   0.09781  -0.17100
  21         A12        0.33450   0.16469   0.65489   0.28144   0.46058
  22         A13       -0.00776   0.36702  -0.04001   0.00976   0.00292
  23         A14       -0.26102   0.15104  -0.11035  -0.04273  -0.17764
  24         A15        0.06684   0.13139  -0.32786  -0.11689  -0.08925
  25         D1         0.00000  -0.00000  -0.00000   0.00000  -0.00000
  26         D2         0.00000   0.00000   0.00000   0.00000   0.00000
  27         D3         0.00000  -0.00000  -0.00000   0.00000  -0.00000
  28         D4        -0.00000   0.00000  -0.00000  -0.00000  -0.00000
  29         D5        -0.00000  -0.00000   0.00000   0.00000   0.00000
  30         D6        -0.00000   0.00000   0.00000   0.00000   0.00000
  31         D7        -0.00000   0.00000   0.00000  -0.00000   0.00000
  32         D8        -0.00000  -0.00000   0.00000  -0.00000   0.00000
  33         D9        -0.00000   0.00000   0.00000   0.00000   0.00000
  34         D10       -0.00000  -0.00000  -0.00000   0.00000  -0.00000
  35         D11       -0.00000  -0.00000   0.00000   0.00000   0.00000
  36         D12        0.00000   0.00000  -0.00000   0.00000  -0.00000
  37         D13        0.00000  -0.00000  -0.00000  -0.00000  -0.00000
  38         D14        0.00000  -0.00000   0.00000  -0.00000   0.00000
  39         D15        0.00000   0.00000  -0.00000   0.00000  -0.00000
                          16        17        18        19        20
     Eigenvalues --     0.22007   0.35808   0.35873   0.35873   0.35907
   1         R1         0.00000   0.00000  -0.00000  -0.00000  -0.00000
   2         R2        -0.00000   0.00000   0.00000   0.00000   0.00000
   3         R3        -0.00000   0.00000  -0.00000  -0.00000  -1.00000
   4         R4         0.00000  -0.00000   0.00000   0.00000   0.00000
   5         R5         0.00000  -0.00000   1.00000  -0.00000  -0.00000
   6         R6         0.00000  -0.00000   0.00000   1.00000  -0.00000
   7         R7         0.00000   1.00000   0.00000   0.00000   0.00000
   8         R8        -0.00000  -0.00000   0.00000  -0.00000   0.00000
   9         R9        -0.00000  -0.00000   0.00000  -0.00000   0.00000
  10         A1         0.01907  -0.00000   0.00000   0.00000  -0.00000
  11         A2         0.01923   0.00000  -0.00000  -0.00000  -0.00000
  12         A3        -0.82864   0.00000   0.00000   0.00000   0.00000
  13         A4        -0.00364   0.00000   0.00000  -0.00000   0.00000
  14         A5         0.38722   0.00000  -0.00000  -0.00000  -0.00000
  15         A6         0.38716  -0.00000   0.00000   0.00000  -0.00000
  16         A7        -0.00000   0.00000   0.00000  -0.00000   0.00000
  17         A8         0.00000  -0.00000  -0.00000   0.00000  -0.00000
  18         A9        -0.00000   0.00000  -0.00000  -0.00000  -0.00000
  19         A10        0.00000   0.00000   0.00000   0.00000  -0.00000
  20         A11        0.00000   0.00000   0.00000  -0.00000  -0.00000
  21         A12        0.00000  -0.00000  -0.00000  -0.00000  -0.00000
  22         A13       -0.00000  -0.00000  -0.00000  -0.00000   0.00000
  23         A14       -0.00000  -0.00000   0.00000  -0.00000   0.00000
  24         A15       -0.00000   0.00000   0.00000   0.00000   0.00000
  25         D1        -0.05464  -0.00000  -0.00000   0.00000   0.00000
  26         D2        -0.05464  -0.00000  -0.00000   0.00000  -0.00000
  27         D3         0.05463   0.00000  -0.00000  -0.00000   0.00000
  28         D4         0.05463   0.00000  -0.00000   0.00000   0.00000
  29         D5         0.00001  -0.00000   0.00000   0.00000   0.00000
  30         D6         0.00001  -0.00000   0.00000   0.00000   0.00000
  31         D7         0.00001   0.00000  -0.00000   0.00000   0.00000
  32         D8         0.00001   0.00000   0.00000   0.00000  -0.00000
  33         D9         0.00001  -0.00000   0.00000   0.00000  -0.00000
  34         D10       -0.01182   0.00000   0.00000  -0.00000   0.00000
  35         D11       -0.01182   0.00000   0.00000  -0.00000  -0.00000
  36         D12       -0.01182  -0.00000   0.00000  -0.00000  -0.00000
  37         D13        0.01181   0.00000  -0.00000  -0.00000   0.00000
  38         D14        0.01181   0.00000   0.00000   0.00000  -0.00000
  39         D15        0.01181  -0.00000   0.00000  -0.00000  -0.00000
                          21        22        23        24
     Eigenvalues --     0.35909   0.35992   0.35992   0.53013
   1         R1         0.00000  -0.00000   0.00000   1.00000
   2         R2        -1.00000   0.00000  -0.00000   0.00000
   3         R3        -0.00000  -0.00000   0.00000  -0.00000
   4         R4        -0.00000   0.00000   0.00000  -0.00000
   5         R5         0.00000   0.00000  -0.00000   0.00000
   6         R6         0.00000  -0.00000   0.00000   0.00000
   7         R7         0.00000  -0.00000   0.00000  -0.00000
   8         R8        -0.00000   0.00000   1.00000  -0.00000
   9         R9        -0.00000  -1.00000   0.00000   0.00000
  10         A1        -0.00000   0.00000  -0.00000  -0.00000
  11         A2         0.00000  -0.00000  -0.00000   0.00000
  12         A3         0.00000   0.00000  -0.00000   0.00000
  13         A4        -0.00000   0.00000   0.00000   0.00000
  14         A5         0.00000  -0.00000   0.00000  -0.00000
  15         A6        -0.00000  -0.00000   0.00000  -0.00000
  16         A7        -0.00000   0.00000   0.00000   0.00000
  17         A8        -0.00000  -0.00000  -0.00000   0.00000
  18         A9         0.00000  -0.00000  -0.00000  -0.00000
  19         A10        0.00000   0.00000   0.00000  -0.00000
  20         A11        0.00000   0.00000   0.00000  -0.00000
  21         A12       -0.00000  -0.00000  -0.00000  -0.00000
  22         A13       -0.00000  -0.00000  -0.00000   0.00000
  23         A14        0.00000  -0.00000   0.00000   0.00000
  24         A15       -0.00000   0.00000  -0.00000   0.00000
  25         D1        -0.00000  -0.00000   0.00000  -0.00000
  26         D2        -0.00000  -0.00000  -0.00000  -0.00000
  27         D3        -0.00000  -0.00000   0.00000   0.00000
  28         D4        -0.00000   0.00000  -0.00000  -0.00000
  29         D5        -0.00000  -0.00000  -0.00000   0.00000
  30         D6        -0.00000  -0.00000  -0.00000   0.00000
  31         D7        -0.00000   0.00000  -0.00000   0.00000
  32         D8        -0.00000   0.00000  -0.00000   0.00000
  33         D9        -0.00000  -0.00000  -0.00000   0.00000
  34         D10       -0.00000   0.00000  -0.00000   0.00000
  35         D11        0.00000   0.00000  -0.00000   0.00000
  36         D12        0.00000  -0.00000  -0.00000   0.00000
  37         D13        0.00000   0.00000  -0.00000  -0.00000
  38         D14        0.00000  -0.00000  -0.00000  -0.00000
  39         D15        0.00000  -0.00000  -0.00000  -0.00000
 Eigenvalue     1 is   2.30D-03 should be less than     0.000000 Eigenvector:
                          D14       D15       D13       D9        D8
   1                    0.33333   0.33333   0.33333   0.33333   0.33333
                          D11       D12       D7        D10       D5
   1                    0.33333   0.33333   0.33333   0.33333   0.00000
 RLam0= 2.30D-03.
 Iter=   1 RLamda= 0.00000000D+00 Sum=-2.65897617D-04.
 Iter=   2 RLamda=-2.65897617D-04 Sum=-2.65368969D-04.
 Iter=   3 RLamda=-2.65368969D-04 Sum=-2.65370015D-04.
 RFO step:  Lambda0=2.300011237D-03 Lambda=-2.65368969D-04.
 Linear search not attempted -- option 19 set.
 Iteration  1 RMS(Cart)=  0.00912780 RMS(Int)=  0.00005211
 Iteration  2 RMS(Cart)=  0.00005039 RMS(Int)=  0.00001329
 Iteration  3 RMS(Cart)=  0.00000000 RMS(Int)=  0.00001329
 ITry= 1 IFail=0 DXMaxC= 2.23D-02 DCOld= 1.00D+10 DXMaxT= 1.00D-01 DXLimC= 3.00D+00 Rises=F
 Variable       Old X    -DE/DX   Delta X   Delta X   Delta X     New X
                                 (Linear)    (Quad)   (Total)
    R1        2.56942  -0.00390   0.00000  -0.00734  -0.00734   2.56207
    R2        2.04224   0.00360   0.00000   0.01001   0.01001   2.05225
    R3        2.04227   0.00359   0.00000   0.00999   0.00999   2.05225
    R4        4.28115  -0.00170   0.00000  -0.03184  -0.03184   4.24931
    R5        2.04281   0.00274   0.00000   0.00764   0.00764   2.05045
    R6        2.04281   0.00275   0.00000   0.00765   0.00765   2.05045
    R7        2.04384   0.00207   0.00000   0.00576   0.00576   2.04960
[...]
  34         D10       -0.00162   0.01065  -0.00013   0.00857
  35         D11        0.00538  -0.00580   0.00357   0.00880
  36         D12       -0.00862  -0.00580  -0.00384   0.00833
  37         D13        0.00162   0.01065   0.00014  -0.00857
  38         D14        0.00862  -0.00580   0.00384  -0.00833
  39         D15       -0.00538  -0.00580  -0.00357  -0.00880
 Eigenvalue     1 is  -5.78D-02 should be greater than     0.000000 Eigenvector:
                          R4        A6        A5        D3        D2
   1                    0.92020  -0.13472  -0.13472   0.13357  -0.13357
                          R1        D4        D1        A11       A12
   1                   -0.12399   0.11465  -0.11465  -0.09783  -0.09782
 Angle between quadratic step and forces=  24.24 degrees.
 Linear search not attempted -- first point.
 Iteration  1 RMS(Cart)=  0.00047156 RMS(Int)=  0.00000020
 Iteration  2 RMS(Cart)=  0.00000018 RMS(Int)=  0.00000009
 ITry= 1 IFail=0 DXMaxC= 1.52D-03 DCOld= 1.00D+10 DXMaxT= 3.00D-01 DXLimC= 3.00D+00 Rises=F
 Variable       Old X    -DE/DX   Delta X   Delta X   Delta X     New X
                                 (Linear)    (Quad)   (Total)
    R1        2.55731  -0.00000   0.00000  -0.00002  -0.00002   2.55729
    R2        2.05196  -0.00000   0.00000  -0.00000  -0.00000   2.05196
    R3        2.05196  -0.00000   0.00000  -0.00000  -0.00000   2.05196
    R4        4.30106   0.00001   0.00000   0.00008   0.00008   4.30114
    R5        2.05043  -0.00000   0.00000  -0.00000  -0.00000   2.05042
    R6        2.05043  -0.00000   0.00000  -0.00000  -0.00000   2.05042
    R7        2.04966   0.00000   0.00000   0.00001   0.00001   2.04966
    R8        2.04657   0.00000   0.00000   0.00002   0.00002   2.04659
    R9        2.04657   0.00000   0.00000   0.00002   0.00002   2.04659
    A1        2.10442   0.00000   0.00000   0.00001   0.00001   2.10443
    A2        2.10442   0.00000   0.00000   0.00000   0.00000   2.10443
    A3        1.90846   0.00001   0.00000   0.00026   0.00026   1.90871
    A4        2.02272   0.00000   0.00000   0.00003   0.00003   2.02275
    A5        1.54513  -0.00001   0.00000  -0.00020  -0.00020   1.54493
    A6        1.54512  -0.00001   0.00000  -0.00019  -0.00019   1.54493
    A7        2.12085  -0.00000   0.00000  -0.00002  -0.00002   2.12083
    A8        2.12085  -0.00000   0.00000  -0.00002  -0.00002   2.12083
    A9        2.03929   0.00000   0.00000   0.00003   0.00003   2.03932
   A10        1.75629  -0.00002   0.00000  -0.00092  -0.00092   1.75537
   A11        1.76048   0.00003   0.00000   0.00060   0.00060   1.76108
   A12        1.76049   0.00003   0.00000   0.00059   0.00059   1.76108
   A13        2.03664  -0.00000   0.00000  -0.00006  -0.00006   2.03658
   A14        2.03664  -0.00000   0.00000  -0.00006  -0.00006   2.03658
   A15        2.03083  -0.00001   0.00000  -0.00005  -0.00005   2.03079
    D1       -3.00154  -0.00000   0.00000  -0.00014  -0.00014  -3.00167
    D2        0.21345  -0.00000   0.00000  -0.00001  -0.00001   0.21344
    D3       -0.21345   0.00000   0.00000   0.00001   0.00001  -0.21344
    D4        3.00154   0.00000   0.00000   0.00014   0.00014   3.00167
    D5        1.53409  -0.00000   0.00000  -0.00006  -0.00006   1.53404
    D6       -1.53411   0.00000   0.00000   0.00007   0.00007  -1.53404
    D7        3.14151   0.00000   0.00000   0.00009   0.00009  -3.14158
    D8        1.04551   0.00000   0.00000   0.00027   0.00027   1.04577
    D9       -1.04567  -0.00000   0.00000  -0.00008  -0.00008  -1.04575
   D10        1.01180   0.00000   0.00000   0.00012   0.00012   1.01192
   D11       -1.08420   0.00000   0.00000   0.00029   0.00029  -1.08391
   D12        3.10780  -0.00000   0.00000  -0.00005  -0.00005   3.10775
   D13       -1.01197  -0.00000   0.00000   0.00007   0.00007  -1.01190
   D14       -3.10798   0.00000   0.00000   0.00025   0.00025  -3.10773
   D15        1.08403  -0.00000   0.00000  -0.00010  -0.00010   1.08393
         Item               Value     Threshold  Converged?
 Maximum Force            0.000026     0.000450     YES
 RMS     Force            0.000008     0.000300     YES
 Maximum Displacement     0.001521     0.001800     YES
 RMS     Displacement     0.000472     0.001200     YES
 Predicted change in Energy=-3.265599D-08
 Optimization completed.
    -- Stationary point found.
                           ----------------------------
                           !   Optimized Parameters   !
                           ! (Angstroms and Degrees)  !
 --------------------------                            --------------------------
 ! Name  Definition              Value          Derivative Info.                !
 --------------------------------------------------------------------------------
 ! R1    R(1,2)                  1.3533         -DE/DX =    0.0                 !
 ! R2    R(1,3)                  1.0859         -DE/DX =    0.0                 !
 ! R3    R(1,4)                  1.0859         -DE/DX =    0.0                 !
 ! R4    R(1,7)                  2.276          -DE/DX =    0.0                 !
 ! R5    R(2,5)                  1.085          -DE/DX =    0.0                 !
 ! R6    R(2,6)                  1.085          -DE/DX =    0.0                 !
 ! R7    R(7,8)                  1.0846         -DE/DX =    0.0                 !
 ! R8    R(7,9)                  1.083          -DE/DX =    0.0                 !
 ! R9    R(7,10)                 1.083          -DE/DX =    0.0                 !
 ! A1    A(2,1,3)              120.5745         -DE/DX =    0.0                 !
 ! A2    A(2,1,4)              120.5746         -DE/DX =    0.0                 !
 ! A3    A(2,1,7)              109.3465         -DE/DX =    0.0                 !
 ! A4    A(3,1,4)              115.8933         -DE/DX =    0.0                 !
 ! A5    A(3,1,7)               88.5293         -DE/DX =    0.0                 !
 ! A6    A(4,1,7)               88.5286         -DE/DX =    0.0                 !
 ! A7    A(1,2,5)              121.5157         -DE/DX =    0.0                 !
 ! A8    A(1,2,6)              121.5157         -DE/DX =    0.0                 !
 ! A9    A(5,2,6)              116.8429         -DE/DX =    0.0                 !
 ! A10   A(1,7,8)              100.6278         -DE/DX =    0.0                 !
 ! A11   A(1,7,9)              100.8681         -DE/DX =    0.0                 !
 ! A12   A(1,7,10)             100.8686         -DE/DX =    0.0                 !
 ! A13   A(8,7,9)              116.691          -DE/DX =    0.0                 !
 ! A14   A(8,7,10)             116.6909         -DE/DX =    0.0                 !
 ! A15   A(9,7,10)             116.3582         -DE/DX =    0.0                 !
 ! D1    D(3,1,2,5)           -171.9754         -DE/DX =    0.0                 !
 ! D2    D(3,1,2,6)             12.2296         -DE/DX =    0.0                 !
 ! D3    D(4,1,2,5)            -12.2295         -DE/DX =    0.0                 !
 ! D4    D(4,1,2,6)            171.9754         -DE/DX =    0.0                 !
 ! D5    D(7,1,2,5)             87.8971         -DE/DX =    0.0                 !
 ! D6    D(7,1,2,6)            -87.898          -DE/DX =    0.0                 !
 ! D7    D(2,1,7,8)           -180.0048         -DE/DX =    0.0                 !
 ! D8    D(2,1,7,9)             59.9031         -DE/DX =    0.0                 !
 ! D9    D(2,1,7,10)           -59.9126         -DE/DX =    0.0                 !
 ! D10   D(3,1,7,8)             57.9719         -DE/DX =    0.0                 !
 ! D11   D(3,1,7,9)            -62.1202         -DE/DX =    0.0                 !
 ! D12   D(3,1,7,10)           178.0641         -DE/DX =    0.0                 !
 ! D13   D(4,1,7,8)            -57.9817         -DE/DX =    0.0                 !
 ! D14   D(4,1,7,9)           -178.0739         -DE/DX =    0.0                 !
 ! D15   D(4,1,7,10)            62.1105         -DE/DX =    0.0                 !
 --------------------------------------------------------------------------------
 GradGradGradGradGradGradGradGradGradGradGradGradGradGradGradGradGradGrad

 Leave Link  103 at Wed Oct  7 14:23:51 2020, MaxMem=  2684354560 cpu:               4.7 elap:               0.7
 (Enter /udrive/faculty/rpeverati/g16/g16/l9999.exe)

 ----------------------------------------------------------------------

 Electric dipole moment (input orientation):
 (Debye = 10**-18 statcoulomb cm , SI units = C m)
                  (au)            (Debye)         (10**-30 SI)
   Tot        0.130821D+00      0.332514D+00      0.110915D+01
   x          0.129586D+00      0.329375D+00      0.109868D+01
   y          0.179314D-01      0.455771D-01      0.152029D+00
   z          0.000000D+00      0.000000D+00      0.000000D+00

 Dipole polarizability, Alpha (input orientation).
 (esu units = cm**3 , SI units = C**2 m**2 J**-1)
 Alpha(0;0):
               (au)            (10**-24 esu)      (10**-40 SI)
   iso        0.381249D+02      0.564953D+01      0.628595D+01
   aniso      0.238501D+02      0.353422D+01      0.393235D+01
   xx         0.515000D+02      0.763152D+01      0.849121D+01
   yx         0.744357D+01      0.110302D+01      0.122728D+01
   yy         0.316146D+02      0.468480D+01      0.521254D+01
   zx        -0.318870D-02     -0.472516D-03     -0.525745D-03
   zy        -0.389729D-03     -0.577519D-04     -0.642577D-04
   zz         0.312600D+02      0.463226D+01      0.515409D+01

 ----------------------------------------------------------------------

 Dipole orientation:
     6         -0.18109061          1.31226756         -0.73519886
     6          0.04400536         -0.31893444         -2.69181680
     1          1.41736870          2.45122575         -0.13665177
     1         -2.02827688          1.97571971         -0.13662556
     1         -1.58534922         -1.29001011         -3.47057401
     1          1.87546087         -0.81241018         -3.47059754
     6          0.11794868         -0.85467940          2.96805056
     1         -0.09270702          0.67310770          4.31808008
     1          1.98596731         -1.67102467          2.78769556
     1         -1.45935613         -2.14622356          2.78786697

 Electric dipole moment (dipole orientation):
 (Debye = 10**-18 statcoulomb cm , SI units = C m)
                  (au)            (Debye)         (10**-30 SI)
   Tot        0.130821D+00      0.332514D+00      0.110915D+01
   x          0.000000D+00      0.000000D+00      0.000000D+00
   y          0.000000D+00      0.000000D+00      0.000000D+00
   z          0.130821D+00      0.332514D+00      0.110915D+01

 Dipole polarizability, Alpha (dipole orientation).
 (esu units = cm**3 , SI units = C**2 m**2 J**-1)
 Alpha(0;0):
               (au)            (10**-24 esu)      (10**-40 SI)
   iso        0.381249D+02      0.564953D+01      0.628595D+01
   aniso      0.238501D+02      0.353422D+01      0.393235D+01
   xx         0.312359D+02      0.462868D+01      0.515010D+01
   yx         0.175216D+00      0.259643D-01      0.288892D-01
   yy         0.299911D+02      0.444422D+01      0.494486D+01
   zx        -0.610255D+00     -0.904305D-01     -0.100617D+00
   zy         0.442203D+01      0.655277D+00      0.729094D+00
   zz         0.531477D+02      0.787568D+01      0.876288D+01

 ----------------------------------------------------------------------

 Test job not archived.
 1\1\GINC-NODE54\Freq\UM062X\6-31G(d)\C3H7(2)\RPEVERATI\07-Oct-2020\0\\
 #P Freq M062X/6-31G* 5D 7F Integral=UltraFineGrid SCF=(NoSymm,XQC,MaxC
 yc=120) EmpiricalDispersion=GD3 IOp(1/33=1) Geom=Check Guess=Read\\TS 
 search on BH76.\\0,2\C,-0.4814637285,0.6410601715,-0.0002304362\C,-1.3
 876510417,-0.3640102994,0.0001698669\H,-0.2337227248,1.161005472,-0.92
 07505039\H,-0.2336688942,1.1616916577,0.9198871095\H,-1.7422240892,-0.
 8076365129,0.9247145287\H,-1.742276777,-0.808324916,-0.924023936\C,1.6
 183808802,-0.2369713352,0.0000522185\H,2.2141788767,0.6693670552,-0.00
 03931116\H,1.6010011256,-0.8081523006,-0.9199114849\H,1.6011121891,-0.
 8073192467,0.9205349851\\Version=ES64L-G16RevA.03\State=2-A\HF=-118.33
 22734\S2=0.780151\S2-1=0.\S2A=0.750222\RMSD=7.051e-10\RMSF=7.024e-06\Z
 eroPoint=0.0857149\Thermal=0.0908742\Dipole=0.1295863,0.0179314,-0.000
 0095\DipoleDeriv=-0.1415564,0.0471375,-0.0000104,-0.0429743,0.0273749,
 0.000024,0.0000233,0.0000223,0.0927861,-0.3013861,0.1866658,-0.000058,
 0.2360689,-0.1602742,0.0000964,-0.0000779,0.0000977,0.1157478,0.095264
 3,-0.0351182,0.0176523,-0.0325324,0.0140759,0.048533,0.0144891,0.05524
 15,-0.0458399,0.0952633,-0.0351339,-0.0176339,-0.0325458,0.0139986,-0.
 0485747,-0.0144722,-0.0552838,-0.0457605,0.0899955,-0.0646848,0.024882
 8,-0.0876429,0.0540597,0.0394165,0.0457548,0.0565182,-0.0624954,0.0899
 917,-0.0647067,-0.0248433,-0.0876794,0.0539883,-0.0394985,-0.0456979,-
 0.0566013,-0.0624197,0.069927,0.0741194,-0.0000292,0.0786277,0.0108921
 ,0.0000158,-0.0000301,0.0000134,0.0618073,-0.0078889,-0.0904494,0.0000
 424,-0.0552547,-0.0325903,0.0000376,0.0000275,0.0000386,0.0405746,0.00
 51927,-0.0089147,0.00541,0.0119674,0.0091885,-0.057232,0.0091687,-0.04
 96384,-0.0471511,0.005197,-0.0089151,-0.0054127,0.0119654,0.0092865,0.
 0571819,-0.0091853,0.0495916,-0.0472492\Polar=51.5000418,7.4435721,31.
 6145939,-0.0031887,-0.0003897,31.2600498\Quadrupole=-1.0200614,0.08091
 61,0.9391453,1.071773,-0.0003384,0.0002886\PG=C01 [X(C3H7)]\NImag=1\\0
 .13786264,0.32167080,0.57908175,-0.00010611,0.00002069,0.65925556,-0.1
 7167349,-0.23731084,0.00009052,0.38578393,-0.15837460,-0.31771999,0.00
 008102,0.33264009,0.49054230,0.00006058,0.00008280,-0.11383066,-0.0001
 1626,0.00005197,0.65559798,-0.03471630,-0.03694947,0.05189636,-0.00919
 682,-0.01728991,0.02064422,0.05597919,-0.05573963,-0.11788991,0.116440
 06,-0.00017856,-0.00163061,0.02151011,0.04593852,0.11571899,0.05381995
 ,0.11585031,-0.27156436,0.00032627,-0.00013037,0.00417080,-0.06061308,
 -0.12731591,0.28044610,-0.03472186,-0.03699508,-0.05188228,-0.00919819
 ,-0.01730547,-0.02063059,0.00094051,0.00393949,0.00589126,0.05598620,-
 0.05578702,-0.11806311,-0.11655146,-0.00017986,-0.00164639,-0.02150571
 ,0.00393576,0.00928477,0.01251814,0.04599096,0.11590896,-0.05379216,-0
 .11596268,-0.27138500,-0.00032539,0.00013571,0.00418795,-0.00589515,-0
 .01253730,-0.01608721,0.06059193,0.12743590,0.28024922,-0.00285516,-0.
 00993971,0.02043946,-0.07135852,-0.04970896,0.07824793,0.00386285,-0.0
 0677459,-0.00122793,-0.00368642,0.00333052,-0.00074643,0.06789373,-0.0
 0635530,-0.00538527,0.02141761,-0.05249459,-0.09344595,0.09919131,-0.0
 0826270,0.00111826,0.00003823,0.00425835,-0.00153983,0.00032617,0.0590
 4538,0.09188756,0.00081633,-0.00112839,0.00444879,0.08025179,0.1000402
 8,-0.27583873,-0.00070570,-0.00058106,0.00152746,0.00009361,0.00026378
 ,0.00099195,-0.08798609,-0.10991435,0.28496013,-0.00285638,-0.00995486
 ,-0.02043162,-0.07136748,-0.04977296,-0.07822251,-0.00368639,0.0033310
 7,0.00074422,0.00386295,-0.00677362,0.00123284,0.00580578,0.00394987,0
 .00865324,0.06790372,-0.00635713,-0.00540041,-0.02140992,-0.05256005,-
 0.09359438,-0.09932408,0.00425826,-0.00154027,-0.00032453,-0.00826216,
 0.00111865,-0.00003743,0.00394405,0.00732728,0.01093515,0.05911720,0.0
 9205136,-0.00081115,0.00113630,0.00446507,-0.08022432,-0.10017323,-0.2
 7568120,-0.00009652,-0.00026207,0.00099235,0.00071174,0.00058174,0.001
 52694,-0.00865743,-0.01095281,-0.01607657,0.08795443,0.11005468,0.2847
 8625,0.13633218,0.00830619,-0.00000679,-0.05757216,-0.04876943,0.00001
 992,-0.01332029,0.00983280,0.00126102,-0.01332048,0.00983209,-0.001267
 46,0.00041458,0.00000836,-0.00139855,0.00041465,0.00000943,0.00139852,
 0.09987260,-0.05140083,-0.01530304,0.00000148,0.01219252,0.02049937,-0
 .00000758,0.00876144,-0.00496431,-0.00019461,0.00876615,-0.00496678,0.
 00019821,-0.00000911,-0.00009555,0.00040788,-0.00000941,-0.00009567,-0
 .00040786,0.20729643,0.53313508,0.00001654,0.00000076,-0.01321369,-0.0
 0000329,-0.00000651,0.00114400,-0.00556416,0.00318001,0.00027435,0.005
 55798,-0.00317669,0.00027637,0.00021022,-0.00014081,-0.00005798,-0.000
 21026,0.00014090,-0.00005784,-0.00006378,0.00002785,0.61975474,-0.0087
 8035,-0.00417323,0.00000214,-0.00070752,0.00316152,-0.00000125,0.00026
 512,-0.00037489,-0.00027493,0.00026525,-0.00037463,0.00027514,0.000148
 66,-0.00000367,0.00002041,0.00014863,-0.00000369,-0.00002041,-0.115061
 91,-0.16422065,0.00007818,0.11757431,0.00366112,0.00220274,-0.00000080
 ,0.00010558,-0.00064649,0.00000014,-0.00030719,0.00019951,-0.00012805,
 -0.00030715,0.00019954,0.00012766,0.00002314,0.00003653,-0.00004823,0.
 00002325,0.00003650,0.00004825,-0.14658101,-0.25659326,0.00009955,0.16
 092522,0.27105984,-0.00000116,-0.00000063,0.00037878,-0.00000002,0.000
 00007,-0.00018195,-0.00016184,-0.00005476,-0.00018878,0.00016201,0.000
 05457,-0.00018906,-0.00010892,0.00004499,0.00005534,0.00010889,-0.0000
 4500,0.00005534,0.00006996,0.00010074,-0.05542665,-0.00007703,-0.00011
 087,0.04727022,-0.00929595,0.00267517,0.00458554,0.00264528,0.00271019
 ,0.00031516,0.00078440,-0.00039438,0.00001601,-0.00091225,0.00042011,-
 0.00005744,-0.00000875,-0.00002575,0.00000729,-0.00021676,-0.00012015,
 -0.00024761,-0.01887942,-0.01069411,0.00557087,0.00307308,-0.00877815,
 -0.01519485,0.02097843,0.00434172,-0.00076195,-0.00178229,-0.00110725,
 -0.00117866,0.00045299,-0.00020835,-0.00021962,0.00001375,0.00012323,-
 0.00007627,0.00032717,-0.00002201,-0.00000325,-0.00000182,0.00011145,0
 .00010014,-0.00002683,-0.01997946,-0.13593357,-0.14164046,0.00253140,-
 0.00825546,-0.02052371,0.01434712,0.13451311,0.00066128,0.00036176,0.0
 0072313,-0.00002128,0.00027455,0.00021561,0.00008801,-0.00007187,0.000
 19246,-0.00040783,0.00030743,0.00023633,-0.00002708,-0.00005484,-0.000
 01433,0.00014365,-0.00004460,0.00000400,-0.00756837,-0.13583365,-0.276
 22159,0.00117749,0.00294204,0.00412222,0.00548053,0.14766240,0.2860303
 2,-0.00929532,0.00267102,-0.00458722,0.00264497,0.00270954,-0.00031719
 ,-0.00091227,0.00042018,0.00005720,0.00078429,-0.00039430,-0.00001587,
 -0.00021676,-0.00011996,0.00024768,-0.00000870,-0.00002575,-0.00000725
 ,-0.01887975,-0.01068242,-0.00559229,0.00307473,-0.00876480,0.01520295
 ,0.00183194,-0.00013785,0.00047360,0.02097686,0.00434087,-0.00076083,0
 .00178361,-0.00110703,-0.00117920,-0.00045195,0.00012365,-0.00007682,-
 0.00032694,-0.00020831,-0.00021955,-0.00001341,0.00011130,0.00010020,0
 .00002676,-0.00002200,-0.00000321,0.00000183,-0.01995539,-0.13568228,0
 .14151541,0.00253262,-0.00823946,0.02053460,-0.00014005,0.01181553,-0.
 01554322,0.01432434,0.13424561,-0.00066410,-0.00036092,0.00072239,0.00
 002197,-0.00027349,0.00021619,0.00040786,-0.00030721,0.00023683,-0.000
 08782,0.00007230,0.00019252,-0.00014372,0.00004451,0.00000395,0.000027
 13,0.00005482,-0.00001435,0.00755552,0.13570755,-0.27647171,-0.0011797
 3,-0.00292968,0.00410454,-0.00047549,0.01551881,-0.01528814,-0.0054616
 1,-0.14752669,0.28629778\\0.00001345,-0.00001517,-0.00000016,0.0000070
 7,-0.00000487,-0.00000011,-0.00000540,0.00000444,0.00000082,-0.0000050
 6,0.00000420,-0.00000082,-0.00000342,-0.00000014,-0.00000104,-0.000003
 42,-0.00000014,0.00000106,0.00001611,0.00000645,0.00000016,0.00000791,
 -0.00000763,0.00000002,-0.00001379,0.00000639,0.00000050,-0.00001345,0
 .00000646,-0.00000044\\\@


 THE CHYMISTS ARE A STRANGE CLASS OF MORTALS IMPELLED
 BY AN ALMOST INSANE IMPULSE TO SEEK THEIR PLEASURE
 AMONG SMOKE AND VAPOR, SOOT AND FLAME, POISONS AND
 POVERTY; YET AMONG ALL THESE EVILS I SEEM TO LIVE
 SO SWEETLY, THAT I MAY DIE IF I WOULD CHANGE PLACES
 WITH THE PERSIAN KING.
   --  JOHANN JOACHIM BECHER, 1635-1682
 ACTA LABORATORII CHYMICA MONACENSIS, 1669
 Job cpu time:       0 days  0 hours  9 minutes 26.1 seconds.
 Elapsed time:       0 days  0 hours  0 minutes 56.8 seconds.
 File lengths (MBytes):  RWF=     12 Int=      0 D2E=      0 Chk=      2 Scr=      1
 Normal termination of Gaussian 16 at Wed Oct  7 14:23:53 2020.
