 Entering Gaussian System, Link 0=g16
 Input=MN_16_c3h7_BH76_M062XD30_631Gs.in
 Output=MN_16_c3h7_BH76_M062XD30_631Gs.log
 Initial command:
 /udrive/faculty/rpeverati/g16/g16/l1.exe "/udrive/scratch-directories/gaussian09/rpeverati/Gau-39300.inp" -scrdir="/udrive/scratch-directories/gaussian09/rpeverati/"
 Entering Link 1 = /udrive/faculty/rpeverati/g16/g16/l1.exe PID=     39301.
  
 Copyright (c) 1988,1990,1992,1993,1995,1998,2003,2009,2016,
            Gaussian, Inc.  All Rights Reserved.
  
 This is part of the Gaussian(R) 16 program.  It is based on
 the Gaussian(R) 09 system (copyright 2009, Gaussian, Inc.),
 the Gaussian(R) 03 system (copyright 2003, Gaussian, Inc.),
 the Gaussian(R) 98 system (copyright 1998, Gaussian, Inc.),
 the Gaussian(R) 94 system (copyright 1995, Gaussian, Inc.),
 the Gaussian 92(TM) system (copyright 1992, Gaussian, Inc.),
 the Gaussian 90(TM) system (copyright 1990, Gaussian, Inc.),
 the Gaussian 88(TM) system (copyright 1988, Gaussian, Inc.),
 the Gaussian 86(TM) system (copyright 1986, Carnegie Mellon
 University), and the Gaussian 82(TM) system (copyright 1983,
 Carnegie Mellon University). Gaussian is a federally registered
 trademark of Gaussian, Inc.
  
 This software contains proprietary and confidential information,
 including trade secrets, belonging to Gaussian, Inc.
  
 This software is provided under written license and may be
 used, copied, transmitted, or stored only in accord with that
 written license.
  
 The following legend is applicable only to US Government
 contracts under FAR:
  
                    RESTRICTED RIGHTS LEGEND
  
 Use, reproduction and disclosure by the US Government is
 subject to restrictions as set forth in subparagraphs (a)
 and (c) of the Commercial Computer Software - Restricted
 Rights clause in FAR 52.227-19.
  
 Gaussian, Inc.
 340 Quinnipiac St., Bldg. 40, Wallingford CT 06492
  
  
 ---------------------------------------------------------------
 Warning -- This program may not be used in any manner that
 competes with the business of Gaussian, Inc. or will provide
 assistance to any competitor of Gaussian, Inc.  The licensee
 of this program is prohibited from giving any competitor of
 Gaussian, Inc. access to this program.  By using this program,
 the user acknowledges that Gaussian, Inc. is engaged in the
 business of creating and licensing software in the field of
 computational chemistry and represents and warrants to the
 licensee that it is not a competitor of Gaussian, Inc. and that
 it will not use this program in any manner prohibited above.
 ---------------------------------------------------------------
  

 Cite this work as:
 Gaussian 16, Revision A.03,
 M. J. Frisch, G. W. Trucks, H. B. Schlegel, G. E. Scuseria, 
 M. A. Robb, J. R. Cheeseman, G. Scalmani, V. Barone, 
 G. A. Petersson, H. Nakatsuji, X. Li, M. Caricato, A. V. Marenich, 
 J. Bloino, B. G. Janesko, R. Gomperts, B. Mennucci, H. P. Hratchian, 
 J. V. Ortiz, A. F. Izmaylov, J. L. Sonnenberg, D. Williams-Young, 
 F. Ding, F. Lipparini, F. Egidi, J. Goings, B. Peng, A. Petrone, 
 T. Henderson, D. Ranasinghe, V. G. Zakrzewski, J. Gao, N. Rega, 
 G. Zheng, W. Liang, M. Hada, M. Ehara, K. Toyota, R. Fukuda, 
 J. Hasegawa, M. Ishida, T. Nakajima, Y. Honda, O. Kitao, H. Nakai, 
 T. Vreven, K. Throssell, J. A. Montgomery, Jr., J. E. Peralta, 
 F. Ogliaro, M. J. Bearpark, J. J. Heyd, E. N. Brothers, K. N. Kudin, 
 V. N. Staroverov, T. A. Keith, R. Kobayashi, J. Normand, 
 K. Raghavachari, A. P. Rendell, J. C. Burant, S. S. Iyengar, 
 J. Tomasi, M. Cossi, J. M. Millam, M. Klene, C. Adamo, R. Cammi, 
 J. W. Ochterski, R. L. Martin, K. Morokuma, O. Farkas, 
 J. B. Foresman, and D. J. Fox, Gaussian, Inc., Wallingford CT, 2016.
 
 ******************************************
 Gaussian 16:  ES64L-G16RevA.03 25-Dec-2016
                 7-Oct-2020 
 ******************************************
 %NoSave
 %nproc=12
 Will use up to   12 processors via shared memory.
 %mem=20GB
 %chk=MN_16_c3h7_BH76_M062XD30_631Gs
 ----------------------------------------------------------------------
 #P Opt(MaxCyc=100) M062X/6-31G* 5D 7F Integral=UltraFineGrid SCF=(NoSy
 mm,XQC,MaxCyc=120) EmpiricalDispersion=GD3 IOp(1/33=1)
 ----------------------------------------------------------------------
 1/6=100,18=20,19=15,26=4,33=1,38=1/1,3;
 2/9=110,12=2,17=6,18=5,40=1/2;
 3/5=1,6=6,7=1,8=11,11=2,25=1,30=1,71=1,74=-55,75=-5,124=31/1,2,3;
 4/9=2/1;
 5/5=2,7=120,8=3,13=1,38=5/2,8;
 6/7=2,8=2,9=2,10=2,28=1/1;
 7//1,2,3,16;
 1/6=100,18=20,19=15,26=4,33=1/3(2);
 2/9=110/2;
 99//99;
 2/9=110/2;
 3/5=1,6=6,7=1,8=11,11=2,25=1,30=1,71=1,74=-55,75=-5,124=31/1,2,3;
 4/5=5,9=2,16=3,69=1/1;
 5/5=2,7=120,8=3,13=1,38=5/2,8;
 7//1,2,3,16;
 1/6=100,18=20,19=15,26=4,33=1/3(-5);
 2/9=110/2;
 6/7=2,8=2,9=2,10=2,19=2,28=1/1;
 99/9=1/99;
 Leave Link    1 at Wed Oct  7 14:19:00 2020, MaxMem=  2684354560 cpu:               5.2 elap:               0.8
 (Enter /udrive/faculty/rpeverati/g16/g16/l101.exe)
 ONIOM data not found on unit 2.
 ------------------
 TS search on BH76.
 ------------------
 TstMul:  ICh=     0
 TstMul:  Mul=     2
 TstMul:  ICh=     0
 TstMul:  Mul=     2
 Symbolic Z-matrix:
 Charge =  0 Multiplicity = 2
 C                     1.20844  -0.28719   0.00006 
 C                    -0.06536   0.57613  -0.00006 
 C                    -1.31479  -0.23952  -0.00001 
 H                     1.24137  -0.92839   0.88123 
 H                     1.2414   -0.92858  -0.88098 
 H                     2.10187   0.33873   0. 
 H                    -0.04822   1.22685  -0.87709 
 H                    -0.04827   1.22703   0.87684 
 H                    -1.72914  -0.61577   0.92444 
 H                    -1.72876  -0.61642  -0.92437 
 
 RdStrC is calling ZToCFu for IStruc=1 NZ=    10.
 PrtBox:  NBox=     1 Levels=  1 BoxLen=    8.00 SMaxX=        7.24
          Shift=            3.267610            1.754770            1.746800
 Box      1 Number                   0 centers from      1 to     10:
 After GenITR:
 ITRead=  0  0  0  0  0  0  0  0  0  0
 MicOpt= -1 -1 -1 -1 -1 -1 -1 -1 -1 -1
 ITRead=  0  0  0  0  0  0  0  0  0  0
 MicOpt= -1 -1 -1 -1 -1 -1 -1 -1 -1 -1
 NAtoms=     10 NQM=       10 NQMF=       0 NMMI=      0 NMMIF=      0
                NMic=       0 NMicF=      0.
                    Isotopes and Nuclear Properties:
 (Nuclear quadrupole moments (NQMom) in fm**2, nuclear magnetic moments (NMagM)
  in nuclear magnetons)

  Atom         1           2           3           4           5           6           7           8           9          10
 IAtWgt=          12          12          12           1           1           1           1           1           1           1
 AtmWgt=  12.0000000  12.0000000  12.0000000   1.0078250   1.0078250   1.0078250   1.0078250   1.0078250   1.0078250   1.0078250
 NucSpn=           0           0           0           1           1           1           1           1           1           1
 AtZEff=   0.0000000   0.0000000   0.0000000   0.0000000   0.0000000   0.0000000   0.0000000   0.0000000   0.0000000   0.0000000
 NQMom=    0.0000000   0.0000000   0.0000000   0.0000000   0.0000000   0.0000000   0.0000000   0.0000000   0.0000000   0.0000000
 NMagM=    0.0000000   0.0000000   0.0000000   2.7928460   2.7928460   2.7928460   2.7928460   2.7928460   2.7928460   2.7928460
 AtZNuc=   6.0000000   6.0000000   6.0000000   1.0000000   1.0000000   1.0000000   1.0000000   1.0000000   1.0000000   1.0000000
 No MM parameters found.
 Leave Link  101 at Wed Oct  7 14:19:01 2020, MaxMem=  2684354560 cpu:               4.4 elap:               1.0
 (Enter /udrive/faculty/rpeverati/g16/g16/l103.exe)

 GradGradGradGradGradGradGradGradGradGradGradGradGradGradGradGradGradGrad
 Berny optimization.
 Optmz: redundant internal coordinate code flag= 1
 Initialization pass.
                           ----------------------------
                           !    Initial Parameters    !
                           ! (Angstroms and Degrees)  !
 --------------------------                            --------------------------
 ! Name  Definition              Value          Derivative Info.                !
 --------------------------------------------------------------------------------
 ! R1    R(1,2)                  1.5388         estimate D2E/DX2                !
 ! R2    R(1,4)                  1.0903         estimate D2E/DX2                !
 ! R3    R(1,5)                  1.0903         estimate D2E/DX2                !
 ! R4    R(1,6)                  1.0909         estimate D2E/DX2                !
 ! R5    R(2,3)                  1.4921         estimate D2E/DX2                !
 ! R6    R(2,7)                  1.0922         estimate D2E/DX2                !
 ! R7    R(2,8)                  1.0922         estimate D2E/DX2                !
 ! R8    R(3,9)                  1.0807         estimate D2E/DX2                !
 ! R9    R(3,10)                 1.0807         estimate D2E/DX2                !
 ! A1    A(2,1,4)              110.7944         estimate D2E/DX2                !
 ! A2    A(2,1,5)              110.7943         estimate D2E/DX2                !
 ! A3    A(2,1,6)              110.8583         estimate D2E/DX2                !
 ! A4    A(4,1,5)              107.8313         estimate D2E/DX2                !
 ! A5    A(4,1,6)              108.2251         estimate D2E/DX2                !
 ! A6    A(5,1,6)              108.2249         estimate D2E/DX2                !
 ! A7    A(1,2,3)              112.7352         estimate D2E/DX2                !
 ! A8    A(1,2,7)              108.7431         estimate D2E/DX2                !
 ! A9    A(1,2,8)              108.7441         estimate D2E/DX2                !
 ! A10   A(3,2,7)              109.8068         estimate D2E/DX2                !
 ! A11   A(3,2,8)              109.8069         estimate D2E/DX2                !
 ! A12   A(7,2,8)              106.8214         estimate D2E/DX2                !
 ! A13   A(2,3,9)              120.7581         estimate D2E/DX2                !
 ! A14   A(2,3,10)             120.7566         estimate D2E/DX2                !
 ! A15   A(9,3,10)             117.6061         estimate D2E/DX2                !
 ! D1    D(4,1,2,3)            -59.8222         estimate D2E/DX2                !
 ! D2    D(4,1,2,7)            178.1619         estimate D2E/DX2                !
 ! D3    D(4,1,2,8)             62.1947         estimate D2E/DX2                !
 ! D4    D(5,1,2,3)             59.8203         estimate D2E/DX2                !
 ! D5    D(5,1,2,7)            -62.1957         estimate D2E/DX2                !
 ! D6    D(5,1,2,8)           -178.1628         estimate D2E/DX2                !
 ! D7    D(6,1,2,3)            179.9989         estimate D2E/DX2                !
 ! D8    D(6,1,2,7)             57.9829         estimate D2E/DX2                !
 ! D9    D(6,1,2,8)            -57.9842         estimate D2E/DX2                !
 ! D10   D(1,2,3,9)             84.5228         estimate D2E/DX2                !
 ! D11   D(1,2,3,10)           -84.4871         estimate D2E/DX2                !
 ! D12   D(7,2,3,9)           -154.0632         estimate D2E/DX2                !
 ! D13   D(7,2,3,10)            36.9269         estimate D2E/DX2                !
 ! D14   D(8,2,3,9)            -36.8927         estimate D2E/DX2                !
 ! D15   D(8,2,3,10)           154.0974         estimate D2E/DX2                !
 --------------------------------------------------------------------------------
 Maximum allowed force set to 1.00D+20.
 Trust Radius=3.00D-01 FncErr=1.00D-07 GrdErr=1.00D-06 EigMax=2.50D+02 EigMin=1.00D-04
 Number of steps in this run=    100 maximum allowed number of steps=    100.
 GradGradGradGradGradGradGradGradGradGradGradGradGradGradGradGradGradGrad

 Leave Link  103 at Wed Oct  7 14:19:02 2020, MaxMem=  2684354560 cpu:               1.4 elap:               0.5
 (Enter /udrive/faculty/rpeverati/g16/g16/l202.exe)
                          Input orientation:                          
 ---------------------------------------------------------------------
 Center     Atomic      Atomic             Coordinates (Angstroms)
 Number     Number       Type             X           Y           Z
 ---------------------------------------------------------------------
      1          6           0        1.208440   -0.287189    0.000057
      2          6           0       -0.065359    0.576131   -0.000057
      3          6           0       -1.314788   -0.239518   -0.000011
      4          1           0        1.241370   -0.928394    0.881234
      5          1           0        1.241397   -0.928584   -0.880980
      6          1           0        2.101871    0.338727    0.000000
      7          1           0       -0.048218    1.226850   -0.877090
      8          1           0       -0.048272    1.227035    0.876836
      9          1           0       -1.729145   -0.615772    0.924436
     10          1           0       -1.728764   -0.616417   -0.924367
 ---------------------------------------------------------------------
                    Distance matrix (angstroms):
                    1          2          3          4          5
     1  C    0.000000
     2  C    1.538794   0.000000
     3  C    2.523678   1.492098   0.000000
     4  H    1.090275   2.178947   2.790177   0.000000
     5  H    1.090275   2.178946   2.790161   1.762213   0.000000
     6  H    1.090867   2.180194   3.465246   1.767096   1.767093
     7  H    2.154272   1.092207   2.126900   3.065912   2.511776
     8  H    2.154284   1.092204   2.126900   2.511786   3.065918
     9  H    3.097070   2.245774   1.080675   2.987233   3.490199
    10  H    3.096791   2.245759   1.080677   3.489874   2.986835
                    6          7          8          9         10
     6  H    0.000000
     7  H    2.486148   0.000000
     8  H    2.486171   1.753926   0.000000
     9  H    4.054914   3.076729   2.494701   0.000000
    10  H    4.054691   2.494815   3.076800   1.848802   0.000000
 Stoichiometry    C3H7(2)
 Framework group  C1[X(C3H7)]
 Deg. of freedom    24
 Full point group                 C1      NOp   1
 Largest Abelian subgroup         C1      NOp   1
 Largest concise Abelian subgroup C1      NOp   1
                         Standard orientation:                         
 ---------------------------------------------------------------------
 Center     Atomic      Atomic             Coordinates (Angstroms)
 Number     Number       Type             X           Y           Z
 ---------------------------------------------------------------------
      1          6           0        1.208440   -0.287189    0.000057
      2          6           0       -0.065359    0.576132   -0.000057
      3          6           0       -1.314788   -0.239517   -0.000011
      4          1           0        1.241370   -0.928394    0.881233
      5          1           0        1.241397   -0.928584   -0.880980
      6          1           0        2.101871    0.338727   -0.000000
      7          1           0       -0.048217    1.226850   -0.877090
      8          1           0       -0.048271    1.227036    0.876836
      9          1           0       -1.729145   -0.615771    0.924435
     10          1           0       -1.728764   -0.616416   -0.924367
 ---------------------------------------------------------------------
 Rotational constants (GHZ):          31.3019043           8.9092631           7.9970612
 Leave Link  202 at Wed Oct  7 14:19:03 2020, MaxMem=  2684354560 cpu:               2.4 elap:               1.1
 (Enter /udrive/faculty/rpeverati/g16/g16/l301.exe)
 Standard basis: 6-31G(d) (5D, 7F)
 Ernie: Thresh=  0.10000D-02 Tol=  0.10000D-05 Strict=F.
 There are    59 symmetry adapted cartesian basis functions of A   symmetry.
 There are    56 symmetry adapted basis functions of A   symmetry.
    56 basis functions,   112 primitive gaussians,    59 cartesian basis functions
    13 alpha electrons       12 beta electrons
       nuclear repulsion energy        75.8616206006 Hartrees.
 IExCor= 4336 DFT=T Ex+Corr=M062X ExCW=0 ScaHFX=  0.540000
 ScaDFX=  1.000000  1.000000  1.000000  1.000000 ScalE2=  1.000000  1.000000
 IRadAn=      5 IRanWt=     -1 IRanGd=            0 ICorTp=0 IEmpDi=131
 NAtoms=   10 NActive=   10 NUniq=   10 SFac= 1.00D+00 NAtFMM=   60 NAOKFM=F Big=F
 Integral buffers will be    131072 words long.
 Raffenetti 2 integral format.
 Two-electron integral symmetry is turned on.
 R6Disp:  Grimme-D3 Dispersion energy=       -0.0000445713 Hartrees.
 Nuclear repulsion after empirical dispersion term =       75.8615760294 Hartrees.
 Leave Link  301 at Wed Oct  7 14:19:04 2020, MaxMem=  2684354560 cpu:               2.1 elap:               0.8
 (Enter /udrive/faculty/rpeverati/g16/g16/l302.exe)
 NPDir=0 NMtPBC=     1 NCelOv=     1 NCel=       1 NClECP=     1 NCelD=      1
         NCelK=      1 NCelE2=     1 NClLst=     1 CellRange=     0.0.
 One-electron integrals computed using PRISM.
 One-electron integral symmetry used in STVInt
 NBasis=    56 RedAO= T EigKep=  7.29D-03  NBF=    56
 NBsUse=    56 1.00D-06 EigRej= -1.00D+00 NBFU=    56
 Precomputing XC quadrature grid using
 IXCGrd= 4 IRadAn=           5 IRanWt=          -1 IRanGd=           0 AccXCQ= 0.00D+00.
 Generated NRdTot=       0 NPtTot=           0 NUsed=           0 NTot=          32
 NSgBfM=    59    59    59    59    59 MxSgAt=    10 MxSgA2=    10.
 Leave Link  302 at Wed Oct  7 14:19:06 2020, MaxMem=  2684354560 cpu:               8.3 elap:               1.5
 (Enter /udrive/faculty/rpeverati/g16/g16/l303.exe)
 DipDrv:  MaxL=1.
 Leave Link  303 at Wed Oct  7 14:19:07 2020, MaxMem=  2684354560 cpu:               3.2 elap:               0.8
 (Enter /udrive/faculty/rpeverati/g16/g16/l401.exe)
 SCF N**3 symmetry information disabled.
 ExpMin= 1.61D-01 ExpMax= 3.05D+03 ExpMxC= 4.57D+02 IAcc=3 IRadAn=         5 AccDes= 0.00D+00
 Harris functional with IExCor= 1009 and IRadAn=       5 diagonalized for initial guess.
 HarFok:  IExCor= 1009 AccDes= 0.00D+00 IRadAn=         5 IDoV= 1 UseB2=F ITyADJ=14
 ICtDFT=  3500011 ScaDFX=  1.000000  1.000000  1.000000  1.000000
 FoFCou: FMM=F IPFlag=           0 FMFlag=      100000 FMFlg1=           0
         NFxFlg=           0 DoJE=T BraDBF=F KetDBF=T FulRan=T
         wScrn=  0.000000 ICntrl=       500 IOpCl=  0 I1Cent=   200000004 NGrid=           0
         NMat0=    1 NMatS0=      1 NMatT0=    0 NMatD0=    1 NMtDS0=    0 NMtDT0=    0
 Petite list used in FoFCou.
 Harris En= -118.371546500514    
 JPrj=0 DoOrth=F DoCkMO=F.
 Initial guess <Sx>= 0.0000 <Sy>= 0.0000 <Sz>= 0.5000 <S**2>= 0.7500 S= 0.5000
 Leave Link  401 at Wed Oct  7 14:19:09 2020, MaxMem=  2684354560 cpu:              14.0 elap:               1.8
 (Enter /udrive/faculty/rpeverati/g16/g16/l502.exe)
 Keep R1 and R2 ints in memory in canonical form, NReq=13116790.
 FoFCou: FMM=F IPFlag=           0 FMFlag=           0 FMFlg1=           0
         NFxFlg=           0 DoJE=F BraDBF=F KetDBF=F FulRan=T
         wScrn=  0.000000 ICntrl=       600 IOpCl=  0 I1Cent=           0 NGrid=           0
         NMat0=    1 NMatS0=   1596 NMatT0=    0 NMatD0=    1 NMtDS0=    0 NMtDT0=    0
 Symmetry not used in FoFCou.
 Two-electron integral symmetry not used.
 UHF open shell SCF:
 Using DIIS extrapolation, IDIIS=  1040.
 NGot=  2684354560 LenX=  2681797160 LenY=  2681793238
 Requested convergence on RMS density matrix=1.00D-08 within 120 cycles.
 Requested convergence on MAX density matrix=1.00D-06.
 Requested convergence on             energy=1.00D-06.
 No special actions if energy rises.
 Integral accuracy reduced to 1.0D-05 until final iterations.

 Cycle   1  Pass 0  IDiag  1:
 E= -118.261170344856    
 DIIS: error= 5.53D-02 at cycle   1 NSaved=   1.
 NSaved= 1 IEnMin= 1 EnMin= -118.261170344856     IErMin= 1 ErrMin= 5.53D-02
 ErrMax= 5.53D-02  0.00D+00 EMaxC= 1.00D-01 BMatC= 4.51D-01 BMatP= 4.51D-01
 IDIUse=3 WtCom= 4.47D-01 WtEn= 5.53D-01
 Coeff-Com:  0.100D+01
 Coeff-En:   0.100D+01
 Coeff:      0.100D+01
 Gap=     0.349 Goal=   None    Shift=    0.000
 Gap=     0.431 Goal=   None    Shift=    0.000
 GapD=    0.349 DampG=1.000 DampE=0.500 DampFc=0.5000 IDamp=-1.
 Damping current iteration by 5.00D-01
 RMSDP=1.02D-02 MaxDP=1.20D-01              OVMax= 1.40D-01

 Cycle   2  Pass 0  IDiag  1:
 E= -118.329805304365     Delta-E=       -0.068634959510 Rises=F Damp=T
 DIIS: error= 8.64D-03 at cycle   2 NSaved=   2.
 NSaved= 2 IEnMin= 2 EnMin= -118.329805304365     IErMin= 2 ErrMin= 8.64D-03
 ErrMax= 8.64D-03  0.00D+00 EMaxC= 1.00D-01 BMatC= 1.86D-02 BMatP= 4.51D-01
 IDIUse=3 WtCom= 9.14D-01 WtEn= 8.64D-02
 Coeff-Com: -0.107D+00 0.111D+01
 Coeff-En:   0.000D+00 0.100D+01
 Coeff:     -0.978D-01 0.110D+01
 Gap=     0.394 Goal=   None    Shift=    0.000
 Gap=     0.439 Goal=   None    Shift=    0.000
 RMSDP=1.73D-03 MaxDP=2.00D-02 DE=-6.86D-02 OVMax= 6.40D-02

 Cycle   3  Pass 0  IDiag  1:
 E= -118.390774537356     Delta-E=       -0.060969232990 Rises=F Damp=F
 DIIS: error= 2.25D-03 at cycle   3 NSaved=   3.
 NSaved= 3 IEnMin= 3 EnMin= -118.390774537356     IErMin= 3 ErrMin= 2.25D-03
 ErrMax= 2.25D-03  0.00D+00 EMaxC= 1.00D-01 BMatC= 1.24D-03 BMatP= 1.86D-02
 IDIUse=3 WtCom= 9.78D-01 WtEn= 2.25D-02
 Coeff-Com: -0.184D-01 0.131D+00 0.887D+00
 Coeff-En:   0.000D+00 0.000D+00 0.100D+01
 Coeff:     -0.180D-01 0.128D+00 0.890D+00
 Gap=     0.400 Goal=   None    Shift=    0.000
 Gap=     0.403 Goal=   None    Shift=    0.000
 RMSDP=4.72D-04 MaxDP=8.28D-03 DE=-6.10D-02 OVMax= 9.63D-03

 Cycle   4  Pass 0  IDiag  1:
 E= -118.391121208326     Delta-E=       -0.000346670970 Rises=F Damp=F
 DIIS: error= 1.47D-03 at cycle   4 NSaved=   4.
 NSaved= 4 IEnMin= 4 EnMin= -118.391121208326     IErMin= 4 ErrMin= 1.47D-03
 ErrMax= 1.47D-03  0.00D+00 EMaxC= 1.00D-01 BMatC= 2.84D-04 BMatP= 1.24D-03
 IDIUse=3 WtCom= 9.85D-01 WtEn= 1.47D-02
 Coeff-Com:  0.282D-02-0.241D-01 0.262D+00 0.759D+00
 Coeff-En:   0.000D+00 0.000D+00 0.000D+00 0.100D+01
 Coeff:      0.278D-02-0.238D-01 0.258D+00 0.763D+00
 Gap=     0.398 Goal=   None    Shift=    0.000
 Gap=     0.408 Goal=   None    Shift=    0.000
 RMSDP=1.55D-04 MaxDP=2.97D-03 DE=-3.47D-04 OVMax= 5.47D-03

 Cycle   5  Pass 0  IDiag  1:
 E= -118.391215704179     Delta-E=       -0.000094495852 Rises=F Damp=F
 DIIS: error= 3.24D-04 at cycle   5 NSaved=   5.
 NSaved= 5 IEnMin= 5 EnMin= -118.391215704179     IErMin= 5 ErrMin= 3.24D-04
 ErrMax= 3.24D-04  0.00D+00 EMaxC= 1.00D-01 BMatC= 3.19D-05 BMatP= 2.84D-04
 IDIUse=3 WtCom= 9.97D-01 WtEn= 3.24D-03
 Coeff-Com:  0.223D-02-0.178D-01-0.767D-01 0.112D+00 0.980D+00
 Coeff-En:   0.000D+00 0.000D+00 0.000D+00 0.000D+00 0.100D+01
 Coeff:      0.223D-02-0.178D-01-0.764D-01 0.112D+00 0.980D+00
 Gap=     0.399 Goal=   None    Shift=    0.000
 Gap=     0.408 Goal=   None    Shift=    0.000
 RMSDP=9.21D-05 MaxDP=1.61D-03 DE=-9.45D-05 OVMax= 1.87D-03

 Cycle   6  Pass 0  IDiag  1:
 E= -118.391232030079     Delta-E=       -0.000016325901 Rises=F Damp=F
 DIIS: error= 1.11D-04 at cycle   6 NSaved=   6.
 NSaved= 6 IEnMin= 6 EnMin= -118.391232030079     IErMin= 6 ErrMin= 1.11D-04
 ErrMax= 1.11D-04  0.00D+00 EMaxC= 1.00D-01 BMatC= 2.80D-06 BMatP= 3.19D-05
 IDIUse=3 WtCom= 9.99D-01 WtEn= 1.11D-03
 Coeff-Com: -0.821D-03 0.339D-02-0.430D-01-0.110D+00 0.509D-01 0.110D+01
 Coeff-En:   0.000D+00 0.000D+00 0.000D+00 0.000D+00 0.000D+00 0.100D+01
 Coeff:     -0.820D-03 0.339D-02-0.429D-01-0.109D+00 0.509D-01 0.110D+01
 Gap=     0.399 Goal=   None    Shift=    0.000
 Gap=     0.409 Goal=   None    Shift=    0.000
 RMSDP=3.60D-05 MaxDP=5.16D-04 DE=-1.63D-05 OVMax= 9.60D-04

 Cycle   7  Pass 0  IDiag  1:
 E= -118.391233837710     Delta-E=       -0.000001807631 Rises=F Damp=F
 DIIS: error= 1.76D-05 at cycle   7 NSaved=   7.
 NSaved= 7 IEnMin= 7 EnMin= -118.391233837710     IErMin= 7 ErrMin= 1.76D-05
 ErrMax= 1.76D-05  0.00D+00 EMaxC= 1.00D-01 BMatC= 7.34D-08 BMatP= 2.80D-06
 IDIUse=1 WtCom= 1.00D+00 WtEn= 0.00D+00
 Coeff-Com: -0.205D-03 0.832D-03 0.318D-02-0.517D-02-0.338D-01 0.244D-02
 Coeff-Com:  0.103D+01
 Coeff:     -0.205D-03 0.832D-03 0.318D-02-0.517D-02-0.338D-01 0.244D-02
 Coeff:      0.103D+01
 Gap=     0.399 Goal=   None    Shift=    0.000
 Gap=     0.409 Goal=   None    Shift=    0.000
 RMSDP=4.80D-06 MaxDP=6.81D-05 DE=-1.81D-06 OVMax= 7.91D-05

 Initial convergence to 1.0D-05 achieved.  Increase integral accuracy.
 Cycle   8  Pass 1  IDiag  1:
 E= -118.391202440959     Delta-E=        0.000031396751 Rises=F Damp=F
 DIIS: error= 4.61D-05 at cycle   1 NSaved=   1.
 NSaved= 1 IEnMin= 1 EnMin= -118.391202440959     IErMin= 1 ErrMin= 4.61D-05
 ErrMax= 4.61D-05  0.00D+00 EMaxC= 1.00D-01 BMatC= 2.54D-07 BMatP= 2.54D-07
 IDIUse=1 WtCom= 1.00D+00 WtEn= 0.00D+00
 Coeff-Com:  0.100D+01
 Coeff:      0.100D+01
 Gap=     0.399 Goal=   None    Shift=    0.000
 Gap=     0.408 Goal=   None    Shift=    0.000
 RMSDP=4.80D-06 MaxDP=6.81D-05 DE= 3.14D-05 OVMax= 9.01D-05

 Cycle   9  Pass 1  IDiag  1:
 E= -118.391202517635     Delta-E=       -0.000000076676 Rises=F Damp=F
 DIIS: error= 9.85D-06 at cycle   2 NSaved=   2.
 NSaved= 2 IEnMin= 2 EnMin= -118.391202517635     IErMin= 2 ErrMin= 9.85D-06
 ErrMax= 9.85D-06  0.00D+00 EMaxC= 1.00D-01 BMatC= 2.25D-08 BMatP= 2.54D-07
 IDIUse=1 WtCom= 1.00D+00 WtEn= 0.00D+00
 Coeff-Com:  0.356D-01 0.964D+00
 Coeff:      0.356D-01 0.964D+00
 Gap=     0.399 Goal=   None    Shift=    0.000
 Gap=     0.408 Goal=   None    Shift=    0.000
 RMSDP=2.08D-06 MaxDP=3.18D-05 DE=-7.67D-08 OVMax= 4.09D-05

 Cycle  10  Pass 1  IDiag  1:
 E= -118.391202524081     Delta-E=       -0.000000006447 Rises=F Damp=F
 DIIS: error= 7.78D-06 at cycle   3 NSaved=   3.
 NSaved= 3 IEnMin= 3 EnMin= -118.391202524081     IErMin= 3 ErrMin= 7.78D-06
 ErrMax= 7.78D-06  0.00D+00 EMaxC= 1.00D-01 BMatC= 1.06D-08 BMatP= 2.25D-08
 IDIUse=1 WtCom= 1.00D+00 WtEn= 0.00D+00
 Coeff-Com: -0.885D-01 0.394D+00 0.694D+00
 Coeff:     -0.885D-01 0.394D+00 0.694D+00
 Gap=     0.399 Goal=   None    Shift=    0.000
 Gap=     0.408 Goal=   None    Shift=    0.000
 RMSDP=9.15D-07 MaxDP=1.52D-05 DE=-6.45D-09 OVMax= 1.95D-05

 Cycle  11  Pass 1  IDiag  1:
 E= -118.391202527252     Delta-E=       -0.000000003171 Rises=F Damp=F
 DIIS: error= 1.47D-06 at cycle   4 NSaved=   4.
 NSaved= 4 IEnMin= 4 EnMin= -118.391202527252     IErMin= 4 ErrMin= 1.47D-06
 ErrMax= 1.47D-06  0.00D+00 EMaxC= 1.00D-01 BMatC= 2.58D-10 BMatP= 1.06D-08
 IDIUse=1 WtCom= 1.00D+00 WtEn= 0.00D+00
 Coeff-Com:  0.724D-02-0.112D+00-0.843D-01 0.119D+01
 Coeff:      0.724D-02-0.112D+00-0.843D-01 0.119D+01
 Gap=     0.399 Goal=   None    Shift=    0.000
 Gap=     0.408 Goal=   None    Shift=    0.000
 RMSDP=3.46D-07 MaxDP=5.43D-06 DE=-3.17D-09 OVMax= 1.16D-05

 Cycle  12  Pass 1  IDiag  1:
 E= -118.391202527455     Delta-E=       -0.000000000203 Rises=F Damp=F
 DIIS: error= 5.42D-07 at cycle   5 NSaved=   5.
 NSaved= 5 IEnMin= 5 EnMin= -118.391202527455     IErMin= 5 ErrMin= 5.42D-07
 ErrMax= 5.42D-07  0.00D+00 EMaxC= 1.00D-01 BMatC= 5.24D-11 BMatP= 2.58D-10
 IDIUse=1 WtCom= 1.00D+00 WtEn= 0.00D+00
 Coeff-Com:  0.115D-01-0.768D-01-0.981D-01 0.389D+00 0.775D+00
 Coeff:      0.115D-01-0.768D-01-0.981D-01 0.389D+00 0.775D+00
 Gap=     0.399 Goal=   None    Shift=    0.000
 Gap=     0.408 Goal=   None    Shift=    0.000
 RMSDP=9.55D-08 MaxDP=1.71D-06 DE=-2.03D-10 OVMax= 3.43D-06

 Cycle  13  Pass 1  IDiag  1:
 E= -118.391202527478     Delta-E=       -0.000000000023 Rises=F Damp=F
 DIIS: error= 1.69D-07 at cycle   6 NSaved=   6.
 NSaved= 6 IEnMin= 6 EnMin= -118.391202527478     IErMin= 6 ErrMin= 1.69D-07
 ErrMax= 1.69D-07  0.00D+00 EMaxC= 1.00D-01 BMatC= 3.58D-12 BMatP= 5.24D-11
 IDIUse=1 WtCom= 1.00D+00 WtEn= 0.00D+00
 Coeff-Com:  0.393D-03 0.360D-02-0.254D-02-0.956D-01 0.953D-01 0.999D+00
 Coeff:      0.393D-03 0.360D-02-0.254D-02-0.956D-01 0.953D-01 0.999D+00
 Gap=     0.399 Goal=   None    Shift=    0.000
 Gap=     0.408 Goal=   None    Shift=    0.000
 RMSDP=3.29D-08 MaxDP=5.14D-07 DE=-2.31D-11 OVMax= 1.33D-06

 Cycle  14  Pass 1  IDiag  1:
 E= -118.391202527481     Delta-E=       -0.000000000003 Rises=F Damp=F
 DIIS: error= 3.08D-08 at cycle   7 NSaved=   7.
 NSaved= 7 IEnMin= 7 EnMin= -118.391202527481     IErMin= 7 ErrMin= 3.08D-08
 ErrMax= 3.08D-08  0.00D+00 EMaxC= 1.00D-01 BMatC= 2.75D-13 BMatP= 3.58D-12
 IDIUse=1 WtCom= 1.00D+00 WtEn= 0.00D+00
 Coeff-Com: -0.119D-02 0.865D-02 0.103D-01-0.489D-01-0.701D-01 0.979D-01
 Coeff-Com:  0.100D+01
 Coeff:     -0.119D-02 0.865D-02 0.103D-01-0.489D-01-0.701D-01 0.979D-01
 Coeff:      0.100D+01
 Gap=     0.399 Goal=   None    Shift=    0.000
 Gap=     0.408 Goal=   None    Shift=    0.000
 RMSDP=1.05D-08 MaxDP=1.39D-07 DE=-2.90D-12 OVMax= 3.04D-07

 Cycle  15  Pass 1  IDiag  1:
 E= -118.391202527482     Delta-E=       -0.000000000000 Rises=F Damp=F
 DIIS: error= 1.53D-08 at cycle   8 NSaved=   8.
 NSaved= 8 IEnMin= 8 EnMin= -118.391202527482     IErMin= 8 ErrMin= 1.53D-08
 ErrMax= 1.53D-08  0.00D+00 EMaxC= 1.00D-01 BMatC= 1.61D-14 BMatP= 2.75D-13
 IDIUse=1 WtCom= 1.00D+00 WtEn= 0.00D+00
 Coeff-Com: -0.677D-04 0.231D-03 0.572D-03 0.336D-02-0.884D-02-0.517D-01
 Coeff-Com:  0.396D-01 0.102D+01
 Coeff:     -0.677D-04 0.231D-03 0.572D-03 0.336D-02-0.884D-02-0.517D-01
 Coeff:      0.396D-01 0.102D+01
 Gap=     0.399 Goal=   None    Shift=    0.000
 Gap=     0.408 Goal=   None    Shift=    0.000
 RMSDP=2.32D-09 MaxDP=2.63D-08 DE=-4.26D-13 OVMax= 9.54D-08

 SCF Done:  E(UM062X) =  -118.391202527     A.U. after   15 cycles
            NFock= 15  Conv=0.23D-08     -V/T= 2.0057
 <Sx>= 0.0000 <Sy>= 0.0000 <Sz>= 0.5000 <S**2>= 0.7550 S= 0.5025
 <L.S>= 0.000000000000E+00
 KE= 1.177212031481D+02 PE=-4.253828470730D+02 EE= 1.134088653681D+02
 Annihilation of the first spin contaminant:
 S**2 before annihilation     0.7550,   after     0.7500
 Leave Link  502 at Wed Oct  7 14:19:18 2020, MaxMem=  2684354560 cpu:              93.1 elap:               8.3
 (Enter /udrive/faculty/rpeverati/g16/g16/l508.exe)
 QCSCF skips out because SCF is already converged.
 Leave Link  508 at Wed Oct  7 14:19:19 2020, MaxMem=  2684354560 cpu:               1.0 elap:               0.6
 (Enter /udrive/faculty/rpeverati/g16/g16/l601.exe)
 Copying SCF densities to generalized density rwf, IOpCl= 1 IROHF=0.

 **********************************************************************

            Population analysis using the SCF density.

 **********************************************************************

 Orbital symmetries:
 Alpha Orbitals:
       Occupied  (A) (A) (A) (A) (A) (A) (A) (A) (A) (A) (A) (A)
                 (A)
       Virtual   (A) (A) (A) (A) (A) (A) (A) (A) (A) (A) (A) (A)
                 (A) (A) (A) (A) (A) (A) (A) (A) (A) (A) (A) (A)
                 (A) (A) (A) (A) (A) (A) (A) (A) (A) (A) (A) (A)
                 (A) (A) (A) (A) (A) (A) (A)
 Beta  Orbitals:
       Occupied  (A) (A) (A) (A) (A) (A) (A) (A) (A) (A) (A) (A)
       Virtual   (A) (A) (A) (A) (A) (A) (A) (A) (A) (A) (A) (A)
                 (A) (A) (A) (A) (A) (A) (A) (A) (A) (A) (A) (A)
                 (A) (A) (A) (A) (A) (A) (A) (A) (A) (A) (A) (A)
                 (A) (A) (A) (A) (A) (A) (A) (A)
 The electronic state is 2-A.
 Alpha  occ. eigenvalues --  -10.53644 -10.53467 -10.52414  -0.87756  -0.76169
 Alpha  occ. eigenvalues --   -0.66113  -0.53484  -0.49532  -0.45839  -0.43948
 Alpha  occ. eigenvalues --   -0.40820  -0.39154  -0.24871
 Alpha virt. eigenvalues --    0.15065   0.19149   0.19181   0.20951   0.22818
 Alpha virt. eigenvalues --    0.22927   0.27164   0.27752   0.31797   0.56326
 Alpha virt. eigenvalues --    0.58087   0.58674   0.60247   0.64541   0.65363
 Alpha virt. eigenvalues --    0.72015   0.76206   0.88615   0.88719   0.94137
 Alpha virt. eigenvalues --    0.96517   0.97331   1.00701   1.02590   1.05508
 Alpha virt. eigenvalues --    1.09069   1.27067   1.49191   1.52262   1.66457
 Alpha virt. eigenvalues --    1.74305   1.79710   1.95584   2.01347   2.02887
 Alpha virt. eigenvalues --    2.14270   2.20601   2.26492   2.37616   2.43377
 Alpha virt. eigenvalues --    2.51900   2.59782   2.69298
  Beta  occ. eigenvalues --  -10.53536 -10.52920 -10.52309  -0.86560  -0.73934
  Beta  occ. eigenvalues --   -0.64417  -0.52792  -0.48797  -0.45198  -0.42430
  Beta  occ. eigenvalues --   -0.40129  -0.38944
  Beta virt. eigenvalues --    0.01895   0.15366   0.19524   0.20283   0.21007
  Beta virt. eigenvalues --    0.22937   0.23252   0.27736   0.28115   0.33050
  Beta virt. eigenvalues --    0.56785   0.58357   0.60046   0.62733   0.65657
  Beta virt. eigenvalues --    0.67500   0.73364   0.76551   0.89040   0.90473
  Beta virt. eigenvalues --    0.95101   0.97492   0.97828   1.01829   1.04828
  Beta virt. eigenvalues --    1.05962   1.09587   1.27931   1.50796   1.53045
  Beta virt. eigenvalues --    1.68992   1.79002   1.82577   1.97386   2.02407
  Beta virt. eigenvalues --    2.04974   2.21349   2.24080   2.28241   2.37767
  Beta virt. eigenvalues --    2.44613   2.55209   2.61976   2.72589
          Condensed to atoms (all electrons):
               1          2          3          4          5          6
     1  C    5.128744   0.356705  -0.067715   0.384638   0.384640   0.371337
     2  C    0.356705   4.976188   0.379299  -0.035932  -0.035932  -0.029577
     3  C   -0.067715   0.379299   5.314688  -0.001443  -0.001445   0.005777
     4  H    0.384638  -0.035932  -0.001443   0.548886  -0.029991  -0.028212
     5  H    0.384640  -0.035932  -0.001445  -0.029991   0.548888  -0.028213
     6  H    0.371337  -0.029577   0.005777  -0.028212  -0.028213   0.555061
     7  H   -0.042171   0.389943  -0.038501   0.004834  -0.004076  -0.002277
     8  H   -0.042165   0.389944  -0.038494  -0.004076   0.004834  -0.002278
     9  H    0.000405  -0.035394   0.384039   0.001589  -0.000153  -0.000085
    10  H    0.000402  -0.035399   0.384037  -0.000153   0.001591  -0.000085
               7          8          9         10
     1  C   -0.042171  -0.042165   0.000405   0.000402
     2  C    0.389943   0.389944  -0.035394  -0.035399
     3  C   -0.038501  -0.038494   0.384039   0.384037
     4  H    0.004834  -0.004076   0.001589  -0.000153
     5  H   -0.004076   0.004834  -0.000153   0.001591
     6  H   -0.002277  -0.002278  -0.000085  -0.000085
     7  H    0.565184  -0.032646   0.003915  -0.005191
     8  H   -0.032646   0.565175  -0.005194   0.003916
     9  H    0.003915  -0.005194   0.526627  -0.033088
    10  H   -0.005191   0.003916  -0.033088   0.526637
          Atomic-Atomic Spin Densities.
               1          2          3          4          5          6
     1  C    0.119813   0.016588  -0.039513  -0.004781  -0.004776  -0.019388
     2  C    0.016588  -0.066206  -0.039407   0.000103   0.000103  -0.000891
     3  C   -0.039513  -0.039407   1.219563   0.003006   0.003002   0.002545
     4  H   -0.004781   0.000103   0.003006  -0.003015   0.000767   0.001962
     5  H   -0.004776   0.000103   0.003002   0.000767  -0.003015   0.001960
     6  H   -0.019388  -0.000891   0.002545   0.001962   0.001960   0.021773
     7  H   -0.010169   0.005950  -0.006691   0.000128   0.000441   0.001727
     8  H   -0.010156   0.005943  -0.006678   0.000441   0.000127   0.001725
     9  H   -0.000263   0.000172  -0.008090  -0.000041   0.000022   0.000024
    10  H   -0.000263   0.000171  -0.008090   0.000022  -0.000041   0.000024
               7          8          9         10
     1  C   -0.010169  -0.010156  -0.000263  -0.000263
     2  C    0.005950   0.005943   0.000172   0.000171
     3  C   -0.006691  -0.006678  -0.008090  -0.008090
     4  H    0.000128   0.000441  -0.000041   0.000022
     5  H    0.000441   0.000127   0.000022  -0.000041
     6  H    0.001727   0.001725   0.000024   0.000024
     7  H    0.014658   0.003117   0.000007   0.000466
     8  H    0.003117   0.014622   0.000466   0.000007
     9  H    0.000007   0.000466  -0.053583   0.002706
    10  H    0.000466   0.000007   0.002706  -0.053582
 Mulliken charges and spin densities:
               1          2
     1  C   -0.474820   0.047091
     2  C   -0.319847  -0.077473
     3  C   -0.320242   1.119647
     4  H    0.159859  -0.001409
     5  H    0.159857  -0.001409
     6  H    0.158551   0.011461
     7  H    0.160986   0.009636
     8  H    0.160984   0.009614
     9  H    0.157339  -0.058580
    10  H    0.157333  -0.058580
 Sum of Mulliken charges =  -0.00000   1.00000
 Mulliken charges and spin densities with hydrogens summed into heavy atoms:
               1          2
     1  C    0.003446   0.055735
     2  C    0.002123  -0.058223
     3  C   -0.005570   1.002487
 Electronic spatial extent (au):  <R**2>=            210.4055
 Charge=             -0.0000 electrons
 Dipole moment (field-independent basis, Debye):
    X=              0.1748    Y=             -0.0172    Z=              0.0001  Tot=              0.1756
 Quadrupole moment (field-independent basis, Debye-Ang):
   XX=            -21.5174   YY=            -21.1778   ZZ=            -19.9264
   XY=              0.7641   XZ=             -0.0005   YZ=              0.0005
 Traceless Quadrupole moment (field-independent basis, Debye-Ang):
   XX=             -0.6435   YY=             -0.3040   ZZ=              0.9475
   XY=              0.7641   XZ=             -0.0005   YZ=              0.0005
 Octapole moment (field-independent basis, Debye-Ang**2):
  XXX=              1.8201  YYY=              0.7421  ZZZ=              0.0002  XYY=              0.6378
  XXY=             -0.9591  XXZ=              0.0013  XZZ=             -1.0115  YZZ=             -0.4621
  YYZ=             -0.0005  XYZ=             -0.0006
 Hexadecapole moment (field-independent basis, Debye-Ang**3):
 XXXX=           -189.2433 YYYY=            -63.5692 ZZZZ=            -40.7112 XXXY=              5.5459
 XXXZ=             -0.0045 YYYX=              0.0001 YYYZ=              0.0013 ZZZX=             -0.0016
 ZZZY=              0.0001 XXYY=            -41.4469 XXZZ=            -36.0127 YYZZ=            -15.6134
 XXYZ=              0.0008 YYXZ=              0.0003 ZZXY=              0.5410
 N-N= 7.586157602937D+01 E-N=-4.253828472310D+02  KE= 1.177212031481D+02
                          Isotropic Fermi Contact Couplings
        Atom                 a.u.       MegaHertz       Gauss      10(-4) cm-1
     1  C(13)              0.07060      79.37166      28.32178      26.47554
     2  C(13)             -0.02771     -31.15568     -11.11712     -10.39242
     3  C(13)              0.16859     189.52447      67.62704      63.21856
     4  H(1)              -0.00065      -2.90733      -1.03741      -0.96978
     5  H(1)              -0.00065      -2.90674      -1.03720      -0.96958
     6  H(1)               0.00312      13.94836       4.97712       4.65267
     7  H(1)               0.00625      27.94286       9.97071       9.32074
     8  H(1)               0.00624      27.88265       9.94922       9.30065
     9  H(1)              -0.01679     -75.05688     -26.78216     -25.03628
    10  H(1)              -0.01679     -75.05674     -26.78211     -25.03623
 --------------------------------------------------------
       Center         ----  Spin Dipole Couplings  ----
                      3XX-RR        3YY-RR        3ZZ-RR
 --------------------------------------------------------
     1   Atom        0.057615     -0.021671     -0.035943
     2   Atom        0.010865      0.001187     -0.012052
     3   Atom        0.038167      0.469575     -0.507742
     4   Atom        0.007404     -0.004212     -0.003192
     5   Atom        0.007403     -0.004209     -0.003194
     6   Atom        0.008811     -0.002321     -0.006490
     7   Atom        0.003764      0.002492     -0.006257
     8   Atom        0.003762      0.002497     -0.006259
     9   Atom       -0.026839     -0.013252      0.040092
    10   Atom       -0.026880     -0.013190      0.040070
 --------------------------------------------------------
                        XY            XZ            YZ
 --------------------------------------------------------
     1   Atom       -0.034293      0.000002     -0.000002
     2   Atom       -0.002387      0.000006     -0.000006
     3   Atom       -0.740581      0.000371     -0.000493
     4   Atom       -0.004864      0.007650     -0.005988
     5   Atom       -0.004866     -0.007649      0.005987
     6   Atom        0.004544     -0.000000     -0.000001
     7   Atom        0.012133     -0.008196     -0.006839
     8   Atom        0.012134      0.008195      0.006837
     9   Atom       -0.011262     -0.049419     -0.044990
    10   Atom       -0.011246      0.049398      0.045022
 --------------------------------------------------------


 ---------------------------------------------------------------------------------
              Anisotropic Spin Dipole Couplings in Principal Axis System
 ---------------------------------------------------------------------------------

       Atom             a.u.   MegaHertz   Gauss  10(-4) cm-1        Axes

              Baa    -0.0359    -4.823    -1.721    -1.609  0.0002  0.0006  1.0000
     1 C(13)  Bbb    -0.0344    -4.622    -1.649    -1.542  0.3491  0.9371 -0.0006
              Bcc     0.0704     9.446     3.370     3.151  0.9371 -0.3491  0.0000
 
              Baa    -0.0121    -1.617    -0.577    -0.539 -0.0002  0.0004  1.0000
     2 C(13)  Bbb     0.0006     0.085     0.030     0.028  0.2271  0.9739 -0.0003
              Bcc     0.0114     1.533     0.547     0.511  0.9739 -0.2271  0.0003
 
              Baa    -0.5175   -69.441   -24.778   -23.163  0.7999  0.6001 -0.0001
     3 C(13)  Bbb    -0.5077   -68.134   -24.312   -22.727 -0.0002  0.0004  1.0000
              Bcc     1.0252   137.576    49.090    45.890 -0.6001  0.7999 -0.0004
 
              Baa    -0.0099    -5.306    -1.893    -1.770 -0.1445  0.6535  0.7431
     4 H(1)   Bbb    -0.0043    -2.273    -0.811    -0.758  0.5840  0.6625 -0.4691
              Bcc     0.0142     7.579     2.704     2.528  0.7988 -0.3662  0.4773
 
              Baa    -0.0099    -5.306    -1.893    -1.770  0.1445 -0.6533  0.7432
     5 H(1)   Bbb    -0.0043    -2.273    -0.811    -0.758  0.5840  0.6626  0.4689
              Bcc     0.0142     7.579     2.704     2.528  0.7988 -0.3663 -0.4772
 
              Baa    -0.0065    -3.463    -1.236    -1.155 -0.0000  0.0002  1.0000
     6 H(1)   Bbb    -0.0039    -2.102    -0.750    -0.701 -0.3357  0.9420 -0.0002
              Bcc     0.0104     5.565     1.986     1.856  0.9420  0.3357 -0.0000
 
              Baa    -0.0109    -5.791    -2.066    -1.932  0.4830  0.0095  0.8755
     7 H(1)   Bbb    -0.0088    -4.699    -1.677    -1.567 -0.5552  0.7765  0.2979
              Bcc     0.0197    10.490     3.743     3.499  0.6770  0.6300 -0.3804
 
              Baa    -0.0109    -5.791    -2.066    -1.932 -0.4834 -0.0089  0.8753
     8 H(1)   Bbb    -0.0088    -4.698    -1.676    -1.567 -0.5550  0.7764 -0.2986
              Bcc     0.0197    10.489     3.743     3.499  0.6770  0.6301  0.3803
 
              Baa    -0.0722   -38.514   -13.743   -12.847  0.6850  0.5202  0.5100
     9 H(1)   Bbb    -0.0079    -4.225    -1.508    -1.409 -0.6349  0.7696  0.0677
              Bcc     0.0801    42.739    15.250    14.256 -0.3573 -0.3702  0.8575
 
              Baa    -0.0722   -38.513   -13.742   -12.847  0.6852  0.5199 -0.5101
    10 H(1)   Bbb    -0.0079    -4.225    -1.508    -1.409 -0.6349  0.7696 -0.0685
              Bcc     0.0801    42.738    15.250    14.256  0.3569  0.3708  0.8574
 

 ---------------------------------------------------------------------------------

 No NMR shielding tensors so no spin-rotation constants.
 Leave Link  601 at Wed Oct  7 14:19:21 2020, MaxMem=  2684354560 cpu:              12.4 elap:               1.8
 (Enter /udrive/faculty/rpeverati/g16/g16/l701.exe)
 ... and contract with generalized density number  0.
 Compute integral first derivatives.
 R6Disp: Adding Grimme-D3 dispersion energy 1st derivatives to the gradient.
 Leave Link  701 at Wed Oct  7 14:19:22 2020, MaxMem=  2684354560 cpu:               5.5 elap:               1.0
 (Enter /udrive/faculty/rpeverati/g16/g16/l702.exe)
 L702 exits ... SP integral derivatives will be done elsewhere.
 Leave Link  702 at Wed Oct  7 14:19:23 2020, MaxMem=  2684354560 cpu:               1.1 elap:               0.5
 (Enter /udrive/faculty/rpeverati/g16/g16/l703.exe)
 Integral derivatives from FoFJK, PRISM(SPDF).
 Compute integral first derivatives, UseDBF=F ICtDFT=           0.
 Calling FoFJK, ICntrl=      2127 FMM=F ISym2X=0 I1Cent= 0 IOpClX= 1 NMat=1 NMatS=1 NMatT=0.
 FoFJK:  IHMeth= 1 ICntrl=    2127 DoSepK=F KAlg= 0 I1Cent=           0 FoldK=F
 IRaf=         0 NMat=       1 IRICut=       1 DoRegI=T DoRafI=F ISym2E= 0 IDoP0=0 IntGTp=1.
 FoFCou: FMM=F IPFlag=           0 FMFlag=      100000 FMFlg1=         800
         NFxFlg=           0 DoJE=F BraDBF=F KetDBF=F FulRan=T
         wScrn=  0.000000 ICntrl=      2127 IOpCl=  1 I1Cent=           0 NGrid=           0
         NMat0=    1 NMatS0=      1 NMatT0=    0 NMatD0=    1 NMtDS0=    0 NMtDT0=    0
 Symmetry not used in FoFCou.
 Leave Link  703 at Wed Oct  7 14:19:26 2020, MaxMem=  2684354560 cpu:              16.4 elap:               1.9
 (Enter /udrive/faculty/rpeverati/g16/g16/l716.exe)
 Dipole        = 6.87557993D-02-6.75957437D-03 2.04006314D-05
 ***** Axes restored to original set *****
 -------------------------------------------------------------------
 Center     Atomic                   Forces (Hartrees/Bohr)
 Number     Number              X              Y              Z
 -------------------------------------------------------------------
      1        6          -0.001406552    0.001456844    0.000000466
      2        6          -0.001227381   -0.003423489    0.000000342
      3        6           0.001113869    0.002087457    0.000000125
      4        1          -0.000127072   -0.001483809    0.002053814
      5        1          -0.000127122   -0.001484577   -0.002053933
      6        1           0.002233703    0.001259409   -0.000000065
      7        1           0.000226903    0.001809420   -0.002094389
      8        1           0.000226781    0.001809551    0.002093630
      9        1          -0.000456865   -0.001014868    0.001595938
     10        1          -0.000456263   -0.001015938   -0.001595928
 -------------------------------------------------------------------
 Cartesian Forces:  Max     0.003423489 RMS     0.001476145
 Leave Link  716 at Wed Oct  7 14:19:26 2020, MaxMem=  2684354560 cpu:               1.1 elap:               0.6
 (Enter /udrive/faculty/rpeverati/g16/g16/l103.exe)

 GradGradGradGradGradGradGradGradGradGradGradGradGradGradGradGradGradGrad
 Berny optimization.
 Optmz: redundant internal coordinate code flag= 1
 FormGI is forming the generalized inverse of G from B-inverse, IUseBI=4.
 Internal  Forces:  Max     0.002763339 RMS     0.001060816
 Search for a local minimum.
 Step number   1 out of a maximum of  100
 All quantities printed in internal units (Hartrees-Bohrs-Radians)
 RMS Force = .10608D-02 SwitMx=.10000D-02 MixMth= 1
 Mixed Optimization -- RFO/linear search
 Second derivative matrix not updated -- first step.
 The second derivative matrix:
                          R1        R2        R3        R4        R5
           R1           0.28626
           R2           0.00000   0.34781
           R3           0.00000   0.00000   0.34781
           R4           0.00000   0.00000   0.00000   0.34713
           R5           0.00000   0.00000   0.00000   0.00000   0.33221
           R6           0.00000   0.00000   0.00000   0.00000   0.00000
           R7           0.00000   0.00000   0.00000   0.00000   0.00000
           R8           0.00000   0.00000   0.00000   0.00000   0.00000
           R9           0.00000   0.00000   0.00000   0.00000   0.00000
           A1           0.00000   0.00000   0.00000   0.00000   0.00000
           A2           0.00000   0.00000   0.00000   0.00000   0.00000
           A3           0.00000   0.00000   0.00000   0.00000   0.00000
           A4           0.00000   0.00000   0.00000   0.00000   0.00000
           A5           0.00000   0.00000   0.00000   0.00000   0.00000
           A6           0.00000   0.00000   0.00000   0.00000   0.00000
           A7           0.00000   0.00000   0.00000   0.00000   0.00000
           A8           0.00000   0.00000   0.00000   0.00000   0.00000
           A9           0.00000   0.00000   0.00000   0.00000   0.00000
           A10          0.00000   0.00000   0.00000   0.00000   0.00000
           A11          0.00000   0.00000   0.00000   0.00000   0.00000
           A12          0.00000   0.00000   0.00000   0.00000   0.00000
           A13          0.00000   0.00000   0.00000   0.00000   0.00000
           A14          0.00000   0.00000   0.00000   0.00000   0.00000
           A15          0.00000   0.00000   0.00000   0.00000   0.00000
           D1           0.00000   0.00000   0.00000   0.00000   0.00000
           D2           0.00000   0.00000   0.00000   0.00000   0.00000
           D3           0.00000   0.00000   0.00000   0.00000   0.00000
           D4           0.00000   0.00000   0.00000   0.00000   0.00000
           D5           0.00000   0.00000   0.00000   0.00000   0.00000
           D6           0.00000   0.00000   0.00000   0.00000   0.00000
           D7           0.00000   0.00000   0.00000   0.00000   0.00000
           D8           0.00000   0.00000   0.00000   0.00000   0.00000
           D9           0.00000   0.00000   0.00000   0.00000   0.00000
           D10          0.00000   0.00000   0.00000   0.00000   0.00000
           D11          0.00000   0.00000   0.00000   0.00000   0.00000
           D12          0.00000   0.00000   0.00000   0.00000   0.00000
           D13          0.00000   0.00000   0.00000   0.00000   0.00000
           D14          0.00000   0.00000   0.00000   0.00000   0.00000
           D15          0.00000   0.00000   0.00000   0.00000   0.00000
                          R6        R7        R8        R9        A1
           R6           0.34559
           R7           0.00000   0.34559
           R8           0.00000   0.00000   0.35913
           R9           0.00000   0.00000   0.00000   0.35913
           A1           0.00000   0.00000   0.00000   0.00000   0.16000
           A2           0.00000   0.00000   0.00000   0.00000   0.00000
           A3           0.00000   0.00000   0.00000   0.00000   0.00000
           A4           0.00000   0.00000   0.00000   0.00000   0.00000
           A5           0.00000   0.00000   0.00000   0.00000   0.00000
           A6           0.00000   0.00000   0.00000   0.00000   0.00000
           A7           0.00000   0.00000   0.00000   0.00000   0.00000
           A8           0.00000   0.00000   0.00000   0.00000   0.00000
           A9           0.00000   0.00000   0.00000   0.00000   0.00000
           A10          0.00000   0.00000   0.00000   0.00000   0.00000
           A11          0.00000   0.00000   0.00000   0.00000   0.00000
           A12          0.00000   0.00000   0.00000   0.00000   0.00000
           A13          0.00000   0.00000   0.00000   0.00000   0.00000
           A14          0.00000   0.00000   0.00000   0.00000   0.00000
           A15          0.00000   0.00000   0.00000   0.00000   0.00000
           D1           0.00000   0.00000   0.00000   0.00000   0.00000
           D2           0.00000   0.00000   0.00000   0.00000   0.00000
           D3           0.00000   0.00000   0.00000   0.00000   0.00000
           D4           0.00000   0.00000   0.00000   0.00000   0.00000
           D5           0.00000   0.00000   0.00000   0.00000   0.00000
           D6           0.00000   0.00000   0.00000   0.00000   0.00000
           D7           0.00000   0.00000   0.00000   0.00000   0.00000
           D8           0.00000   0.00000   0.00000   0.00000   0.00000
           D9           0.00000   0.00000   0.00000   0.00000   0.00000
           D10          0.00000   0.00000   0.00000   0.00000   0.00000
           D11          0.00000   0.00000   0.00000   0.00000   0.00000
           D12          0.00000   0.00000   0.00000   0.00000   0.00000
           D13          0.00000   0.00000   0.00000   0.00000   0.00000
           D14          0.00000   0.00000   0.00000   0.00000   0.00000
           D15          0.00000   0.00000   0.00000   0.00000   0.00000
                          A2        A3        A4        A5        A6
           A2           0.16000
           A3           0.00000   0.16000
           A4           0.00000   0.00000   0.16000
           A5           0.00000   0.00000   0.00000   0.16000
           A6           0.00000   0.00000   0.00000   0.00000   0.16000
           A7           0.00000   0.00000   0.00000   0.00000   0.00000
           A8           0.00000   0.00000   0.00000   0.00000   0.00000
           A9           0.00000   0.00000   0.00000   0.00000   0.00000
           A10          0.00000   0.00000   0.00000   0.00000   0.00000
           A11          0.00000   0.00000   0.00000   0.00000   0.00000
           A12          0.00000   0.00000   0.00000   0.00000   0.00000
           A13          0.00000   0.00000   0.00000   0.00000   0.00000
           A14          0.00000   0.00000   0.00000   0.00000   0.00000
           A15          0.00000   0.00000   0.00000   0.00000   0.00000
           D1           0.00000   0.00000   0.00000   0.00000   0.00000
           D2           0.00000   0.00000   0.00000   0.00000   0.00000
           D3           0.00000   0.00000   0.00000   0.00000   0.00000
           D4           0.00000   0.00000   0.00000   0.00000   0.00000
           D5           0.00000   0.00000   0.00000   0.00000   0.00000
           D6           0.00000   0.00000   0.00000   0.00000   0.00000
           D7           0.00000   0.00000   0.00000   0.00000   0.00000
           D8           0.00000   0.00000   0.00000   0.00000   0.00000
           D9           0.00000   0.00000   0.00000   0.00000   0.00000
           D10          0.00000   0.00000   0.00000   0.00000   0.00000
           D11          0.00000   0.00000   0.00000   0.00000   0.00000
           D12          0.00000   0.00000   0.00000   0.00000   0.00000
           D13          0.00000   0.00000   0.00000   0.00000   0.00000
           D14          0.00000   0.00000   0.00000   0.00000   0.00000
           D15          0.00000   0.00000   0.00000   0.00000   0.00000
                          A7        A8        A9        A10       A11
           A7           0.25000
           A8           0.00000   0.16000
           A9           0.00000   0.00000   0.16000
           A10          0.00000   0.00000   0.00000   0.16000
           A11          0.00000   0.00000   0.00000   0.00000   0.16000
           A12          0.00000   0.00000   0.00000   0.00000   0.00000
           A13          0.00000   0.00000   0.00000   0.00000   0.00000
           A14          0.00000   0.00000   0.00000   0.00000   0.00000
           A15          0.00000   0.00000   0.00000   0.00000   0.00000
           D1           0.00000   0.00000   0.00000   0.00000   0.00000
           D2           0.00000   0.00000   0.00000   0.00000   0.00000
           D3           0.00000   0.00000   0.00000   0.00000   0.00000
           D4           0.00000   0.00000   0.00000   0.00000   0.00000
           D5           0.00000   0.00000   0.00000   0.00000   0.00000
           D6           0.00000   0.00000   0.00000   0.00000   0.00000
           D7           0.00000   0.00000   0.00000   0.00000   0.00000
           D8           0.00000   0.00000   0.00000   0.00000   0.00000
           D9           0.00000   0.00000   0.00000   0.00000   0.00000
           D10          0.00000   0.00000   0.00000   0.00000   0.00000
           D11          0.00000   0.00000   0.00000   0.00000   0.00000
           D12          0.00000   0.00000   0.00000   0.00000   0.00000
           D13          0.00000   0.00000   0.00000   0.00000   0.00000
           D14          0.00000   0.00000   0.00000   0.00000   0.00000
           D15          0.00000   0.00000   0.00000   0.00000   0.00000
                          A12       A13       A14       A15       D1
           A12          0.16000
           A13          0.00000   0.16000
           A14          0.00000   0.00000   0.16000
           A15          0.00000   0.00000   0.00000   0.16000
           D1           0.00000   0.00000   0.00000   0.00000   0.00253
           D2           0.00000   0.00000   0.00000   0.00000   0.00000
           D3           0.00000   0.00000   0.00000   0.00000   0.00000
           D4           0.00000   0.00000   0.00000   0.00000   0.00000
           D5           0.00000   0.00000   0.00000   0.00000   0.00000
           D6           0.00000   0.00000   0.00000   0.00000   0.00000
           D7           0.00000   0.00000   0.00000   0.00000   0.00000
           D8           0.00000   0.00000   0.00000   0.00000   0.00000
           D9           0.00000   0.00000   0.00000   0.00000   0.00000
           D10          0.00000   0.00000   0.00000   0.00000   0.00000
           D11          0.00000   0.00000   0.00000   0.00000   0.00000
           D12          0.00000   0.00000   0.00000   0.00000   0.00000
           D13          0.00000   0.00000   0.00000   0.00000   0.00000
           D14          0.00000   0.00000   0.00000   0.00000   0.00000
           D15          0.00000   0.00000   0.00000   0.00000   0.00000
                          D2        D3        D4        D5        D6
           D2           0.00253
           D3           0.00000   0.00253
           D4           0.00000   0.00000   0.00253
           D5           0.00000   0.00000   0.00000   0.00253
           D6           0.00000   0.00000   0.00000   0.00000   0.00253
           D7           0.00000   0.00000   0.00000   0.00000   0.00000
           D8           0.00000   0.00000   0.00000   0.00000   0.00000
           D9           0.00000   0.00000   0.00000   0.00000   0.00000
           D10          0.00000   0.00000   0.00000   0.00000   0.00000
           D11          0.00000   0.00000   0.00000   0.00000   0.00000
           D12          0.00000   0.00000   0.00000   0.00000   0.00000
           D13          0.00000   0.00000   0.00000   0.00000   0.00000
           D14          0.00000   0.00000   0.00000   0.00000   0.00000
           D15          0.00000   0.00000   0.00000   0.00000   0.00000
                          D7        D8        D9        D10       D11
           D7           0.00253
           D8           0.00000   0.00253
           D9           0.00000   0.00000   0.00253
           D10          0.00000   0.00000   0.00000   0.00870
           D11          0.00000   0.00000   0.00000   0.00000   0.00870
           D12          0.00000   0.00000   0.00000   0.00000   0.00000
           D13          0.00000   0.00000   0.00000   0.00000   0.00000
           D14          0.00000   0.00000   0.00000   0.00000   0.00000
           D15          0.00000   0.00000   0.00000   0.00000   0.00000
                          D12       D13       D14       D15
           D12          0.00870
           D13          0.00000   0.00870
           D14          0.00000   0.00000   0.00870
           D15          0.00000   0.00000   0.00000   0.00870
 ITU=  0
 Eigenvectors of the second derivative matrix:
                           1         2         3         4         5
     Eigenvalues --     0.00253   0.00870   0.00957   0.04110   0.05456
   1         R1        -0.00000   0.00000   0.00000   0.00000   0.00000
   2         R2        -0.00000   0.00000   0.00000   0.00000   0.00000
   3         R3         0.00000  -0.00000   0.00000   0.00000   0.00000
   4         R4         0.00000  -0.00000   0.00000   0.00000   0.00000
   5         R5         0.00000   0.00000   0.00000  -0.00000   0.00000
   6         R6         0.00000  -0.00000   0.00000  -0.00000  -0.00000
   7         R7        -0.00000   0.00000   0.00000  -0.00000   0.00000
   8         R8        -0.00000  -0.00000   0.00000  -0.00000  -0.00000
   9         R9         0.00000   0.00000   0.00000   0.00000  -0.00000
  10         A1        -0.00000   0.00000   0.00000  -0.00000  -0.00000
  11         A2         0.00000  -0.00000   0.00000  -0.00000  -0.00000
  12         A3         0.00000  -0.00000  -0.00000   0.00000   0.00000
  13         A4         0.00000   0.00000   0.00000  -0.00000  -0.00000
  14         A5        -0.00000   0.00000  -0.00000   0.00000   0.00000
  15         A6         0.00000  -0.00000  -0.00000  -0.00000   0.00000
  16         A7         0.00000   0.00000  -0.00000  -0.00001   0.14281
  17         A8        -0.00000  -0.00000  -0.00000   0.22024   0.01940
  18         A9         0.00000   0.00000   0.00000  -0.22024   0.01939
  19         A10       -0.00000   0.00000   0.00000   0.26124   0.14038
  20         A11        0.00000  -0.00000  -0.00000  -0.26124   0.14035
  21         A12        0.00000  -0.00000  -0.00000   0.00002  -0.50051
  22         A13       -0.00000  -0.00000  -0.04336  -0.00000   0.00000
  23         A14       -0.00000  -0.00000  -0.04336   0.00000  -0.00000
  24         A15       -0.00000  -0.00000  -0.04412   0.00000   0.00000
  25         D1         0.33333  -0.00000  -0.00000   0.32498   0.00001
  26         D2         0.33333  -0.00000  -0.00000  -0.16248  -0.28661
  27         D3         0.33333  -0.00000  -0.00000  -0.16250   0.28659
  28         D4         0.33333  -0.00000  -0.00000   0.32498   0.00001
  29         D5         0.33333  -0.00000  -0.00000  -0.16248  -0.28661
  30         D6         0.33333  -0.00000  -0.00000  -0.16250   0.28659
  31         D7         0.33333  -0.00000  -0.00000   0.32498   0.00001
  32         D8         0.33333  -0.00000  -0.00000  -0.16248  -0.28661
  33         D9         0.33333  -0.00000  -0.00000  -0.16250   0.28659
  34         D10        0.00000   0.40825  -0.40708  -0.31158  -0.00001
  35         D11        0.00000   0.40825   0.40708  -0.31158  -0.00001
  36         D12        0.00000   0.40825  -0.40708   0.15578   0.22142
  37         D13        0.00000   0.40825   0.40708   0.15578   0.22142
  38         D14       -0.00000   0.40825  -0.40708   0.15580  -0.22141
  39         D15        0.00000   0.40825   0.40708   0.15580  -0.22141
                           6         7         8         9        10
     Eigenvalues --     0.05468   0.05495   0.09404   0.12872   0.16000
   1         R1        -0.00000   0.00000   0.00000  -0.00000  -0.00000
   2         R2         0.00000   0.00000   0.00000   0.00000   0.00000
   3         R3        -0.00000   0.00000  -0.00000   0.00000   0.00000
   4         R4        -0.00000  -0.00000  -0.00000   0.00000  -0.00000
   5         R5         0.00000   0.00000  -0.00000   0.00000   0.00000
   6         R6        -0.00000  -0.00000   0.00000   0.00000   0.00000
   7         R7         0.00000  -0.00000  -0.00000  -0.00000  -0.00000
   8         R8         0.00000   0.00000   0.00000  -0.00000   0.00000
   9         R9         0.00000   0.00000  -0.00000   0.00000   0.00000
  10         A1         0.18940   0.10896   0.00000   0.00000   0.60702
  11         A2        -0.18948   0.10882  -0.00000  -0.00000   0.20381
  12         A3         0.00008  -0.21827   0.00000   0.00000  -0.40186
  13         A4        -0.00015   0.41864  -0.00000  -0.00000  -0.42250
  14         A5         0.36021  -0.20757  -0.00000  -0.00000  -0.10815
  15         A6        -0.36006  -0.20783   0.00000   0.00000   0.10395
  16         A7        -0.00000   0.00000   0.03694  -0.00000  -0.00000
  17         A8        -0.00000   0.00000   0.39368  -0.47513   0.00000
  18         A9        -0.00000   0.00000   0.39367   0.47515  -0.00000
  19         A10       -0.00000   0.00000  -0.34660   0.41517  -0.00000
  20         A11       -0.00000   0.00000  -0.34659  -0.41518   0.00000
  21         A12        0.00000  -0.00000  -0.12775   0.00000   0.00000
  22         A13       -0.00000   0.00000  -0.00000  -0.00000   0.22156
  23         A14       -0.00000  -0.00000  -0.00000   0.00000   0.17129
  24         A15        0.00000   0.00000   0.00000  -0.00000  -0.38608
  25         D1         0.19289  -0.33337  -0.00000   0.12790  -0.00000
  26         D2         0.19289  -0.33337   0.13780  -0.06395   0.00000
  27         D3         0.19289  -0.33337  -0.13780  -0.06395   0.00000
  28         D4         0.19264   0.33351  -0.00000   0.12790  -0.00000
  29         D5         0.19264   0.33351   0.13780  -0.06395   0.00000
  30         D6         0.19264   0.33351  -0.13780  -0.06395  -0.00000
  31         D7        -0.38553  -0.00014  -0.00000   0.12790  -0.00000
  32         D8        -0.38553  -0.00014   0.13780  -0.06395   0.00000
  33         D9        -0.38553  -0.00014  -0.13780  -0.06395   0.00000
  34         D10        0.00000  -0.00000  -0.00000   0.20827  -0.00000
  35         D11        0.00000  -0.00000  -0.00000   0.20827  -0.00000
  36         D12       -0.00000   0.00000   0.28203  -0.10413   0.00000
  37         D13       -0.00000   0.00000   0.28203  -0.10413   0.00000
  38         D14        0.00000  -0.00000  -0.28203  -0.10414   0.00000
  39         D15        0.00000  -0.00000  -0.28203  -0.10414   0.00000
                          11        12        13        14        15
     Eigenvalues --     0.16000   0.16000   0.16000   0.16000   0.21954
   1         R1         0.00000   0.00000  -0.00000   0.00000   0.00000
   2         R2         0.00000  -0.00000  -0.00000  -0.00000   0.00000
   3         R3        -0.00000   0.00000  -0.00000   0.00000  -0.00000
   4         R4         0.00000   0.00000  -0.00000   0.00000   0.00000
   5         R5        -0.00000   0.00000   0.00000  -0.00000   0.00000
   6         R6         0.00000   0.00000  -0.00000  -0.00000   0.00000
   7         R7        -0.00000   0.00000   0.00000  -0.00000  -0.00000
   8         R8         0.00000  -0.00000  -0.00000   0.00000   0.00000
   9         R9        -0.00000   0.00000   0.00000   0.00000  -0.00000
  10         A1        -0.38259   0.11859  -0.03196   0.39010   0.00000
  11         A2         0.11233  -0.05348   0.68555  -0.39385  -0.00000
  12         A3        -0.48072  -0.53318   0.03664   0.05377  -0.00000
  13         A4         0.14082  -0.03393  -0.34056   0.00195   0.00000
  14         A5         0.45384   0.21777  -0.00244  -0.23346  -0.00000
  15         A6         0.19350   0.30828  -0.37986   0.17892   0.00000
  16         A7         0.00000  -0.00000   0.00000  -0.00000   0.82115
  17         A8         0.00000  -0.00000  -0.00000   0.00000  -0.26240
  18         A9         0.00000   0.00000   0.00000  -0.00000  -0.26240
  19         A10       -0.00000   0.00000   0.00000  -0.00000  -0.26436
  20         A11       -0.00000  -0.00000  -0.00000   0.00000  -0.26437
  21         A12       -0.00000  -0.00000   0.00000   0.00000   0.20189
  22         A13       -0.26657  -0.01704  -0.38702  -0.63272   0.00000
  23         A14        0.48089  -0.52285   0.04054   0.36735  -0.00000
  24         A15       -0.21062   0.53059   0.34051   0.26079   0.00000
  25         D1        -0.00000   0.00000   0.00000  -0.00000  -0.00000
  26         D2         0.00000  -0.00000  -0.00000   0.00000  -0.02255
  27         D3        -0.00000  -0.00000  -0.00000   0.00000   0.02255
  28         D4         0.00000   0.00000   0.00000  -0.00000  -0.00000
  29         D5         0.00000  -0.00000  -0.00000   0.00000  -0.02255
  30         D6         0.00000  -0.00000  -0.00000   0.00000   0.02255
  31         D7        -0.00000   0.00000   0.00000  -0.00000  -0.00000
  32         D8        -0.00000   0.00000   0.00000   0.00000  -0.02255
  33         D9        -0.00000   0.00000   0.00000   0.00000   0.02255
  34         D10        0.00000   0.00000   0.00000  -0.00000  -0.00000
  35         D11        0.00000   0.00000  -0.00000  -0.00000  -0.00000
  36         D12        0.00000  -0.00000  -0.00000   0.00000   0.03320
  37         D13        0.00000  -0.00000  -0.00000  -0.00000   0.03320
  38         D14       -0.00000  -0.00000  -0.00000   0.00000  -0.03319
  39         D15       -0.00000  -0.00000  -0.00000   0.00000  -0.03319
                          16        17        18        19        20
     Eigenvalues --     0.28626   0.33221   0.34559   0.34559   0.34713
   1         R1        -1.00000   0.00000  -0.00000   0.00000  -0.00000
   2         R2        -0.00000   0.00000  -0.00000  -0.00000  -0.00000
   3         R3         0.00000   0.00000  -0.00000  -0.00000  -0.00000
   4         R4         0.00000  -0.00000   0.00000   0.00000  -1.00000
   5         R5         0.00000   1.00000  -0.00000   0.00000  -0.00000
   6         R6        -0.00000   0.00000   1.00000  -0.00000   0.00000
   7         R7        -0.00000   0.00000  -0.00000  -1.00000  -0.00000
   8         R8         0.00000  -0.00000   0.00000  -0.00000   0.00000
   9         R9         0.00000  -0.00000   0.00000  -0.00000   0.00000
  10         A1        -0.00000  -0.00000   0.00000   0.00000   0.00000
  11         A2        -0.00000  -0.00000  -0.00000   0.00000  -0.00000
  12         A3        -0.00000   0.00000   0.00000   0.00000  -0.00000
  13         A4         0.00000   0.00000  -0.00000   0.00000   0.00000
  14         A5         0.00000   0.00000   0.00000   0.00000   0.00000
  15         A6         0.00000   0.00000  -0.00000  -0.00000   0.00000
  16         A7         0.00000  -0.00000   0.00000  -0.00000   0.00000
  17         A8         0.00000   0.00000  -0.00000  -0.00000  -0.00000
  18         A9        -0.00000  -0.00000   0.00000  -0.00000  -0.00000
  19         A10       -0.00000  -0.00000   0.00000   0.00000   0.00000
  20         A11        0.00000   0.00000  -0.00000   0.00000   0.00000
  21         A12       -0.00000  -0.00000  -0.00000   0.00000   0.00000
  22         A13        0.00000   0.00000  -0.00000  -0.00000  -0.00000
  23         A14        0.00000   0.00000   0.00000  -0.00000   0.00000
  24         A15       -0.00000  -0.00000   0.00000   0.00000   0.00000
  25         D1        -0.00000  -0.00000   0.00000   0.00000   0.00000
  26         D2        -0.00000   0.00000  -0.00000  -0.00000   0.00000
  27         D3        -0.00000  -0.00000   0.00000   0.00000   0.00000
  28         D4        -0.00000  -0.00000   0.00000   0.00000  -0.00000
  29         D5         0.00000  -0.00000   0.00000   0.00000  -0.00000
  30         D6         0.00000   0.00000   0.00000   0.00000   0.00000
  31         D7        -0.00000   0.00000  -0.00000  -0.00000   0.00000
  32         D8        -0.00000   0.00000  -0.00000  -0.00000  -0.00000
  33         D9         0.00000   0.00000  -0.00000  -0.00000   0.00000
  34         D10       -0.00000   0.00000   0.00000  -0.00000  -0.00000
  35         D11        0.00000  -0.00000  -0.00000  -0.00000  -0.00000
  36         D12        0.00000   0.00000   0.00000  -0.00000  -0.00000
  37         D13        0.00000  -0.00000   0.00000  -0.00000  -0.00000
  38         D14        0.00000   0.00000   0.00000   0.00000   0.00000
  39         D15        0.00000  -0.00000  -0.00000   0.00000   0.00000
                          21        22        23        24
     Eigenvalues --     0.34781   0.34781   0.35913   0.35913
   1         R1        -0.00000  -0.00000   0.00000   0.00000
   2         R2         1.00000  -0.00000   0.00000   0.00000
   3         R3        -0.00000  -1.00000  -0.00000   0.00000
   4         R4        -0.00000   0.00000   0.00000   0.00000
   5         R5        -0.00000   0.00000   0.00000   0.00000
   6         R6         0.00000  -0.00000  -0.00000  -0.00000
   7         R7        -0.00000   0.00000  -0.00000  -0.00000
   8         R8        -0.00000   0.00000   0.00000   1.00000
   9         R9        -0.00000  -0.00000   1.00000  -0.00000
  10         A1         0.00000   0.00000  -0.00000  -0.00000
  11         A2        -0.00000  -0.00000  -0.00000   0.00000
  12         A3         0.00000   0.00000   0.00000   0.00000
  13         A4        -0.00000   0.00000   0.00000  -0.00000
  14         A5        -0.00000  -0.00000  -0.00000   0.00000
  15         A6         0.00000   0.00000   0.00000  -0.00000
  16         A7        -0.00000  -0.00000   0.00000  -0.00000
  17         A8         0.00000   0.00000   0.00000  -0.00000
  18         A9        -0.00000   0.00000   0.00000   0.00000
  19         A10       -0.00000  -0.00000   0.00000   0.00000
  20         A11        0.00000  -0.00000   0.00000  -0.00000
  21         A12        0.00000  -0.00000  -0.00000  -0.00000
  22         A13       -0.00000  -0.00000   0.00000   0.00000
  23         A14       -0.00000  -0.00000   0.00000  -0.00000
  24         A15        0.00000   0.00000  -0.00000   0.00000
  25         D1         0.00000   0.00000  -0.00000   0.00000
  26         D2        -0.00000  -0.00000  -0.00000   0.00000
  27         D3         0.00000   0.00000   0.00000   0.00000
  28         D4         0.00000  -0.00000  -0.00000   0.00000
  29         D5         0.00000  -0.00000  -0.00000   0.00000
  30         D6         0.00000  -0.00000  -0.00000  -0.00000
  31         D7         0.00000   0.00000  -0.00000   0.00000
  32         D8         0.00000   0.00000  -0.00000   0.00000
  33         D9         0.00000   0.00000   0.00000   0.00000
  34         D10       -0.00000  -0.00000  -0.00000   0.00000
  35         D11       -0.00000   0.00000  -0.00000   0.00000
  36         D12       -0.00000   0.00000   0.00000   0.00000
  37         D13       -0.00000  -0.00000  -0.00000  -0.00000
  38         D14        0.00000  -0.00000  -0.00000   0.00000
  39         D15        0.00000  -0.00000  -0.00000   0.00000
 Iter=   1 RLamda= 0.00000000D+00 Sum=-1.73086912D-04.
 Iter=   2 RLamda=-1.73086912D-04 Sum=-1.72245867D-04.
 Iter=   3 RLamda=-1.72245867D-04 Sum=-1.72249887D-04.
 RFO step:  Lambda=-1.72245867D-04 EMin= 2.52783275D-03
 Linear search not attempted -- first point.
 Iteration  1 RMS(Cart)=  0.01032760 RMS(Int)=  0.00018812
 Iteration  2 RMS(Cart)=  0.00015295 RMS(Int)=  0.00011414
 Iteration  3 RMS(Cart)=  0.00000003 RMS(Int)=  0.00011414
 ITry= 1 IFail=0 DXMaxC= 2.25D-02 DCOld= 1.00D+10 DXMaxT= 3.00D-01 DXLimC= 3.00D+00 Rises=F
 Variable       Old X    -DE/DX   Delta X   Delta X   Delta X     New X
                                 (Linear)    (Quad)   (Total)
    R1        2.90790   0.00062   0.00000   0.00215   0.00215   2.91005
    R2        2.06032   0.00253   0.00000   0.00727   0.00727   2.06759
    R3        2.06032   0.00253   0.00000   0.00727   0.00727   2.06759
    R4        2.06144   0.00255   0.00000   0.00735   0.00735   2.06879
    R5        2.81966  -0.00020   0.00000  -0.00060  -0.00060   2.81906
    R6        2.06397   0.00276   0.00000   0.00799   0.00799   2.07196
    R7        2.06397   0.00276   0.00000   0.00799   0.00799   2.07196
    R8        2.04218   0.00189   0.00000   0.00527   0.00527   2.04745
    R9        2.04218   0.00189   0.00000   0.00527   0.00527   2.04745
    A1        1.93373  -0.00031   0.00000  -0.00231  -0.00231   1.93142
    A2        1.93373  -0.00031   0.00000  -0.00231  -0.00231   1.93141
    A3        1.93484   0.00050   0.00000   0.00391   0.00391   1.93875
    A4        1.88201   0.00015   0.00000  -0.00060  -0.00061   1.88141
    A5        1.88888  -0.00002   0.00000   0.00066   0.00066   1.88954
    A6        1.88888  -0.00002   0.00000   0.00066   0.00066   1.88954
    A7        1.96760  -0.00067   0.00000  -0.00285  -0.00284   1.96476
    A8        1.89792   0.00011   0.00000  -0.00017  -0.00017   1.89775
    A9        1.89794   0.00011   0.00000  -0.00017  -0.00017   1.89777
   A10        1.91649   0.00034   0.00000   0.00240   0.00240   1.91889
   A11        1.91649   0.00034   0.00000   0.00240   0.00240   1.91889
   A12        1.86439  -0.00020   0.00000  -0.00160  -0.00161   1.86278
   A13        2.10763  -0.00005   0.00000  -0.00302  -0.00342   2.10420
   A14        2.10760  -0.00005   0.00000  -0.00302  -0.00343   2.10417
   A15        2.05261   0.00002   0.00000  -0.00260  -0.00302   2.04959
    D1       -1.04409   0.00010   0.00000   0.00188   0.00188  -1.04221
    D2        3.10951   0.00004   0.00000   0.00084   0.00083   3.11034
    D3        1.08550   0.00016   0.00000   0.00293   0.00293   1.08843
    D4        1.04406  -0.00010   0.00000  -0.00188  -0.00188   1.04218
    D5       -1.08552  -0.00016   0.00000  -0.00293  -0.00293  -1.08845
    D6       -3.10953  -0.00004   0.00000  -0.00084  -0.00083  -3.11036
    D7        3.14157   0.00000   0.00000   0.00000   0.00000   3.14157
    D8        1.01199  -0.00006   0.00000  -0.00105  -0.00105   1.01095
    D9       -1.01202   0.00006   0.00000   0.00105   0.00105  -1.01097
   D10        1.47520  -0.00026   0.00000  -0.02687  -0.02684   1.44836
   D11       -1.47458   0.00026   0.00000   0.02686   0.02683  -1.44775
   D12       -2.68891  -0.00034   0.00000  -0.02731  -0.02728  -2.71619
   D13        0.64450   0.00018   0.00000   0.02642   0.02639   0.67088
   D14       -0.64390  -0.00018   0.00000  -0.02642  -0.02639  -0.67029
   D15        2.68951   0.00034   0.00000   0.02730   0.02728   2.71678
         Item               Value     Threshold  Converged?
 Maximum Force            0.002763     0.000450     NO 
 RMS     Force            0.001061     0.000300     NO 
 Maximum Displacement     0.022469     0.001800     NO 
 RMS     Displacement     0.010375     0.001200     NO 
 Predicted change in Energy=-8.595731D-05
 Lowest energy point so far.  Saving SCF results.
 Largest change from initial coordinates is atom    9       0.017 Angstoms.
 GradGradGradGradGradGradGradGradGradGradGradGradGradGradGradGradGradGrad

 Leave Link  103 at Wed Oct  7 14:19:29 2020, MaxMem=  2684354560 cpu:              21.7 elap:               2.8
 (Enter /udrive/faculty/rpeverati/g16/g16/l202.exe)
                          Input orientation:                          
 ---------------------------------------------------------------------
 Center     Atomic      Atomic             Coordinates (Angstroms)
 Number     Number       Type             X           Y           Z
 ---------------------------------------------------------------------
      1          6           0        1.203724   -0.287037    0.000057
      2          6           0       -0.067320    0.582351   -0.000060
      3          6           0       -1.317641   -0.231349   -0.000015
      4          1           0        1.230879   -0.931046    0.884146
      5          1           0        1.230908   -0.931237   -0.883892
      6          1           0        2.105445    0.333761    0.000003
      7          1           0       -0.046639    1.236196   -0.879963
      8          1           0       -0.046695    1.236381    0.879704
      9          1           0       -1.717255   -0.627256    0.925978
     10          1           0       -1.716874   -0.627895   -0.925900
 ---------------------------------------------------------------------
                    Distance matrix (angstroms):
                    1          2          3          4          5
     1  C    0.000000
     2  C    1.539931   0.000000
     3  C    2.521980   1.491782   0.000000
     4  H    1.094120   2.181172   2.786803   0.000000
     5  H    1.094121   2.181170   2.786787   1.768039   0.000000
     6  H    1.094756   2.186939   3.469419   1.773785   1.773783
     7  H    2.158259   1.096436   2.131536   3.072634   2.515931
     8  H    2.158269   1.096432   2.131535   2.515940   3.072638
     9  H    3.083049   2.245658   1.083465   2.964039   3.472707
    10  H    3.082771   2.245642   1.083466   3.472379   2.963646
                    6          7          8          9         10
     6  H    0.000000
     7  H    2.494032   0.000000
     8  H    2.494053   1.759667   0.000000
     9  H    4.048952   3.086233   2.503208   0.000000
    10  H    4.048728   2.503325   3.086297   1.851878   0.000000
 Stoichiometry    C3H7(2)
 Framework group  C1[X(C3H7)]
[...]
 ! D7    D(6,1,2,3)            179.999          -DE/DX =    0.0                 !
 ! D8    D(6,1,2,7)             57.9067         -DE/DX =    0.0                 !
 ! D9    D(6,1,2,8)            -57.9078         -DE/DX =    0.0                 !
 ! D10   D(1,2,3,9)             81.5332         -DE/DX =    0.0                 !
 ! D11   D(1,2,3,10)           -81.4997         -DE/DX =    0.0                 !
 ! D12   D(7,2,3,9)           -157.064          -DE/DX =    0.0                 !
 ! D13   D(7,2,3,10)            39.9031         -DE/DX =    0.0                 !
 ! D14   D(8,2,3,9)            -39.8711         -DE/DX =    0.0                 !
 ! D15   D(8,2,3,10)           157.096          -DE/DX =    0.0                 !
 --------------------------------------------------------------------------------
 Lowest energy point so far.  Saving SCF results.
 Largest change from initial coordinates is atom    9       0.043 Angstoms.
 GradGradGradGradGradGradGradGradGradGradGradGradGradGradGradGradGradGrad

 Leave Link  103 at Wed Oct  7 14:20:50 2020, MaxMem=  2684354560 cpu:               6.2 elap:               1.0
 (Enter /udrive/faculty/rpeverati/g16/g16/l202.exe)
                          Input orientation:                          
 ---------------------------------------------------------------------
 Center     Atomic      Atomic             Coordinates (Angstroms)
 Number     Number       Type             X           Y           Z
 ---------------------------------------------------------------------
      1          6           0        1.198688   -0.287367    0.000058
      2          6           0       -0.068398    0.587523   -0.000062
      3          6           0       -1.320344   -0.222938   -0.000018
      4          1           0        1.222735   -0.931776    0.884038
      5          1           0        1.222767   -0.931967   -0.883782
      6          1           0        2.103907    0.328056    0.000006
      7          1           0       -0.045461    1.241868   -0.879632
      8          1           0       -0.045518    1.242056    0.879365
      9          1           0       -1.705108   -0.635982    0.925248
     10          1           0       -1.704738   -0.636603   -0.925163
 ---------------------------------------------------------------------
                    Distance matrix (angstroms):
                    1          2          3          4          5
     1  C    0.000000
     2  C    1.539786   0.000000
     3  C    2.519856   1.491380   0.000000
     4  H    1.094194   2.181038   2.784109   0.000000
     5  H    1.094195   2.181036   2.784094   1.767820   0.000000
     6  H    1.094608   2.187746   3.468298   1.773458   1.773456
     7  H    2.158778   1.096511   2.131831   3.073041   2.516740
     8  H    2.158788   1.096508   2.131831   2.516751   3.073046
     9  H    3.067497   2.243208   1.083867   2.943035   3.454367
    10  H    3.067227   2.243190   1.083868   3.454046   2.942658
                    6          7          8          9         10
     6  H    0.000000
     7  H    2.495716   0.000000
     8  H    2.495736   1.758997   0.000000
     9  H    4.036587   3.088420   2.506665   0.000000
    10  H    4.036369   2.506776   3.088477   1.850411   0.000000
 Stoichiometry    C3H7(2)
 Framework group  C1[X(C3H7)]
 Deg. of freedom    24
 Full point group                 C1      NOp   1
 RotChk:  IX=0 Diff= 1.36D-15
 Largest Abelian subgroup         C1      NOp   1
 Largest concise Abelian subgroup C1      NOp   1
                         Standard orientation:                         
 ---------------------------------------------------------------------
 Center     Atomic      Atomic             Coordinates (Angstroms)
 Number     Number       Type             X           Y           Z
 ---------------------------------------------------------------------
      1          6           0        1.203256   -0.289212    0.000060
      2          6           0       -0.066525    0.581762   -0.000060
      3          6           0       -1.315963   -0.232560   -0.000016
      4          1           0        1.229293   -0.933544    0.884040
      5          1           0        1.229325   -0.933735   -0.883780
      6          1           0        2.106571    0.329002    0.000008
      7          1           0       -0.045608    1.236175   -0.879630
      8          1           0       -0.045666    1.236363    0.879367
      9          1           0       -1.699449   -0.646790    0.925250
     10          1           0       -1.699078   -0.647410   -0.925161
 ---------------------------------------------------------------------
 Rotational constants (GHZ):          30.8992219           8.9623070           8.0185327
 Leave Link  202 at Wed Oct  7 14:20:51 2020, MaxMem=  2684354560 cpu:               2.3 elap:               0.8
 (Enter /udrive/faculty/rpeverati/g16/g16/l601.exe)
 Copying SCF densities to generalized density rwf, IOpCl= 1 IROHF=0.

 **********************************************************************

            Population analysis using the SCF density.

 **********************************************************************

 Orbital symmetries:
 Alpha Orbitals:
       Occupied  (A) (A) (A) (A) (A) (A) (A) (A) (A) (A) (A) (A)
                 (A)
       Virtual   (A) (A) (A) (A) (A) (A) (A) (A) (A) (A) (A) (A)
                 (A) (A) (A) (A) (A) (A) (A) (A) (A) (A) (A) (A)
                 (A) (A) (A) (A) (A) (A) (A) (A) (A) (A) (A) (A)
                 (A) (A) (A) (A) (A) (A) (A)
 Beta  Orbitals:
       Occupied  (A) (A) (A) (A) (A) (A) (A) (A) (A) (A) (A) (A)
       Virtual   (A) (A) (A) (A) (A) (A) (A) (A) (A) (A) (A) (A)
                 (A) (A) (A) (A) (A) (A) (A) (A) (A) (A) (A) (A)
                 (A) (A) (A) (A) (A) (A) (A) (A) (A) (A) (A) (A)
                 (A) (A) (A) (A) (A) (A) (A) (A)
 The electronic state is 2-A.
 Alpha  occ. eigenvalues --  -10.53760 -10.53575 -10.52588  -0.87747  -0.76080
 Alpha  occ. eigenvalues --   -0.66055  -0.53411  -0.49436  -0.45721  -0.44024
 Alpha  occ. eigenvalues --   -0.40808  -0.39085  -0.25025
 Alpha virt. eigenvalues --    0.14980   0.19075   0.19102   0.20777   0.22777
 Alpha virt. eigenvalues --    0.22822   0.26793   0.27620   0.31813   0.56319
 Alpha virt. eigenvalues --    0.58231   0.58551   0.60337   0.64308   0.65247
 Alpha virt. eigenvalues --    0.72204   0.76410   0.87651   0.88839   0.93871
 Alpha virt. eigenvalues --    0.96410   0.97014   1.00439   1.02375   1.05086
 Alpha virt. eigenvalues --    1.08412   1.27558   1.49153   1.52176   1.63746
 Alpha virt. eigenvalues --    1.77596   1.79627   1.95477   2.01391   2.02666
 Alpha virt. eigenvalues --    2.12989   2.20591   2.26307   2.36995   2.43272
 Alpha virt. eigenvalues --    2.50964   2.59435   2.69313
  Beta  occ. eigenvalues --  -10.53643 -10.53026 -10.52484  -0.86546  -0.73842
  Beta  occ. eigenvalues --   -0.64396  -0.52718  -0.48689  -0.45072  -0.42465
  Beta  occ. eigenvalues --   -0.40133  -0.38875
  Beta virt. eigenvalues --    0.01841   0.15266   0.19410   0.20265   0.20804
  Beta virt. eigenvalues --    0.22908   0.23136   0.27402   0.28007   0.33069
  Beta virt. eigenvalues --    0.56757   0.58495   0.60050   0.62631   0.65549
  Beta virt. eigenvalues --    0.67355   0.73396   0.76856   0.88086   0.90505
  Beta virt. eigenvalues --    0.94724   0.97181   0.97715   1.01556   1.04533
  Beta virt. eigenvalues --    1.05587   1.08988   1.28474   1.50707   1.53007
  Beta virt. eigenvalues --    1.66517   1.81916   1.82506   1.97253   2.02453
  Beta virt. eigenvalues --    2.04706   2.20219   2.23879   2.28006   2.37149
  Beta virt. eigenvalues --    2.44612   2.54250   2.61600   2.72589
          Condensed to atoms (all electrons):
               1          2          3          4          5          6
     1  C    5.131406   0.355527  -0.068366   0.383958   0.383959   0.370994
     2  C    0.355527   4.978417   0.380994  -0.036114  -0.036114  -0.029133
     3  C   -0.068366   0.380994   5.311263  -0.001608  -0.001611   0.005727
     4  H    0.383958  -0.036114  -0.001608   0.550396  -0.030035  -0.028020
     5  H    0.383959  -0.036114  -0.001611  -0.030035   0.550398  -0.028021
     6  H    0.370994  -0.029133   0.005727  -0.028020  -0.028021   0.554369
     7  H   -0.041881   0.389118  -0.038205   0.004797  -0.004090  -0.002241
     8  H   -0.041875   0.389119  -0.038199  -0.004090   0.004797  -0.002241
     9  H    0.000135  -0.036000   0.382897   0.001821  -0.000167  -0.000080
    10  H    0.000132  -0.036004   0.382896  -0.000167   0.001823  -0.000080
               7          8          9         10
     1  C   -0.041881  -0.041875   0.000135   0.000132
     2  C    0.389118   0.389119  -0.036000  -0.036004
     3  C   -0.038205  -0.038199   0.382897   0.382896
     4  H    0.004797  -0.004090   0.001821  -0.000167
     5  H   -0.004090   0.004797  -0.000167   0.001823
     6  H   -0.002241  -0.002241  -0.000080  -0.000080
     7  H    0.565908  -0.032775   0.003969  -0.005074
     8  H   -0.032775   0.565901  -0.005077   0.003970
     9  H    0.003969  -0.005077   0.529892  -0.033293
    10  H   -0.005074   0.003970  -0.033293   0.529902
          Atomic-Atomic Spin Densities.
               1          2          3          4          5          6
     1  C    0.120048   0.016409  -0.040181  -0.004552  -0.004547  -0.019262
     2  C    0.016409  -0.065690  -0.038096   0.000113   0.000114  -0.000967
     3  C   -0.040181  -0.038096   1.215797   0.002903   0.002899   0.002600
     4  H   -0.004552   0.000113   0.002903  -0.003017   0.000720   0.001883
     5  H   -0.004547   0.000114   0.002899   0.000720  -0.003017   0.001881
     6  H   -0.019262  -0.000967   0.002600   0.001883   0.001881   0.022434
     7  H   -0.009865   0.005816  -0.006404   0.000116   0.000407   0.001663
     8  H   -0.009853   0.005809  -0.006392   0.000407   0.000116   0.001661
     9  H   -0.000457   0.000102  -0.008384  -0.000024   0.000028   0.000033
    10  H   -0.000457   0.000102  -0.008383   0.000028  -0.000025   0.000033
               7          8          9         10
     1  C   -0.009865  -0.009853  -0.000457  -0.000457
     2  C    0.005816   0.005809   0.000102   0.000102
     3  C   -0.006404  -0.006392  -0.008384  -0.008383
     4  H    0.000116   0.000407  -0.000024   0.000028
     5  H    0.000407   0.000116   0.000028  -0.000025
     6  H    0.001663   0.001661   0.000033   0.000033
     7  H    0.013989   0.002948   0.000035   0.000553
     8  H    0.002948   0.013955   0.000553   0.000035
     9  H    0.000035   0.000553  -0.052286   0.002917
    10  H    0.000553   0.000035   0.002917  -0.052285
 Mulliken charges and spin densities:
               1          2
     1  C   -0.473989   0.047283
     2  C   -0.319810  -0.076288
     3  C   -0.315789   1.116360
     4  H    0.159061  -0.001423
     5  H    0.159059  -0.001424
     6  H    0.158727   0.011959
     7  H    0.160474   0.009259
     8  H    0.160471   0.009239
     9  H    0.155901  -0.057483
    10  H    0.155895  -0.057482
 Sum of Mulliken charges =  -0.00000   1.00000
 Mulliken charges and spin densities with hydrogens summed into heavy atoms:
               1          2
     1  C    0.002858   0.056395
     2  C    0.001135  -0.057790
     3  C   -0.003993   1.001395
 Electronic spatial extent (au):  <R**2>=            210.1219
 Charge=             -0.0000 electrons
 Dipole moment (field-independent basis, Debye):
    X=              0.2205    Y=             -0.0622    Z=              0.0001  Tot=              0.2291
 Quadrupole moment (field-independent basis, Debye-Ang):
   XX=            -21.6951   YY=            -21.1274   ZZ=            -19.9667
   XY=              0.8261   XZ=             -0.0005   YZ=              0.0004
 Traceless Quadrupole moment (field-independent basis, Debye-Ang):
   XX=             -0.7654   YY=             -0.1977   ZZ=              0.9631
   XY=              0.8261   XZ=             -0.0005   YZ=              0.0004
 Octapole moment (field-independent basis, Debye-Ang**2):
  XXX=              2.3383  YYY=              0.6437  ZZZ=              0.0003  XYY=              0.5375
  XXY=             -0.9939  XXZ=              0.0013  XZZ=             -0.9465  YZZ=             -0.5098
  YYZ=             -0.0005  XYZ=             -0.0005
 Hexadecapole moment (field-independent basis, Debye-Ang**3):
 XXXX=           -189.0647 YYYY=            -64.3188 ZZZZ=            -40.9663 XXXY=              5.6167
 XXXZ=             -0.0046 YYYX=              0.1784 YYYZ=              0.0014 ZZZX=             -0.0018
 ZZZY=              0.0002 XXYY=            -41.3351 XXZZ=            -36.1019 YYZZ=            -15.6961
 XXYZ=              0.0006 YYXZ=              0.0002 ZZXY=              0.6102
 N-N= 7.580538264658D+01 E-N=-4.252393103584D+02  KE= 1.176866444223D+02
                          Isotropic Fermi Contact Couplings
        Atom                 a.u.       MegaHertz       Gauss      10(-4) cm-1
     1  C(13)              0.07101      79.83149      28.48586      26.62892
     2  C(13)             -0.02683     -30.15674     -10.76068     -10.05921
     3  C(13)              0.17817     200.30215      71.47279      66.81361
     4  H(1)              -0.00065      -2.92652      -1.04425      -0.97618
     5  H(1)              -0.00065      -2.92590      -1.04404      -0.97598
     6  H(1)               0.00338      15.10139       5.38855       5.03728
     7  H(1)               0.00607      27.14957       9.68764       9.05612
     8  H(1)               0.00606      27.09371       9.66771       9.03749
     9  H(1)              -0.01633     -73.00816     -26.05113     -24.35290
    10  H(1)              -0.01633     -73.00786     -26.05102     -24.35280
 --------------------------------------------------------
       Center         ----  Spin Dipole Couplings  ----
                      3XX-RR        3YY-RR        3ZZ-RR
 --------------------------------------------------------
     1   Atom        0.057084     -0.021157     -0.035927
     2   Atom        0.012818     -0.000419     -0.012399
     3   Atom        0.084120      0.420851     -0.504971
     4   Atom        0.007158     -0.004025     -0.003133
     5   Atom        0.007157     -0.004022     -0.003135
     6   Atom        0.008782     -0.002332     -0.006449
     7   Atom        0.003983      0.002355     -0.006338
     8   Atom        0.003980      0.002360     -0.006340
     9   Atom       -0.027634     -0.011844      0.039478
    10   Atom       -0.027671     -0.011779      0.039450
 --------------------------------------------------------
                        XY            XZ            YZ
 --------------------------------------------------------
     1   Atom       -0.035264      0.000003     -0.000002
     2   Atom       -0.001776      0.000006     -0.000005
     3   Atom       -0.748765      0.000369     -0.000459
     4   Atom       -0.004980      0.007528     -0.006082
     5   Atom       -0.004982     -0.007527      0.006082
     6   Atom        0.004414     -0.000000     -0.000001
     7   Atom        0.012119     -0.008324     -0.006917
     8   Atom        0.012119      0.008323      0.006915
     9   Atom       -0.011106     -0.045478     -0.048328
    10   Atom       -0.011095      0.045458      0.048358
 --------------------------------------------------------


 ---------------------------------------------------------------------------------
              Anisotropic Spin Dipole Couplings in Principal Axis System
 ---------------------------------------------------------------------------------

       Atom             a.u.   MegaHertz   Gauss  10(-4) cm-1        Axes

              Baa    -0.0359    -4.821    -1.720    -1.608  0.0002  0.0006  1.0000
     1 C(13)  Bbb    -0.0347    -4.657    -1.662    -1.553  0.3586  0.9335 -0.0006
              Bcc     0.0706     9.478     3.382     3.162  0.9335 -0.3586  0.0000
 
              Baa    -0.0124    -1.664    -0.594    -0.555 -0.0002  0.0004  1.0000
     2 C(13)  Bbb    -0.0007    -0.088    -0.031    -0.029  0.1307  0.9914 -0.0003
              Bcc     0.0131     1.751     0.625     0.584  0.9914 -0.1307  0.0003
 
              Baa    -0.5150   -69.105   -24.658   -23.051  0.7808  0.6247 -0.0001
     3 C(13)  Bbb    -0.5050   -67.762   -24.179   -22.603 -0.0002  0.0004  1.0000
              Bcc     1.0199   136.867    48.838    45.654 -0.6247  0.7808 -0.0004
 
              Baa    -0.0099    -5.273    -1.881    -1.759 -0.1367  0.6552  0.7430
     4 H(1)   Bbb    -0.0042    -2.249    -0.803    -0.750  0.5954  0.6538 -0.4670
              Bcc     0.0141     7.522     2.684     2.509  0.7917 -0.3785  0.4795
 
              Baa    -0.0099    -5.272    -1.881    -1.759  0.1367 -0.6551  0.7431
     5 H(1)   Bbb    -0.0042    -2.249    -0.803    -0.750  0.5954  0.6539  0.4669
              Bcc     0.0141     7.522     2.684     2.509  0.7917 -0.3786 -0.4794
 
              Baa    -0.0064    -3.441    -1.228    -1.148 -0.0000  0.0002  1.0000
     6 H(1)   Bbb    -0.0039    -2.066    -0.737    -0.689 -0.3294  0.9442 -0.0002
              Bcc     0.0103     5.507     1.965     1.837  0.9442  0.3294 -0.0000
 
              Baa    -0.0110    -5.858    -2.090    -1.954  0.4584  0.0438  0.8877
     7 H(1)   Bbb    -0.0088    -4.699    -1.677    -1.568 -0.5715  0.7794  0.2567
              Bcc     0.0198    10.557     3.767     3.521  0.6806  0.6249 -0.3823
 
              Baa    -0.0110    -5.858    -2.090    -1.954 -0.4588 -0.0432  0.8875
     8 H(1)   Bbb    -0.0088    -4.698    -1.676    -1.567 -0.5712  0.7794 -0.2573
              Bcc     0.0198    10.556     3.767     3.521  0.6806  0.6250  0.3823
 
              Baa    -0.0713   -38.033   -13.571   -12.687  0.6692  0.5400  0.5104
     9 H(1)   Bbb    -0.0085    -4.529    -1.616    -1.511 -0.6712  0.7341  0.1033
              Bcc     0.0798    42.562    15.187    14.197 -0.3189 -0.4117  0.8537
 
              Baa    -0.0713   -38.033   -13.571   -12.686  0.6694  0.5397 -0.5105
    10 H(1)   Bbb    -0.0085    -4.529    -1.616    -1.511 -0.6711  0.7340 -0.1040
              Bcc     0.0798    42.562    15.187    14.197  0.3186  0.4123  0.8536
 

 ---------------------------------------------------------------------------------

 No NMR shielding tensors so no spin-rotation constants.
 Leave Link  601 at Wed Oct  7 14:20:53 2020, MaxMem=  2684354560 cpu:              13.7 elap:               1.6
 (Enter /udrive/faculty/rpeverati/g16/g16/l9999.exe)

 Test job not archived.
 1\1\GINC-NODE52\FOpt\UM062X\6-31G(d)\C3H7(2)\RPEVERATI\07-Oct-2020\0\\
 #P Opt(MaxCyc=100) M062X/6-31G* 5D 7F Integral=UltraFineGrid SCF=(NoSy
 mm,XQC,MaxCyc=120) EmpiricalDispersion=GD3 IOp(1/33=1)\\TS search on B
 H76.\\0,2\C,1.1986882101,-0.2873673571,0.0000583376\C,-0.0683980084,0.
 5875227443,-0.0000622519\C,-1.3203440543,-0.2229376662,-0.0000183244\H
 ,1.2227353801,-0.9317764425,0.8840381174\H,1.2227672979,-0.9319674199,
 -0.8837820626\H,2.1039068155,0.328055608,0.0000059586\H,-0.0454606833,
 1.2418678844,-0.8796319931\H,-0.0455183977,1.2420561307,0.8793646302\H
 ,-1.7051075536,-0.6359820886,0.92524823\H,-1.7047376147,-0.6366029717,
 -0.9251628486\\Version=ES64L-G16RevA.03\State=2-A\HF=-118.3913126\S2=0
 .754944\S2-1=0.\S2A=0.750018\RMSD=8.745e-09\RMSF=4.124e-05\Dipole=0.08
 66637,-0.0247356,0.0000295\Quadrupole=-0.5652511,-0.1507557,0.7160068,
 0.6154782,-0.000366,0.0003185\PG=C01 [X(C3H7)]\\@


 KNOWING HOW CONTENTED, FREE, AND JOYFUL IS LIFE IN
 THE REALMS OF SCIENCE, ONE FERVENTLY WISHES THAT
 MANY WOULD ENTER HER PORTALS.
   --  DMITRI IVANOVICH MENDELEEV
 "FIRST PRINCIPLES OF CHEMISTRY", LONGMANS, GREEN,
 AND CO.  LONDON, 1891
 Job cpu time:       0 days  0 hours 12 minutes 41.8 seconds.
 Elapsed time:       0 days  0 hours  1 minutes 39.4 seconds.
 File lengths (MBytes):  RWF=      9 Int=      0 D2E=      0 Chk=      2 Scr=      1
 Normal termination of Gaussian 16 at Wed Oct  7 14:20:54 2020.
