 Entering Gaussian System, Link 0=g16
 Input=MN_21_ch3fclts_BH76_M062XD30_631Gs.in
 Output=MN_21_ch3fclts_BH76_M062XD30_631Gs.log
 Initial command:
 /udrive/faculty/rpeverati/g16/g16/l1.exe "/udrive/scratch-directories/gaussian09/rpeverati/Gau-38807.inp" -scrdir="/udrive/scratch-directories/gaussian09/rpeverati/"
 Entering Link 1 = /udrive/faculty/rpeverati/g16/g16/l1.exe PID=     38819.
  
 Copyright (c) 1988,1990,1992,1993,1995,1998,2003,2009,2016,
            Gaussian, Inc.  All Rights Reserved.
  
 This is part of the Gaussian(R) 16 program.  It is based on
 the Gaussian(R) 09 system (copyright 2009, Gaussian, Inc.),
 the Gaussian(R) 03 system (copyright 2003, Gaussian, Inc.),
 the Gaussian(R) 98 system (copyright 1998, Gaussian, Inc.),
 the Gaussian(R) 94 system (copyright 1995, Gaussian, Inc.),
 the Gaussian 92(TM) system (copyright 1992, Gaussian, Inc.),
 the Gaussian 90(TM) system (copyright 1990, Gaussian, Inc.),
 the Gaussian 88(TM) system (copyright 1988, Gaussian, Inc.),
 the Gaussian 86(TM) system (copyright 1986, Carnegie Mellon
 University), and the Gaussian 82(TM) system (copyright 1983,
 Carnegie Mellon University). Gaussian is a federally registered
 trademark of Gaussian, Inc.
  
 This software contains proprietary and confidential information,
 including trade secrets, belonging to Gaussian, Inc.
  
 This software is provided under written license and may be
 used, copied, transmitted, or stored only in accord with that
 written license.
  
 The following legend is applicable only to US Government
 contracts under FAR:
  
                    RESTRICTED RIGHTS LEGEND
  
 Use, reproduction and disclosure by the US Government is
 subject to restrictions as set forth in subparagraphs (a)
 and (c) of the Commercial Computer Software - Restricted
 Rights clause in FAR 52.227-19.
  
 Gaussian, Inc.
 340 Quinnipiac St., Bldg. 40, Wallingford CT 06492
  
  
 ---------------------------------------------------------------
 Warning -- This program may not be used in any manner that
 competes with the business of Gaussian, Inc. or will provide
 assistance to any competitor of Gaussian, Inc.  The licensee
 of this program is prohibited from giving any competitor of
 Gaussian, Inc. access to this program.  By using this program,
 the user acknowledges that Gaussian, Inc. is engaged in the
 business of creating and licensing software in the field of
 computational chemistry and represents and warrants to the
 licensee that it is not a competitor of Gaussian, Inc. and that
 it will not use this program in any manner prohibited above.
 ---------------------------------------------------------------
  

 Cite this work as:
 Gaussian 16, Revision A.03,
 M. J. Frisch, G. W. Trucks, H. B. Schlegel, G. E. Scuseria, 
 M. A. Robb, J. R. Cheeseman, G. Scalmani, V. Barone, 
 G. A. Petersson, H. Nakatsuji, X. Li, M. Caricato, A. V. Marenich, 
 J. Bloino, B. G. Janesko, R. Gomperts, B. Mennucci, H. P. Hratchian, 
 J. V. Ortiz, A. F. Izmaylov, J. L. Sonnenberg, D. Williams-Young, 
 F. Ding, F. Lipparini, F. Egidi, J. Goings, B. Peng, A. Petrone, 
 T. Henderson, D. Ranasinghe, V. G. Zakrzewski, J. Gao, N. Rega, 
 G. Zheng, W. Liang, M. Hada, M. Ehara, K. Toyota, R. Fukuda, 
 J. Hasegawa, M. Ishida, T. Nakajima, Y. Honda, O. Kitao, H. Nakai, 
 T. Vreven, K. Throssell, J. A. Montgomery, Jr., J. E. Peralta, 
 F. Ogliaro, M. J. Bearpark, J. J. Heyd, E. N. Brothers, K. N. Kudin, 
 V. N. Staroverov, T. A. Keith, R. Kobayashi, J. Normand, 
 K. Raghavachari, A. P. Rendell, J. C. Burant, S. S. Iyengar, 
 J. Tomasi, M. Cossi, J. M. Millam, M. Klene, C. Adamo, R. Cammi, 
 J. W. Ochterski, R. L. Martin, K. Morokuma, O. Farkas, 
 J. B. Foresman, and D. J. Fox, Gaussian, Inc., Wallingford CT, 2016.
 
 ******************************************
 Gaussian 16:  ES64L-G16RevA.03 25-Dec-2016
                 7-Oct-2020 
 ******************************************
 %NoSave
 %nproc=12
 Will use up to   12 processors via shared memory.
 %mem=20GB
 %chk=MN_21_ch3fclts_BH76_M062XD30_631Gs
 ----------------------------------------------------------------------
 #P Opt(TS,MaxCyc=50,NoEigenTest,MaxStep=10,AddRedundant) M062X/6-31G* 
 5D 7F Integral=UltraFineGrid SCF=(NoSymm,XQC,MaxCyc=120) EmpiricalDisp
 ersion=GD3 IOp(1/33=1)
 ----------------------------------------------------------------------
 1/5=1,6=50,8=10,11=1,18=120,26=4,33=1,38=1/1,3;
 2/9=110,12=2,17=6,18=5,40=1/2;
 3/5=1,6=6,7=1,8=11,11=2,25=1,30=1,71=1,74=-55,75=-5,124=31/1,2,3;
 4/9=2/1;
 5/5=2,7=120,8=3,13=1,38=5/2,8;
 6/7=2,8=2,9=2,10=2,28=1/1;
 7//1,2,3,16;
 1/5=1,6=50,8=10,11=1,18=20,26=4,33=1/3(2);
 2/9=110/2;
 99//99;
 2/9=110/2;
 3/5=1,6=6,7=1,8=11,11=2,25=1,30=1,71=1,74=-55,75=-5,124=31/1,2,3;
 4/5=5,9=2,16=3,69=1/1;
 5/5=2,7=120,8=3,13=1,38=5/2,8;
 7//1,2,3,16;
 1/5=1,6=50,8=10,11=1,18=20,26=4,33=1/3(-5);
 2/9=110/2;
 6/7=2,8=2,9=2,10=2,19=2,28=1/1;
 99/9=1/99;
 Leave Link    1 at Wed Oct  7 14:19:30 2020, MaxMem=  2684354560 cpu:              10.8 elap:               1.0
 (Enter /udrive/faculty/rpeverati/g16/g16/l101.exe)
 ONIOM data not found on unit 2.
 ------------------
 TS search on BH76.
 ------------------
 TstMul:  ICh=     0
 TstMul:  Mul=     2
 TstMul:  ICh=     0
 TstMul:  Mul=     2
 Symbolic Z-matrix:
 Charge =  0 Multiplicity = 2
 c
 f                    1    fc2
 cl                   2    clf3     1    clfc3
 h                    1    hc4      2    hcf4     3    dih4     0
 h                    1    hc5      2    hcf5     3    dih5     0
 h                    1    hc6      2    hcf6     3    dih6     0
       Variables:
  fc2                   2.06384                  
  clf3                  1.77835                  
  clfc3               179.623                    
  hc4                   1.07759                  
  hcf4                 95.887                    
  dih4                -35.651                    
  hc5                   1.07756                  
  hcf5                 95.872                    
  dih5                 84.335                    
  hc6                   1.07755                  
  hcf6                 95.908                    
  dih6               -155.666                    
 
 RdStrC is calling ZToCFu for IStruc=1 NZ=     6.
 PrtBox:  NBox=     1 Levels=  1 BoxLen=    8.00 SMaxX=        7.47
          Shift=            1.845508            2.015714            0.209596
 Box      1 Number                   0 centers from      1 to      6:
 After GenITR:
 ITRead=  0  0  0  0  0  0
 MicOpt= -1 -1 -1 -1 -1 -1
 Add virtual bond connecting atoms F2         and C1         Dist= 3.90D+00.
 The following ModRedundant input section has been read:
 B       1       2 D                                                           
 B       1       3 D                                                           
 
 ITRead=  0  0  0  0  0  0
 MicOpt= -1 -1 -1 -1 -1 -1
 NAtoms=      6 NQM=        6 NQMF=       0 NMMI=      0 NMMIF=      0
                NMic=       0 NMicF=      0.
                    Isotopes and Nuclear Properties:
 (Nuclear quadrupole moments (NQMom) in fm**2, nuclear magnetic moments (NMagM)
  in nuclear magnetons)

  Atom         1           2           3           4           5           6
 IAtWgt=          12          19          35           1           1           1
 AtmWgt=  12.0000000  18.9984033  34.9688527   1.0078250   1.0078250   1.0078250
 NucSpn=           0           1           3           1           1           1
 AtZEff=   0.0000000   0.0000000   0.0000000   0.0000000   0.0000000   0.0000000
 NQMom=    0.0000000   0.0000000  -8.1650000   0.0000000   0.0000000   0.0000000
 NMagM=    0.0000000   2.6288670   0.8218740   2.7928460   2.7928460   2.7928460
 AtZNuc=   6.0000000   9.0000000  17.0000000   1.0000000   1.0000000   1.0000000
 No MM parameters found.
 Leave Link  101 at Wed Oct  7 14:19:32 2020, MaxMem=  2684354560 cpu:              13.8 elap:               1.4
 (Enter /udrive/faculty/rpeverati/g16/g16/l103.exe)

 GradGradGradGradGradGradGradGradGradGradGradGradGradGradGradGradGradGrad
 Berny optimization.
 Optmz: redundant internal coordinate code flag= 1
 Initialization pass.
                           ----------------------------
                           !    Initial Parameters    !
                           ! (Angstroms and Degrees)  !
 --------------------------                            --------------------------
 ! Name  Definition              Value          Derivative Info.                !
 --------------------------------------------------------------------------------
 ! R1    R(1,2)                  2.0638         calc D2E/DXDY, step=    0.0026  !
 ! R2    R(1,3)                  3.8422         calc D2E/DXDY, step=    0.0026  !
 ! R3    R(1,4)                  1.0776         estimate D2E/DX2                !
 ! R4    R(1,5)                  1.0776         estimate D2E/DX2                !
 ! R5    R(1,6)                  1.0775         estimate D2E/DX2                !
 ! R6    R(2,3)                  1.7783         estimate D2E/DX2                !
 ! A1    A(2,1,4)               95.887          estimate D2E/DX2                !
 ! A2    A(2,1,5)               95.872          estimate D2E/DX2                !
 ! A3    A(2,1,6)               95.908          estimate D2E/DX2                !
 ! A4    A(4,1,5)              118.9503         estimate D2E/DX2                !
 ! A5    A(4,1,6)              118.9724         estimate D2E/DX2                !
 ! A6    A(5,1,6)              118.9594         estimate D2E/DX2                !
 ! A7    L(1,2,3,5,-1)         179.9603         estimate D2E/DX2                !
 ! A8    L(1,2,3,5,-2)         179.1528         estimate D2E/DX2                !
 ! D1    D(2,1,5,4)           -100.0626         estimate D2E/DX2                !
 ! D2    D(2,1,6,4)            100.088          estimate D2E/DX2                !
 ! D3    D(2,1,6,5)           -100.0679         estimate D2E/DX2                !
 ! D4    D(4,1,6,5)            159.8441         estimate D2E/DX2                !
 --------------------------------------------------------------------------------
 Maximum allowed force set to 1.00D+20.
 Trust Radius=1.00D-01 FncErr=1.00D-07 GrdErr=1.00D-06 EigMax=2.50D+02 EigMin=1.00D-04
 Number of steps in this run=     50 maximum allowed number of steps=    100.
 Search for a saddle point of order  1.
 GradGradGradGradGradGradGradGradGradGradGradGradGradGradGradGradGradGrad

 Leave Link  103 at Wed Oct  7 14:19:33 2020, MaxMem=  2684354560 cpu:               1.4 elap:               0.6
 (Enter /udrive/faculty/rpeverati/g16/g16/l202.exe)
                          Input orientation:                          
 ---------------------------------------------------------------------
 Center     Atomic      Atomic             Coordinates (Angstroms)
 Number     Number       Type             X           Y           Z
 ---------------------------------------------------------------------
      1          6           0        0.000000    0.000000    0.000000
      2          9           0        0.000000    0.000000    2.063844
      3         17           0        0.011701    0.000000    3.842153
      4          1           0        0.871013    0.624757   -0.110525
      5          1           0        0.105810   -1.066670   -0.110241
      6          1           0       -0.976601    0.441650   -0.110913
 ---------------------------------------------------------------------
                    Distance matrix (angstroms):
                    1          2          3          4          5
     1  C    0.000000
     2  F    2.063844   0.000000
     3  Cl   3.842170   1.778347   0.000000
     4  H    1.077590   2.424225   4.092969   0.000000
     5  H    1.077559   2.423969   4.094882   1.856465   0.000000
     6  H    1.077546   2.424536   4.098600   1.856665   1.856513
                    6
     6  H    0.000000
 Stoichiometry    CH3ClF(2)
 Framework group  C1[X(CH3ClF)]
 Deg. of freedom    12
 Full point group                 C1      NOp   1
 Largest Abelian subgroup         C1      NOp   1
 Largest concise Abelian subgroup C1      NOp   1
                         Standard orientation:                         
 ---------------------------------------------------------------------
 Center     Atomic      Atomic             Coordinates (Angstroms)
 Number     Number       Type             X           Y           Z
 ---------------------------------------------------------------------
      1          6           0       -2.387420   -0.002147   -0.000036
      2          9           0       -0.323587    0.004627    0.000042
      3         17           0        1.454750   -0.001236   -0.000018
      4          1           0       -2.495084   -0.866694   -0.634202
      5          1           0       -2.497316   -0.119874    1.065420
      6          1           0       -2.501538    0.978815   -0.431078
 ---------------------------------------------------------------------
 Rotational constants (GHZ):         145.4642039           3.0826815           3.0826635
 Leave Link  202 at Wed Oct  7 14:19:34 2020, MaxMem=  2684354560 cpu:               2.9 elap:               0.9
 (Enter /udrive/faculty/rpeverati/g16/g16/l301.exe)
 Standard basis: 6-31G(d) (5D, 7F)
 Ernie: Thresh=  0.10000D-02 Tol=  0.10000D-05 Strict=F.
 There are    55 symmetry adapted cartesian basis functions of A   symmetry.
 There are    52 symmetry adapted basis functions of A   symmetry.
    52 basis functions,   120 primitive gaussians,    55 cartesian basis functions
    18 alpha electrons       17 beta electrons
       nuclear repulsion energy        95.5999325608 Hartrees.
 IExCor= 4336 DFT=T Ex+Corr=M062X ExCW=0 ScaHFX=  0.540000
 ScaDFX=  1.000000  1.000000  1.000000  1.000000 ScalE2=  1.000000  1.000000
 IRadAn=      5 IRanWt=     -1 IRanGd=            0 ICorTp=0 IEmpDi=131
 NAtoms=    6 NActive=    6 NUniq=    6 SFac= 1.00D+00 NAtFMM=   60 NAOKFM=F Big=F
 Integral buffers will be    131072 words long.
 Raffenetti 2 integral format.
 Two-electron integral symmetry is turned on.
 R6Disp:  Grimme-D3 Dispersion energy=       -0.0000491537 Hartrees.
 Nuclear repulsion after empirical dispersion term =       95.5998834071 Hartrees.
 Leave Link  301 at Wed Oct  7 14:19:35 2020, MaxMem=  2684354560 cpu:               2.8 elap:               0.9
 (Enter /udrive/faculty/rpeverati/g16/g16/l302.exe)
 NPDir=0 NMtPBC=     1 NCelOv=     1 NCel=       1 NClECP=     1 NCelD=      1
         NCelK=      1 NCelE2=     1 NClLst=     1 CellRange=     0.0.
 One-electron integrals computed using PRISM.
 One-electron integral symmetry used in STVInt
 NBasis=    52 RedAO= T EigKep=  2.48D-02  NBF=    52
 NBsUse=    52 1.00D-06 EigRej= -1.00D+00 NBFU=    52
 Precomputing XC quadrature grid using
 IXCGrd= 4 IRadAn=           5 IRanWt=          -1 IRanGd=           0 AccXCQ= 0.00D+00.
 Generated NRdTot=       0 NPtTot=           0 NUsed=           0 NTot=          32
 NSgBfM=    55    55    55    55    55 MxSgAt=     6 MxSgA2=     6.
 Leave Link  302 at Wed Oct  7 14:19:36 2020, MaxMem=  2684354560 cpu:               3.9 elap:               0.8
 (Enter /udrive/faculty/rpeverati/g16/g16/l303.exe)
 DipDrv:  MaxL=1.
 Leave Link  303 at Wed Oct  7 14:19:37 2020, MaxMem=  2684354560 cpu:               3.5 elap:               0.8
 (Enter /udrive/faculty/rpeverati/g16/g16/l401.exe)
 SCF N**3 symmetry information disabled.
 ExpMin= 1.43D-01 ExpMax= 2.52D+04 ExpMxC= 3.78D+03 IAcc=3 IRadAn=         5 AccDes= 0.00D+00
 Harris functional with IExCor= 1009 and IRadAn=       5 diagonalized for initial guess.
 HarFok:  IExCor= 1009 AccDes= 0.00D+00 IRadAn=         5 IDoV= 1 UseB2=F ITyADJ=14
 ICtDFT=  3500011 ScaDFX=  1.000000  1.000000  1.000000  1.000000
 FoFCou: FMM=F IPFlag=           0 FMFlag=      100000 FMFlg1=           0
         NFxFlg=           0 DoJE=T BraDBF=F KetDBF=T FulRan=T
         wScrn=  0.000000 ICntrl=       500 IOpCl=  0 I1Cent=   200000004 NGrid=           0
         NMat0=    1 NMatS0=      1 NMatT0=    0 NMatD0=    1 NMtDS0=    0 NMtDT0=    0
 Petite list used in FoFCou.
 Harris En= -599.381974892449    
 JPrj=0 DoOrth=F DoCkMO=F.
 Initial guess <Sx>= 0.0000 <Sy>= 0.0000 <Sz>= 0.5000 <S**2>= 0.7500 S= 0.5000
 Leave Link  401 at Wed Oct  7 14:19:39 2020, MaxMem=  2684354560 cpu:               5.4 elap:               0.9
 (Enter /udrive/faculty/rpeverati/g16/g16/l502.exe)
 Keep R1 and R2 ints in memory in canonical form, NReq=12417075.
 FoFCou: FMM=F IPFlag=           0 FMFlag=           0 FMFlg1=           0
         NFxFlg=           0 DoJE=F BraDBF=F KetDBF=F FulRan=T
         wScrn=  0.000000 ICntrl=       600 IOpCl=  0 I1Cent=           0 NGrid=           0
         NMat0=    1 NMatS0=   1378 NMatT0=    0 NMatD0=    1 NMtDS0=    0 NMtDT0=    0
 Symmetry not used in FoFCou.
 Two-electron integral symmetry not used.
 UHF open shell SCF:
 Using DIIS extrapolation, IDIIS=  1040.
 NGot=  2684354560 LenX=  2682446829 LenY=  2682443363
 Requested convergence on RMS density matrix=1.00D-08 within 120 cycles.
 Requested convergence on MAX density matrix=1.00D-06.
 Requested convergence on             energy=1.00D-06.
 No special actions if energy rises.
 Integral accuracy reduced to 1.0D-05 until final iterations.

 Cycle   1  Pass 0  IDiag  1:
 E= -599.580965302625    
 DIIS: error= 4.77D-02 at cycle   1 NSaved=   1.
 NSaved= 1 IEnMin= 1 EnMin= -599.580965302625     IErMin= 1 ErrMin= 4.77D-02
 ErrMax= 4.77D-02  0.00D+00 EMaxC= 1.00D-01 BMatC= 3.58D-01 BMatP= 3.58D-01
 IDIUse=3 WtCom= 5.23D-01 WtEn= 4.77D-01
 Coeff-Com:  0.100D+01
 Coeff-En:   0.100D+01
 Coeff:      0.100D+01
 Gap=     0.101 Goal=   None    Shift=    0.000
 Gap=     0.504 Goal=   None    Shift=    0.000
 GapD=    0.101 DampG=1.000 DampE=0.500 DampFc=0.5000 IDamp=-1.
 Damping current iteration by 5.00D-01
 RMSDP=1.25D-02 MaxDP=3.09D-01              OVMax= 4.58D-01

 Cycle   2  Pass 0  IDiag  1:
 E= -599.617076399846     Delta-E=       -0.036111097221 Rises=F Damp=T
 DIIS: error= 8.88D-03 at cycle   2 NSaved=   2.
 NSaved= 2 IEnMin= 2 EnMin= -599.617076399846     IErMin= 2 ErrMin= 8.88D-03
 ErrMax= 8.88D-03  0.00D+00 EMaxC= 1.00D-01 BMatC= 2.71D-02 BMatP= 3.58D-01
 IDIUse=3 WtCom= 9.11D-01 WtEn= 8.88D-02
 Coeff-Com:  0.701D-01 0.930D+00
 Coeff-En:   0.188D+00 0.812D+00
 Coeff:      0.806D-01 0.919D+00
 Gap=     0.179 Goal=   None    Shift=    0.000
 Gap=     0.409 Goal=   None    Shift=    0.000
 RMSDP=2.34D-03 MaxDP=4.00D-02 DE=-3.61D-02 OVMax= 3.07D-01

 Cycle   3  Pass 0  IDiag  1:
 E= -599.668737449586     Delta-E=       -0.051661049740 Rises=F Damp=F
 DIIS: error= 3.44D-03 at cycle   3 NSaved=   3.
 NSaved= 3 IEnMin= 3 EnMin= -599.668737449586     IErMin= 3 ErrMin= 3.44D-03
 ErrMax= 3.44D-03  0.00D+00 EMaxC= 1.00D-01 BMatC= 3.05D-03 BMatP= 2.71D-02
 IDIUse=3 WtCom= 9.66D-01 WtEn= 3.44D-02
 Coeff-Com: -0.586D-01 0.120D+00 0.939D+00
 Coeff-En:   0.000D+00 0.000D+00 0.100D+01
 Coeff:     -0.566D-01 0.115D+00 0.941D+00
 Gap=     0.215 Goal=   None    Shift=    0.000
 Gap=     0.279 Goal=   None    Shift=    0.000
 RMSDP=7.92D-04 MaxDP=2.36D-02 DE=-5.17D-02 OVMax= 3.22D-02

 Cycle   4  Pass 0  IDiag  1:
 E= -599.670079373962     Delta-E=       -0.001341924376 Rises=F Damp=F
 DIIS: error= 1.99D-03 at cycle   4 NSaved=   4.
 NSaved= 4 IEnMin= 4 EnMin= -599.670079373962     IErMin= 4 ErrMin= 1.99D-03
 ErrMax= 1.99D-03  0.00D+00 EMaxC= 1.00D-01 BMatC= 8.25D-04 BMatP= 3.05D-03
 IDIUse=3 WtCom= 9.80D-01 WtEn= 1.99D-02
 Coeff-Com: -0.234D-01 0.239D-01 0.385D+00 0.614D+00
 Coeff-En:   0.000D+00 0.000D+00 0.000D+00 0.100D+01
 Coeff:     -0.229D-01 0.234D-01 0.378D+00 0.622D+00
 Gap=     0.217 Goal=   None    Shift=    0.000
 Gap=     0.279 Goal=   None    Shift=    0.000
 RMSDP=2.71D-04 MaxDP=6.94D-03 DE=-1.34D-03 OVMax= 1.15D-02

 Cycle   5  Pass 0  IDiag  1:
 E= -599.670365538664     Delta-E=       -0.000286164702 Rises=F Damp=F
 DIIS: error= 1.17D-03 at cycle   5 NSaved=   5.
 NSaved= 5 IEnMin= 5 EnMin= -599.670365538664     IErMin= 5 ErrMin= 1.17D-03
 ErrMax= 1.17D-03  0.00D+00 EMaxC= 1.00D-01 BMatC= 1.83D-04 BMatP= 8.25D-04
 IDIUse=3 WtCom= 9.88D-01 WtEn= 1.17D-02
 Coeff-Com:  0.487D-02-0.154D-01-0.129D+00 0.166D+00 0.974D+00
 Coeff-En:   0.000D+00 0.000D+00 0.000D+00 0.000D+00 0.100D+01
 Coeff:      0.482D-02-0.153D-01-0.128D+00 0.164D+00 0.974D+00
 Gap=     0.221 Goal=   None    Shift=    0.000
 Gap=     0.280 Goal=   None    Shift=    0.000
 RMSDP=2.57D-04 MaxDP=7.39D-03 DE=-2.86D-04 OVMax= 1.20D-02

 Cycle   6  Pass 0  IDiag  1:
 E= -599.670524962116     Delta-E=       -0.000159423452 Rises=F Damp=F
 DIIS: error= 5.17D-04 at cycle   6 NSaved=   6.
 NSaved= 6 IEnMin= 6 EnMin= -599.670524962116     IErMin= 6 ErrMin= 5.17D-04
 ErrMax= 5.17D-04  0.00D+00 EMaxC= 1.00D-01 BMatC= 5.93D-05 BMatP= 1.83D-04
 IDIUse=3 WtCom= 9.95D-01 WtEn= 5.17D-03
 Coeff-Com:  0.706D-02-0.733D-02-0.172D+00-0.181D+00 0.262D+00 0.109D+01
 Coeff-En:   0.000D+00 0.000D+00 0.000D+00 0.000D+00 0.000D+00 0.100D+01
 Coeff:      0.703D-02-0.729D-02-0.171D+00-0.180D+00 0.261D+00 0.109D+01
 Gap=     0.223 Goal=   None    Shift=    0.000
 Gap=     0.281 Goal=   None    Shift=    0.000
 RMSDP=2.05D-04 MaxDP=5.40D-03 DE=-1.59D-04 OVMax= 7.99D-03

 Cycle   7  Pass 0  IDiag  1:
 E= -599.670582280086     Delta-E=       -0.000057317970 Rises=F Damp=F
 DIIS: error= 2.00D-04 at cycle   7 NSaved=   7.
 NSaved= 7 IEnMin= 7 EnMin= -599.670582280086     IErMin= 7 ErrMin= 2.00D-04
 ErrMax= 2.00D-04  0.00D+00 EMaxC= 1.00D-01 BMatC= 4.52D-06 BMatP= 5.93D-05
 IDIUse=3 WtCom= 9.98D-01 WtEn= 2.00D-03
 Coeff-Com: -0.321D-02 0.694D-02 0.654D-01 0.439D-01-0.231D+00-0.213D+00
 Coeff-Com:  0.133D+01
 Coeff-En:   0.000D+00 0.000D+00 0.000D+00 0.000D+00 0.000D+00 0.000D+00
 Coeff-En:   0.100D+01
 Coeff:     -0.321D-02 0.693D-02 0.653D-01 0.438D-01-0.231D+00-0.212D+00
 Coeff:      0.133D+01
 Gap=     0.223 Goal=   None    Shift=    0.000
 Gap=     0.281 Goal=   None    Shift=    0.000
 RMSDP=6.63D-05 MaxDP=1.84D-03 DE=-5.73D-05 OVMax= 2.61D-03

 Cycle   8  Pass 0  IDiag  1:
 E= -599.670587857658     Delta-E=       -0.000005577572 Rises=F Damp=F
 DIIS: error= 7.74D-05 at cycle   8 NSaved=   8.
 NSaved= 8 IEnMin= 8 EnMin= -599.670587857658     IErMin= 8 ErrMin= 7.74D-05
 ErrMax= 7.74D-05  0.00D+00 EMaxC= 1.00D-01 BMatC= 7.78D-07 BMatP= 4.52D-06
 IDIUse=1 WtCom= 1.00D+00 WtEn= 0.00D+00
 Coeff-Com:  0.152D-03-0.101D-02 0.135D-01 0.199D-01-0.515D-01-0.632D-01
 Coeff-Com:  0.971D-02 0.107D+01
 Coeff:      0.152D-03-0.101D-02 0.135D-01 0.199D-01-0.515D-01-0.632D-01
 Coeff:      0.971D-02 0.107D+01
 Gap=     0.223 Goal=   None    Shift=    0.000
 Gap=     0.281 Goal=   None    Shift=    0.000
 RMSDP=2.66D-05 MaxDP=7.78D-04 DE=-5.58D-06 OVMax= 9.59D-04

 Cycle   9  Pass 0  IDiag  1:
 E= -599.670588693473     Delta-E=       -0.000000835816 Rises=F Damp=F
 DIIS: error= 4.63D-05 at cycle   9 NSaved=   9.
 NSaved= 9 IEnMin= 9 EnMin= -599.670588693473     IErMin= 9 ErrMin= 4.63D-05
 ErrMax= 4.63D-05  0.00D+00 EMaxC= 1.00D-01 BMatC= 3.01D-07 BMatP= 7.78D-07
 IDIUse=1 WtCom= 1.00D+00 WtEn= 0.00D+00
 Coeff-Com:  0.110D-02-0.237D-02-0.104D-01-0.411D-02 0.249D-01 0.637D-01
 Coeff-Com: -0.289D+00-0.643D-02 0.122D+01
 Coeff:      0.110D-02-0.237D-02-0.104D-01-0.411D-02 0.249D-01 0.637D-01
 Coeff:     -0.289D+00-0.643D-02 0.122D+01
 Gap=     0.223 Goal=   None    Shift=    0.000
 Gap=     0.281 Goal=   None    Shift=    0.000
 RMSDP=1.70D-05 MaxDP=4.40D-04 DE=-8.36D-07 OVMax= 6.17D-04

 Cycle  10  Pass 0  IDiag  1:
 E= -599.670588932758     Delta-E=       -0.000000239284 Rises=F Damp=F
 DIIS: error= 2.11D-05 at cycle  10 NSaved=  10.
 NSaved=10 IEnMin=10 EnMin= -599.670588932758     IErMin=10 ErrMin= 2.11D-05
 ErrMax= 2.11D-05  0.00D+00 EMaxC= 1.00D-01 BMatC= 4.53D-08 BMatP= 3.01D-07
 IDIUse=1 WtCom= 1.00D+00 WtEn= 0.00D+00
 Coeff-Com:  0.646D-04-0.505D-04 0.174D-04-0.179D-02-0.833D-03 0.154D-01
 Coeff-Com:  0.214D-01-0.169D+00-0.140D+00 0.127D+01
 Coeff:      0.646D-04-0.505D-04 0.174D-04-0.179D-02-0.833D-03 0.154D-01
 Coeff:      0.214D-01-0.169D+00-0.140D+00 0.127D+01
 Gap=     0.223 Goal=   None    Shift=    0.000
 Gap=     0.281 Goal=   None    Shift=    0.000
 RMSDP=6.46D-06 MaxDP=1.20D-04 DE=-2.39D-07 OVMax= 2.44D-04

 Initial convergence to 1.0D-05 achieved.  Increase integral accuracy.
 Cycle  11  Pass 1  IDiag  1:
 E= -599.670457580450     Delta-E=        0.000131352307 Rises=F Damp=F
 DIIS: error= 1.44D-04 at cycle   1 NSaved=   1.
 NSaved= 1 IEnMin= 1 EnMin= -599.670457580450     IErMin= 1 ErrMin= 1.44D-04
 ErrMax= 1.44D-04  0.00D+00 EMaxC= 1.00D-01 BMatC= 1.98D-06 BMatP= 1.98D-06
 IDIUse=3 WtCom= 9.99D-01 WtEn= 1.44D-03
 Coeff-Com:  0.100D+01
 Coeff-En:   0.100D+01
 Coeff:      0.100D+01
 Gap=     0.223 Goal=   None    Shift=    0.000
 Gap=     0.281 Goal=   None    Shift=    0.000
 RMSDP=6.46D-06 MaxDP=1.20D-04 DE= 1.31D-04 OVMax= 3.89D-04

 Cycle  12  Pass 1  IDiag  1:
 E= -599.670458318617     Delta-E=       -0.000000738166 Rises=F Damp=F
 DIIS: error= 2.57D-05 at cycle   2 NSaved=   2.
 NSaved= 2 IEnMin= 2 EnMin= -599.670458318617     IErMin= 2 ErrMin= 2.57D-05
 ErrMax= 2.57D-05  0.00D+00 EMaxC= 1.00D-01 BMatC= 2.58D-07 BMatP= 1.98D-06
 IDIUse=1 WtCom= 1.00D+00 WtEn= 0.00D+00
 Coeff-Com:  0.176D+00 0.824D+00
 Coeff:      0.176D+00 0.824D+00
 Gap=     0.223 Goal=   None    Shift=    0.000
 Gap=     0.281 Goal=   None    Shift=    0.000
 RMSDP=1.25D-05 MaxDP=3.70D-04 DE=-7.38D-07 OVMax= 4.66D-04

 Cycle  13  Pass 1  IDiag  1:
 E= -599.670458421146     Delta-E=       -0.000000102529 Rises=F Damp=F
 DIIS: error= 2.16D-05 at cycle   3 NSaved=   3.
 NSaved= 3 IEnMin= 3 EnMin= -599.670458421146     IErMin= 3 ErrMin= 2.16D-05
 ErrMax= 2.16D-05  0.00D+00 EMaxC= 1.00D-01 BMatC= 1.24D-07 BMatP= 2.58D-07
 IDIUse=1 WtCom= 1.00D+00 WtEn= 0.00D+00
 Coeff-Com: -0.227D-01 0.371D+00 0.652D+00
 Coeff:     -0.227D-01 0.371D+00 0.652D+00
 Gap=     0.223 Goal=   None    Shift=    0.000
 Gap=     0.281 Goal=   None    Shift=    0.000
 RMSDP=3.92D-06 MaxDP=7.30D-05 DE=-1.03D-07 OVMax= 9.98D-05

 Cycle  14  Pass 1  IDiag  1:
 E= -599.670458457337     Delta-E=       -0.000000036190 Rises=F Damp=F
 DIIS: error= 9.24D-06 at cycle   4 NSaved=   4.
 NSaved= 4 IEnMin= 4 EnMin= -599.670458457337     IErMin= 4 ErrMin= 9.24D-06
 ErrMax= 9.24D-06  0.00D+00 EMaxC= 1.00D-01 BMatC= 1.58D-08 BMatP= 1.24D-07
 IDIUse=1 WtCom= 1.00D+00 WtEn= 0.00D+00
 Coeff-Com: -0.309D-01 0.940D-01 0.218D+00 0.719D+00
 Coeff:     -0.309D-01 0.940D-01 0.218D+00 0.719D+00
 Gap=     0.223 Goal=   None    Shift=    0.000
 Gap=     0.281 Goal=   None    Shift=    0.000
 RMSDP=2.26D-06 MaxDP=5.74D-05 DE=-3.62D-08 OVMax= 9.69D-05

 Cycle  15  Pass 1  IDiag  1:
 E= -599.670458465153     Delta-E=       -0.000000007817 Rises=F Damp=F
 DIIS: error= 4.29D-06 at cycle   5 NSaved=   5.
 NSaved= 5 IEnMin= 5 EnMin= -599.670458465153     IErMin= 5 ErrMin= 4.29D-06
 ErrMax= 4.29D-06  0.00D+00 EMaxC= 1.00D-01 BMatC= 4.82D-09 BMatP= 1.58D-08
 IDIUse=1 WtCom= 1.00D+00 WtEn= 0.00D+00
 Coeff-Com:  0.364D-02-0.408D-01-0.213D+00 0.121D+00 0.113D+01
 Coeff:      0.364D-02-0.408D-01-0.213D+00 0.121D+00 0.113D+01
 Gap=     0.223 Goal=   None    Shift=    0.000
 Gap=     0.281 Goal=   None    Shift=    0.000
 RMSDP=2.04D-06 MaxDP=4.29D-05 DE=-7.82D-09 OVMax= 9.04D-05

 Cycle  16  Pass 1  IDiag  1:
 E= -599.670458469272     Delta-E=       -0.000000004119 Rises=F Damp=F
 DIIS: error= 3.19D-06 at cycle   6 NSaved=   6.
 NSaved= 6 IEnMin= 6 EnMin= -599.670458469272     IErMin= 6 ErrMin= 3.19D-06
 ErrMax= 3.19D-06  0.00D+00 EMaxC= 1.00D-01 BMatC= 1.64D-09 BMatP= 4.82D-09
 IDIUse=1 WtCom= 1.00D+00 WtEn= 0.00D+00
 Coeff-Com:  0.893D-02-0.380D-01-0.180D+00-0.930D-01 0.617D+00 0.685D+00
 Coeff:      0.893D-02-0.380D-01-0.180D+00-0.930D-01 0.617D+00 0.685D+00
 Gap=     0.223 Goal=   None    Shift=    0.000
 Gap=     0.281 Goal=   None    Shift=    0.000
 RMSDP=7.88D-07 MaxDP=1.80D-05 DE=-4.12D-09 OVMax= 2.76D-05

 Cycle  17  Pass 1  IDiag  1:
 E= -599.670458470193     Delta-E=       -0.000000000921 Rises=F Damp=F
 DIIS: error= 7.04D-07 at cycle   7 NSaved=   7.
 NSaved= 7 IEnMin= 7 EnMin= -599.670458470193     IErMin= 7 ErrMin= 7.04D-07
 ErrMax= 7.04D-07  0.00D+00 EMaxC= 1.00D-01 BMatC= 1.25D-10 BMatP= 1.64D-09
 IDIUse=1 WtCom= 1.00D+00 WtEn= 0.00D+00
 Coeff-Com:  0.112D-02 0.745D-02 0.224D-01-0.472D-01-0.153D+00-0.411D-01
 Coeff-Com:  0.121D+01
 Coeff:      0.112D-02 0.745D-02 0.224D-01-0.472D-01-0.153D+00-0.411D-01
 Coeff:      0.121D+01
 Gap=     0.223 Goal=   None    Shift=    0.000
 Gap=     0.281 Goal=   None    Shift=    0.000
 RMSDP=5.55D-07 MaxDP=1.45D-05 DE=-9.21D-10 OVMax= 2.29D-05

 Cycle  18  Pass 1  IDiag  1:
 E= -599.670458470429     Delta-E=       -0.000000000236 Rises=F Damp=F
 DIIS: error= 4.40D-07 at cycle   8 NSaved=   8.
 NSaved= 8 IEnMin= 8 EnMin= -599.670458470429     IErMin= 8 ErrMin= 4.40D-07
 ErrMax= 4.40D-07  0.00D+00 EMaxC= 1.00D-01 BMatC= 3.02D-11 BMatP= 1.25D-10
 IDIUse=1 WtCom= 1.00D+00 WtEn= 0.00D+00
 Coeff-Com: -0.161D-02 0.754D-02 0.315D-01 0.204D-01-0.103D+00-0.181D+00
 Coeff-Com:  0.475D-01 0.118D+01
 Coeff:     -0.161D-02 0.754D-02 0.315D-01 0.204D-01-0.103D+00-0.181D+00
 Coeff:      0.475D-01 0.118D+01
 Gap=     0.223 Goal=   None    Shift=    0.000
 Gap=     0.281 Goal=   None    Shift=    0.000
 RMSDP=2.10D-07 MaxDP=5.44D-06 DE=-2.36D-10 OVMax= 7.47D-06

 Cycle  19  Pass 1  IDiag  1:
 E= -599.670458470471     Delta-E=       -0.000000000042 Rises=F Damp=F
 DIIS: error= 1.45D-07 at cycle   9 NSaved=   9.
 NSaved= 9 IEnMin= 9 EnMin= -599.670458470471     IErMin= 9 ErrMin= 1.45D-07
 ErrMax= 1.45D-07  0.00D+00 EMaxC= 1.00D-01 BMatC= 3.75D-12 BMatP= 3.02D-11
 IDIUse=1 WtCom= 1.00D+00 WtEn= 0.00D+00
 Coeff-Com:  0.174D-03-0.242D-02-0.982D-02 0.455D-02 0.406D-01 0.641D-01
 Coeff-Com: -0.228D+00-0.230D+00 0.136D+01
 Coeff:      0.174D-03-0.242D-02-0.982D-02 0.455D-02 0.406D-01 0.641D-01
 Coeff:     -0.228D+00-0.230D+00 0.136D+01
 Gap=     0.223 Goal=   None    Shift=    0.000
 Gap=     0.281 Goal=   None    Shift=    0.000
 RMSDP=7.08D-08 MaxDP=2.03D-06 DE=-4.23D-11 OVMax= 2.72D-06

 Cycle  20  Pass 1  IDiag  1:
 E= -599.670458470476     Delta-E=       -0.000000000005 Rises=F Damp=F
 DIIS: error= 6.05D-08 at cycle  10 NSaved=  10.
 NSaved=10 IEnMin=10 EnMin= -599.670458470476     IErMin=10 ErrMin= 6.05D-08
 ErrMax= 6.05D-08  0.00D+00 EMaxC= 1.00D-01 BMatC= 4.83D-13 BMatP= 3.75D-12
 IDIUse=1 WtCom= 1.00D+00 WtEn= 0.00D+00
 Coeff-Com:  0.196D-03-0.126D-02-0.496D-02-0.130D-02 0.135D-01 0.364D-01
 Coeff-Com: -0.426D-01-0.153D+00 0.164D+00 0.989D+00
 Coeff:      0.196D-03-0.126D-02-0.496D-02-0.130D-02 0.135D-01 0.364D-01
 Coeff:     -0.426D-01-0.153D+00 0.164D+00 0.989D+00
 Gap=     0.223 Goal=   None    Shift=    0.000
 Gap=     0.281 Goal=   None    Shift=    0.000
 RMSDP=1.71D-08 MaxDP=4.10D-07 DE=-4.77D-12 OVMax= 6.73D-07

 Cycle  21  Pass 1  IDiag  1:
 E= -599.670458470477     Delta-E=       -0.000000000001 Rises=F Damp=F
 DIIS: error= 1.99D-08 at cycle  11 NSaved=  11.
 NSaved=11 IEnMin=11 EnMin= -599.670458470477     IErMin=11 ErrMin= 1.99D-08
 ErrMax= 1.99D-08  0.00D+00 EMaxC= 1.00D-01 BMatC= 4.53D-14 BMatP= 4.83D-13
 IDIUse=1 WtCom= 1.00D+00 WtEn= 0.00D+00
 Coeff-Com: -0.500D-04 0.437D-03 0.204D-02-0.352D-03-0.698D-02-0.119D-01
 Coeff-Com:  0.314D-01 0.586D-01-0.209D+00-0.133D+00 0.127D+01
 Coeff:     -0.500D-04 0.437D-03 0.204D-02-0.352D-03-0.698D-02-0.119D-01
 Coeff:      0.314D-01 0.586D-01-0.209D+00-0.133D+00 0.127D+01
 Gap=     0.223 Goal=   None    Shift=    0.000
 Gap=     0.281 Goal=   None    Shift=    0.000
 RMSDP=6.24D-09 MaxDP=1.05D-07 DE=-9.09D-13 OVMax= 1.91D-07

 SCF Done:  E(UM062X) =  -599.670458470     A.U. after   21 cycles
            NFock= 21  Conv=0.62D-08     -V/T= 2.0022
 <Sx>= 0.0000 <Sy>= 0.0000 <Sz>= 0.5000 <S**2>= 0.7723 S= 0.5111
 <L.S>= 0.000000000000E+00
 KE= 5.983621565512D+02 PE=-1.616521493915D+03 EE= 3.228889954860D+02
 Annihilation of the first spin contaminant:
 S**2 before annihilation     0.7723,   after     0.7501
 Leave Link  502 at Wed Oct  7 14:19:48 2020, MaxMem=  2684354560 cpu:             100.5 elap:               8.9
 (Enter /udrive/faculty/rpeverati/g16/g16/l508.exe)
 QCSCF skips out because SCF is already converged.
 Leave Link  508 at Wed Oct  7 14:19:48 2020, MaxMem=  2684354560 cpu:               0.5 elap:               0.3
 (Enter /udrive/faculty/rpeverati/g16/g16/l601.exe)
 Copying SCF densities to generalized density rwf, IOpCl= 1 IROHF=0.

 **********************************************************************

            Population analysis using the SCF density.

 **********************************************************************

 Orbital symmetries:
 Alpha Orbitals:
       Occupied  (A) (A) (A) (A) (A) (A) (A) (A) (A) (A) (A) (A)
                 (A) (A) (A) (A) (A) (A)
       Virtual   (A) (A) (A) (A) (A) (A) (A) (A) (A) (A) (A) (A)
                 (A) (A) (A) (A) (A) (A) (A) (A) (A) (A) (A) (A)
                 (A) (A) (A) (A) (A) (A) (A) (A) (A) (A)
 Beta  Orbitals:
       Occupied  (A) (A) (A) (A) (A) (A) (A) (A) (A) (A) (A) (A)
                 (A) (A) (A) (A) (A)
       Virtual   (A) (A) (A) (A) (A) (A) (A) (A) (A) (A) (A) (A)
                 (A) (A) (A) (A) (A) (A) (A) (A) (A) (A) (A) (A)
                 (A) (A) (A) (A) (A) (A) (A) (A) (A) (A) (A)
 The electronic state is 2-A.
 Alpha  occ. eigenvalues -- -102.67157 -25.26492 -10.59534  -9.82902  -7.55794
 Alpha  occ. eigenvalues --   -7.54259  -7.54259  -1.30643  -0.89897  -0.80641
 Alpha  occ. eigenvalues --   -0.55008  -0.53382  -0.53380  -0.50235  -0.50232
 Alpha  occ. eigenvalues --   -0.36839  -0.36839  -0.27529
 Alpha virt. eigenvalues --   -0.05191   0.14817   0.20673   0.20675   0.41126
 Alpha virt. eigenvalues --    0.46873   0.50303   0.50304   0.56620   0.56626
 Alpha virt. eigenvalues --    0.57670   0.79080   0.86132   0.86133   0.93702
 Alpha virt. eigenvalues --    0.93704   0.94930   0.94934   0.97170   1.04511
 Alpha virt. eigenvalues --    1.34974   1.34977   1.67279   1.67281   1.71021
 Alpha virt. eigenvalues --    1.82350   1.92438   1.92443   1.98508   1.98512
 Alpha virt. eigenvalues --    2.18718   2.24023   2.24039   2.43888
  Beta  occ. eigenvalues -- -102.66724 -25.26522 -10.59050  -9.82760  -7.54645
  Beta  occ. eigenvalues --   -7.54122  -7.54122  -1.30508  -0.88193  -0.77144
  Beta  occ. eigenvalues --   -0.54394  -0.52954  -0.52953  -0.49725  -0.49721
  Beta  occ. eigenvalues --   -0.36042  -0.36042
  Beta virt. eigenvalues --   -0.07966   0.02802   0.15703   0.21605   0.21606
  Beta virt. eigenvalues --    0.41699   0.47747   0.50514   0.50515   0.57132
  Beta virt. eigenvalues --    0.57138   0.62107   0.82089   0.88108   0.88108
  Beta virt. eigenvalues --    0.94663   0.94665   0.97707   0.97713   0.98940
  Beta virt. eigenvalues --    1.08005   1.35642   1.35645   1.72574   1.72578
  Beta virt. eigenvalues --    1.73614   1.82202   1.92313   1.92317   1.98695
  Beta virt. eigenvalues --    1.98698   2.23740   2.29489   2.29505   2.47118
          Condensed to atoms (all electrons):
               1          2          3          4          5          6
     1  C    5.252780   0.011178   0.016325   0.377529   0.377525   0.377508
     2  F    0.011178   9.307260   0.001880  -0.003023  -0.003014  -0.002997
     3  Cl   0.016325   0.001880  16.880440  -0.000075  -0.000076  -0.000078
     4  H    0.377529  -0.003023  -0.000075   0.467873  -0.024911  -0.024900
     5  H    0.377525  -0.003014  -0.000076  -0.024911   0.467876  -0.024916
     6  H    0.377508  -0.002997  -0.000078  -0.024900  -0.024916   0.467860
          Atomic-Atomic Spin Densities.
               1          2          3          4          5          6
     1  C    0.879650  -0.023708   0.017697  -0.009741  -0.009749  -0.009759
     2  F   -0.023708   0.003209  -0.079786   0.000415   0.000414   0.000411
     3  Cl   0.017697  -0.079786   0.440492  -0.000196  -0.000197  -0.000197
     4  H   -0.009741   0.000415  -0.000196  -0.035459   0.001958   0.001959
     5  H   -0.009749   0.000414  -0.000197   0.001958  -0.035439   0.001961
     6  H   -0.009759   0.000411  -0.000197   0.001959   0.001961  -0.035418
 Mulliken charges and spin densities:
               1          2
     1  C   -0.412845   0.844390
     2  F   -0.311284  -0.099044
     3  Cl   0.101583   0.377813
     4  H    0.207507  -0.041064
     5  H    0.207516  -0.041052
     6  H    0.207522  -0.041043
 Sum of Mulliken charges =  -0.00000   1.00000
 Mulliken charges and spin densities with hydrogens summed into heavy atoms:
               1          2
     1  C    0.209700   0.721231
     2  F   -0.311284  -0.099044
     3  Cl   0.101583   0.377813
 Electronic spatial extent (au):  <R**2>=            382.5419
 Charge=             -0.0000 electrons
 Dipole moment (field-independent basis, Debye):
    X=             -2.4155    Y=             -0.0064    Z=              0.0000  Tot=              2.4155
 Quadrupole moment (field-independent basis, Debye-Ang):
   XX=            -18.0655   YY=            -24.1998   ZZ=            -24.2006
   XY=             -0.0018   XZ=              0.0001   YZ=             -0.0001
 Traceless Quadrupole moment (field-independent basis, Debye-Ang):
   XX=              4.0898   YY=             -2.0445   ZZ=             -2.0453
   XY=             -0.0018   XZ=              0.0001   YZ=             -0.0001
 Octapole moment (field-independent basis, Debye-Ang**2):
  XXX=             -3.2895  YYY=              0.3342  ZZZ=              0.9055  XYY=             -1.8414
  XXY=              0.0016  XXZ=             -0.0013  XZZ=             -1.8369  YZZ=             -0.3005
  YYZ=             -0.9048  XYZ=              0.0033
 Hexadecapole moment (field-independent basis, Debye-Ang**3):
 XXXX=           -401.8328 YYYY=            -29.5232 ZZZZ=            -29.5189 XXXY=             -0.1420
 XXXZ=              0.0044 YYYX=             -0.7909 YYYZ=              0.0073 ZZZX=             -2.2921
 ZZZY=             -0.0027 XXYY=            -74.2989 XXZZ=            -74.3165 YYZZ=             -9.8383
 XXYZ=             -0.0162 YYXZ=              2.2919 ZZXY=              0.7794
 N-N= 9.559988340707D+01 E-N=-1.616521493964D+03  KE= 5.983621565512D+02
                          Isotropic Fermi Contact Couplings
        Atom                 a.u.       MegaHertz       Gauss      10(-4) cm-1
     1  C(13)              0.13382     150.43708      53.67969      50.18041
     2  F(19)              0.52004    2188.02404     780.74139     729.84626
     3  Cl(35)             0.10673      46.79900      16.69905      15.61047
     4  H(1)              -0.01248     -55.78973     -19.90716     -18.60945
     5  H(1)              -0.01248     -55.76260     -19.89748     -18.60040
     6  H(1)              -0.01247     -55.73076     -19.88612     -18.58978
 --------------------------------------------------------
       Center         ----  Spin Dipole Couplings  ----
                      3XX-RR        3YY-RR        3ZZ-RR
 --------------------------------------------------------
     1   Atom        0.770600     -0.385299     -0.385301
     2   Atom       -0.643024      0.321547      0.321476
     3   Atom        2.278076     -1.139043     -1.139032
     4   Atom       -0.005714      0.019867     -0.014153
     5   Atom       -0.005679     -0.052421      0.058100
     6   Atom       -0.005609      0.041084     -0.035474
 --------------------------------------------------------
                        XY            XZ            YZ
 --------------------------------------------------------
     1   Atom        0.003747     -0.000295      0.000002
     2   Atom       -0.007133     -0.000193     -0.000001
     3   Atom       -0.004264      0.000055      0.000001
     4   Atom        0.007517      0.005385      0.054024
     5   Atom        0.001185     -0.009286     -0.012360
     6   Atom       -0.008760      0.003908     -0.041688
 --------------------------------------------------------


 ---------------------------------------------------------------------------------
              Anisotropic Spin Dipole Couplings in Principal Axis System
 ---------------------------------------------------------------------------------

       Atom             a.u.   MegaHertz   Gauss  10(-4) cm-1        Axes

              Baa    -0.3853   -51.705   -18.450   -17.247 -0.0032  0.9702 -0.2423
     1 C(13)  Bbb    -0.3853   -51.704   -18.449   -17.246 -0.0005  0.2423  0.9702
              Bcc     0.7706   103.409    36.899    34.493  1.0000  0.0032 -0.0003
 
              Baa    -0.6431  -322.970  -115.244  -107.731  1.0000  0.0074  0.0002
     2 F(19)  Bbb     0.3215   161.454    57.611    53.855 -0.0002 -0.0030  1.0000
              Bcc     0.3216   161.516    57.633    53.876 -0.0074  1.0000  0.0030
 
              Baa    -1.1390   -59.615   -21.272   -19.885  0.0012  0.9994 -0.0351
     3 Cl(35) Bbb    -1.1390   -59.614   -21.272   -19.885  0.0000  0.0351  0.9994
              Bcc     2.2781   119.229    42.544    39.771  1.0000 -0.0012  0.0000
 
              Baa    -0.0538   -28.695   -10.239    -9.572  0.0022 -0.5916  0.8062
     4 H(1)   Bbb    -0.0070    -3.735    -1.333    -1.246  0.9905 -0.1097 -0.0832
              Bcc     0.0608    32.430    11.572    10.818  0.1377  0.7987  0.5857
 
              Baa    -0.0538   -28.698   -10.240    -9.573 -0.0033  0.9940  0.1095
     5 H(1)   Bbb    -0.0070    -3.733    -1.332    -1.245  0.9902 -0.0120  0.1390
              Bcc     0.0608    32.431    11.572    10.818 -0.1395 -0.1089  0.9842
 
              Baa    -0.0538   -28.701   -10.241    -9.574 -0.0011  0.4022  0.9156
     6 H(1)   Bbb    -0.0070    -3.732    -1.332    -1.245  0.9897  0.1314 -0.0565
              Bcc     0.0608    32.433    11.573    10.818 -0.1430  0.9061 -0.3982
 

 ---------------------------------------------------------------------------------

 No NMR shielding tensors so no spin-rotation constants.
 Leave Link  601 at Wed Oct  7 14:19:50 2020, MaxMem=  2684354560 cpu:               5.3 elap:               0.7
 (Enter /udrive/faculty/rpeverati/g16/g16/l701.exe)
 ... and contract with generalized density number  0.
 Compute integral first derivatives.
 R6Disp: Adding Grimme-D3 dispersion energy 1st derivatives to the gradient.
 Leave Link  701 at Wed Oct  7 14:19:51 2020, MaxMem=  2684354560 cpu:               6.3 elap:               1.0
 (Enter /udrive/faculty/rpeverati/g16/g16/l702.exe)
 L702 exits ... SP integral derivatives will be done elsewhere.
 Leave Link  702 at Wed Oct  7 14:19:52 2020, MaxMem=  2684354560 cpu:               1.7 elap:               0.7
 (Enter /udrive/faculty/rpeverati/g16/g16/l703.exe)
 Integral derivatives from FoFJK, PRISM(SPDF).
 Compute integral first derivatives, UseDBF=F ICtDFT=           0.
 Calling FoFJK, ICntrl=      2127 FMM=F ISym2X=0 I1Cent= 0 IOpClX= 1 NMat=1 NMatS=1 NMatT=0.
 FoFJK:  IHMeth= 1 ICntrl=    2127 DoSepK=F KAlg= 0 I1Cent=           0 FoldK=F
 IRaf=         0 NMat=       1 IRICut=       1 DoRegI=T DoRafI=F ISym2E= 0 IDoP0=0 IntGTp=1.
 FoFCou: FMM=F IPFlag=           0 FMFlag=      100000 FMFlg1=         800
         NFxFlg=           0 DoJE=F BraDBF=F KetDBF=F FulRan=T
         wScrn=  0.000000 ICntrl=      2127 IOpCl=  1 I1Cent=           0 NGrid=           0
         NMat0=    1 NMatS0=      1 NMatT0=    0 NMatD0=    1 NMtDS0=    0 NMtDT0=    0
 Symmetry not used in FoFCou.
 Leave Link  703 at Wed Oct  7 14:19:53 2020, MaxMem=  2684354560 cpu:              11.3 elap:               1.3
 (Enter /udrive/faculty/rpeverati/g16/g16/l716.exe)
 Dipole        =-9.50342059D-01-2.51107952D-03 1.75116918D-05
 ***** Axes restored to original set *****
 -------------------------------------------------------------------
 Center     Atomic                   Forces (Hartrees/Bohr)
 Number     Number              X              Y              Z
 -------------------------------------------------------------------
      1        6           0.000012794   -0.000012052    0.006391983
      2        9           0.000065427    0.000003416   -0.007582871
      3       17          -0.000026224   -0.000000284    0.002780250
      4        1           0.001248569    0.000921366   -0.000524490
      5        1           0.000150735   -0.001578692   -0.000534039
      6        1          -0.001451301    0.000666247   -0.000530834
 -------------------------------------------------------------------
 Cartesian Forces:  Max     0.007582871 RMS     0.002521106
 Leave Link  716 at Wed Oct  7 14:19:54 2020, MaxMem=  2684354560 cpu:               2.8 elap:               0.6
 (Enter /udrive/faculty/rpeverati/g16/g16/l103.exe)

 GradGradGradGradGradGradGradGradGradGradGradGradGradGradGradGradGradGrad
 Berny optimization.
 Optmz: redundant internal coordinate code flag= 1
 FormGI is forming the generalized inverse of G from B-inverse, IUseBI=4.
 Internal  Forces:  Max     0.004128378 RMS     0.001444946
 Numerically estimating second derivatives.
 Iteration  1 RMS(Cart)=  0.00073493 RMS(Int)=  0.00068042
 Iteration  2 RMS(Cart)=  0.00000000 RMS(Int)=  0.00068042
 Largest change from initial coordinates is atom    2       0.000 Angstoms.
 GradGradGradGradGradGradGradGradGradGradGradGradGradGradGradGradGradGrad

 Leave Link  103 at Wed Oct  7 14:19:56 2020, MaxMem=  2684354560 cpu:               9.4 elap:               1.4
 (Enter /udrive/faculty/rpeverati/g16/g16/l202.exe)
                          Input orientation:                          
 ---------------------------------------------------------------------
 Center     Atomic      Atomic             Coordinates (Angstroms)
 Number     Number       Type             X           Y           Z
 ---------------------------------------------------------------------
      1          6           0        0.000000    0.000000    0.000441
      2          9           0       -0.000003   -0.000001    2.062521
      3         17           0        0.011702    0.000001    3.841712
      4          1           0        0.871013    0.624757   -0.110082
      5          1           0        0.105810   -1.066670   -0.109801
      6          1           0       -0.976600    0.441650   -0.110473
 ---------------------------------------------------------------------
                    Distance matrix (angstroms):
                    1          2          3          4          5
     1  C    0.000000
     2  F    2.062080   0.000000
     3  Cl   3.841288   1.779229   0.000000
     4  H    1.077590   2.422643   4.092116   0.000000
     5  H    1.077559   2.422387   4.094031   1.856465   0.000000
     6  H    1.077546   2.422954   4.097751   1.856665   1.856513
                    6
     6  H    0.000000
 Stoichiometry    CH3ClF(2)
 Framework group  C1[X(CH3ClF)]
 Deg. of freedom    12
 Full point group                 C1      NOp   1
 RotChk:  IX=0 Diff= 1.86D-04
 Largest Abelian subgroup         C1      NOp   1
 Largest concise Abelian subgroup C1      NOp   1
                         Standard orientation:                         
 ---------------------------------------------------------------------
 Center     Atomic      Atomic             Coordinates (Angstroms)
 Number     Number       Type             X           Y           Z
 ---------------------------------------------------------------------
      1          6           0       -2.386538   -0.002148   -0.000036
      2          9           0       -0.324469    0.004627    0.000043
      3         17           0        1.454750   -0.001235   -0.000018
      4          1           0       -2.494199   -0.866779   -0.634089
      5          1           0       -2.496435   -0.119736    1.065435
      6          1           0       -2.500658    0.978757   -0.431207
 ---------------------------------------------------------------------
 Rotational constants (GHZ):         145.4642151           3.0836619           3.0836438
 Leave Link  202 at Wed Oct  7 14:19:57 2020, MaxMem=  2684354560 cpu:               1.6 elap:               0.6
 (Enter /udrive/faculty/rpeverati/g16/g16/l301.exe)
 Standard basis: 6-31G(d) (5D, 7F)
 Ernie: Thresh=  0.10000D-02 Tol=  0.10000D-05 Strict=F.
 There are    55 symmetry adapted cartesian basis functions of A   symmetry.
 There are    52 symmetry adapted basis functions of A   symmetry.
    52 basis functions,   120 primitive gaussians,    55 cartesian basis functions
    18 alpha electrons       17 beta electrons
       nuclear repulsion energy        95.5976525759 Hartrees.
 IExCor= 4336 DFT=T Ex+Corr=M062X ExCW=0 ScaHFX=  0.540000
 ScaDFX=  1.000000  1.000000  1.000000  1.000000 ScalE2=  1.000000  1.000000
 IRadAn=      5 IRanWt=     -1 IRanGd=            0 ICorTp=0 IEmpDi=131
 NAtoms=    6 NActive=    6 NUniq=    6 SFac= 1.00D+00 NAtFMM=   60 NAOKFM=F Big=F
 Integral buffers will be    131072 words long.
 Raffenetti 2 integral format.
 Two-electron integral symmetry is turned on.
 R6Disp:  Grimme-D3 Dispersion energy=       -0.0000490848 Hartrees.
 Nuclear repulsion after empirical dispersion term =       95.5976034911 Hartrees.
 Leave Link  301 at Wed Oct  7 14:19:58 2020, MaxMem=  2684354560 cpu:               1.6 elap:               0.6
 (Enter /udrive/faculty/rpeverati/g16/g16/l302.exe)
 NPDir=0 NMtPBC=     1 NCelOv=     1 NCel=       1 NClECP=     1 NCelD=      1
         NCelK=      1 NCelE2=     1 NClLst=     1 CellRange=     0.0.
 One-electron integrals computed using PRISM.
 One-electron integral symmetry used in STVInt
 NBasis=    52 RedAO= T EigKep=  2.47D-02  NBF=    52
 NBsUse=    52 1.00D-06 EigRej= -1.00D+00 NBFU=    52
 Precomputing XC quadrature grid using
 IXCGrd= 4 IRadAn=           5 IRanWt=          -1 IRanGd=           0 AccXCQ= 0.00D+00.
 Generated NRdTot=       0 NPtTot=           0 NUsed=           0 NTot=          32
 NSgBfM=    55    55    55    55    55 MxSgAt=     6 MxSgA2=     6.
 Leave Link  302 at Wed Oct  7 14:19:59 2020, MaxMem=  2684354560 cpu:               3.7 elap:               0.6
 (Enter /udrive/faculty/rpeverati/g16/g16/l303.exe)
 DipDrv:  MaxL=1.
 Leave Link  303 at Wed Oct  7 14:20:00 2020, MaxMem=  2684354560 cpu:               1.4 elap:               0.4
 (Enter /udrive/faculty/rpeverati/g16/g16/l401.exe)
 Initial guess from the checkpoint file:  "MN_21_ch3fclts_BH76_M062XD30_631Gs.chk"
 SCF N**3 symmetry information disabled.
 B after Tr=    -0.000000   -0.000000    0.000000
         Rot=    1.000000    0.000066    0.000000   -0.000001 Ang=   0.01 deg.
 Guess basis will be translated and rotated to current coordinates.
 JPrj=2 DoOrth=T DoCkMO=T.
 Initial guess <Sx>= 0.0000 <Sy>= 0.0000 <Sz>= 0.5000 <S**2>= 0.7723 S= 0.5111
 Generating alternative initial guess.
 ExpMin= 1.43D-01 ExpMax= 2.52D+04 ExpMxC= 3.78D+03 IAcc=2 IRadAn=         4 AccDes= 0.00D+00
 Harris functional with IExCor= 1009 and IRadAn=       4 diagonalized for initial guess.
 HarFok:  IExCor= 1009 AccDes= 0.00D+00 IRadAn=         4 IDoV= 1 UseB2=F ITyADJ=14
 ICtDFT=  3500011 ScaDFX=  1.000000  1.000000  1.000000  1.000000
 FoFCou: FMM=F IPFlag=           0 FMFlag=      100000 FMFlg1=           0
         NFxFlg=           0 DoJE=T BraDBF=F KetDBF=T FulRan=T
         wScrn=  0.000000 ICntrl=       500 IOpCl=  0 I1Cent=   200000004 NGrid=           0
         NMat0=    1 NMatS0=      1 NMatT0=    0 NMatD0=    1 NMtDS0=    0 NMtDT0=    0
 Petite list used in FoFCou.
 Harris En= -599.385047260783    
 Leave Link  401 at Wed Oct  7 14:20:01 2020, MaxMem=  2684354560 cpu:               5.4 elap:               0.8
 (Enter /udrive/faculty/rpeverati/g16/g16/l502.exe)
 Keep R1 and R2 ints in memory in canonical form, NReq=12417075.
 FoFCou: FMM=F IPFlag=           0 FMFlag=           0 FMFlg1=           0
         NFxFlg=           0 DoJE=F BraDBF=F KetDBF=F FulRan=T
         wScrn=  0.000000 ICntrl=       600 IOpCl=  0 I1Cent=           0 NGrid=           0
         NMat0=    1 NMatS0=   1378 NMatT0=    0 NMatD0=    1 NMtDS0=    0 NMtDT0=    0
 Symmetry not used in FoFCou.
 Two-electron integral symmetry not used.
 UHF open shell SCF:
 Using DIIS extrapolation, IDIIS=  1040.
 NGot=  2684354560 LenX=  2682446829 LenY=  2682443363
 Requested convergence on RMS density matrix=1.00D-08 within 120 cycles.
 Requested convergence on MAX density matrix=1.00D-06.
 Requested convergence on             energy=1.00D-06.
 No special actions if energy rises.
 Integral accuracy reduced to 1.0D-05 until final iterations.

 Cycle   1  Pass 0  IDiag  1:
 E= -599.670609109833    
 DIIS: error= 1.39D-04 at cycle   1 NSaved=   1.
 NSaved= 1 IEnMin= 1 EnMin= -599.670609109833     IErMin= 1 ErrMin= 1.39D-04
 ErrMax= 1.39D-04  0.00D+00 EMaxC= 1.00D-01 BMatC= 2.60D-06 BMatP= 2.60D-06
 IDIUse=3 WtCom= 9.99D-01 WtEn= 1.39D-03
 Coeff-Com:  0.100D+01
 Coeff-En:   0.100D+01
 Coeff:      0.100D+01
 Gap=     0.576 Goal=   None    Shift=    0.000
 Gap=     0.708 Goal=   None    Shift=    0.000
 RMSDP=3.67D-05 MaxDP=6.62D-04              OVMax= 1.04D-03

 Cycle   2  Pass 0  IDiag  1:
 E= -599.670610016488     Delta-E=       -0.000000906655 Rises=F Damp=F
 DIIS: error= 5.12D-05 at cycle   2 NSaved=   2.
 NSaved= 2 IEnMin= 2 EnMin= -599.670610016488     IErMin= 2 ErrMin= 5.12D-05
 ErrMax= 5.12D-05  0.00D+00 EMaxC= 1.00D-01 BMatC= 7.22D-07 BMatP= 2.60D-06
 IDIUse=1 WtCom= 1.00D+00 WtEn= 0.00D+00
 Coeff-Com:  0.256D+00 0.744D+00
 Coeff:      0.256D+00 0.744D+00
 Gap=     0.224 Goal=   None    Shift=    0.000
 Gap=     0.281 Goal=   None    Shift=    0.000
 RMSDP=1.39D-05 MaxDP=2.68D-04 DE=-9.07D-07 OVMax= 3.60D-04

 Cycle   3  Pass 0  IDiag  1:
 E= -599.670610215994     Delta-E=       -0.000000199506 Rises=F Damp=F
 DIIS: error= 2.80D-05 at cycle   3 NSaved=   3.
 NSaved= 3 IEnMin= 3 EnMin= -599.670610215994     IErMin= 3 ErrMin= 2.80D-05
 ErrMax= 2.80D-05  0.00D+00 EMaxC= 1.00D-01 BMatC= 1.72D-07 BMatP= 7.22D-07
 IDIUse=1 WtCom= 1.00D+00 WtEn= 0.00D+00
 Coeff-Com: -0.123D-01 0.285D+00 0.728D+00
 Coeff:     -0.123D-01 0.285D+00 0.728D+00
 Gap=     0.224 Goal=   None    Shift=    0.000
 Gap=     0.281 Goal=   None    Shift=    0.000
 RMSDP=8.28D-06 MaxDP=2.36D-04 DE=-2.00D-07 OVMax= 3.67D-04

 Initial convergence to 1.0D-05 achieved.  Increase integral accuracy.
 Cycle   4  Pass 1  IDiag  1:
 E= -599.670478692181     Delta-E=        0.000131523813 Rises=F Damp=F
 DIIS: error= 1.47D-04 at cycle   1 NSaved=   1.
 NSaved= 1 IEnMin= 1 EnMin= -599.670478692181     IErMin= 1 ErrMin= 1.47D-04
 ErrMax= 1.47D-04  0.00D+00 EMaxC= 1.00D-01 BMatC= 2.07D-06 BMatP= 2.07D-06
 IDIUse=3 WtCom= 9.99D-01 WtEn= 1.47D-03
 Coeff-Com:  0.100D+01
 Coeff-En:   0.100D+01
 Coeff:      0.100D+01
 Gap=     0.224 Goal=   None    Shift=    0.000
 Gap=     0.280 Goal=   None    Shift=    0.000
 RMSDP=8.28D-06 MaxDP=2.36D-04 DE= 1.32D-04 OVMax= 4.27D-04

 Cycle   5  Pass 1  IDiag  1:
 E= -599.670479451539     Delta-E=       -0.000000759358 Rises=F Damp=F
 DIIS: error= 3.40D-05 at cycle   2 NSaved=   2.
 NSaved= 2 IEnMin= 2 EnMin= -599.670479451539     IErMin= 2 ErrMin= 3.40D-05
 ErrMax= 3.40D-05  0.00D+00 EMaxC= 1.00D-01 BMatC= 3.66D-07 BMatP= 2.07D-06
 IDIUse=1 WtCom= 1.00D+00 WtEn= 0.00D+00
 Coeff-Com:  0.217D+00 0.783D+00
 Coeff:      0.217D+00 0.783D+00
 Gap=     0.224 Goal=   None    Shift=    0.000
 Gap=     0.280 Goal=   None    Shift=    0.000
 RMSDP=1.46D-05 MaxDP=4.58D-04 DE=-7.59D-07 OVMax= 5.59D-04

 Cycle   6  Pass 1  IDiag  1:
 E= -599.670479585745     Delta-E=       -0.000000134206 Rises=F Damp=F
 DIIS: error= 3.07D-05 at cycle   3 NSaved=   3.
 NSaved= 3 IEnMin= 3 EnMin= -599.670479585745     IErMin= 3 ErrMin= 3.07D-05
 ErrMax= 3.07D-05  0.00D+00 EMaxC= 1.00D-01 BMatC= 2.42D-07 BMatP= 3.66D-07
 IDIUse=1 WtCom= 1.00D+00 WtEn= 0.00D+00
 Coeff-Com: -0.171D-01 0.433D+00 0.584D+00
 Coeff:     -0.171D-01 0.433D+00 0.584D+00
 Gap=     0.224 Goal=   None    Shift=    0.000
 Gap=     0.280 Goal=   None    Shift=    0.000
 RMSDP=4.39D-06 MaxDP=8.00D-05 DE=-1.34D-07 OVMax= 1.40D-04

 Cycle   7  Pass 1  IDiag  1:
 E= -599.670479653164     Delta-E=       -0.000000067419 Rises=F Damp=F
 DIIS: error= 1.01D-05 at cycle   4 NSaved=   4.
 NSaved= 4 IEnMin= 4 EnMin= -599.670479653164     IErMin= 4 ErrMin= 1.01D-05
 ErrMax= 1.01D-05  0.00D+00 EMaxC= 1.00D-01 BMatC= 2.30D-08 BMatP= 2.42D-07
 IDIUse=1 WtCom= 1.00D+00 WtEn= 0.00D+00
 Coeff-Com: -0.408D-01 0.101D+00 0.153D+00 0.786D+00
 Coeff:     -0.408D-01 0.101D+00 0.153D+00 0.786D+00
 Gap=     0.224 Goal=   None    Shift=    0.000
 Gap=     0.280 Goal=   None    Shift=    0.000
 RMSDP=2.97D-06 MaxDP=6.32D-05 DE=-6.74D-08 OVMax= 1.10D-04

 Cycle   8  Pass 1  IDiag  1:
 E= -599.670479668453     Delta-E=       -0.000000015289 Rises=F Damp=F
 DIIS: error= 5.19D-06 at cycle   5 NSaved=   5.
 NSaved= 5 IEnMin= 5 EnMin= -599.670479668453     IErMin= 5 ErrMin= 5.19D-06
 ErrMax= 5.19D-06  0.00D+00 EMaxC= 1.00D-01 BMatC= 5.51D-09 BMatP= 2.30D-08
 IDIUse=1 WtCom= 1.00D+00 WtEn= 0.00D+00
 Coeff-Com:  0.455D-02-0.513D-01-0.181D+00-0.396D-01 0.127D+01
 Coeff:      0.455D-02-0.513D-01-0.181D+00-0.396D-01 0.127D+01
 Gap=     0.224 Goal=   None    Shift=    0.000
 Gap=     0.280 Goal=   None    Shift=    0.000
 RMSDP=3.21D-06 MaxDP=7.93D-05 DE=-1.53D-08 OVMax= 1.44D-04

 Cycle   9  Pass 1  IDiag  1:
 E= -599.670479676742     Delta-E=       -0.000000008289 Rises=F Damp=F
 DIIS: error= 4.62D-06 at cycle   6 NSaved=   6.
 NSaved= 6 IEnMin= 6 EnMin= -599.670479676742     IErMin= 6 ErrMin= 4.62D-06
 ErrMax= 4.62D-06  0.00D+00 EMaxC= 1.00D-01 BMatC= 3.08D-09 BMatP= 5.51D-09
 IDIUse=1 WtCom= 1.00D+00 WtEn= 0.00D+00
 Coeff-Com:  0.116D-01-0.511D-01-0.141D+00-0.258D+00 0.675D+00 0.763D+00
 Coeff:      0.116D-01-0.511D-01-0.141D+00-0.258D+00 0.675D+00 0.763D+00
 Gap=     0.224 Goal=   None    Shift=    0.000
 Gap=     0.280 Goal=   None    Shift=    0.000
 RMSDP=1.40D-06 MaxDP=3.40D-05 DE=-8.29D-09 OVMax= 4.79D-05

 Cycle  10  Pass 1  IDiag  1:
 E= -599.670479678825     Delta-E=       -0.000000002082 Rises=F Damp=F
 DIIS: error= 1.03D-06 at cycle   7 NSaved=   7.
 NSaved= 7 IEnMin= 7 EnMin= -599.670479678825     IErMin= 7 ErrMin= 1.03D-06
 ErrMax= 1.03D-06  0.00D+00 EMaxC= 1.00D-01 BMatC= 2.01D-10 BMatP= 3.08D-09
 IDIUse=1 WtCom= 1.00D+00 WtEn= 0.00D+00
 Coeff-Com:  0.693D-03 0.102D-01 0.375D-01-0.258D-01-0.218D+00 0.180D-01
 Coeff-Com:  0.118D+01
 Coeff:      0.693D-03 0.102D-01 0.375D-01-0.258D-01-0.218D+00 0.180D-01
 Coeff:      0.118D+01
 Gap=     0.224 Goal=   None    Shift=    0.000
 Gap=     0.280 Goal=   None    Shift=    0.000
 RMSDP=6.64D-07 MaxDP=1.84D-05 DE=-2.08D-09 OVMax= 2.47D-05

 Cycle  11  Pass 1  IDiag  1:
 E= -599.670479679154     Delta-E=       -0.000000000329 Rises=F Damp=F
 DIIS: error= 4.10D-07 at cycle   8 NSaved=   8.
 NSaved= 8 IEnMin= 8 EnMin= -599.670479679154     IErMin= 8 ErrMin= 4.10D-07
 ErrMax= 4.10D-07  0.00D+00 EMaxC= 1.00D-01 BMatC= 3.16D-11 BMatP= 2.01D-10
 IDIUse=1 WtCom= 1.00D+00 WtEn= 0.00D+00
 Coeff-Com: -0.198D-02 0.861D-02 0.252D-01 0.441D-01-0.120D+00-0.115D+00
 Coeff-Com:  0.114D-01 0.115D+01
 Coeff:     -0.198D-02 0.861D-02 0.252D-01 0.441D-01-0.120D+00-0.115D+00
 Coeff:      0.114D-01 0.115D+01
 Gap=     0.224 Goal=   None    Shift=    0.000
 Gap=     0.280 Goal=   None    Shift=    0.000
 RMSDP=1.87D-07 MaxDP=4.73D-06 DE=-3.29D-10 OVMax= 7.50D-06

 Cycle  12  Pass 1  IDiag  1:
 E= -599.670479679199     Delta-E=       -0.000000000045 Rises=F Damp=F
 DIIS: error= 1.76D-07 at cycle   9 NSaved=   9.
 NSaved= 9 IEnMin= 9 EnMin= -599.670479679199     IErMin= 9 ErrMin= 1.76D-07
 ErrMax= 1.76D-07  0.00D+00 EMaxC= 1.00D-01 BMatC= 5.73D-12 BMatP= 3.16D-11
 IDIUse=1 WtCom= 1.00D+00 WtEn= 0.00D+00
 Coeff-Com:  0.241D-03-0.282D-02-0.941D-02-0.203D-02 0.410D-01 0.472D-01
 Coeff-Com: -0.202D+00-0.197D+00 0.133D+01
 Coeff:      0.241D-03-0.282D-02-0.941D-02-0.203D-02 0.410D-01 0.472D-01
 Coeff:     -0.202D+00-0.197D+00 0.133D+01
 Gap=     0.224 Goal=   None    Shift=    0.000
 Gap=     0.280 Goal=   None    Shift=    0.000
 RMSDP=6.56D-08 MaxDP=1.60D-06 DE=-4.49D-11 OVMax= 2.84D-06

 Cycle  13  Pass 1  IDiag  1:
 E= -599.670479679204     Delta-E=       -0.000000000005 Rises=F Damp=F
 DIIS: error= 6.00D-08 at cycle  10 NSaved=  10.
 NSaved=10 IEnMin=10 EnMin= -599.670479679204     IErMin=10 ErrMin= 6.00D-08
 ErrMax= 6.00D-08  0.00D+00 EMaxC= 1.00D-01 BMatC= 5.30D-13 BMatP= 5.73D-12
 IDIUse=1 WtCom= 1.00D+00 WtEn= 0.00D+00
 Coeff-Com:  0.206D-03-0.127D-02-0.389D-02-0.374D-02 0.136D-01 0.229D-01
 Coeff-Com: -0.311D-01-0.127D+00 0.163D+00 0.967D+00
 Coeff:      0.206D-03-0.127D-02-0.389D-02-0.374D-02 0.136D-01 0.229D-01
 Coeff:     -0.311D-01-0.127D+00 0.163D+00 0.967D+00
 Gap=     0.224 Goal=   None    Shift=    0.000
 Gap=     0.280 Goal=   None    Shift=    0.000
 RMSDP=1.40D-08 MaxDP=2.98D-07 DE=-5.46D-12 OVMax= 5.56D-07

 Cycle  14  Pass 1  IDiag  1:
 E= -599.670479679205     Delta-E=       -0.000000000000 Rises=F Damp=F
 DIIS: error= 2.09D-08 at cycle  11 NSaved=  11.
 NSaved=11 IEnMin=11 EnMin= -599.670479679205     IErMin=11 ErrMin= 2.09D-08
 ErrMax= 2.09D-08  0.00D+00 EMaxC= 1.00D-01 BMatC= 4.35D-14 BMatP= 5.30D-13
 IDIUse=1 WtCom= 1.00D+00 WtEn= 0.00D+00
 Coeff-Com: -0.505D-04 0.431D-03 0.160D-02 0.782D-03-0.645D-02-0.732D-02
 Coeff-Com:  0.256D-01 0.429D-01-0.192D+00-0.916D-01 0.123D+01
 Coeff:     -0.505D-04 0.431D-03 0.160D-02 0.782D-03-0.645D-02-0.732D-02
 Coeff:      0.256D-01 0.429D-01-0.192D+00-0.916D-01 0.123D+01
 Gap=     0.224 Goal=   None    Shift=    0.000
 Gap=     0.280 Goal=   None    Shift=    0.000
 RMSDP=5.18D-09 MaxDP=8.78D-08 DE=-2.27D-13 OVMax= 1.58D-07

 SCF Done:  E(UM062X) =  -599.670479679     A.U. after   14 cycles
            NFock= 14  Conv=0.52D-08     -V/T= 2.0022
 <Sx>= 0.0000 <Sy>= 0.0000 <Sz>= 0.5000 <S**2>= 0.7725 S= 0.5112
 <L.S>= 0.000000000000E+00
 KE= 5.983620851044D+02 PE=-1.616522344699D+03 EE= 3.228921764238D+02
 Annihilation of the first spin contaminant:
 S**2 before annihilation     0.7725,   after     0.7501
 Leave Link  502 at Wed Oct  7 14:20:09 2020, MaxMem=  2684354560 cpu:              90.0 elap:               8.2
 (Enter /udrive/faculty/rpeverati/g16/g16/l508.exe)
 QCSCF skips out because SCF is already converged.
 Leave Link  508 at Wed Oct  7 14:20:11 2020, MaxMem=  2684354560 cpu:               0.3 elap:               0.5
 (Enter /udrive/faculty/rpeverati/g16/g16/l701.exe)
 ... and contract with generalized density number  0.
 Compute integral first derivatives.
 R6Disp: Adding Grimme-D3 dispersion energy 1st derivatives to the gradient.
 Leave Link  701 at Wed Oct  7 14:20:12 2020, MaxMem=  2684354560 cpu:               6.3 elap:               1.3
 (Enter /udrive/faculty/rpeverati/g16/g16/l702.exe)
 L702 exits ... SP integral derivatives will be done elsewhere.
 Leave Link  702 at Wed Oct  7 14:20:13 2020, MaxMem=  2684354560 cpu:               2.0 elap:               0.7
 (Enter /udrive/faculty/rpeverati/g16/g16/l703.exe)
 Integral derivatives from FoFJK, PRISM(SPDF).
 Compute integral first derivatives, UseDBF=F ICtDFT=           0.
 Calling FoFJK, ICntrl=      2127 FMM=F ISym2X=0 I1Cent= 0 IOpClX= 1 NMat=1 NMatS=1 NMatT=0.
 FoFJK:  IHMeth= 1 ICntrl=    2127 DoSepK=F KAlg= 0 I1Cent=           0 FoldK=F
 IRaf=         0 NMat=       1 IRICut=       1 DoRegI=T DoRafI=F ISym2E= 0 IDoP0=0 IntGTp=1.
 FoFCou: FMM=F IPFlag=           0 FMFlag=      100000 FMFlg1=         800
         NFxFlg=           0 DoJE=F BraDBF=F KetDBF=F FulRan=T
         wScrn=  0.000000 ICntrl=      2127 IOpCl=  1 I1Cent=           0 NGrid=           0
         NMat0=    1 NMatS0=      1 NMatT0=    0 NMatD0=    1 NMtDS0=    0 NMtDT0=    0
 Symmetry not used in FoFCou.
 Leave Link  703 at Wed Oct  7 14:20:16 2020, MaxMem=  2684354560 cpu:              12.3 elap:               1.7
 (Enter /udrive/faculty/rpeverati/g16/g16/l716.exe)
 Dipole        =-9.59739479D-01-2.51932357D-03 1.70792079D-05
 ***** Axes restored to original set *****
 -------------------------------------------------------------------
 Center     Atomic                   Forces (Hartrees/Bohr)
 Number     Number              X              Y              Z
 -------------------------------------------------------------------
      1        6           0.000012786   -0.000012178    0.006672695
      2        9           0.000063344    0.000003575   -0.008042991
      3       17          -0.000024233   -0.000000283    0.003017103
      4        1           0.001245912    0.000919434   -0.000543685
      5        1           0.000150461   -0.001575449   -0.000553218
      6        1          -0.001448270    0.000664901   -0.000549905
 -------------------------------------------------------------------
 Cartesian Forces:  Max     0.008042991 RMS     0.002652759
 Leave Link  716 at Wed Oct  7 14:20:16 2020, MaxMem=  2684354560 cpu:               1.7 elap:               0.5
 (Enter /udrive/faculty/rpeverati/g16/g16/l103.exe)

 GradGradGradGradGradGradGradGradGradGradGradGradGradGradGradGradGradGrad
 Berny optimization.
 Optmz: redundant internal coordinate code flag= 1
 Red2BG:  D1=  2.40D-01 OD1=  9.01D-04 B2RMS=  0.00D+00 IAprox=0
 FormGI is forming the generalized inverse of G from B-inverse, IUseBI=4.
 Internal  Forces:  Max     0.004356175 RMS     0.001512537
 Numerically estimating second derivatives.
 Iteration  1 RMS(Cart)=  0.00073494 RMS(Int)=  0.00068041
 Iteration  2 RMS(Cart)=  0.00000000 RMS(Int)=  0.00068041
 Largest change from initial coordinates is atom    4       0.001 Angstoms.
 GradGradGradGradGradGradGradGradGradGradGradGradGradGradGradGradGradGrad

 Leave Link  103 at Wed Oct  7 14:20:18 2020, MaxMem=  2684354560 cpu:               6.5 elap:               1.3
 (Enter /udrive/faculty/rpeverati/g16/g16/l202.exe)
                          Input orientation:                          
 ---------------------------------------------------------------------
 Center     Atomic      Atomic             Coordinates (Angstroms)
 Number     Number       Type             X           Y           Z
 ---------------------------------------------------------------------
      1          6           0        0.000001   -0.000000    0.000441
      2          9           0       -0.000003    0.000001    2.063403
      3         17           0        0.011700   -0.000001    3.840830
      4          1           0        0.871014    0.624757   -0.110083
      5          1           0        0.105811   -1.066670   -0.109799
      6          1           0       -0.976600    0.441650   -0.110475
 ---------------------------------------------------------------------
                    Distance matrix (angstroms):
                    1          2          3          4          5
     1  C    0.000000
     2  F    2.062962   0.000000
     3  Cl   3.840406   1.777465   0.000000
     4  H    1.077590   2.423434   4.091265   0.000000
     5  H    1.077559   2.423178   4.093178   1.856465   0.000000
     6  H    1.077546   2.423745   4.096901   1.856665   1.856513
                    6
     6  H    0.000000
 Stoichiometry    CH3ClF(2)
 Framework group  C1[X(CH3ClF)]
 Deg. of freedom    12
 Full point group                 C1      NOp   1
 RotChk:  IX=0 Diff= 3.15D-04
 Largest Abelian subgroup         C1      NOp   1
 Largest concise Abelian subgroup C1      NOp   1
                         Standard orientation:                         
 ---------------------------------------------------------------------
 Center     Atomic      Atomic             Coordinates (Angstroms)
 Number     Number       Type             X           Y           Z
 ---------------------------------------------------------------------
      1          6           0       -2.386337   -0.002148   -0.000035
      2          9           0       -0.323386    0.004630    0.000041
      3         17           0        1.454069   -0.001237   -0.000018
      4          1           0       -2.493999   -0.866637   -0.634281
      5          1           0       -2.496231   -0.119973    1.065410
      6          1           0       -2.500458    0.978853   -0.430987
 ---------------------------------------------------------------------
 Rotational constants (GHZ):         145.4641816           3.0854898           3.0854717
 Leave Link  202 at Wed Oct  7 14:20:19 2020, MaxMem=  2684354560 cpu:               1.3 elap:               0.5
 (Enter /udrive/faculty/rpeverati/g16/g16/l301.exe)
 Standard basis: 6-31G(d) (5D, 7F)
 Ernie: Thresh=  0.10000D-02 Tol=  0.10000D-05 Strict=F.
 There are    55 symmetry adapted cartesian basis functions of A   symmetry.
 There are    52 symmetry adapted basis functions of A   symmetry.
    52 basis functions,   120 primitive gaussians,    55 cartesian basis functions
    18 alpha electrons       17 beta electrons
       nuclear repulsion energy        95.6395585437 Hartrees.
 IExCor= 4336 DFT=T Ex+Corr=M062X ExCW=0 ScaHFX=  0.540000
 ScaDFX=  1.000000  1.000000  1.000000  1.000000 ScalE2=  1.000000  1.000000
 IRadAn=      5 IRanWt=     -1 IRanGd=            0 ICorTp=0 IEmpDi=131
 NAtoms=    6 NActive=    6 NUniq=    6 SFac= 1.00D+00 NAtFMM=   60 NAOKFM=F Big=F
 Integral buffers will be    131072 words long.
 Raffenetti 2 integral format.
 Two-electron integral symmetry is turned on.
 R6Disp:  Grimme-D3 Dispersion energy=       -0.0000490371 Hartrees.
 Nuclear repulsion after empirical dispersion term =       95.6395095065 Hartrees.
 Leave Link  301 at Wed Oct  7 14:20:20 2020, MaxMem=  2684354560 cpu:               1.9 elap:               0.5
 (Enter /udrive/faculty/rpeverati/g16/g16/l302.exe)
 NPDir=0 NMtPBC=     1 NCelOv=     1 NCel=       1 NClECP=     1 NCelD=      1
         NCelK=      1 NCelE2=     1 NClLst=     1 CellRange=     0.0.
 One-electron integrals computed using PRISM.
 One-electron integral symmetry used in STVInt
 NBasis=    52 RedAO= T EigKep=  2.47D-02  NBF=    52
 NBsUse=    52 1.00D-06 EigRej= -1.00D+00 NBFU=    52
 Precomputing XC quadrature grid using
 IXCGrd= 4 IRadAn=           5 IRanWt=          -1 IRanGd=           0 AccXCQ= 0.00D+00.
 Generated NRdTot=       0 NPtTot=           0 NUsed=           0 NTot=          32
 NSgBfM=    55    55    55    55    55 MxSgAt=     6 MxSgA2=     6.
 Leave Link  302 at Wed Oct  7 14:20:21 2020, MaxMem=  2684354560 cpu:               3.5 elap:               0.8
 (Enter /udrive/faculty/rpeverati/g16/g16/l303.exe)
 DipDrv:  MaxL=1.
 Leave Link  303 at Wed Oct  7 14:20:22 2020, MaxMem=  2684354560 cpu:               1.6 elap:               0.5
 (Enter /udrive/faculty/rpeverati/g16/g16/l401.exe)
 Initial guess from the checkpoint file:  "MN_21_ch3fclts_BH76_M062XD30_631Gs.chk"
 SCF N**3 symmetry information disabled.
 B after Tr=     0.000000    0.000000    0.000000
         Rot=    1.000000   -0.000111   -0.000000    0.000001 Ang=  -0.01 deg.
 Guess basis will be translated and rotated to current coordinates.
 JPrj=2 DoOrth=T DoCkMO=T.
 Initial guess <Sx>= 0.0000 <Sy>= 0.0000 <Sz>= 0.5000 <S**2>= 0.7725 S= 0.5112
 Generating alternative initial guess.
 ExpMin= 1.43D-01 ExpMax= 2.52D+04 ExpMxC= 3.78D+03 IAcc=2 IRadAn=         4 AccDes= 0.00D+00
 Harris functional with IExCor= 1009 and IRadAn=       4 diagonalized for initial guess.
 HarFok:  IExCor= 1009 AccDes= 0.00D+00 IRadAn=         4 IDoV= 1 UseB2=F ITyADJ=14
 ICtDFT=  3500011 ScaDFX=  1.000000  1.000000  1.000000  1.000000
 FoFCou: FMM=F IPFlag=           0 FMFlag=      100000 FMFlg1=           0
         NFxFlg=           0 DoJE=T BraDBF=F KetDBF=T FulRan=T
         wScrn=  0.000000 ICntrl=       500 IOpCl=  0 I1Cent=   200000004 NGrid=           0
         NMat0=    1 NMatS0=      1 NMatT0=    0 NMatD0=    1 NMtDS0=    0 NMtDT0=    0
 Petite list used in FoFCou.
 Harris En= -599.385016640679    
 Leave Link  401 at Wed Oct  7 14:20:23 2020, MaxMem=  2684354560 cpu:               5.7 elap:               0.8
 (Enter /udrive/faculty/rpeverati/g16/g16/l502.exe)
 Keep R1 and R2 ints in memory in canonical form, NReq=12417075.
 FoFCou: FMM=F IPFlag=           0 FMFlag=           0 FMFlg1=           0
         NFxFlg=           0 DoJE=F BraDBF=F KetDBF=F FulRan=T
         wScrn=  0.000000 ICntrl=       600 IOpCl=  0 I1Cent=           0 NGrid=           0
         NMat0=    1 NMatS0=   1378 NMatT0=    0 NMatD0=    1 NMtDS0=    0 NMtDT0=    0
 Symmetry not used in FoFCou.
 Two-electron integral symmetry not used.
 UHF open shell SCF:
 Using DIIS extrapolation, IDIIS=  1040.
 NGot=  2684354560 LenX=  2682446829 LenY=  2682443363
 Requested convergence on RMS density matrix=1.00D-08 within 120 cycles.
 Requested convergence on MAX density matrix=1.00D-06.
 Requested convergence on             energy=1.00D-06.
 No special actions if energy rises.
 Integral accuracy reduced to 1.0D-05 until final iterations.

 Cycle   1  Pass 0  IDiag  1:
 E= -599.670587452739    
 DIIS: error= 1.51D-04 at cycle   1 NSaved=   1.
 NSaved= 1 IEnMin= 1 EnMin= -599.670587452739     IErMin= 1 ErrMin= 1.51D-04
 ErrMax= 1.51D-04  0.00D+00 EMaxC= 1.00D-01 BMatC= 4.90D-06 BMatP= 4.90D-06
 IDIUse=3 WtCom= 9.98D-01 WtEn= 1.51D-03
 Coeff-Com:  0.100D+01
 Coeff-En:   0.100D+01
 Coeff:      0.100D+01
 Gap=     0.576 Goal=   None    Shift=    0.000
 Gap=     0.707 Goal=   None    Shift=    0.000
 RMSDP=5.09D-05 MaxDP=7.77D-04              OVMax= 1.78D-03

 Cycle   2  Pass 0  IDiag  1:
 E= -599.670590367380     Delta-E=       -0.000002914641 Rises=F Damp=F
 DIIS: error= 6.93D-05 at cycle   2 NSaved=   2.
 NSaved= 2 IEnMin= 2 EnMin= -599.670590367380     IErMin= 2 ErrMin= 6.93D-05
 ErrMax= 6.93D-05  0.00D+00 EMaxC= 1.00D-01 BMatC= 6.53D-07 BMatP= 4.90D-06
 IDIUse=1 WtCom= 1.00D+00 WtEn= 0.00D+00
 Coeff-Com:  0.304D-02 0.997D+00
 Coeff:      0.304D-02 0.997D+00
 Gap=     0.224 Goal=   None    Shift=    0.000
 Gap=     0.281 Goal=   None    Shift=    0.000
 RMSDP=1.99D-05 MaxDP=4.70D-04 DE=-2.91D-06 OVMax= 8.26D-04

 Cycle   3  Pass 0  IDiag  1:
 E= -599.670590909396     Delta-E=       -0.000000542016 Rises=F Damp=F
 DIIS: error= 3.56D-05 at cycle   3 NSaved=   3.
 NSaved= 3 IEnMin= 3 EnMin= -599.670590909396     IErMin= 3 ErrMin= 3.56D-05
 ErrMax= 3.56D-05  0.00D+00 EMaxC= 1.00D-01 BMatC= 2.64D-07 BMatP= 6.53D-07
 IDIUse=1 WtCom= 1.00D+00 WtEn= 0.00D+00
 Coeff-Com: -0.987D-01 0.324D+00 0.775D+00
 Coeff:     -0.987D-01 0.324D+00 0.775D+00
 Gap=     0.224 Goal=   None    Shift=    0.000
 Gap=     0.281 Goal=   None    Shift=    0.000
 RMSDP=1.18D-05 MaxDP=3.01D-04 DE=-5.42D-07 OVMax= 5.26D-04

 Cycle   4  Pass 0  IDiag  1:
 E= -599.670591098134     Delta-E=       -0.000000188739 Rises=F Damp=F
 DIIS: error= 2.00D-05 at cycle   4 NSaved=   4.
 NSaved= 4 IEnMin= 4 EnMin= -599.670591098134     IErMin= 4 ErrMin= 2.00D-05
 ErrMax= 2.00D-05  0.00D+00 EMaxC= 1.00D-01 BMatC= 8.21D-08 BMatP= 2.64D-07
 IDIUse=1 WtCom= 1.00D+00 WtEn= 0.00D+00
 Coeff-Com: -0.329D-01-0.146D+00 0.171D+00 0.101D+01
 Coeff:     -0.329D-01-0.146D+00 0.171D+00 0.101D+01
 Gap=     0.224 Goal=   None    Shift=    0.000
 Gap=     0.281 Goal=   None    Shift=    0.000
 RMSDP=9.13D-06 MaxDP=1.66D-04 DE=-1.89D-07 OVMax= 3.53D-04

 Initial convergence to 1.0D-05 achieved.  Increase integral accuracy.
 Cycle   5  Pass 1  IDiag  1:
 E= -599.670460622227     Delta-E=        0.000130475907 Rises=F Damp=F
 DIIS: error= 1.51D-04 at cycle   1 NSaved=   1.
 NSaved= 1 IEnMin= 1 EnMin= -599.670460622227     IErMin= 1 ErrMin= 1.51D-04
 ErrMax= 1.51D-04  0.00D+00 EMaxC= 1.00D-01 BMatC= 2.12D-06 BMatP= 2.12D-06
 IDIUse=3 WtCom= 9.98D-01 WtEn= 1.51D-03
 Coeff-Com:  0.100D+01
 Coeff-En:   0.100D+01
 Coeff:      0.100D+01
 Gap=     0.224 Goal=   None    Shift=    0.000
 Gap=     0.281 Goal=   None    Shift=    0.000
 RMSDP=9.13D-06 MaxDP=1.66D-04 DE= 1.30D-04 OVMax= 3.72D-04

 Cycle   6  Pass 1  IDiag  1:
 E= -599.670461326277     Delta-E=       -0.000000704051 Rises=F Damp=F
 DIIS: error= 3.48D-05 at cycle   2 NSaved=   2.
 NSaved= 2 IEnMin= 2 EnMin= -599.670461326277     IErMin= 2 ErrMin= 3.48D-05
 ErrMax= 3.48D-05  0.00D+00 EMaxC= 1.00D-01 BMatC= 3.93D-07 BMatP= 2.12D-06
 IDIUse=1 WtCom= 1.00D+00 WtEn= 0.00D+00
 Coeff-Com:  0.232D+00 0.768D+00
 Coeff:      0.232D+00 0.768D+00
 Gap=     0.224 Goal=   None    Shift=    0.000
 Gap=     0.281 Goal=   None    Shift=    0.000
 RMSDP=1.28D-05 MaxDP=3.59D-04 DE=-7.04D-07 OVMax= 3.94D-04

 Cycle   7  Pass 1  IDiag  1:
 E= -599.670461436130     Delta-E=       -0.000000109853 Rises=F Damp=F
 DIIS: error= 3.32D-05 at cycle   3 NSaved=   3.
 NSaved= 3 IEnMin= 3 EnMin= -599.670461436130     IErMin= 3 ErrMin= 3.32D-05
 ErrMax= 3.32D-05  0.00D+00 EMaxC= 1.00D-01 BMatC= 1.93D-07 BMatP= 3.93D-07
 IDIUse=1 WtCom= 1.00D+00 WtEn= 0.00D+00
 Coeff-Com:  0.941D-03 0.395D+00 0.604D+00
 Coeff:      0.941D-03 0.395D+00 0.604D+00
 Gap=     0.224 Goal=   None    Shift=    0.000
 Gap=     0.281 Goal=   None    Shift=    0.000
 RMSDP=3.78D-06 MaxDP=6.35D-05 DE=-1.10D-07 OVMax= 8.58D-05

 Cycle   8  Pass 1  IDiag  1:
 E= -599.670461479294     Delta-E=       -0.000000043164 Rises=F Damp=F
 DIIS: error= 9.47D-06 at cycle   4 NSaved=   4.
 NSaved= 4 IEnMin= 4 EnMin= -599.670461479294     IErMin= 4 ErrMin= 9.47D-06
 ErrMax= 9.47D-06  0.00D+00 EMaxC= 1.00D-01 BMatC= 1.55D-08 BMatP= 1.93D-07
 IDIUse=1 WtCom= 1.00D+00 WtEn= 0.00D+00
 Coeff-Com: -0.316D-01 0.930D-01 0.222D+00 0.717D+00
 Coeff:     -0.316D-01 0.930D-01 0.222D+00 0.717D+00
 Gap=     0.224 Goal=   None    Shift=    0.000
 Gap=     0.281 Goal=   None    Shift=    0.000
 RMSDP=1.58D-06 MaxDP=2.49D-05 DE=-4.32D-08 OVMax= 4.42D-05

 Cycle   9  Pass 1  IDiag  1:
 E= -599.670461484413     Delta-E=       -0.000000005119 Rises=F Damp=F
 DIIS: error= 3.23D-06 at cycle   5 NSaved=   5.
 NSaved= 5 IEnMin= 5 EnMin= -599.670461484413     IErMin= 5 ErrMin= 3.23D-06
 ErrMax= 3.23D-06  0.00D+00 EMaxC= 1.00D-01 BMatC= 1.48D-09 BMatP= 1.55D-08
 IDIUse=1 WtCom= 1.00D+00 WtEn= 0.00D+00
 Coeff-Com: -0.951D-03-0.201D-01-0.844D-01 0.175D-01 0.109D+01
 Coeff:     -0.951D-03-0.201D-01-0.844D-01 0.175D-01 0.109D+01
 Gap=     0.224 Goal=   None    Shift=    0.000
 Gap=     0.281 Goal=   None    Shift=    0.000
 RMSDP=1.11D-06 MaxDP=2.29D-05 DE=-5.12D-09 OVMax= 5.32D-05

 Cycle  10  Pass 1  IDiag  1:
 E= -599.670461485628     Delta-E=       -0.000000001215 Rises=F Damp=F
 DIIS: error= 2.49D-06 at cycle   6 NSaved=   6.
 NSaved= 6 IEnMin= 6 EnMin= -599.670461485628     IErMin= 6 ErrMin= 2.49D-06
 ErrMax= 2.49D-06  0.00D+00 EMaxC= 1.00D-01 BMatC= 8.95D-10 BMatP= 1.48D-09
 IDIUse=1 WtCom= 1.00D+00 WtEn= 0.00D+00
 Coeff-Com:  0.534D-02-0.263D-01-0.920D-01-0.141D+00 0.605D+00 0.649D+00
 Coeff:      0.534D-02-0.263D-01-0.920D-01-0.141D+00 0.605D+00 0.649D+00
 Gap=     0.224 Goal=   None    Shift=    0.000
 Gap=     0.281 Goal=   None    Shift=    0.000
 RMSDP=3.58D-07 MaxDP=4.20D-06 DE=-1.21D-09 OVMax= 9.90D-06

 Cycle  11  Pass 1  IDiag  1:
 E= -599.670461485953     Delta-E=       -0.000000000325 Rises=F Damp=F
 DIIS: error= 5.62D-07 at cycle   7 NSaved=   7.
 NSaved= 7 IEnMin= 7 EnMin= -599.670461485953     IErMin= 7 ErrMin= 5.62D-07
 ErrMax= 5.62D-07  0.00D+00 EMaxC= 1.00D-01 BMatC= 4.67D-11 BMatP= 8.95D-10
 IDIUse=1 WtCom= 1.00D+00 WtEn= 0.00D+00
 Coeff-Com:  0.143D-02 0.277D-03-0.121D-02-0.363D-01-0.313D-01-0.766D-01
 Coeff-Com:  0.114D+01
 Coeff:      0.143D-02 0.277D-03-0.121D-02-0.363D-01-0.313D-01-0.766D-01
 Coeff:      0.114D+01
 Gap=     0.224 Goal=   None    Shift=    0.000
 Gap=     0.281 Goal=   None    Shift=    0.000
 RMSDP=2.43D-07 MaxDP=5.34D-06 DE=-3.25D-10 OVMax= 1.16D-05

 Cycle  12  Pass 1  IDiag  1:
 E= -599.670461486004     Delta-E=       -0.000000000051 Rises=F Damp=F
 DIIS: error= 4.19D-07 at cycle   8 NSaved=   8.
 NSaved= 8 IEnMin= 8 EnMin= -599.670461486004     IErMin= 8 ErrMin= 4.19D-07
 ErrMax= 4.19D-07  0.00D+00 EMaxC= 1.00D-01 BMatC= 1.43D-11 BMatP= 4.67D-11
 IDIUse=1 WtCom= 1.00D+00 WtEn= 0.00D+00
 Coeff-Com: -0.640D-03 0.386D-02 0.112D-01 0.161D-01-0.512D-01-0.188D+00
 Coeff-Com:  0.115D+00 0.109D+01
 Coeff:     -0.640D-03 0.386D-02 0.112D-01 0.161D-01-0.512D-01-0.188D+00
 Coeff:      0.115D+00 0.109D+01
 Gap=     0.224 Goal=   None    Shift=    0.000
 Gap=     0.281 Goal=   None    Shift=    0.000
 RMSDP=9.23D-08 MaxDP=1.56D-06 DE=-5.10D-11 OVMax= 3.39D-06

 Cycle  13  Pass 1  IDiag  1:
 E= -599.670461486012     Delta-E=       -0.000000000008 Rises=F Damp=F
 DIIS: error= 9.14D-08 at cycle   9 NSaved=   9.
[...]
     16 -0.498022D-03  0.195796D-02 -0.293704D-02  0.331377D-02 -0.386602D-02
     17  0.596972D-03  0.163861D-02 -0.383330D-02 -0.115295D-02  0.746517D-03
     18  0.109499D-02 -0.319351D-03 -0.896259D-03 -0.446672D-02  0.461254D-02
               11            12            13            14            15 
     11  0.660379D-01
     12 -0.327744D-01  0.676952D-01
     13 -0.131967D-03  0.173497D-04  0.259489D-01
     14 -0.339492D-04 -0.560786D-04  0.160007D-04  0.496521D-02
     15  0.696583D-02  0.365003D-02  0.872558D-04  0.125637D-03  0.775606D-02
     16  0.563889D-02 -0.260255D-02  0.229253D-03 -0.115671D-04  0.227870D-03
     17  0.382704D-02 -0.338455D-02  0.198067D-03 -0.558879D-04  0.168934D-03
     18 -0.181185D-02 -0.781997D-03 -0.311859D-04 -0.443208D-04 -0.589363D-04
               16            17            18 
     16  0.536118D-02
     17  0.202328D-02  0.581841D-02
     18 -0.333790D-02  0.379514D-02  0.713304D-02
 Leave Link  716 at Wed Oct  7 14:22:47 2020, MaxMem=  2684354560 cpu:               3.0 elap:               0.6
 (Enter /udrive/faculty/rpeverati/g16/g16/l103.exe)

 GradGradGradGradGradGradGradGradGradGradGradGradGradGradGradGradGradGrad
 Berny optimization.
 Optmz: redundant internal coordinate code flag= 1
 Red2BG:  D1=  2.44D-01 OD1=  3.89D-15 B2RMS=  0.00D+00 IAprox=1
 Red2BG is reusing G-inverse.
 Internal  Forces:  Max     0.000014317 RMS     0.000007055
 Search for a local minimum.
 Step number   1 out of a maximum of    2
 All quantities printed in internal units (Hartrees-Bohrs-Radians)
 Second derivative matrix not updated -- analytic derivatives used.
 The second derivative matrix:
                          R1        R2        R3        R4        R5
           R1          -0.03536
           R2          -0.00067   0.02993
           R3          -0.00059  -0.00014   0.38600
           R4          -0.00060  -0.00014   0.00028   0.38650
           R5          -0.00055  -0.00014   0.00030   0.00030   0.38615
           R6           0.03468   0.03060   0.00044   0.00045   0.00041
           A1           0.00042   0.00025  -0.00192   0.00041   0.00043
           A2           0.00064   0.00038   0.00067  -0.00233   0.00005
           A3           0.00137   0.00079   0.00012   0.00055  -0.00374
           A4           0.00012   0.00008   0.00478   0.00464  -0.00975
           A5          -0.00047  -0.00027   0.00532  -0.00960   0.00547
           A6          -0.00052  -0.00031  -0.00970   0.00544   0.00543
           A7          -0.00002  -0.00000   0.00045  -0.00090   0.00042
           A8          -0.00001  -0.00000  -0.00036  -0.00000   0.00033
           D1          -0.00089  -0.00053   0.00085  -0.00008   0.00148
           D2           0.00119   0.00069  -0.00106  -0.00118  -0.00054
           D3          -0.00144  -0.00084   0.00116   0.00126   0.00099
           D4          -0.00263  -0.00153   0.00221   0.00244   0.00153
                          R6        A1        A2        A3        A4
           R6          -0.00408
           A1          -0.00017   0.00382
           A2          -0.00026  -0.00095   0.00714
           A3          -0.00058  -0.00307  -0.00531   0.01434
           A4          -0.00004  -0.00258   0.00032   0.00978   0.06201
           A5           0.00020  -0.00339   0.00603  -0.00700  -0.03172
           A6           0.00021   0.00604  -0.00667  -0.00490  -0.03296
           A7           0.00002   0.00007  -0.00032   0.00030   0.00010
           A8           0.00001  -0.00010  -0.00004   0.00019   0.00007
           D1           0.00036  -0.00336  -0.00311   0.00463  -0.00996
           D2          -0.00050   0.00196  -0.00294   0.00331  -0.00387
           D3           0.00060   0.00164  -0.00383  -0.00115   0.00075
           D4           0.00109  -0.00032  -0.00090  -0.00447   0.00461
                          A5        A6        A7        A8        D1
           A5           0.06604
           A6          -0.03277   0.06770
           A7          -0.00013   0.00002   0.02595
           A8          -0.00003  -0.00006   0.00002   0.00497
           D1           0.00697   0.00365   0.00009   0.00013   0.00776
           D2           0.00564  -0.00260   0.00023  -0.00001   0.00023
           D3           0.00383  -0.00338   0.00020  -0.00006   0.00017
           D4          -0.00181  -0.00078  -0.00003  -0.00004  -0.00006
                          D2        D3        D4
           D2           0.00536
           D3           0.00202   0.00582
           D4          -0.00334   0.00380   0.00713
 ITU=  0
 Eigenvectors of the second derivative matrix:
                           1         2         3         4         5
     Eigenvalues --    -0.06156   0.00496   0.01043   0.01318   0.02215
   1         R1        -0.78497  -0.00017  -0.02160  -0.02520   0.01100
   2         R2        -0.20211   0.00001   0.01137   0.01613  -0.01267
   3         R3        -0.00136   0.00107  -0.00719  -0.00405   0.00169
   4         R4        -0.00138   0.00002  -0.00326  -0.00823   0.00021
   5         R5        -0.00107  -0.00097  -0.00338  -0.00484   0.00690
   6         R6         0.58286   0.00004   0.03297   0.04133  -0.02366
   7         A1         0.00760   0.01333  -0.49124   0.15017  -0.14171
   8         A2         0.01054  -0.00084   0.08642  -0.50456  -0.35480
   9         A3         0.01855  -0.01160   0.03533  -0.10476   0.73870
  10         A4        -0.00203  -0.00069   0.04556   0.06817  -0.05674
  11         A5        -0.00541   0.00017   0.03485   0.05940  -0.00756
  12         A6        -0.00559   0.00021   0.05084   0.03553  -0.02174
  13         A7        -0.00038  -0.00076   0.01095  -0.02313  -0.11216
  14         A8        -0.00029   0.99966   0.02087  -0.00752   0.01320
  15         D1        -0.01452  -0.01484   0.51077   0.10449   0.38215
  16         D2         0.01847   0.00878  -0.54265   0.12580   0.26275
  17         D3        -0.02185   0.00767  -0.13134   0.63931  -0.01242
  18         D4        -0.04032  -0.00111   0.41130   0.51351  -0.27518
                           6         7         8         9        10
     Eigenvalues --     0.02600   0.05187   0.09880   0.10099   0.38653
   1         R1        -0.00052   0.22188  -0.00446   0.00173  -0.00089
   2         R2         0.00138   0.79072  -0.00525   0.00213  -0.00021
   3         R3         0.00110   0.00045   0.00732  -0.04196   0.95225
   4         R4        -0.00247   0.00042   0.03002   0.02985   0.01896
   5         R5         0.00055   0.00017  -0.04236   0.01370  -0.30084
   6         R6         0.00197   0.56883  -0.00079   0.00040   0.00068
   7         A1         0.00714   0.00393   0.01081  -0.07305  -0.00601
   8         A2         0.05258   0.00590   0.02514   0.08722   0.00232
   9         A3        -0.08024   0.01737  -0.13539   0.02599   0.00427
  10         A4         0.00708  -0.00911  -0.74674   0.24581   0.02633
  11         A5        -0.00257  -0.00062   0.60652   0.53518   0.01137
  12         A6         0.00277   0.00007   0.17549  -0.79526  -0.03790
  13         A7        -0.99335   0.00016  -0.00290  -0.00145   0.00078
  14         A8        -0.00185   0.00003  -0.00119   0.00070  -0.00115
  15         D1        -0.04027  -0.00611   0.12665  -0.01644   0.00021
  16         D2        -0.03882   0.01452   0.05917   0.04076  -0.00215
  17         D3        -0.01504  -0.01694   0.01321   0.04774   0.00265
  18         D4         0.02378  -0.03146  -0.04596   0.00698   0.00480
                          11        12
     Eigenvalues --     0.38675   0.38706
   1         R1         0.00136   0.00170
   2         R2         0.00039   0.00043
   3         R3        -0.29802  -0.05011
   4         R4         0.22111  -0.97410
   5         R5        -0.92749  -0.21722
   6         R6        -0.00096  -0.00126
   7         A1         0.00067  -0.00155
   8         A2        -0.00248   0.00668
   9         A3         0.01097   0.00031
  10         A4         0.03033  -0.00884
  11         A5        -0.03048   0.02779
  12         A6        -0.00310  -0.02088
  13         A7        -0.00198   0.00209
  14         A8        -0.00051  -0.00013
  15         D1        -0.00559  -0.00025
  16         D2         0.00086   0.00411
  17         D3        -0.00285  -0.00363
  18         D4        -0.00371  -0.00774
 Eigenvalue     1 is  -6.16D-02 should be greater than     0.000000 Eigenvector:
                          R1        R6        R2        D4        D3
   1                   -0.78497   0.58286  -0.20211  -0.04032  -0.02185
                          A3        D2        D1        A2        A1
   1                    0.01855   0.01847  -0.01452   0.01054   0.00760
 Angle between quadratic step and forces=  46.86 degrees.
 Linear search not attempted -- first point.
 Iteration  1 RMS(Cart)=  0.00032128 RMS(Int)=  0.00000018
 Iteration  2 RMS(Cart)=  0.00000015 RMS(Int)=  0.00000006
 ITry= 1 IFail=0 DXMaxC= 9.30D-04 DCOld= 1.00D+10 DXMaxT= 3.00D-01 DXLimC= 3.00D+00 Rises=F
 Variable       Old X    -DE/DX   Delta X   Delta X   Delta X     New X
                                 (Linear)    (Quad)   (Total)
    R1        3.96191   0.00001   0.00000   0.00014   0.00014   3.96205
    R2        7.27950   0.00001   0.00000   0.00019   0.00019   7.27969
    R3        2.04062   0.00000   0.00000   0.00002   0.00002   2.04064
    R4        2.04059   0.00001   0.00000   0.00004   0.00004   2.04063
    R5        2.04061   0.00001   0.00000   0.00005   0.00005   2.04066
    R6        3.31758   0.00001   0.00000   0.00006   0.00006   3.31764
    A1        1.67518   0.00000   0.00000   0.00017   0.00017   1.67535
    A2        1.67500   0.00001   0.00000   0.00050   0.00050   1.67550
    A3        1.67537   0.00000   0.00000   0.00014   0.00014   1.67552
    A4        2.07569   0.00000   0.00000  -0.00009  -0.00009   2.07560
    A5        2.07566   0.00000   0.00000  -0.00006  -0.00006   2.07560
    A6        2.07571  -0.00001   0.00000  -0.00014  -0.00014   2.07557
    A7        3.14155   0.00001   0.00000   0.00028   0.00028   3.14184
    A8        3.14118   0.00000   0.00000   0.00074   0.00074   3.14191
    D1       -1.74923  -0.00001   0.00000  -0.00047  -0.00047  -1.74970
    D2        1.74945   0.00000   0.00000   0.00027   0.00027   1.74971
    D3       -1.74925  -0.00001   0.00000  -0.00064  -0.00064  -1.74989
    D4        2.78449  -0.00001   0.00000  -0.00091  -0.00091   2.78359
         Item               Value     Threshold  Converged?
 Maximum Force            0.000014     0.000450     YES
 RMS     Force            0.000007     0.000300     YES
 Maximum Displacement     0.000930     0.001800     YES
 RMS     Displacement     0.000321     0.001200     YES
 Predicted change in Energy=-1.641745D-08
 Optimization completed.
    -- Stationary point found.
                           ----------------------------
                           !   Optimized Parameters   !
                           ! (Angstroms and Degrees)  !
 --------------------------                            --------------------------
 ! Name  Definition              Value          Derivative Info.                !
 --------------------------------------------------------------------------------
 ! R1    R(1,2)                  2.0966         -DE/DX =    0.0                 !
 ! R2    R(1,3)                  3.8521         -DE/DX =    0.0                 !
 ! R3    R(1,4)                  1.0798         -DE/DX =    0.0                 !
 ! R4    R(1,5)                  1.0798         -DE/DX =    0.0                 !
 ! R5    R(1,6)                  1.0798         -DE/DX =    0.0                 !
 ! R6    R(2,3)                  1.7556         -DE/DX =    0.0                 !
 ! A1    A(2,1,4)               95.9805         -DE/DX =    0.0                 !
 ! A2    A(2,1,5)               95.9703         -DE/DX =    0.0                 !
 ! A3    A(2,1,6)               95.9918         -DE/DX =    0.0                 !
 ! A4    A(4,1,5)              118.9286         -DE/DX =    0.0                 !
 ! A5    A(4,1,6)              118.9268         -DE/DX =    0.0                 !
 ! A6    A(5,1,6)              118.9295         -DE/DX =    0.0                 !
 ! A7    L(1,2,3,5,-1)         179.9977         -DE/DX =    0.0                 !
 ! A8    L(1,2,3,5,-2)         179.9761         -DE/DX =    0.0                 !
 ! D1    D(2,1,5,4)           -100.2238         -DE/DX =    0.0                 !
 ! D2    D(2,1,6,4)            100.2359         -DE/DX =    0.0                 !
 ! D3    D(2,1,6,5)           -100.2246         -DE/DX =    0.0                 !
 ! D4    D(4,1,6,5)            159.5396         -DE/DX =    0.0                 !
 --------------------------------------------------------------------------------
 GradGradGradGradGradGradGradGradGradGradGradGradGradGradGradGradGradGrad

 Leave Link  103 at Wed Oct  7 14:22:48 2020, MaxMem=  2684354560 cpu:               2.4 elap:               0.6
 (Enter /udrive/faculty/rpeverati/g16/g16/l9999.exe)

 ----------------------------------------------------------------------

 Electric dipole moment (input orientation):
 (Debye = 10**-18 statcoulomb cm , SI units = C m)
                  (au)            (Debye)         (10**-30 SI)
   Tot        0.748194D+00      0.190172D+01      0.634345D+01
   x         -0.156774D-02     -0.398479D-02     -0.132918D-01
   y         -0.217129D-04     -0.551886D-04     -0.184090D-03
   z         -0.748192D+00     -0.190171D+01     -0.634344D+01

 Dipole polarizability, Alpha (input orientation).
 (esu units = cm**3 , SI units = C**2 m**2 J**-1)
 Alpha(0;0):
               (au)            (10**-24 esu)      (10**-40 SI)
   iso        0.469961D+02      0.696410D+01      0.774861D+01
   aniso      0.857533D+02      0.127073D+02      0.141388D+02
   xx         0.184068D+02      0.272760D+01      0.303487D+01
   yx         0.111718D-01      0.165549D-02      0.184198D-02
   yy         0.184169D+02      0.272911D+01      0.303654D+01
   zx         0.193559D+00      0.286824D-01      0.319135D-01
   zy        -0.756301D-02     -0.112072D-02     -0.124697D-02
   zz         0.104165D+03      0.154356D+02      0.171744D+02

 ----------------------------------------------------------------------

 Dipole orientation:
     6         -0.00004259          0.00009572          0.01159713
     9         -0.00004319          0.00013942         -3.95031635
    17          0.00057220          0.00024879         -7.26789994
     1          1.64892923         -1.18304440          0.22419662
     1          0.20016041          2.01972004          0.22386721
     1         -1.84911753         -0.83635746          0.22459889

 Electric dipole moment (dipole orientation):
 (Debye = 10**-18 statcoulomb cm , SI units = C m)
                  (au)            (Debye)         (10**-30 SI)
   Tot        0.748194D+00      0.190172D+01      0.634345D+01
   x          0.000000D+00      0.000000D+00      0.000000D+00
   y          0.000000D+00      0.000000D+00      0.000000D+00
   z          0.748194D+00      0.190172D+01      0.634345D+01

 Dipole polarizability, Alpha (dipole orientation).
 (esu units = cm**3 , SI units = C**2 m**2 J**-1)
 Alpha(0;0):
               (au)            (10**-24 esu)      (10**-40 SI)
   iso        0.469961D+02      0.696410D+01      0.774861D+01
   aniso      0.857533D+02      0.127073D+02      0.141388D+02
   xx         0.184063D+02      0.272754D+01      0.303479D+01
   yx        -0.111872D-01     -0.165777D-02     -0.184452D-02
   yy         0.184169D+02      0.272911D+01      0.303654D+01
   zx        -0.138642D-01     -0.205446D-02     -0.228590D-02
   zy        -0.100280D-01     -0.148600D-02     -0.165340D-02
   zz         0.104165D+03      0.154357D+02      0.171745D+02

 ----------------------------------------------------------------------

 Test job not archived.
 1\1\GINC-NODE62\Freq\UM062X\6-31G(d)\C1H3Cl1F1(2)\RPEVERATI\07-Oct-202
 0\0\\#P Freq M062X/6-31G* 5D 7F Integral=UltraFineGrid SCF=(NoSymm,XQC
 ,MaxCyc=120) EmpiricalDispersion=GD3 IOp(1/33=1) Geom=Check Guess=Read
 \\TS search on BH76.\\0,2\C,-0.0000353955,-0.0000508284,-0.0061368743\
 F,0.004357326,-0.0000131135,2.0904128483\Cl,0.008361571,-0.0000200407,
 3.8459979429\H,0.8723252429,0.6260366666,-0.1204860114\H,0.1056719007,
 -1.0687932558,-0.1186560903\H,-0.9787577627,0.442577889,-0.1168148638\
 \Version=ES64L-G16RevA.03\State=2-A\HF=-599.6702746\S2=0.767808\S2-1=0
 .\S2A=0.75011\RMSD=2.269e-09\RMSF=1.005e-05\ZeroPoint=0.0346149\Therma
 l=0.0397705\Dipole=-0.0015677,-0.0000217,-0.7481922\DipoleDeriv=0.0924
 067,0.0006137,-0.0026161,0.0006589,0.0932665,-0.0001111,-0.0016803,-0.
 0006729,-1.5993482,-0.159655,0.0000231,0.0094007,0.0000233,-0.1596398,
 -0.0000465,0.0087616,-0.0000875,4.0759889,-0.0036624,0.000019,-0.00619
 72,0.0000229,-0.0036211,0.0000101,-0.0056317,0.00009,-2.7140368,0.0122
 538,-0.0345035,-0.0026515,-0.0363455,0.0342491,-0.0010979,0.0166534,0.
 011346,0.0792653,0.0591481,0.0056646,-0.0001838,0.0072129,-0.0132302,0
 .0029043,0.0027681,-0.0200466,0.0789505,-0.0004912,0.0281831,0.0022478
 ,0.0284275,0.0489756,-0.0016591,-0.0208712,0.009371,0.0791804\Polar=18
 .4067709,0.0111718,18.4169222,0.1935587,-0.007563,104.1645244\Quadrupo
 le=-1.3678044,-1.3677682,2.7355726,-0.0000231,0.0091792,-0.0001389\PG=
 C01 [X(C1H3Cl1F1)]\NImag=1\\0.64884411,-0.00002159,0.64899981,-0.00121
 268,0.00007858,0.04144253,-0.00741244,-0.00000221,0.00029226,0.0107984
 0,-0.00000200,-0.00741882,-0.00001671,-0.00002003,0.01075723,0.0002744
 1,-0.00004551,0.11299374,-0.00026708,0.00000951,-0.10880221,0.00149601
 ,-0.00000096,-0.00021839,-0.00464757,-0.00000095,0.00003808,0.00293702
 ,-0.00000106,0.00149343,0.00000152,-0.00000094,-0.00464846,-0.00000204
 ,0.00000022,0.00293690,-0.00020075,0.00002253,-0.09302622,0.00002025,-
 0.00000226,0.00748725,0.00018149,0.00000203,0.08705803,-0.26399501,-0.
 14737708,0.02680049,0.00052913,0.00033871,-0.00116121,0.00011489,0.000
 12542,0.00018964,0.26890162,-0.14730125,-0.16432805,0.01915281,0.00033
 318,0.00033778,-0.00086448,0.00012947,0.00002969,0.00015880,0.15855966
 ,0.16163014,0.03217927,0.02301662,-0.02063907,0.00321090,0.00231269,-0
 .00388233,-0.00014689,-0.00010644,-0.00050653,-0.02871373,-0.02059755,
 0.01606881,-0.06169887,0.03057745,0.00323082,0.00010359,-0.00006896,-0
 .00014693,-0.00005921,-0.00002391,0.00002186,0.00732700,-0.02324327,-0
 .00340591,0.05119043,0.03053487,-0.36726863,-0.03230779,-0.00005746,0.
 00077437,0.00145121,-0.00002785,0.00020483,-0.00025701,0.00470902,-0.0
 0893906,-0.00212854,-0.03287786,0.37998573,0.00390954,-0.03889660,-0.0
 2050979,0.00037587,-0.00394037,-0.00386398,-0.00001728,0.00017906,-0.0
 0051697,-0.00065934,0.00401084,0.00447734,-0.00341741,0.03465631,0.015
 93592,-0.31723380,0.11682439,-0.02889250,0.00062888,-0.00024678,0.0012
 6273,0.00015886,-0.00009973,-0.00021248,-0.01287764,0.01152221,-0.0031
 2363,0.00313706,-0.00228072,-0.00019138,0.32618663,0.11679102,-0.11147
 774,0.01309159,-0.00025254,0.00019790,-0.00054869,-0.00009992,-0.00001
 638,0.00007592,-0.01635573,0.01126950,-0.00249677,0.02563654,-0.004757
 24,0.00399076,-0.12571938,0.10478396,-0.03494979,0.01582439,-0.0202612
 0,-0.00363220,0.00163713,-0.00393247,0.00016299,-0.00007413,-0.0004955
 5,0.00354416,-0.00186041,0.00448179,0.00371757,-0.00141418,0.00447748,
 0.03115727,-0.01411281,0.01572995\\-0.00000967,-0.00000467,-0.00002358
 ,-0.00000520,0.00000174,0.00000007,0.00000144,-0.00000001,-0.00001686,
 -0.00000274,-0.00000078,0.00001103,0.00000239,0.00000679,0.00001775,0.
 00001378,-0.00000306,0.00001159\\\@


 The cat could very well be man's best friend
 but would never stoop to admitting it.
                               -- Doug Larson
 Job cpu time:       0 days  0 hours  4 minutes 33.7 seconds.
 Elapsed time:       0 days  0 hours  0 minutes 31.1 seconds.
 File lengths (MBytes):  RWF=      9 Int=      0 D2E=      0 Chk=      1 Scr=      1
 Normal termination of Gaussian 16 at Wed Oct  7 14:22:49 2020.
