 Entering Gaussian System, Link 0=g16
 Input=MN_28_clch3clts_BH76_M062XD30_631Gs.in
 Output=MN_28_clch3clts_BH76_M062XD30_631Gs.log
 Initial command:
 /udrive/faculty/rpeverati/g16/g16/l1.exe "/udrive/scratch-directories/gaussian09/rpeverati/Gau-19539.inp" -scrdir="/udrive/scratch-directories/gaussian09/rpeverati/"
 Entering Link 1 = /udrive/faculty/rpeverati/g16/g16/l1.exe PID=     19556.
  
 Copyright (c) 1988,1990,1992,1993,1995,1998,2003,2009,2016,
            Gaussian, Inc.  All Rights Reserved.
  
 This is part of the Gaussian(R) 16 program.  It is based on
 the Gaussian(R) 09 system (copyright 2009, Gaussian, Inc.),
 the Gaussian(R) 03 system (copyright 2003, Gaussian, Inc.),
 the Gaussian(R) 98 system (copyright 1998, Gaussian, Inc.),
 the Gaussian(R) 94 system (copyright 1995, Gaussian, Inc.),
 the Gaussian 92(TM) system (copyright 1992, Gaussian, Inc.),
 the Gaussian 90(TM) system (copyright 1990, Gaussian, Inc.),
 the Gaussian 88(TM) system (copyright 1988, Gaussian, Inc.),
 the Gaussian 86(TM) system (copyright 1986, Carnegie Mellon
 University), and the Gaussian 82(TM) system (copyright 1983,
 Carnegie Mellon University). Gaussian is a federally registered
 trademark of Gaussian, Inc.
  
 This software contains proprietary and confidential information,
 including trade secrets, belonging to Gaussian, Inc.
  
 This software is provided under written license and may be
 used, copied, transmitted, or stored only in accord with that
 written license.
  
 The following legend is applicable only to US Government
 contracts under FAR:
  
                    RESTRICTED RIGHTS LEGEND
  
 Use, reproduction and disclosure by the US Government is
 subject to restrictions as set forth in subparagraphs (a)
 and (c) of the Commercial Computer Software - Restricted
 Rights clause in FAR 52.227-19.
  
 Gaussian, Inc.
 340 Quinnipiac St., Bldg. 40, Wallingford CT 06492
  
  
 ---------------------------------------------------------------
 Warning -- This program may not be used in any manner that
 competes with the business of Gaussian, Inc. or will provide
 assistance to any competitor of Gaussian, Inc.  The licensee
 of this program is prohibited from giving any competitor of
 Gaussian, Inc. access to this program.  By using this program,
 the user acknowledges that Gaussian, Inc. is engaged in the
 business of creating and licensing software in the field of
 computational chemistry and represents and warrants to the
 licensee that it is not a competitor of Gaussian, Inc. and that
 it will not use this program in any manner prohibited above.
 ---------------------------------------------------------------
  

 Cite this work as:
 Gaussian 16, Revision A.03,
 M. J. Frisch, G. W. Trucks, H. B. Schlegel, G. E. Scuseria, 
 M. A. Robb, J. R. Cheeseman, G. Scalmani, V. Barone, 
 G. A. Petersson, H. Nakatsuji, X. Li, M. Caricato, A. V. Marenich, 
 J. Bloino, B. G. Janesko, R. Gomperts, B. Mennucci, H. P. Hratchian, 
 J. V. Ortiz, A. F. Izmaylov, J. L. Sonnenberg, D. Williams-Young, 
 F. Ding, F. Lipparini, F. Egidi, J. Goings, B. Peng, A. Petrone, 
 T. Henderson, D. Ranasinghe, V. G. Zakrzewski, J. Gao, N. Rega, 
 G. Zheng, W. Liang, M. Hada, M. Ehara, K. Toyota, R. Fukuda, 
 J. Hasegawa, M. Ishida, T. Nakajima, Y. Honda, O. Kitao, H. Nakai, 
 T. Vreven, K. Throssell, J. A. Montgomery, Jr., J. E. Peralta, 
 F. Ogliaro, M. J. Bearpark, J. J. Heyd, E. N. Brothers, K. N. Kudin, 
 V. N. Staroverov, T. A. Keith, R. Kobayashi, J. Normand, 
 K. Raghavachari, A. P. Rendell, J. C. Burant, S. S. Iyengar, 
 J. Tomasi, M. Cossi, J. M. Millam, M. Klene, C. Adamo, R. Cammi, 
 J. W. Ochterski, R. L. Martin, K. Morokuma, O. Farkas, 
 J. B. Foresman, and D. J. Fox, Gaussian, Inc., Wallingford CT, 2016.
 
 ******************************************
 Gaussian 16:  ES64L-G16RevA.03 25-Dec-2016
                 7-Oct-2020 
 ******************************************
 %NoSave
 %nproc=12
 Will use up to   12 processors via shared memory.
 %mem=20GB
 %chk=MN_28_clch3clts_BH76_M062XD30_631Gs
 ----------------------------------------------------------------------
 #P Opt(TS,MaxCyc=50,NoEigenTest,MaxStep=10,AddRedundant) M062X/6-31G* 
 5D 7F Integral=UltraFineGrid SCF=(NoSymm,XQC,MaxCyc=120) EmpiricalDisp
 ersion=GD3 IOp(1/33=1)
 ----------------------------------------------------------------------
 1/5=1,6=50,8=10,11=1,18=120,26=4,33=1,38=1/1,3;
 2/9=110,12=2,17=6,18=5,40=1/2;
 3/5=1,6=6,7=1,8=11,11=2,25=1,30=1,71=1,74=-55,75=-5,124=31/1,2,3;
 4/9=2/1;
 5/5=2,7=120,8=3,13=1,38=5/2,8;
 6/7=2,8=2,9=2,10=2,28=1/1;
 7//1,2,3,16;
 1/5=1,6=50,8=10,11=1,18=20,26=4,33=1/3(2);
 2/9=110/2;
 99//99;
 2/9=110/2;
 3/5=1,6=6,7=1,8=11,11=2,25=1,30=1,71=1,74=-55,75=-5,124=31/1,2,3;
 4/5=5,9=2,16=3,69=1/1;
 5/5=2,7=120,8=3,13=1,38=5/2,8;
 7//1,2,3,16;
 1/5=1,6=50,8=10,11=1,18=20,26=4,33=1/3(-5);
 2/9=110/2;
 6/7=2,8=2,9=2,10=2,19=2,28=1/1;
 99/9=1/99;
 Leave Link    1 at Wed Oct  7 14:20:00 2020, MaxMem=  2684354560 cpu:               5.5 elap:               0.6
 (Enter /udrive/faculty/rpeverati/g16/g16/l101.exe)
 ONIOM data not found on unit 2.
 ------------------
 TS search on BH76.
 ------------------
 TstMul:  ICh=    -1
 TstMul:  Mul=     1
 TstMul:  ICh=    -1
 TstMul:  Mul=     1
 Symbolic Z-matrix:
 Charge = -1 Multiplicity = 1
 Cl                    0.00003   0.01953   2.3225 
 C                     0.00051   0.00049  -0.00009 
 H                     0.76128  -0.75073   0.00638 
 H                    -1.03045  -0.28272   0.00215 
 H                     0.27073   1.03493  -0.0087 
 Cl                   -0.0003   -0.01978  -2.32246 
 
 RdStrC is calling ZToCFu for IStruc=1 NZ=     6.
 PrtBox:  NBox=     2 Levels=  1 BoxLen=    8.00 SMaxX=        8.78
          Shift=            1.947270            1.418680            4.388810
 Box      1 Number                   0 centers from      1 to      5:
 Box      2 Number                   1 centers from      6 to      6:
 After GenITR:
 ITRead=  0  0  0  0  0  0
 MicOpt= -1 -1 -1 -1 -1 -1
 Add virtual bond connecting atoms Cl6        and C2         Dist= 4.39D+00.
 Add virtual bond connecting atoms C2         and Cl1        Dist= 4.39D+00.
 The following ModRedundant input section has been read:
 
 ITRead=  0  0  0  0  0  0
 MicOpt= -1 -1 -1 -1 -1 -1
 NAtoms=      6 NQM=        6 NQMF=       0 NMMI=      0 NMMIF=      0
                NMic=       0 NMicF=      0.
                    Isotopes and Nuclear Properties:
 (Nuclear quadrupole moments (NQMom) in fm**2, nuclear magnetic moments (NMagM)
  in nuclear magnetons)

  Atom         1           2           3           4           5           6
 IAtWgt=          35          12           1           1           1          35
 AtmWgt=  34.9688527  12.0000000   1.0078250   1.0078250   1.0078250  34.9688527
 NucSpn=           3           0           1           1           1           3
 AtZEff=   0.0000000   0.0000000   0.0000000   0.0000000   0.0000000   0.0000000
 NQMom=   -8.1650000   0.0000000   0.0000000   0.0000000   0.0000000  -8.1650000
 NMagM=    0.8218740   0.0000000   2.7928460   2.7928460   2.7928460   0.8218740
 AtZNuc=  17.0000000   6.0000000   1.0000000   1.0000000   1.0000000  17.0000000
 No MM parameters found.
 Leave Link  101 at Wed Oct  7 14:20:01 2020, MaxMem=  2684354560 cpu:               7.7 elap:               0.7
 (Enter /udrive/faculty/rpeverati/g16/g16/l103.exe)

 GradGradGradGradGradGradGradGradGradGradGradGradGradGradGradGradGradGrad
 Berny optimization.
 Optmz: redundant internal coordinate code flag= 1
 Initialization pass.
                           ----------------------------
                           !    Initial Parameters    !
                           ! (Angstroms and Degrees)  !
 --------------------------                            --------------------------
 ! Name  Definition              Value          Derivative Info.                !
 --------------------------------------------------------------------------------
 ! R1    R(1,2)                  2.3227         estimate D2E/DX2                !
 ! R2    R(2,3)                  1.0692         estimate D2E/DX2                !
 ! R3    R(2,4)                  1.0692         estimate D2E/DX2                !
 ! R4    R(2,5)                  1.0692         estimate D2E/DX2                !
 ! R5    R(2,6)                  2.3225         estimate D2E/DX2                !
 ! A1    A(1,2,3)               89.9921         estimate D2E/DX2                !
 ! A2    A(1,2,4)               89.993          estimate D2E/DX2                !
 ! A3    A(1,2,5)               90.0099         estimate D2E/DX2                !
 ! A4    A(3,2,4)              119.9998         estimate D2E/DX2                !
 ! A5    A(3,2,5)              120.0002         estimate D2E/DX2                !
 ! A6    A(3,2,6)               90.0094         estimate D2E/DX2                !
 ! A7    A(4,2,5)              120.0            estimate D2E/DX2                !
 ! A8    A(4,2,6)               89.9681         estimate D2E/DX2                !
 ! A9    A(5,2,6)               90.0276         estimate D2E/DX2                !
 ! A10   L(1,2,6,3,-1)         180.0014         estimate D2E/DX2                !
 ! A11   L(1,2,6,3,-2)         179.9559         estimate D2E/DX2                !
 ! D1    D(3,2,5,4)           -179.9942         estimate D2E/DX2                !
 ! D2    D(3,2,6,4)            119.9998         estimate D2E/DX2                !
 ! D3    D(3,2,6,5)           -120.0002         estimate D2E/DX2                !
 ! D4    D(4,2,6,5)            120.0            estimate D2E/DX2                !
 --------------------------------------------------------------------------------
 Maximum allowed force set to 1.00D+20.
 Trust Radius=1.00D-01 FncErr=1.00D-07 GrdErr=1.00D-06 EigMax=2.50D+02 EigMin=1.00D-04
 Number of steps in this run=     50 maximum allowed number of steps=    100.
 Search for a saddle point of order  1.
 GradGradGradGradGradGradGradGradGradGradGradGradGradGradGradGradGradGrad

 Leave Link  103 at Wed Oct  7 14:20:01 2020, MaxMem=  2684354560 cpu:               1.0 elap:               0.4
 (Enter /udrive/faculty/rpeverati/g16/g16/l202.exe)
                          Input orientation:                          
 ---------------------------------------------------------------------
 Center     Atomic      Atomic             Coordinates (Angstroms)
 Number     Number       Type             X           Y           Z
 ---------------------------------------------------------------------
      1         17           0        0.000025    0.019526    2.322501
      2          6           0        0.000513    0.000486   -0.000089
      3          1           0        0.761280   -0.750733    0.006377
      4          1           0       -1.030451   -0.282724    0.002147
      5          1           0        0.270728    1.034928   -0.008697
      6         17           0       -0.000297   -0.019784   -2.322458
 ---------------------------------------------------------------------
                    Distance matrix (angstroms):
                    1          2          3          4          5
     1  Cl   0.000000
     2  C    2.322668   0.000000
     3  H    2.556802   1.069176   0.000000
     4  H    2.556810   1.069158   1.851850   0.000000
     5  H    2.557108   1.069187   1.851878   1.851861   0.000000
     6  Cl   4.645125   2.322458   2.556904   2.556197   2.557218
                    6
     6  Cl   0.000000
 This structure is nearly, but not quite of a higher symmetry.
 Consider Symm=Loose if the higher symmetry is desired.
 Stoichiometry    CH3Cl2(1-)
 Framework group  C1[X(CH3Cl2)]
 Deg. of freedom    12
 Full point group                 C1      NOp   1
 Largest Abelian subgroup         C1      NOp   1
 Largest concise Abelian subgroup C1      NOp   1
                         Standard orientation:                         
 ---------------------------------------------------------------------
 Center     Atomic      Atomic             Coordinates (Angstroms)
 Number     Number       Type             X           Y           Z
 ---------------------------------------------------------------------
      1         17           0        2.322582   -0.000129    0.000605
      2          6           0       -0.000085    0.000479   -0.000520
      3          1           0        0.000226   -0.762113   -0.749914
      4          1           0       -0.000525   -0.267219    1.034582
      5          1           0        0.000138    1.030780   -0.286246
      6         17           0       -2.322543   -0.000126   -0.000329
 ---------------------------------------------------------------------
 Rotational constants (GHZ):         146.2220977           1.3334790           1.3334788
 Leave Link  202 at Wed Oct  7 14:20:02 2020, MaxMem=  2684354560 cpu:               1.9 elap:               0.5
 (Enter /udrive/faculty/rpeverati/g16/g16/l301.exe)
 Standard basis: 6-31G(d) (5D, 7F)
 Ernie: Thresh=  0.10000D-02 Tol=  0.10000D-05 Strict=F.
 There are    59 symmetry adapted cartesian basis functions of A   symmetry.
 There are    56 symmetry adapted basis functions of A   symmetry.
    56 basis functions,   144 primitive gaussians,    59 cartesian basis functions
    22 alpha electrons       22 beta electrons
       nuclear repulsion energy       110.2795721056 Hartrees.
 IExCor= 4336 DFT=T Ex+Corr=M062X ExCW=0 ScaHFX=  0.540000
 ScaDFX=  1.000000  1.000000  1.000000  1.000000 ScalE2=  1.000000  1.000000
 IRadAn=      5 IRanWt=     -1 IRanGd=            0 ICorTp=0 IEmpDi=131
 NAtoms=    6 NActive=    6 NUniq=    6 SFac= 1.00D+00 NAtFMM=   60 NAOKFM=F Big=F
 Integral buffers will be    131072 words long.
 Raffenetti 2 integral format.
 Two-electron integral symmetry is turned on.
 R6Disp:  Grimme-D3 Dispersion energy=       -0.0000130904 Hartrees.
 Nuclear repulsion after empirical dispersion term =      110.2795590152 Hartrees.
 Leave Link  301 at Wed Oct  7 14:20:03 2020, MaxMem=  2684354560 cpu:               2.3 elap:               0.6
 (Enter /udrive/faculty/rpeverati/g16/g16/l302.exe)
 NPDir=0 NMtPBC=     1 NCelOv=     1 NCel=       1 NClECP=     1 NCelD=      1
         NCelK=      1 NCelE2=     1 NClLst=     1 CellRange=     0.0.
 One-electron integrals computed using PRISM.
 One-electron integral symmetry used in STVInt
 NBasis=    56 RedAO= T EigKep=  2.37D-02  NBF=    56
 NBsUse=    56 1.00D-06 EigRej= -1.00D+00 NBFU=    56
 Precomputing XC quadrature grid using
 IXCGrd= 4 IRadAn=           5 IRanWt=          -1 IRanGd=           0 AccXCQ= 0.00D+00.
 Generated NRdTot=       0 NPtTot=           0 NUsed=           0 NTot=          32
 NSgBfM=    59    59    59    59    59 MxSgAt=     6 MxSgA2=     6.
 Leave Link  302 at Wed Oct  7 14:20:04 2020, MaxMem=  2684354560 cpu:               3.9 elap:               0.6
 (Enter /udrive/faculty/rpeverati/g16/g16/l303.exe)
 DipDrv:  MaxL=1.
 Leave Link  303 at Wed Oct  7 14:20:04 2020, MaxMem=  2684354560 cpu:               1.6 elap:               0.4
 (Enter /udrive/faculty/rpeverati/g16/g16/l401.exe)
 SCF N**3 symmetry information disabled.
 ExpMin= 1.43D-01 ExpMax= 2.52D+04 ExpMxC= 3.78D+03 IAcc=3 IRadAn=         5 AccDes= 0.00D+00
 Harris functional with IExCor= 1009 and IRadAn=       5 diagonalized for initial guess.
 HarFok:  IExCor= 1009 AccDes= 0.00D+00 IRadAn=         5 IDoV= 1 UseB2=F ITyADJ=14
 ICtDFT=  3500011 ScaDFX=  1.000000  1.000000  1.000000  1.000000
 FoFCou: FMM=F IPFlag=           0 FMFlag=      100000 FMFlg1=           0
         NFxFlg=           0 DoJE=T BraDBF=F KetDBF=T FulRan=T
         wScrn=  0.000000 ICntrl=       500 IOpCl=  0 I1Cent=   200000004 NGrid=           0
         NMat0=    1 NMatS0=      1 NMatT0=    0 NMatD0=    1 NMtDS0=    0 NMtDT0=    0
 Petite list used in FoFCou.
 Harris En= -959.871957673937    
 JPrj=0 DoOrth=F DoCkMO=F.
 Leave Link  401 at Wed Oct  7 14:20:05 2020, MaxMem=  2684354560 cpu:               6.4 elap:               0.8
 (Enter /udrive/faculty/rpeverati/g16/g16/l502.exe)
 Keep R1 ints in memory in canonical form, NReq=11840974.
 FoFCou: FMM=F IPFlag=           0 FMFlag=           0 FMFlg1=           0
         NFxFlg=           0 DoJE=F BraDBF=F KetDBF=F FulRan=T
         wScrn=  0.000000 ICntrl=       600 IOpCl=  0 I1Cent=           0 NGrid=           0
         NMat0=    1 NMatS0=   1596 NMatT0=    0 NMatD0=    1 NMtDS0=    0 NMtDT0=    0
 Symmetry not used in FoFCou.
 Two-electron integral symmetry not used.
 Closed shell SCF:
 Using DIIS extrapolation, IDIIS=  1040.
 NGot=  2684354560 LenX=  2683071684 LenY=  2683067762
 Requested convergence on RMS density matrix=1.00D-08 within 120 cycles.
 Requested convergence on MAX density matrix=1.00D-06.
 Requested convergence on             energy=1.00D-06.
 No special actions if energy rises.
 Integral accuracy reduced to 1.0D-05 until final iterations.

 Cycle   1  Pass 0  IDiag  1:
 E= -960.202703259273    
 DIIS: error= 4.18D-02 at cycle   1 NSaved=   1.
 NSaved= 1 IEnMin= 1 EnMin= -960.202703259273     IErMin= 1 ErrMin= 4.18D-02
 ErrMax= 4.18D-02  0.00D+00 EMaxC= 1.00D-01 BMatC= 5.61D-02 BMatP= 5.61D-02
 IDIUse=3 WtCom= 5.82D-01 WtEn= 4.18D-01
 Coeff-Com:  0.100D+01
 Coeff-En:   0.100D+01
 Coeff:      0.100D+01
 Gap=     0.354 Goal=   None    Shift=    0.000
 GapD=    0.354 DampG=1.000 DampE=0.500 DampFc=0.5000 IDamp=-1.
 Damping current iteration by 5.00D-01
 RMSDP=6.64D-03 MaxDP=9.31D-02              OVMax= 1.91D-01

 Cycle   2  Pass 0  IDiag  1:
 E= -960.231456485128     Delta-E=       -0.028753225855 Rises=F Damp=T
 DIIS: error= 9.99D-03 at cycle   2 NSaved=   2.
 NSaved= 2 IEnMin= 2 EnMin= -960.231456485128     IErMin= 2 ErrMin= 9.99D-03
 ErrMax= 9.99D-03  0.00D+00 EMaxC= 1.00D-01 BMatC= 6.58D-03 BMatP= 5.61D-02
 IDIUse=3 WtCom= 9.00D-01 WtEn= 9.99D-02
 Coeff-Com: -0.129D+00 0.113D+01
 Coeff-En:   0.000D+00 0.100D+01
 Coeff:     -0.116D+00 0.112D+01
 Gap=     0.294 Goal=   None    Shift=    0.000
 RMSDP=1.64D-03 MaxDP=2.26D-02 DE=-2.88D-02 OVMax= 8.80D-02

 Cycle   3  Pass 0  IDiag  1:
 E= -960.257942639533     Delta-E=       -0.026486154405 Rises=F Damp=F
 DIIS: error= 3.45D-03 at cycle   3 NSaved=   3.
 NSaved= 3 IEnMin= 3 EnMin= -960.257942639533     IErMin= 3 ErrMin= 3.45D-03
 ErrMax= 3.45D-03  0.00D+00 EMaxC= 1.00D-01 BMatC= 6.22D-04 BMatP= 6.58D-03
 IDIUse=3 WtCom= 9.65D-01 WtEn= 3.45D-02
 Coeff-Com: -0.859D-01 0.229D+00 0.857D+00
 Coeff-En:   0.000D+00 0.000D+00 0.100D+01
 Coeff:     -0.829D-01 0.221D+00 0.862D+00
 Gap=     0.305 Goal=   None    Shift=    0.000
 RMSDP=7.53D-04 MaxDP=1.25D-02 DE=-2.65D-02 OVMax= 2.37D-02

 Cycle   4  Pass 0  IDiag  1:
 E= -960.258696431249     Delta-E=       -0.000753791716 Rises=F Damp=F
 DIIS: error= 1.19D-03 at cycle   4 NSaved=   4.
 NSaved= 4 IEnMin= 4 EnMin= -960.258696431249     IErMin= 4 ErrMin= 1.19D-03
 ErrMax= 1.19D-03  0.00D+00 EMaxC= 1.00D-01 BMatC= 1.20D-04 BMatP= 6.22D-04
 IDIUse=3 WtCom= 9.88D-01 WtEn= 1.19D-02
 Coeff-Com: -0.147D-01 0.260D-01 0.344D+00 0.645D+00
 Coeff-En:   0.000D+00 0.000D+00 0.232D-02 0.998D+00
 Coeff:     -0.145D-01 0.257D-01 0.340D+00 0.649D+00
 Gap=     0.303 Goal=   None    Shift=    0.000
 RMSDP=2.54D-04 MaxDP=3.72D-03 DE=-7.54D-04 OVMax= 2.92D-03

 Cycle   5  Pass 0  IDiag  1:
 E= -960.258837408658     Delta-E=       -0.000140977409 Rises=F Damp=F
 DIIS: error= 2.67D-04 at cycle   5 NSaved=   5.
 NSaved= 5 IEnMin= 5 EnMin= -960.258837408658     IErMin= 5 ErrMin= 2.67D-04
 ErrMax= 2.67D-04  0.00D+00 EMaxC= 1.00D-01 BMatC= 1.91D-06 BMatP= 1.20D-04
 IDIUse=3 WtCom= 9.97D-01 WtEn= 2.67D-03
 Coeff-Com:  0.712D-02-0.175D-01-0.359D-01-0.786D-01 0.112D+01
 Coeff-En:   0.000D+00 0.000D+00 0.000D+00 0.000D+00 0.100D+01
 Coeff:      0.711D-02-0.174D-01-0.358D-01-0.784D-01 0.112D+01
 Gap=     0.303 Goal=   None    Shift=    0.000
 RMSDP=4.06D-05 MaxDP=4.77D-04 DE=-1.41D-04 OVMax= 8.39D-04

 Cycle   6  Pass 0  IDiag  1:
 E= -960.258840605102     Delta-E=       -0.000003196444 Rises=F Damp=F
 DIIS: error= 3.66D-05 at cycle   6 NSaved=   6.
 NSaved= 6 IEnMin= 6 EnMin= -960.258840605102     IErMin= 6 ErrMin= 3.66D-05
 ErrMax= 3.66D-05  0.00D+00 EMaxC= 1.00D-01 BMatC= 1.24D-07 BMatP= 1.91D-06
 IDIUse=1 WtCom= 1.00D+00 WtEn= 0.00D+00
 Coeff-Com:  0.285D-02-0.605D-02-0.324D-01-0.728D-01 0.269D+00 0.840D+00
 Coeff:      0.285D-02-0.605D-02-0.324D-01-0.728D-01 0.269D+00 0.840D+00
 Gap=     0.303 Goal=   None    Shift=    0.000
 RMSDP=1.13D-05 MaxDP=1.39D-04 DE=-3.20D-06 OVMax= 1.58D-04

 Cycle   7  Pass 0  IDiag  1:
 E= -960.258840784563     Delta-E=       -0.000000179461 Rises=F Damp=F
 DIIS: error= 7.72D-06 at cycle   7 NSaved=   7.
 NSaved= 7 IEnMin= 7 EnMin= -960.258840784563     IErMin= 7 ErrMin= 7.72D-06
 ErrMax= 7.72D-06  0.00D+00 EMaxC= 1.00D-01 BMatC= 1.56D-09 BMatP= 1.24D-07
 IDIUse=1 WtCom= 1.00D+00 WtEn= 0.00D+00
 Coeff-Com: -0.662D-03 0.141D-02 0.525D-02 0.119D-01-0.519D-01-0.817D-01
 Coeff-Com:  0.112D+01
 Coeff:     -0.662D-03 0.141D-02 0.525D-02 0.119D-01-0.519D-01-0.817D-01
 Coeff:      0.112D+01
 Gap=     0.303 Goal=   None    Shift=    0.000
 RMSDP=1.64D-06 MaxDP=2.12D-05 DE=-1.79D-07 OVMax= 2.11D-05

 Initial convergence to 1.0D-05 achieved.  Increase integral accuracy.
 Cycle   8  Pass 1  IDiag  1:
 E= -960.259129607846     Delta-E=       -0.000288823282 Rises=F Damp=F
 DIIS: error= 6.23D-05 at cycle   1 NSaved=   1.
 NSaved= 1 IEnMin= 1 EnMin= -960.259129607846     IErMin= 1 ErrMin= 6.23D-05
 ErrMax= 6.23D-05  0.00D+00 EMaxC= 1.00D-01 BMatC= 1.51D-07 BMatP= 1.51D-07
 IDIUse=1 WtCom= 1.00D+00 WtEn= 0.00D+00
 Coeff-Com:  0.100D+01
 Coeff:      0.100D+01
 Gap=     0.303 Goal=   None    Shift=    0.000
 RMSDP=1.64D-06 MaxDP=2.12D-05 DE=-2.89D-04 OVMax= 9.02D-05

 Cycle   9  Pass 1  IDiag  1:
 E= -960.259129709059     Delta-E=       -0.000000101214 Rises=F Damp=F
 DIIS: error= 1.40D-05 at cycle   2 NSaved=   2.
 NSaved= 2 IEnMin= 2 EnMin= -960.259129709059     IErMin= 2 ErrMin= 1.40D-05
 ErrMax= 1.40D-05  0.00D+00 EMaxC= 1.00D-01 BMatC= 1.00D-08 BMatP= 1.51D-07
 IDIUse=1 WtCom= 1.00D+00 WtEn= 0.00D+00
 Coeff-Com:  0.138D+00 0.862D+00
 Coeff:      0.138D+00 0.862D+00
 Gap=     0.303 Goal=   None    Shift=    0.000
 RMSDP=3.78D-06 MaxDP=6.13D-05 DE=-1.01D-07 OVMax= 7.43D-05

 Cycle  10  Pass 1  IDiag  1:
 E= -960.259129718828     Delta-E=       -0.000000009768 Rises=F Damp=F
 DIIS: error= 7.55D-06 at cycle   3 NSaved=   3.
 NSaved= 3 IEnMin= 3 EnMin= -960.259129718828     IErMin= 3 ErrMin= 7.55D-06
 ErrMax= 7.55D-06  0.00D+00 EMaxC= 1.00D-01 BMatC= 3.65D-09 BMatP= 1.00D-08
 IDIUse=1 WtCom= 1.00D+00 WtEn= 0.00D+00
 Coeff-Com: -0.899D-02 0.357D+00 0.652D+00
 Coeff:     -0.899D-02 0.357D+00 0.652D+00
 Gap=     0.303 Goal=   None    Shift=    0.000
 RMSDP=1.40D-06 MaxDP=2.30D-05 DE=-9.77D-09 OVMax= 2.97D-05

 Cycle  11  Pass 1  IDiag  1:
 E= -960.259129722984     Delta-E=       -0.000000004156 Rises=F Damp=F
 DIIS: error= 2.31D-06 at cycle   4 NSaved=   4.
 NSaved= 4 IEnMin= 4 EnMin= -960.259129722984     IErMin= 4 ErrMin= 2.31D-06
 ErrMax= 2.31D-06  0.00D+00 EMaxC= 1.00D-01 BMatC= 1.60D-10 BMatP= 3.65D-09
 IDIUse=1 WtCom= 1.00D+00 WtEn= 0.00D+00
 Coeff-Com: -0.109D-01 0.837D-01 0.229D+00 0.698D+00
 Coeff:     -0.109D-01 0.837D-01 0.229D+00 0.698D+00
 Gap=     0.303 Goal=   None    Shift=    0.000
 RMSDP=3.05D-07 MaxDP=3.64D-06 DE=-4.16D-09 OVMax= 8.38D-06

 Cycle  12  Pass 1  IDiag  1:
 E= -960.259129723171     Delta-E=       -0.000000000187 Rises=F Damp=F
 DIIS: error= 7.22D-07 at cycle   5 NSaved=   5.
 NSaved= 5 IEnMin= 5 EnMin= -960.259129723171     IErMin= 5 ErrMin= 7.22D-07
 ErrMax= 7.22D-07  0.00D+00 EMaxC= 1.00D-01 BMatC= 1.04D-11 BMatP= 1.60D-10
 IDIUse=1 WtCom= 1.00D+00 WtEn= 0.00D+00
 Coeff-Com: -0.294D-03-0.262D-01-0.401D-01 0.152D+00 0.914D+00
 Coeff:     -0.294D-03-0.262D-01-0.401D-01 0.152D+00 0.914D+00
 Gap=     0.303 Goal=   None    Shift=    0.000
 RMSDP=7.13D-08 MaxDP=9.52D-07 DE=-1.87D-10 OVMax= 1.01D-06

 Cycle  13  Pass 1  IDiag  1:
 E= -960.259129723184     Delta-E=       -0.000000000013 Rises=F Damp=F
 DIIS: error= 2.59D-08 at cycle   6 NSaved=   6.
 NSaved= 6 IEnMin= 6 EnMin= -960.259129723184     IErMin= 6 ErrMin= 2.59D-08
 ErrMax= 2.59D-08  0.00D+00 EMaxC= 1.00D-01 BMatC= 4.57D-14 BMatP= 1.04D-11
 IDIUse=1 WtCom= 1.00D+00 WtEn= 0.00D+00
 Coeff-Com:  0.923D-04 0.720D-03-0.145D-02-0.828D-02-0.524D-01 0.106D+01
 Coeff:      0.923D-04 0.720D-03-0.145D-02-0.828D-02-0.524D-01 0.106D+01
 Gap=     0.303 Goal=   None    Shift=    0.000
 RMSDP=1.03D-08 MaxDP=1.09D-07 DE=-1.32D-11 OVMax= 1.21D-07

 Cycle  14  Pass 1  IDiag  1:
 E= -960.259129723185     Delta-E=       -0.000000000001 Rises=F Damp=F
 DIIS: error= 9.98D-09 at cycle   7 NSaved=   7.
 NSaved= 7 IEnMin= 7 EnMin= -960.259129723185     IErMin= 7 ErrMin= 9.98D-09
 ErrMax= 9.98D-09  0.00D+00 EMaxC= 1.00D-01 BMatC= 3.04D-15 BMatP= 4.57D-14
 IDIUse=1 WtCom= 1.00D+00 WtEn= 0.00D+00
 Coeff-Com:  0.403D-04 0.141D-02 0.150D-02-0.821D-02-0.549D-01 0.186D+00
 Coeff-Com:  0.874D+00
 Coeff:      0.403D-04 0.141D-02 0.150D-02-0.821D-02-0.549D-01 0.186D+00
 Coeff:      0.874D+00
 Gap=     0.303 Goal=   None    Shift=    0.000
 RMSDP=2.54D-09 MaxDP=2.93D-08 DE=-1.14D-12 OVMax= 3.27D-08

 SCF Done:  E(RM062X) =  -960.259129723     A.U. after   14 cycles
            NFock= 14  Conv=0.25D-08     -V/T= 2.0016
 KE= 9.587345313198D+02 PE=-2.512391562529D+03 EE= 4.831183424712D+02
 Leave Link  502 at Wed Oct  7 14:20:11 2020, MaxMem=  2684354560 cpu:              58.4 elap:               5.3
 (Enter /udrive/faculty/rpeverati/g16/g16/l508.exe)
 QCSCF skips out because SCF is already converged.
 Leave Link  508 at Wed Oct  7 14:20:12 2020, MaxMem=  2684354560 cpu:               0.6 elap:               0.6
 (Enter /udrive/faculty/rpeverati/g16/g16/l601.exe)
 Copying SCF densities to generalized density rwf, IOpCl= 0 IROHF=0.

 **********************************************************************

            Population analysis using the SCF density.

 **********************************************************************

 Orbital symmetries:
       Occupied  (A) (A) (A) (A) (A) (A) (A) (A) (A) (A) (A) (A)
                 (A) (A) (A) (A) (A) (A) (A) (A) (A) (A)
       Virtual   (A) (A) (A) (A) (A) (A) (A) (A) (A) (A) (A) (A)
                 (A) (A) (A) (A) (A) (A) (A) (A) (A) (A) (A) (A)
                 (A) (A) (A) (A) (A) (A) (A) (A) (A) (A)
 The electronic state is 1-A.
 Alpha  occ. eigenvalues -- -102.39522-102.39518 -10.45209  -9.55627  -9.55623
 Alpha  occ. eigenvalues --   -7.27596  -7.27592  -7.27308  -7.27308  -7.27304
 Alpha  occ. eigenvalues --   -7.27304  -0.68991  -0.64961  -0.59375  -0.35919
 Alpha  occ. eigenvalues --   -0.35919  -0.22236  -0.15321  -0.15320  -0.14496
 Alpha  occ. eigenvalues --   -0.14495  -0.12218
 Alpha virt. eigenvalues --    0.18083   0.29725   0.36770   0.36772   0.62425
 Alpha virt. eigenvalues --    0.63096   0.68355   0.68360   0.69318   0.69322
 Alpha virt. eigenvalues --    0.73106   0.77207   0.77213   0.80191   0.96468
 Alpha virt. eigenvalues --    0.98778   1.12095   1.12095   1.17199   1.17199
 Alpha virt. eigenvalues --    1.18408   1.18409   1.19859   1.19861   1.20210
 Alpha virt. eigenvalues --    1.22181   1.22181   1.49853   1.55000   1.87327
 Alpha virt. eigenvalues --    1.87327   2.23124   2.43410   2.43413
          Condensed to atoms (all electrons):
               1          2          3          4          5          6
     1  Cl  17.662255   0.066521  -0.029963  -0.029976  -0.029934   0.007963
     2  C    0.066521   5.096710   0.393502   0.393535   0.393469   0.066548
     3  H   -0.029963   0.393502   0.472667  -0.020421  -0.020440  -0.029964
     4  H   -0.029976   0.393535  -0.020421   0.472629  -0.020431  -0.030014
     5  H   -0.029934   0.393469  -0.020440  -0.020431   0.472705  -0.029935
     6  Cl   0.007963   0.066548  -0.029964  -0.030014  -0.029935  17.662114
 Mulliken charges:
               1
     1  Cl  -0.646866
     2  C   -0.410285
     3  H    0.234620
     4  H    0.234677
     5  H    0.234566
     6  Cl  -0.646713
 Sum of Mulliken charges =  -1.00000
 Mulliken charges with hydrogens summed into heavy atoms:
               1
     1  Cl  -0.646866
     2  C    0.293579
     6  Cl  -0.646713
 Electronic spatial extent (au):  <R**2>=            773.7889
 Charge=             -1.0000 electrons
 Dipole moment (field-independent basis, Debye):
    X=             -0.0017    Y=              0.0015    Z=             -0.0015  Tot=              0.0027
 Quadrupole moment (field-independent basis, Debye-Ang):
   XX=            -72.3122   YY=            -35.5257   ZZ=            -35.5256
   XY=              0.0002   XZ=             -0.0080   YZ=             -0.0000
 Traceless Quadrupole moment (field-independent basis, Debye-Ang):
   XX=            -24.5244   YY=             12.2621   ZZ=             12.2623
   XY=              0.0002   XZ=             -0.0080   YZ=             -0.0000
 Octapole moment (field-independent basis, Debye-Ang**2):
  XXX=             -0.0136  YYY=              0.7008  ZZZ=              0.7342  XYY=             -0.0006
  XXY=              0.0023  XXZ=             -0.0019  XZZ=             -0.0014  YZZ=             -0.6979
  YYZ=             -0.7369  XYZ=              0.0003
 Hexadecapole moment (field-independent basis, Debye-Ang**3):
 XXXX=          -1152.3439 YYYY=            -47.1004 ZZZZ=            -47.1023 XXXY=              0.0007
 XXXZ=             -0.1273 YYYX=              0.0002 YYYZ=             -0.0014 ZZZX=             -0.0959
 ZZZY=              0.0013 XXYY=           -174.7627 XXZZ=           -174.7628 YYZZ=            -15.7003
 XXYZ=             -0.0002 YYXZ=             -0.0319 ZZXY=              0.0001
 N-N= 1.102795590152D+02 E-N=-2.512391562300D+03  KE= 9.587345313198D+02
 No NMR shielding tensors so no spin-rotation constants.
 Leave Link  601 at Wed Oct  7 14:20:13 2020, MaxMem=  2684354560 cpu:               4.9 elap:               0.8
 (Enter /udrive/faculty/rpeverati/g16/g16/l701.exe)
 ... and contract with generalized density number  0.
 Compute integral first derivatives.
 R6Disp: Adding Grimme-D3 dispersion energy 1st derivatives to the gradient.
 Leave Link  701 at Wed Oct  7 14:20:14 2020, MaxMem=  2684354560 cpu:               3.5 elap:               0.7
 (Enter /udrive/faculty/rpeverati/g16/g16/l702.exe)
 L702 exits ... SP integral derivatives will be done elsewhere.
 Leave Link  702 at Wed Oct  7 14:20:14 2020, MaxMem=  2684354560 cpu:               0.6 elap:               0.4
 (Enter /udrive/faculty/rpeverati/g16/g16/l703.exe)
 Integral derivatives from FoFJK, PRISM(SPDF).
 Compute integral first derivatives, UseDBF=F ICtDFT=           0.
 Calling FoFJK, ICntrl=      2127 FMM=F ISym2X=0 I1Cent= 0 IOpClX= 0 NMat=1 NMatS=1 NMatT=0.
 FoFJK:  IHMeth= 1 ICntrl=    2127 DoSepK=F KAlg= 0 I1Cent=           0 FoldK=F
 IRaf=         0 NMat=       1 IRICut=       1 DoRegI=T DoRafI=F ISym2E= 0 IDoP0=0 IntGTp=1.
 FoFCou: FMM=F IPFlag=           0 FMFlag=      100000 FMFlg1=         800
         NFxFlg=           0 DoJE=F BraDBF=F KetDBF=F FulRan=T
         wScrn=  0.000000 ICntrl=      2127 IOpCl=  0 I1Cent=           0 NGrid=           0
         NMat0=    1 NMatS0=      1 NMatT0=    0 NMatD0=    1 NMtDS0=    0 NMtDT0=    0
 Symmetry not used in FoFCou.
 Leave Link  703 at Wed Oct  7 14:20:16 2020, MaxMem=  2684354560 cpu:              12.4 elap:               1.4
 (Enter /udrive/faculty/rpeverati/g16/g16/l716.exe)
 Dipole        =-6.64937031D-04 5.82327755D-04-5.72234349D-04
 ***** Axes restored to original set *****
 -------------------------------------------------------------------
 Center     Atomic                   Forces (Hartrees/Bohr)
 Number     Number              X              Y              Z
 -------------------------------------------------------------------
      1       17           0.000015002   -0.000014773   -0.001869382
      2        6          -0.000010616   -0.000030876   -0.000015458
      3        1           0.003074605   -0.003034425    0.000021694
      4        1          -0.004212696   -0.001166073    0.000032705
      5        1           0.001106124    0.004225506   -0.000039965
      6       17           0.000027582    0.000020640    0.001870406
 -------------------------------------------------------------------
 Cartesian Forces:  Max     0.004225506 RMS     0.001883333
 Leave Link  716 at Wed Oct  7 14:20:17 2020, MaxMem=  2684354560 cpu:               1.4 elap:               0.6
 (Enter /udrive/faculty/rpeverati/g16/g16/l103.exe)

 GradGradGradGradGradGradGradGradGradGradGradGradGradGradGradGradGradGrad
 Berny optimization.
 Optmz: redundant internal coordinate code flag= 1
 FormGI is forming the generalized inverse of G from B-inverse, IUseBI=4.
 Internal  Forces:  Max     0.004371152 RMS     0.001786729
 Search for a saddle point.
 Step number   1 out of a maximum of   50
 All quantities printed in internal units (Hartrees-Bohrs-Radians)
 Swapping is turned off.
 Second derivative matrix not updated -- first step.
 The second derivative matrix:
                          R1        R2        R3        R4        R5
           R1           0.07357
           R2           0.00000   0.37334
           R3           0.00000   0.00000   0.37337
           R4           0.00000   0.00000   0.00000   0.37333
           R5           0.00000   0.00000   0.00000   0.00000   0.07360
           A1           0.00000   0.00000   0.00000   0.00000   0.00000
           A2           0.00000   0.00000   0.00000   0.00000   0.00000
           A3           0.00000   0.00000   0.00000   0.00000   0.00000
           A4           0.00000   0.00000   0.00000   0.00000   0.00000
           A5           0.00000   0.00000   0.00000   0.00000   0.00000
           A6           0.00000   0.00000   0.00000   0.00000   0.00000
           A7           0.00000   0.00000   0.00000   0.00000   0.00000
           A8           0.00000   0.00000   0.00000   0.00000   0.00000
           A9           0.00000   0.00000   0.00000   0.00000   0.00000
           A10          0.00000   0.00000   0.00000   0.00000   0.00000
           A11          0.00000   0.00000   0.00000   0.00000   0.00000
           D1           0.00000   0.00000   0.00000   0.00000   0.00000
           D2           0.00000   0.00000   0.00000   0.00000   0.00000
           D3           0.00000   0.00000   0.00000   0.00000   0.00000
           D4           0.00000   0.00000   0.00000   0.00000   0.00000
                          A1        A2        A3        A4        A5
           A1           0.16000
           A2           0.00000   0.16000
           A3           0.00000   0.00000   0.16000
           A4           0.00000   0.00000   0.00000   0.16000
           A5           0.00000   0.00000   0.00000   0.00000   0.16000
           A6           0.00000   0.00000   0.00000   0.00000   0.00000
           A7           0.00000   0.00000   0.00000   0.00000   0.00000
           A8           0.00000   0.00000   0.00000   0.00000   0.00000
           A9           0.00000   0.00000   0.00000   0.00000   0.00000
           A10          0.00000   0.00000   0.00000   0.00000   0.00000
           A11          0.00000   0.00000   0.00000   0.00000   0.00000
           D1           0.00000   0.00000   0.00000   0.00000   0.00000
           D2           0.00000   0.00000   0.00000   0.00000   0.00000
           D3           0.00000   0.00000   0.00000   0.00000   0.00000
           D4           0.00000   0.00000   0.00000   0.00000   0.00000
                          A6        A7        A8        A9        A10
           A6           0.16000
           A7           0.00000   0.16000
           A8           0.00000   0.00000   0.16000
           A9           0.00000   0.00000   0.00000   0.16000
           A10          0.00000   0.00000   0.00000   0.00000   0.00230
           A11          0.00000   0.00000   0.00000   0.00000   0.00000
           D1           0.00000   0.00000   0.00000   0.00000   0.00000
           D2           0.00000   0.00000   0.00000   0.00000   0.00000
           D3           0.00000   0.00000   0.00000   0.00000   0.00000
           D4           0.00000   0.00000   0.00000   0.00000   0.00000
                          A11       D1        D2        D3        D4
           A11          0.00230
           D1           0.00000   0.00510
           D2           0.00000   0.00000   0.00230
           D3           0.00000   0.00000   0.00000   0.00230
           D4           0.00000   0.00000   0.00000   0.00000   0.00230
 ITU=  0
 Eigenvectors of the second derivative matrix:
                           1         2         3         4         5
     Eigenvalues --     0.05673   0.06989   0.06989   0.07357   0.07360
   1         R1         0.00000   0.00000   0.00000   1.00000  -0.00000
   2         R2         0.00000  -0.00000  -0.00000   0.00000   0.00000
   3         R3        -0.00000   0.00000   0.00000  -0.00000   0.00000
   4         R4         0.00000  -0.00000  -0.00000   0.00000  -0.00000
   5         R5         0.00000   0.00000   0.00000   0.00000   1.00000
   6         A1         0.23570   0.26552   0.26899  -0.00000  -0.00000
   7         A2         0.23570  -0.36571   0.09545   0.00000  -0.00000
   8         A3         0.23570   0.10019  -0.36444   0.00000   0.00000
   9         A4         0.00034   0.00001  -0.00038   0.00000   0.00000
  10         A5        -0.00040   0.00059  -0.00033   0.00000   0.00000
  11         A6        -0.23570   0.26552   0.26899  -0.00000  -0.00000
  12         A7         0.00014  -0.00060   0.00071  -0.00000  -0.00000
  13         A8        -0.23570  -0.36571   0.09545   0.00000   0.00000
  14         A9        -0.23570   0.10019  -0.36444   0.00000   0.00000
  15         A10       -0.00000   0.53104   0.53798  -0.00000  -0.00000
  16         A11        0.00000  -0.53798   0.53104  -0.00000   0.00000
  17         D1        -0.81650  -0.00000   0.00000   0.00000   0.00000
  18         D2         0.00050  -0.00009  -0.00054   0.00000   0.00000
  19         D3         0.00066  -0.00081   0.00033  -0.00000  -0.00000
  20         D4         0.00017  -0.00072   0.00087  -0.00000  -0.00000
                           6         7         8         9        10
     Eigenvalues --     0.08115   0.08115   0.16000   0.16000   0.37333
   1         R1         0.00000   0.00000  -0.00000   0.00000  -0.00000
   2         R2         0.00000  -0.00000  -0.00000   0.00000  -0.00000
   3         R3         0.00000   0.00000  -0.00000  -0.00000  -0.00000
   4         R4        -0.00000  -0.00000   0.00000   0.00000  -1.00000
   5         R5         0.00000   0.00000   0.00000  -0.00000   0.00000
   6         A1        -0.00021   0.00000  -0.44203  -0.37141  -0.00000
   7         A2        -0.00015  -0.00093   0.54266  -0.19710   0.00000
   8         A3         0.00063   0.00039  -0.10064   0.56851   0.00000
   9         A4        -0.55770   0.14936   0.00017   0.00023   0.00000
  10         A5         0.14950  -0.55766  -0.00033   0.00002   0.00000
  11         A6        -0.00024   0.00027   0.44203   0.37141  -0.00000
  12         A7         0.40820   0.40830   0.00016  -0.00025  -0.00000
  13         A8        -0.00041  -0.00014  -0.54266   0.19710   0.00000
  14         A9         0.00012   0.00069   0.10064  -0.56851   0.00000
  15         A10       -0.00045   0.00027   0.00000  -0.00000  -0.00000
  16         A11       -0.00068  -0.00114  -0.00000   0.00000  -0.00000
  17         D1        -0.00038   0.00064  -0.00000  -0.00000  -0.00000
  18         D2        -0.55770   0.14936   0.00000   0.00000   0.00000
  19         D3        -0.14950   0.55766  -0.00000   0.00000  -0.00000
  20         D4         0.40820   0.40830  -0.00000   0.00000  -0.00000
                          11        12
     Eigenvalues --     0.37334   0.37337
   1         R1        -0.00000   0.00000
   2         R2         1.00000   0.00000
   3         R3        -0.00000   1.00000
   4         R4        -0.00000  -0.00000
   5         R5        -0.00000  -0.00000
   6         A1         0.00000  -0.00000
   7         A2         0.00000   0.00000
   8         A3        -0.00000   0.00000
   9         A4         0.00000   0.00000
  10         A5         0.00000   0.00000
  11         A6         0.00000  -0.00000
  12         A7        -0.00000  -0.00000
  13         A8        -0.00000   0.00000
  14         A9         0.00000   0.00000
  15         A10        0.00000  -0.00000
  16         A11       -0.00000  -0.00000
  17         D1         0.00000  -0.00000
  18         D2         0.00000   0.00000
  19         D3        -0.00000  -0.00000
  20         D4        -0.00000  -0.00000
 Eigenvalue     1 is   5.67D-02 should be less than     0.000000 Eigenvector:
                          D1        A9        A3        A6        A2
   1                   -0.81650  -0.23570   0.23570  -0.23570   0.23570
                          A1        A8        D3        D2        A5
   1                    0.23570  -0.23570   0.00066   0.00050  -0.00040
 RLam0= 5.67D-02.
 Iter=   1 RLamda= 0.00000000D+00 Sum=-2.47390733D-04.
 Iter=   2 RLamda=-2.47390733D-04 Sum=-2.46971151D-04.
 Iter=   3 RLamda=-2.46971151D-04 Sum=-2.46971861D-04.
 RFO step:  Lambda0=5.673418276D-02 Lambda=-2.46971151D-04.
 Linear search not attempted -- option 19 set.
 Iteration  1 RMS(Cart)=  0.01065269 RMS(Int)=  0.00008999
 Iteration  2 RMS(Cart)=  0.00004814 RMS(Int)=  0.00006306
 Iteration  3 RMS(Cart)=  0.00000000 RMS(Int)=  0.00006306
 ITry= 1 IFail=0 DXMaxC= 3.52D-02 DCOld= 1.00D+10 DXMaxT= 1.00D-01 DXLimC= 3.00D+00 Rises=F
 Variable       Old X    -DE/DX   Delta X   Delta X   Delta X     New X
                                 (Linear)    (Quad)   (Total)
    R1        4.38921  -0.00187   0.00000  -0.02533  -0.02533   4.36388
    R2        2.02045   0.00432   0.00000   0.01156   0.01156   2.03201
    R3        2.02042   0.00437   0.00000   0.01170   0.01170   2.03212
    R4        2.02047   0.00437   0.00000   0.01169   0.01169   2.03216
    R5        4.38881  -0.00187   0.00000  -0.02533  -0.02533   4.36348
    A1        1.57066  -0.00001   0.00000   0.00952   0.00952   1.58018
    A2        1.57067   0.00001   0.00000   0.00995   0.00995   1.58062
    A3        1.57097  -0.00000   0.00000   0.00962   0.00962   1.58059
    A4        2.09439  -0.00000   0.00000  -0.00002  -0.00018   2.09421
    A5        2.09440  -0.00000   0.00000  -0.00003  -0.00020   2.09420
    A6        1.57096  -0.00002   0.00000  -0.00999  -0.00998   1.56097
    A7        2.09440   0.00000   0.00000   0.00005  -0.00011   2.09429
    A8        1.57024   0.00005   0.00000  -0.00921  -0.00921   1.56103
    A9        1.57128  -0.00002   0.00000  -0.00989  -0.00989   1.56139
   A10        3.14162  -0.00003   0.00000  -0.00047  -0.00047   3.14115
   A11        3.14082   0.00004   0.00000   0.00058   0.00058   3.14141
    D1       -3.14149   0.00001   0.00000  -0.03358  -0.03358   3.10812
    D2        2.09439  -0.00000   0.00000  -0.00001  -0.00001   2.09438
    D3       -2.09440   0.00000   0.00000   0.00004   0.00004  -2.09436
    D4        2.09440   0.00000   0.00000   0.00005   0.00005   2.09445
         Item               Value     Threshold  Converged?
 Maximum Force            0.004371     0.000450     NO 
 RMS     Force            0.001787     0.000300     NO 
 Maximum Displacement     0.035176     0.001800     NO 
 RMS     Displacement     0.010653     0.001200     NO 
 Predicted change in Energy=-7.543063D-05
 Lowest energy point so far.  Saving SCF results.
 Largest change from initial coordinates is atom    6       0.019 Angstoms.
 GradGradGradGradGradGradGradGradGradGradGradGradGradGradGradGradGradGrad

 Leave Link  103 at Wed Oct  7 14:20:18 2020, MaxMem=  2684354560 cpu:               4.5 elap:               0.8
 (Enter /udrive/faculty/rpeverati/g16/g16/l202.exe)
                          Input orientation:                          
 ---------------------------------------------------------------------
 Center     Atomic      Atomic             Coordinates (Angstroms)
 Number     Number       Type             X           Y           Z
 ---------------------------------------------------------------------
      1         17           0        0.000562    0.019511    2.314309
      2          6           0        0.000227    0.000492    0.005123
      3          1           0        0.765318   -0.755075    0.001149
      4          1           0       -1.036651   -0.284455   -0.002943
      5          1           0        0.272025    1.040775   -0.014014
      6         17           0        0.000317   -0.019549   -2.303844
 ---------------------------------------------------------------------
                    Distance matrix (angstroms):
                    1          2          3          4          5
     1  Cl   0.000000
     2  C    2.309265   0.000000
     3  H    2.556471   1.075295   0.000000
     4  H    2.556925   1.075350   1.862415   0.000000
     5  H    2.556905   1.075374   1.862430   1.862523   0.000000
     6  Cl   4.618318   2.309053   2.537561   2.537641   2.537998
                    6
     6  Cl   0.000000
 Stoichiometry    CH3Cl2(1-)
 Framework group  C1[X(CH3Cl2)]
 Deg. of freedom    12
 Full point group                 C1      NOp   1
 RotChk:  IX=2 Diff= 1.01D+00
 Largest Abelian subgroup         C1      NOp   1
 Largest concise Abelian subgroup C1      NOp   1
                         Standard orientation:                         
 ---------------------------------------------------------------------
 Center     Atomic      Atomic             Coordinates (Angstroms)
 Number     Number       Type             X           Y           Z
 ---------------------------------------------------------------------
      1         17           0        2.309906   -0.000055   -0.000102
      2          6           0        0.000641    0.000195    0.000391
      3          1           0       -0.009681   -0.070342   -1.072538
      4          1           0       -0.009891   -0.893775    0.597955
      5          1           0       -0.009681    0.964736    0.475770
      6         17           0       -2.308412   -0.000050   -0.000106
 ---------------------------------------------------------------------
 Rotational constants (GHZ):         144.5638257           1.3488605           1.3488596
 Leave Link  202 at Wed Oct  7 14:20:19 2020, MaxMem=  2684354560 cpu:               1.0 elap:               0.4
 (Enter /udrive/faculty/rpeverati/g16/g16/l301.exe)
 Standard basis: 6-31G(d) (5D, 7F)
 Ernie: Thresh=  0.10000D-02 Tol=  0.10000D-05 Strict=F.
 There are    59 symmetry adapted cartesian basis functions of A   symmetry.
 There are    56 symmetry adapted basis functions of A   symmetry.
    56 basis functions,   144 primitive gaussians,    59 cartesian basis functions
    22 alpha electrons       22 beta electrons
       nuclear repulsion energy       110.7642808170 Hartrees.
 IExCor= 4336 DFT=T Ex+Corr=M062X ExCW=0 ScaHFX=  0.540000
 ScaDFX=  1.000000  1.000000  1.000000  1.000000 ScalE2=  1.000000  1.000000
 IRadAn=      5 IRanWt=     -1 IRanGd=            0 ICorTp=0 IEmpDi=131
 NAtoms=    6 NActive=    6 NUniq=    6 SFac= 1.00D+00 NAtFMM=   60 NAOKFM=F Big=F
 Integral buffers will be    131072 words long.
 Raffenetti 2 integral format.
 Two-electron integral symmetry is turned on.
 R6Disp:  Grimme-D3 Dispersion energy=       -0.0000125757 Hartrees.
 Nuclear repulsion after empirical dispersion term =      110.7642682413 Hartrees.
 Leave Link  301 at Wed Oct  7 14:20:19 2020, MaxMem=  2684354560 cpu:               1.4 elap:               0.4
 (Enter /udrive/faculty/rpeverati/g16/g16/l302.exe)
 NPDir=0 NMtPBC=     1 NCelOv=     1 NCel=       1 NClECP=     1 NCelD=      1
         NCelK=      1 NCelE2=     1 NClLst=     1 CellRange=     0.0.
 One-electron integrals computed using PRISM.
 One-electron integral symmetry used in STVInt
 NBasis=    56 RedAO= T EigKep=  2.39D-02  NBF=    56
 NBsUse=    56 1.00D-06 EigRej= -1.00D+00 NBFU=    56
 Precomputing XC quadrature grid using
 IXCGrd= 4 IRadAn=           5 IRanWt=          -1 IRanGd=           0 AccXCQ= 0.00D+00.
 Generated NRdTot=       0 NPtTot=           0 NUsed=           0 NTot=          32
 NSgBfM=    59    59    59    59    59 MxSgAt=     6 MxSgA2=     6.
 Leave Link  302 at Wed Oct  7 14:20:20 2020, MaxMem=  2684354560 cpu:               3.4 elap:               0.5
 (Enter /udrive/faculty/rpeverati/g16/g16/l303.exe)
 DipDrv:  MaxL=1.
 Leave Link  303 at Wed Oct  7 14:20:20 2020, MaxMem=  2684354560 cpu:               1.2 elap:               0.4
 (Enter /udrive/faculty/rpeverati/g16/g16/l401.exe)
 Initial guess from the checkpoint file:  "MN_28_clch3clts_BH76_M062XD30_631Gs.chk"
 SCF N**3 symmetry information disabled.
 B after Tr=     0.000000   -0.000000    0.000000
         Rot=    0.934396   -0.356235   -0.000094   -0.000036 Ang= -41.74 deg.
 Guess basis will be translated and rotated to current coordinates.
 JPrj=2 DoOrth=T DoCkMO=T.
 Generating alternative initial guess.
 ExpMin= 1.43D-01 ExpMax= 2.52D+04 ExpMxC= 3.78D+03 IAcc=2 IRadAn=         4 AccDes= 0.00D+00
 Harris functional with IExCor= 1009 and IRadAn=       4 diagonalized for initial guess.
 HarFok:  IExCor= 1009 AccDes= 0.00D+00 IRadAn=         4 IDoV= 1 UseB2=F ITyADJ=14
 ICtDFT=  3500011 ScaDFX=  1.000000  1.000000  1.000000  1.000000
 FoFCou: FMM=F IPFlag=           0 FMFlag=      100000 FMFlg1=           0
         NFxFlg=           0 DoJE=T BraDBF=F KetDBF=T FulRan=T
         wScrn=  0.000000 ICntrl=       500 IOpCl=  0 I1Cent=   200000004 NGrid=           0
         NMat0=    1 NMatS0=      1 NMatT0=    0 NMatD0=    1 NMtDS0=    0 NMtDT0=    0
 Petite list used in FoFCou.
 Harris En= -959.876519242129    
 Leave Link  401 at Wed Oct  7 14:20:21 2020, MaxMem=  2684354560 cpu:               6.4 elap:               0.8
 (Enter /udrive/faculty/rpeverati/g16/g16/l502.exe)
 Keep R1 ints in memory in canonical form, NReq=11840974.
 FoFCou: FMM=F IPFlag=           0 FMFlag=           0 FMFlg1=           0
         NFxFlg=           0 DoJE=F BraDBF=F KetDBF=F FulRan=T
         wScrn=  0.000000 ICntrl=       600 IOpCl=  0 I1Cent=           0 NGrid=           0
         NMat0=    1 NMatS0=   1596 NMatT0=    0 NMatD0=    1 NMtDS0=    0 NMtDT0=    0
 Symmetry not used in FoFCou.
 Two-electron integral symmetry not used.
 Closed shell SCF:
 Using DIIS extrapolation, IDIIS=  1040.
 NGot=  2684354560 LenX=  2683071684 LenY=  2683067762
 Requested convergence on RMS density matrix=1.00D-08 within 120 cycles.
 Requested convergence on MAX density matrix=1.00D-06.
 Requested convergence on             energy=1.00D-06.
 No special actions if energy rises.
 Integral accuracy reduced to 1.0D-05 until final iterations.

 Cycle   1  Pass 0  IDiag  1:
 E= -960.258823826517    
 DIIS: error= 6.43D-04 at cycle   1 NSaved=   1.
 NSaved= 1 IEnMin= 1 EnMin= -960.258823826517     IErMin= 1 ErrMin= 6.43D-04
 ErrMax= 6.43D-04  0.00D+00 EMaxC= 1.00D-01 BMatC= 3.89D-05 BMatP= 3.89D-05
 IDIUse=3 WtCom= 9.94D-01 WtEn= 6.43D-03
 Coeff-Com:  0.100D+01
 Coeff-En:   0.100D+01
 Coeff:      0.100D+01
 Gap=     0.608 Goal=   None    Shift=    0.000
 RMSDP=1.83D-04 MaxDP=2.09D-03              OVMax= 2.89D-03

 Cycle   2  Pass 0  IDiag  1:
 E= -960.258877003559     Delta-E=       -0.000053177041 Rises=F Damp=F
 DIIS: error= 4.58D-04 at cycle   2 NSaved=   2.
 NSaved= 2 IEnMin= 2 EnMin= -960.258877003559     IErMin= 2 ErrMin= 4.58D-04
 ErrMax= 4.58D-04  0.00D+00 EMaxC= 1.00D-01 BMatC= 6.67D-06 BMatP= 3.89D-05
 IDIUse=3 WtCom= 9.95D-01 WtEn= 4.58D-03
 Coeff-Com:  0.210D+00 0.790D+00
 Coeff-En:   0.000D+00 0.100D+01
 Coeff:      0.209D+00 0.791D+00
 Gap=     0.305 Goal=   None    Shift=    0.000
 RMSDP=7.37D-05 MaxDP=1.04D-03 DE=-5.32D-05 OVMax= 2.26D-03

 Cycle   3  Pass 0  IDiag  1:
 E= -960.258883147577     Delta-E=       -0.000006144018 Rises=F Damp=F
 DIIS: error= 2.35D-04 at cycle   3 NSaved=   3.
 NSaved= 3 IEnMin= 3 EnMin= -960.258883147577     IErMin= 3 ErrMin= 2.35D-04
 ErrMax= 2.35D-04  0.00D+00 EMaxC= 1.00D-01 BMatC= 2.46D-06 BMatP= 6.67D-06
 IDIUse=3 WtCom= 9.98D-01 WtEn= 2.35D-03
 Coeff-Com: -0.262D-01 0.360D+00 0.666D+00
 Coeff-En:   0.000D+00 0.147D+00 0.853D+00
 Coeff:     -0.262D-01 0.359D+00 0.667D+00
 Gap=     0.306 Goal=   None    Shift=    0.000
 RMSDP=2.87D-05 MaxDP=4.15D-04 DE=-6.14D-06 OVMax= 6.13D-04

 Cycle   4  Pass 0  IDiag  1:
 E= -960.258885945126     Delta-E=       -0.000002797549 Rises=F Damp=F
 DIIS: error= 2.67D-05 at cycle   4 NSaved=   4.
 NSaved= 4 IEnMin= 4 EnMin= -960.258885945126     IErMin= 4 ErrMin= 2.67D-05
 ErrMax= 2.67D-05  0.00D+00 EMaxC= 1.00D-01 BMatC= 4.07D-08 BMatP= 2.46D-06
 IDIUse=1 WtCom= 1.00D+00 WtEn= 0.00D+00
 Coeff-Com: -0.202D-01 0.371D-01 0.136D+00 0.847D+00
 Coeff:     -0.202D-01 0.371D-01 0.136D+00 0.847D+00
 Gap=     0.306 Goal=   None    Shift=    0.000
 RMSDP=9.07D-06 MaxDP=1.27D-04 DE=-2.80D-06 OVMax= 1.87D-04

 Initial convergence to 1.0D-05 achieved.  Increase integral accuracy.
 Cycle   5  Pass 1  IDiag  1:
 E= -960.259213239841     Delta-E=       -0.000327294715 Rises=F Damp=F
 DIIS: error= 5.84D-05 at cycle   1 NSaved=   1.
 NSaved= 1 IEnMin= 1 EnMin= -960.259213239841     IErMin= 1 ErrMin= 5.84D-05
 ErrMax= 5.84D-05  0.00D+00 EMaxC= 1.00D-01 BMatC= 1.57D-07 BMatP= 1.57D-07
 IDIUse=1 WtCom= 1.00D+00 WtEn= 0.00D+00
 Coeff-Com:  0.100D+01
 Coeff:      0.100D+01
 Gap=     0.306 Goal=   None    Shift=    0.000
 RMSDP=9.07D-06 MaxDP=1.27D-04 DE=-3.27D-04 OVMax= 8.06D-05

 Cycle   6  Pass 1  IDiag  1:
 E= -960.259213339919     Delta-E=       -0.000000100079 Rises=F Damp=F
 DIIS: error= 1.56D-05 at cycle   2 NSaved=   2.
 NSaved= 2 IEnMin= 2 EnMin= -960.259213339919     IErMin= 2 ErrMin= 1.56D-05
 ErrMax= 1.56D-05  0.00D+00 EMaxC= 1.00D-01 BMatC= 1.45D-08 BMatP= 1.57D-07
 IDIUse=1 WtCom= 1.00D+00 WtEn= 0.00D+00
 Coeff-Com:  0.170D+00 0.830D+00
 Coeff:      0.170D+00 0.830D+00
 Gap=     0.306 Goal=   None    Shift=    0.000
 RMSDP=4.38D-06 MaxDP=7.89D-05 DE=-1.00D-07 OVMax= 1.02D-04

 Cycle   7  Pass 1  IDiag  1:
 E= -960.259213353394     Delta-E=       -0.000000013475 Rises=F Damp=F
 DIIS: error= 8.59D-06 at cycle   3 NSaved=   3.
 NSaved= 3 IEnMin= 3 EnMin= -960.259213353394     IErMin= 3 ErrMin= 8.59D-06
 ErrMax= 8.59D-06  0.00D+00 EMaxC= 1.00D-01 BMatC= 5.74D-09 BMatP= 1.45D-08
 IDIUse=1 WtCom= 1.00D+00 WtEn= 0.00D+00
 Coeff-Com: -0.338D-02 0.375D+00 0.628D+00
 Coeff:     -0.338D-02 0.375D+00 0.628D+00
 Gap=     0.306 Goal=   None    Shift=    0.000
 RMSDP=1.55D-06 MaxDP=2.51D-05 DE=-1.35D-08 OVMax= 3.64D-05

 Cycle   8  Pass 1  IDiag  1:
 E= -960.259213360004     Delta-E=       -0.000000006610 Rises=F Damp=F
 DIIS: error= 2.00D-06 at cycle   4 NSaved=   4.
 NSaved= 4 IEnMin= 4 EnMin= -960.259213360004     IErMin= 4 ErrMin= 2.00D-06
 ErrMax= 2.00D-06  0.00D+00 EMaxC= 1.00D-01 BMatC= 1.58D-10 BMatP= 5.74D-09
 IDIUse=1 WtCom= 1.00D+00 WtEn= 0.00D+00
 Coeff-Com: -0.120D-01 0.758D-01 0.190D+00 0.746D+00
 Coeff:     -0.120D-01 0.758D-01 0.190D+00 0.746D+00
 Gap=     0.306 Goal=   None    Shift=    0.000
 RMSDP=3.52D-07 MaxDP=4.13D-06 DE=-6.61D-09 OVMax= 7.34D-06

 Cycle   9  Pass 1  IDiag  1:
 E= -960.259213360205     Delta-E=       -0.000000000201 Rises=F Damp=F
 DIIS: error= 5.11D-07 at cycle   5 NSaved=   5.
 NSaved= 5 IEnMin= 5 EnMin= -960.259213360205     IErMin= 5 ErrMin= 5.11D-07
 ErrMax= 5.11D-07  0.00D+00 EMaxC= 1.00D-01 BMatC= 1.03D-11 BMatP= 1.58D-10
 IDIUse=1 WtCom= 1.00D+00 WtEn= 0.00D+00
 Coeff-Com: -0.462D-03-0.289D-01-0.458D-01 0.131D+00 0.944D+00
 Coeff:     -0.462D-03-0.289D-01-0.458D-01 0.131D+00 0.944D+00
 Gap=     0.306 Goal=   None    Shift=    0.000
 RMSDP=9.73D-08 MaxDP=1.58D-06 DE=-2.01D-10 OVMax= 1.12D-06

 Cycle  10  Pass 1  IDiag  1:
 E= -960.259213360218     Delta-E=       -0.000000000013 Rises=F Damp=F
 DIIS: error= 2.53D-08 at cycle   6 NSaved=   6.
 NSaved= 6 IEnMin= 6 EnMin= -960.259213360218     IErMin= 6 ErrMin= 2.53D-08
 ErrMax= 2.53D-08  0.00D+00 EMaxC= 1.00D-01 BMatC= 8.26D-14 BMatP= 1.03D-11
 IDIUse=1 WtCom= 1.00D+00 WtEn= 0.00D+00
 Coeff-Com:  0.103D-03-0.252D-02-0.614D-02 0.245D-02 0.591D-01 0.947D+00
 Coeff:      0.103D-03-0.252D-02-0.614D-02 0.245D-02 0.591D-01 0.947D+00
 Gap=     0.306 Goal=   None    Shift=    0.000
 RMSDP=1.52D-08 MaxDP=2.04D-07 DE=-1.27D-11 OVMax= 2.28D-07

 Cycle  11  Pass 1  IDiag  1:
 E= -960.259213360221     Delta-E=       -0.000000000003 Rises=F Damp=F
 DIIS: error= 1.40D-08 at cycle   7 NSaved=   7.
 NSaved= 7 IEnMin= 7 EnMin= -960.259213360221     IErMin= 7 ErrMin= 1.40D-08
 ErrMax= 1.40D-08  0.00D+00 EMaxC= 1.00D-01 BMatC= 2.14D-14 BMatP= 8.26D-14
 IDIUse=1 WtCom= 1.00D+00 WtEn= 0.00D+00
 Coeff-Com:  0.723D-04 0.165D-02 0.162D-02-0.993D-02-0.618D-01 0.316D+00
 Coeff-Com:  0.753D+00
 Coeff:      0.723D-04 0.165D-02 0.162D-02-0.993D-02-0.618D-01 0.316D+00
 Coeff:      0.753D+00
 Gap=     0.306 Goal=   None    Shift=    0.000
 RMSDP=5.68D-09 MaxDP=8.28D-08 DE=-2.96D-12 OVMax= 1.12D-07

 SCF Done:  E(RM062X) =  -960.259213360     A.U. after   11 cycles
            NFock= 11  Conv=0.57D-08     -V/T= 2.0016
 KE= 9.587252955532D+02 PE=-2.513382706091D+03 EE= 4.836339289358D+02
 Leave Link  502 at Wed Oct  7 14:20:26 2020, MaxMem=  2684354560 cpu:              50.6 elap:               4.7
 (Enter /udrive/faculty/rpeverati/g16/g16/l508.exe)
 QCSCF skips out because SCF is already converged.
 Leave Link  508 at Wed Oct  7 14:20:27 2020, MaxMem=  2684354560 cpu:               0.3 elap:               0.5
 (Enter /udrive/faculty/rpeverati/g16/g16/l701.exe)
 ... and contract with generalized density number  0.
 Compute integral first derivatives.
 R6Disp: Adding Grimme-D3 dispersion energy 1st derivatives to the gradient.
 Leave Link  701 at Wed Oct  7 14:20:28 2020, MaxMem=  2684354560 cpu:               3.3 elap:               0.6
 (Enter /udrive/faculty/rpeverati/g16/g16/l702.exe)
 L702 exits ... SP integral derivatives will be done elsewhere.
 Leave Link  702 at Wed Oct  7 14:20:28 2020, MaxMem=  2684354560 cpu:               0.9 elap:               0.3
 (Enter /udrive/faculty/rpeverati/g16/g16/l703.exe)
 Integral derivatives from FoFJK, PRISM(SPDF).
 Compute integral first derivatives, UseDBF=F ICtDFT=           0.
 Calling FoFJK, ICntrl=      2127 FMM=F ISym2X=0 I1Cent= 0 IOpClX= 0 NMat=1 NMatS=1 NMatT=0.
 FoFJK:  IHMeth= 1 ICntrl=    2127 DoSepK=F KAlg= 0 I1Cent=           0 FoldK=F
 IRaf=         0 NMat=       1 IRICut=       1 DoRegI=T DoRafI=F ISym2E= 0 IDoP0=0 IntGTp=1.
 FoFCou: FMM=F IPFlag=           0 FMFlag=      100000 FMFlg1=         800
         NFxFlg=           0 DoJE=F BraDBF=F KetDBF=F FulRan=T
         wScrn=  0.000000 ICntrl=      2127 IOpCl=  0 I1Cent=           0 NGrid=           0
         NMat0=    1 NMatS0=      1 NMatT0=    0 NMatD0=    1 NMtDS0=    0 NMtDT0=    0
 Symmetry not used in FoFCou.
 Leave Link  703 at Wed Oct  7 14:20:30 2020, MaxMem=  2684354560 cpu:              12.3 elap:               1.3
 (Enter /udrive/faculty/rpeverati/g16/g16/l716.exe)
 Dipole        = 1.10194798D-02 2.56975810D-04 5.34002213D-04
 ***** Axes restored to original set *****
 -------------------------------------------------------------------
 Center     Atomic                   Forces (Hartrees/Bohr)
 Number     Number              X              Y              Z
 -------------------------------------------------------------------
      1       17           0.000002079   -0.000022355   -0.001154988
      2        6          -0.000006738    0.000006342   -0.000374785
      3        1          -0.000352938    0.000344485    0.000859663
      4        1           0.000471662    0.000145985    0.000876248
      5        1          -0.000123383   -0.000455026    0.000865003
      6       17           0.000009318   -0.000019431   -0.001071142
 -------------------------------------------------------------------
 Cartesian Forces:  Max     0.001154988 RMS     0.000557136
 Leave Link  716 at Wed Oct  7 14:20:31 2020, MaxMem=  2684354560 cpu:               1.2 elap:               0.6
 (Enter /udrive/faculty/rpeverati/g16/g16/l103.exe)

 GradGradGradGradGradGradGradGradGradGradGradGradGradGradGradGradGradGrad
 Berny optimization.
 Optmz: redundant internal coordinate code flag= 1
 Red2BG:  D1=  2.60D-01 OD1=  4.19D-02 B2RMS=  0.00D+00 IAprox=0
 FormGI is forming the generalized inverse of G from B-inverse, IUseBI=4.
 Internal  Forces:  Max     0.001155133 RMS     0.000487504
 Search for a saddle point.
 Step number   2 out of a maximum of   50
 All quantities printed in internal units (Hartrees-Bohrs-Radians)
 Swapping is turned off.
 Update second derivatives using D2CorX and points    1    2
 The second derivative matrix:
                          R1        R2        R3        R4        R5
           R1           0.05747
           R2          -0.00093   0.37687
           R3          -0.00093   0.00356   0.37696
           R4          -0.00082   0.00352   0.00355   0.37684
           R5           0.00192  -0.00767  -0.00775  -0.00766   0.09030
           A1           0.01250  -0.00206  -0.00209  -0.00214   0.00457
           A2           0.01308  -0.00216  -0.00219  -0.00224   0.00479
           A3           0.01283  -0.00216  -0.00219  -0.00224   0.00478
           A4          -0.00023   0.00004   0.00004   0.00004  -0.00008
           A5          -0.00017   0.00001   0.00001   0.00001  -0.00002
           A6          -0.01321   0.00220   0.00223   0.00228  -0.00488
           A7          -0.00012   0.00002   0.00002   0.00002  -0.00004
           A8          -0.01229   0.00207   0.00210   0.00214  -0.00459
           A9          -0.01290   0.00211   0.00214   0.00219  -0.00468
           A10         -0.00011  -0.00009  -0.00009  -0.00008   0.00019
           A11         -0.00025   0.00025   0.00026   0.00025  -0.00055
           D1          -0.00226  -0.00837  -0.00845  -0.00833   0.01820
           D2          -0.00003   0.00001   0.00001   0.00001  -0.00002
           D3          -0.00005   0.00003   0.00003   0.00003  -0.00007
           D4          -0.00002   0.00002   0.00002   0.00002  -0.00005
                          A1        A2        A3        A4        A5
           A1           0.15246
           A2          -0.00788   0.15176
           A3          -0.00770  -0.00806   0.15213
           A4           0.00014   0.00015   0.00014   0.16000
           A5           0.00012   0.00012   0.00012  -0.00000   0.16000
           A6           0.00795   0.00831   0.00812  -0.00015  -0.00012
           A7           0.00008   0.00008   0.00008  -0.00000  -0.00000
           A8           0.00738   0.00772   0.00754  -0.00014  -0.00011
           A9           0.00779   0.00815   0.00797  -0.00014  -0.00012
           A10          0.00015   0.00016   0.00016  -0.00000  -0.00000
           A11         -0.00002  -0.00002  -0.00002   0.00000  -0.00000
           D1           0.00817   0.00856   0.00848  -0.00015  -0.00006
           D2           0.00002   0.00002   0.00002  -0.00000  -0.00000
           D3           0.00002   0.00002   0.00002  -0.00000  -0.00000
           D4          -0.00000  -0.00000  -0.00000   0.00000  -0.00000
                          A6        A7        A8        A9        A10
           A6           0.15162
           A7          -0.00008   0.16000
           A8          -0.00778  -0.00008   0.15278
           A9          -0.00822  -0.00008  -0.00763   0.15194
           A10         -0.00016  -0.00000  -0.00015  -0.00015   0.00230
           A11          0.00002  -0.00000   0.00002   0.00002  -0.00001
           D1          -0.00869  -0.00007  -0.00814  -0.00840   0.00017
           D2          -0.00002  -0.00000  -0.00002  -0.00002  -0.00000
           D3          -0.00002  -0.00000  -0.00002  -0.00002  -0.00000
           D4           0.00000  -0.00000   0.00000   0.00000  -0.00000
                          A11       D1        D2        D3        D4
           A11          0.00232
           D1          -0.00065   0.02377
           D2           0.00000  -0.00003   0.00230
           D3           0.00000  -0.00009  -0.00000   0.00230
           D4           0.00000  -0.00006   0.00000   0.00000   0.00230
 ITU=  0  0
 Eigenvectors of the second derivative matrix:
                           1         2         3         4         5
     Eigenvalues --     0.02157   0.06862   0.06987   0.06988   0.08115
   1         R1        -0.48792  -0.86608   0.00158   0.10208  -0.00100
   2         R2        -0.00799   0.00072  -0.00011  -0.00005   0.00009
   3         R3        -0.00800   0.00074  -0.00011  -0.00005   0.00009
   4         R4        -0.00747   0.00081  -0.00011  -0.00005   0.00009
   5         R5         0.11402  -0.10228   0.01879   0.00884   0.00748
   6         A1         0.19839  -0.15095   0.10151  -0.35265  -0.01750
   7         A2         0.20622  -0.08235   0.26444   0.27681   0.01541
   8         A3         0.20718  -0.10380  -0.36528   0.10262   0.00046
   9         A4        -0.00941   0.01500  -0.01911   0.00317  -0.03450
  10         A5        -0.00520  -0.00028   0.01383   0.01352  -0.48146
  11         A6        -0.21071   0.07339   0.10116  -0.37077  -0.00794
  12         A7        -0.00587  -0.00344   0.00525  -0.01758   0.51601
  13         A8        -0.19887   0.14298   0.26423   0.25912   0.00849
  14         A9        -0.20220   0.12074  -0.36606   0.08485   0.00093
  15         A10       -0.01232  -0.07756   0.20267  -0.72342  -0.02545
  16         A11        0.00137   0.02522   0.72750   0.20119   0.01292
  17         D1        -0.70625   0.38935  -0.00114  -0.03086   0.00107
  18         D2        -0.00246   0.01133  -0.02531   0.00505  -0.03452
  19         D3        -0.00167   0.00352  -0.01830  -0.01823   0.48144
  20         D4         0.00079  -0.00781   0.00701  -0.02328   0.51595
                           6         7         8         9        10
     Eigenvalues --     0.08115   0.09082   0.16000   0.16000   0.37334
   1         R1        -0.01413  -0.03454  -0.00162   0.00003   0.00024
   2         R2        -0.00002   0.02768  -0.00016   0.00002  -0.61446
   3         R3        -0.00003   0.02794  -0.00016   0.00002  -0.15461
   4         R4        -0.00003   0.02756  -0.00016   0.00002   0.77365
   5         R5        -0.00218   0.98689  -0.00086   0.00009  -0.00003
   6         A1        -0.01397  -0.03721  -0.26551  -0.51239  -0.00006
   7         A2        -0.01634  -0.03929   0.57718   0.02593  -0.00007
   8         A3         0.01460  -0.02875  -0.31037   0.48653  -0.00007
   9         A4        -0.57558   0.00195  -0.00529   0.00824   0.00000
  10         A5         0.31794   0.00454   0.00959   0.00031   0.00000
  11         A6         0.00082   0.03338   0.26548   0.51239   0.00007
  12         A7         0.25817  -0.00296  -0.00434  -0.00855   0.00000
  13         A8        -0.00056   0.02967  -0.57714  -0.02594   0.00006
  14         A9         0.01526   0.04220   0.31036  -0.48653   0.00007
  15         A10       -0.01314  -0.00383  -0.00003   0.00000   0.00001
  16         A11       -0.02679  -0.01332   0.00002  -0.00000  -0.00000
  17         D1         0.00694   0.12151  -0.00162   0.00005   0.00023
  18         D2        -0.57569   0.00088   0.00001   0.00000  -0.00000
  19         D3        -0.31773  -0.00328   0.00001  -0.00000  -0.00000
  20         D4         0.25797  -0.00416  -0.00000  -0.00000   0.00000
                          11        12
     Eigenvalues --     0.37336   0.38472
   1         R1        -0.00005  -0.00381
   2         R2        -0.53941   0.57502
   3         R3         0.79793   0.58185
   4         R4        -0.26896   0.57298
   5         R5         0.00005  -0.04577
   6         A1         0.00001   0.00461
   7         A2         0.00001   0.00502
   8         A3         0.00001   0.00417
   9         A4         0.00000  -0.00027
  10         A5        -0.00000  -0.00019
  11         A6        -0.00001  -0.00451
  12         A7        -0.00000  -0.00000
  13         A8        -0.00001  -0.00440
  14         A9        -0.00001  -0.00489
  15         A10       -0.00000   0.00010
  16         A11       -0.00000   0.00077
  17         D1        -0.00003  -0.01594
  18         D2         0.00000  -0.00012
  19         D3         0.00000   0.00004
  20         D4        -0.00000   0.00015
 Eigenvalue     1 is   2.16D-02 should be less than     0.000000 Eigenvector:
                          D1        R1        A6        A3        A2
   1                   -0.70625  -0.48792  -0.21071   0.20718   0.20622
                          A9        A8        A1        R5        A10
   1                   -0.20220  -0.19887   0.19839   0.11402  -0.01232
 RLam0= 2.16D-02.
 Iter=   1 RLamda= 0.00000000D+00 Sum=-5.15067838D-05.
 Iter=   2 RLamda=-5.15067838D-05 Sum=-5.14726332D-05.
 Iter=   3 RLamda=-5.14726332D-05 Sum=-5.14726558D-05.
 RFO step:  Lambda0=2.157935451D-02 Lambda=-5.14726332D-05.
 Linear search not attempted -- option 19 set.
 Iteration  1 RMS(Cart)=  0.00588515 RMS(Int)=  0.00000449
 Iteration  2 RMS(Cart)=  0.00000273 RMS(Int)=  0.00000360
 Iteration  3 RMS(Cart)=  0.00000000 RMS(Int)=  0.00000360
 ITry= 1 IFail=0 DXMaxC= 2.19D-02 DCOld= 1.00D+10 DXMaxT= 1.00D-01 DXLimC= 3.00D+00 Rises=F
 Variable       Old X    -DE/DX   Delta X   Delta X   Delta X     New X
                                 (Linear)    (Quad)   (Total)
    R1        4.36388  -0.00116   0.00000  -0.03192  -0.03192   4.33196
    R2        2.03201  -0.00050   0.00000  -0.00120  -0.00120   2.03081
    R3        2.03212  -0.00050   0.00000  -0.00121  -0.00121   2.03091
    R4        2.03216  -0.00049   0.00000  -0.00116  -0.00116   2.03100
    R5        4.36348   0.00107   0.00000   0.01429   0.01429   4.37777
    A1        1.58018  -0.00030   0.00000   0.00194   0.00194   1.58212
    A2        1.58062  -0.00030   0.00000   0.00240   0.00240   1.58302
    A3        1.58059  -0.00027   0.00000   0.00259   0.00259   1.58318
    A4        2.09421   0.00000   0.00000  -0.00020  -0.00021   2.09400
    A5        2.09420   0.00002   0.00000   0.00003   0.00002   2.09422
    A6        1.56097   0.00027   0.00000  -0.00277  -0.00277   1.55820
    A7        2.09429   0.00001   0.00000  -0.00007  -0.00007   2.09421
    A8        1.56103   0.00031   0.00000  -0.00201  -0.00201   1.55902
    A9        1.56139   0.00030   0.00000  -0.00215  -0.00215   1.55924
   A10        3.14115  -0.00003   0.00000  -0.00083  -0.00083   3.14032
   A11        3.14141  -0.00001   0.00000  -0.00003  -0.00003   3.14138
    D1        3.10812   0.00101   0.00000  -0.00801  -0.00801   3.10011
    D2        2.09438  -0.00001   0.00000  -0.00012  -0.00012   2.09426
    D3       -2.09436  -0.00001   0.00000  -0.00011  -0.00012  -2.09448
    D4        2.09445  -0.00000   0.00000   0.00000   0.00000   2.09445
         Item               Value     Threshold  Converged?
 Maximum Force            0.001155     0.000450     NO 
 RMS     Force            0.000488     0.000300     NO 
 Maximum Displacement     0.021871     0.001800     NO 
 RMS     Displacement     0.005886     0.001200     NO 
 Predicted change in Energy=-8.979952D-06
 Lowest energy point so far.  Saving SCF results.
 Largest change from initial coordinates is atom    5       0.012 Angstoms.
 GradGradGradGradGradGradGradGradGradGradGradGradGradGradGradGradGradGrad

 Leave Link  103 at Wed Oct  7 14:20:31 2020, MaxMem=  2684354560 cpu:               1.8 elap:               0.6
 (Enter /udrive/faculty/rpeverati/g16/g16/l202.exe)
                          Input orientation:                          
 ---------------------------------------------------------------------
 Center     Atomic      Atomic             Coordinates (Angstroms)
 Number     Number       Type             X           Y           Z
 ---------------------------------------------------------------------
      1         17           0        0.000975    0.018954    2.302736
      2          6           0        0.000021    0.000781    0.010436
      3          1           0        0.764581   -0.754400    0.003936
      4          1           0       -1.036202   -0.284056   -0.000012
      5          1           0        0.271623    1.040430   -0.011227
      6         17           0        0.000800   -0.020011   -2.306087
 ---------------------------------------------------------------------
                    Distance matrix (angstroms):
                    1          2          3          4          5
     1  Cl   0.000000
     2  C    2.292372   0.000000
     3  H    2.542765   1.074659   0.000000
     4  H    2.543659   1.074710   1.861198   0.000000
     5  H    2.543833   1.074759   1.861358   1.861397   0.000000
     6  Cl   4.608988   2.316617   2.541436   2.542258   2.542492
                    6
     6  Cl   0.000000
 Stoichiometry    CH3Cl2(1-)
 Framework group  C1[X(CH3Cl2)]
 Deg. of freedom    12
 Full point group                 C1      NOp   1
 RotChk:  IX=2 Diff= 5.38D-01
 Largest Abelian subgroup         C1      NOp   1
 Largest concise Abelian subgroup C1      NOp   1
                         Standard orientation:                         
 ---------------------------------------------------------------------
 Center     Atomic      Atomic             Coordinates (Angstroms)
 Number     Number       Type             X           Y           Z
 ---------------------------------------------------------------------
      1         17           0        2.302855   -0.000179   -0.000255
      2          6           0        0.010483    0.000681    0.000957
      3          1           0       -0.002373   -0.464975   -0.967490
      4          1           0       -0.002412   -0.605345    0.888407
      5          1           0       -0.002379    1.072303    0.081999
      6         17           0       -2.306133   -0.000178   -0.000254
 ---------------------------------------------------------------------
 Rotational constants (GHZ):         144.7397031           1.3543052           1.3543036
 Leave Link  202 at Wed Oct  7 14:20:32 2020, MaxMem=  2684354560 cpu:               1.1 elap:               0.4
 (Enter /udrive/faculty/rpeverati/g16/g16/l301.exe)
 Standard basis: 6-31G(d) (5D, 7F)
 Ernie: Thresh=  0.10000D-02 Tol=  0.10000D-05 Strict=F.
 There are    59 symmetry adapted cartesian basis functions of A   symmetry.
 There are    56 symmetry adapted basis functions of A   symmetry.
    56 basis functions,   144 primitive gaussians,    59 cartesian basis functions
    22 alpha electrons       22 beta electrons
       nuclear repulsion energy       110.9702417613 Hartrees.
 IExCor= 4336 DFT=T Ex+Corr=M062X ExCW=0 ScaHFX=  0.540000
 ScaDFX=  1.000000  1.000000  1.000000  1.000000 ScalE2=  1.000000  1.000000
 IRadAn=      5 IRanWt=     -1 IRanGd=            0 ICorTp=0 IEmpDi=131
 NAtoms=    6 NActive=    6 NUniq=    6 SFac= 1.00D+00 NAtFMM=   60 NAOKFM=F Big=F
 Integral buffers will be    131072 words long.
 Raffenetti 2 integral format.
 Two-electron integral symmetry is turned on.
 R6Disp:  Grimme-D3 Dispersion energy=       -0.0000123884 Hartrees.
 Nuclear repulsion after empirical dispersion term =      110.9702293729 Hartrees.
 Leave Link  301 at Wed Oct  7 14:20:33 2020, MaxMem=  2684354560 cpu:               1.5 elap:               0.5
 (Enter /udrive/faculty/rpeverati/g16/g16/l302.exe)
 NPDir=0 NMtPBC=     1 NCelOv=     1 NCel=       1 NClECP=     1 NCelD=      1
         NCelK=      1 NCelE2=     1 NClLst=     1 CellRange=     0.0.
 One-electron integrals computed using PRISM.
 One-electron integral symmetry used in STVInt
 NBasis=    56 RedAO= T EigKep=  2.39D-02  NBF=    56
 NBsUse=    56 1.00D-06 EigRej= -1.00D+00 NBFU=    56
 Precomputing XC quadrature grid using
 IXCGrd= 4 IRadAn=           5 IRanWt=          -1 IRanGd=           0 AccXCQ= 0.00D+00.
 Generated NRdTot=       0 NPtTot=           0 NUsed=           0 NTot=          32
 NSgBfM=    59    59    59    59    59 MxSgAt=     6 MxSgA2=     6.
 Leave Link  302 at Wed Oct  7 14:20:34 2020, MaxMem=  2684354560 cpu:               3.7 elap:               0.8
 (Enter /udrive/faculty/rpeverati/g16/g16/l303.exe)
 DipDrv:  MaxL=1.
 Leave Link  303 at Wed Oct  7 14:20:35 2020, MaxMem=  2684354560 cpu:               1.4 elap:               0.5
 (Enter /udrive/faculty/rpeverati/g16/g16/l401.exe)
 Initial guess from the checkpoint file:  "MN_28_clch3clts_BH76_M062XD30_631Gs.chk"
 SCF N**3 symmetry information disabled.
 B after Tr=    -0.000000    0.000000    0.000000
         Rot=    0.981771    0.190070   -0.000001   -0.000001 Ang=  21.91 deg.
 Guess basis will be translated and rotated to current coordinates.
 JPrj=2 DoOrth=T DoCkMO=T.
 Generating alternative initial guess.
 ExpMin= 1.43D-01 ExpMax= 2.52D+04 ExpMxC= 3.78D+03 IAcc=2 IRadAn=         4 AccDes= 0.00D+00
 Harris functional with IExCor= 1009 and IRadAn=       4 diagonalized for initial guess.
 HarFok:  IExCor= 1009 AccDes= 0.00D+00 IRadAn=         4 IDoV= 1 UseB2=F ITyADJ=14
 ICtDFT=  3500011 ScaDFX=  1.000000  1.000000  1.000000  1.000000
 FoFCou: FMM=F IPFlag=           0 FMFlag=      100000 FMFlg1=           0
         NFxFlg=           0 DoJE=T BraDBF=F KetDBF=T FulRan=T
         wScrn=  0.000000 ICntrl=       500 IOpCl=  0 I1Cent=   200000004 NGrid=           0
         NMat0=    1 NMatS0=      1 NMatT0=    0 NMatD0=    1 NMtDS0=    0 NMtDT0=    0
 Petite list used in FoFCou.
 Harris En= -959.876721242025    
 Leave Link  401 at Wed Oct  7 14:20:36 2020, MaxMem=  2684354560 cpu:               6.9 elap:               1.1
 (Enter /udrive/faculty/rpeverati/g16/g16/l502.exe)
 Keep R1 ints in memory in canonical form, NReq=11840974.
 FoFCou: FMM=F IPFlag=           0 FMFlag=           0 FMFlg1=           0
         NFxFlg=           0 DoJE=F BraDBF=F KetDBF=F FulRan=T
         wScrn=  0.000000 ICntrl=       600 IOpCl=  0 I1Cent=           0 NGrid=           0
         NMat0=    1 NMatS0=   1596 NMatT0=    0 NMatD0=    1 NMtDS0=    0 NMtDT0=    0
 Symmetry not used in FoFCou.
 Two-electron integral symmetry not used.
 Closed shell SCF:
 Using DIIS extrapolation, IDIIS=  1040.
 NGot=  2684354560 LenX=  2683071684 LenY=  2683067762
 Requested convergence on RMS density matrix=1.00D-08 within 120 cycles.
 Requested convergence on MAX density matrix=1.00D-06.
 Requested convergence on             energy=1.00D-06.
 No special actions if energy rises.
 Integral accuracy reduced to 1.0D-05 until final iterations.

 Cycle   1  Pass 0  IDiag  1:
 E= -960.258891991076    
 DIIS: error= 5.45D-04 at cycle   1 NSaved=   1.
 NSaved= 1 IEnMin= 1 EnMin= -960.258891991076     IErMin= 1 ErrMin= 5.45D-04
 ErrMax= 5.45D-04  0.00D+00 EMaxC= 1.00D-01 BMatC= 1.28D-05 BMatP= 1.28D-05
 IDIUse=3 WtCom= 9.95D-01 WtEn= 5.45D-03
 Coeff-Com:  0.100D+01
 Coeff-En:   0.100D+01
 Coeff:      0.100D+01
 Gap=     0.606 Goal=   None    Shift=    0.000
 RMSDP=1.56D-04 MaxDP=2.37D-03              OVMax= 4.53D-03

 Cycle   2  Pass 0  IDiag  1:
 E= -960.258924542626     Delta-E=       -0.000032551550 Rises=F Damp=F
 DIIS: error= 1.34D-04 at cycle   2 NSaved=   2.
 NSaved= 2 IEnMin= 2 EnMin= -960.258924542626     IErMin= 2 ErrMin= 1.34D-04
 ErrMax= 1.34D-04  0.00D+00 EMaxC= 1.00D-01 BMatC= 1.42D-06 BMatP= 1.28D-05
 IDIUse=3 WtCom= 9.99D-01 WtEn= 1.34D-03
 Coeff-Com: -0.878D-02 0.101D+01
 Coeff-En:   0.000D+00 0.100D+01
 Coeff:     -0.877D-02 0.101D+01
 Gap=     0.307 Goal=   None    Shift=    0.000
 RMSDP=5.15D-05 MaxDP=7.50D-04 DE=-3.26D-05 OVMax= 6.86D-04

 Cycle   3  Pass 0  IDiag  1:
 E= -960.258925942937     Delta-E=       -0.000001400311 Rises=F Damp=F
 DIIS: error= 8.12D-05 at cycle   3 NSaved=   3.
 NSaved= 3 IEnMin= 3 EnMin= -960.258925942937     IErMin= 3 ErrMin= 8.12D-05
 ErrMax= 8.12D-05  0.00D+00 EMaxC= 1.00D-01 BMatC= 6.82D-07 BMatP= 1.42D-06
 IDIUse=1 WtCom= 1.00D+00 WtEn= 0.00D+00
 Coeff-Com: -0.721D-01 0.444D+00 0.628D+00
 Coeff:     -0.721D-01 0.444D+00 0.628D+00
 Gap=     0.307 Goal=   None    Shift=    0.000
 RMSDP=2.30D-05 MaxDP=4.59D-04 DE=-1.40D-06 OVMax= 5.96D-04

 Cycle   4  Pass 0  IDiag  1:
 E= -960.258926895799     Delta-E=       -0.000000952862 Rises=F Damp=F
 DIIS: error= 1.58D-05 at cycle   4 NSaved=   4.
[...]
 All quantities printed in internal units (Hartrees-Bohrs-Radians)
 Second derivative matrix not updated -- analytic derivatives used.
 The second derivative matrix:
                          R1        R2        R3        R4        R5
           R1           0.04382
           R2          -0.00169   0.40075
           R3          -0.00167  -0.00015   0.40122
           R4          -0.00172  -0.00015  -0.00015   0.40115
           R5           0.02802  -0.00169  -0.00167  -0.00172   0.04381
           A1           0.00648  -0.00350   0.00165   0.00173  -0.00642
           A2           0.00641   0.00167  -0.00331   0.00172  -0.00642
           A3           0.00631   0.00184   0.00166  -0.00344  -0.00637
           A4           0.00000   0.00244   0.00243  -0.00474   0.00001
           A5          -0.00001   0.00230  -0.00475   0.00234  -0.00001
           A6          -0.00642  -0.00350   0.00165   0.00172   0.00647
           A7           0.00000  -0.00474   0.00232   0.00241  -0.00001
           A8          -0.00641   0.00167  -0.00331   0.00171   0.00643
           A9          -0.00637   0.00184   0.00165  -0.00344   0.00630
           A10          0.00006  -0.00701   0.00330   0.00345   0.00005
           A11          0.00003  -0.00019  -0.00573   0.00596   0.00004
           D1          -0.02218   0.00000  -0.00000  -0.00000   0.02217
           D2           0.00001   0.00244   0.00243  -0.00475   0.00001
           D3           0.00001  -0.00229   0.00475  -0.00234   0.00001
           D4          -0.00000  -0.00474   0.00232   0.00241   0.00000
                          A1        A2        A3        A4        A5
           A1           0.03642
           A2          -0.01579   0.03648
           A3          -0.01561  -0.01573   0.03634
           A4           0.00005   0.00000  -0.00005   0.01589
           A5          -0.00000  -0.00002   0.00003  -0.00793   0.01589
           A6          -0.01939   0.00711   0.00726   0.00005  -0.00003
           A7          -0.00004   0.00002   0.00002  -0.00796  -0.00796
           A8           0.00711  -0.01919   0.00711   0.00003  -0.00002
           A9           0.00726   0.00711  -0.01938  -0.00007   0.00005
           A10          0.01703  -0.00868  -0.00835   0.00010  -0.00003
           A11         -0.00019   0.01496  -0.01477   0.00007  -0.00006
           D1          -0.00580  -0.00574  -0.00578   0.00001  -0.00000
           D2           0.00005   0.00001  -0.00006   0.01589  -0.00793
           D3           0.00001   0.00002  -0.00004   0.00793  -0.01589
           D4          -0.00004   0.00001   0.00002  -0.00796  -0.00796
                          A6        A7        A8        A9        A10
           A6           0.03642
           A7          -0.00002   0.01591
           A8          -0.01579  -0.00001   0.03649
           A9          -0.01561   0.00001  -0.01573   0.03634
           A10          0.01702  -0.00007  -0.00868  -0.00834   0.03405
           A11         -0.00019  -0.00001   0.01496  -0.01477  -0.00038
           D1           0.00580  -0.00001   0.00574   0.00578  -0.00000
           D2           0.00005  -0.00796   0.00001  -0.00005   0.00010
           D3           0.00001   0.00796   0.00003  -0.00003   0.00002
           D4          -0.00004   0.01591   0.00002   0.00002  -0.00008
                          A11       D1        D2        D3        D4
           A11          0.03433
           D1           0.00000   0.02000
           D2           0.00006   0.00000   0.01589
           D3           0.00005  -0.00000   0.00793   0.01589
           D4          -0.00000  -0.00000  -0.00796   0.00796   0.01591
 ITU=  0
 Eigenvectors of the second derivative matrix:
                           1         2         3         4         5
     Eigenvalues --    -0.01616   0.04733   0.04743   0.05877   0.06021
   1         R1        -0.54354   0.00020  -0.00045   0.00694  -0.00188
   2         R2         0.00000   0.00465   0.02383  -0.02163   0.01446
   3         R3        -0.00000   0.01881  -0.01486  -0.00176  -0.02479
   4         R4        -0.00000  -0.02275  -0.00897   0.02290   0.01103
   5         R5         0.54355   0.00081   0.00017   0.00721   0.00202
   6         A1         0.15110   0.00840   0.01449  -0.30943   0.21510
   7         A2         0.15116   0.00838  -0.00811  -0.03206  -0.37726
   8         A3         0.15003  -0.01720  -0.00698   0.34131   0.15972
   9         A4        -0.00000  -0.53798  -0.20675  -0.02925  -0.00640
  10         A5         0.00002   0.44836  -0.36285   0.00787   0.01783
  11         A6        -0.15106   0.00867   0.01407  -0.30969   0.21659
  12         A7         0.00004   0.08961   0.56960   0.02138  -0.01143
  13         A8        -0.15124   0.00891  -0.00748  -0.03184  -0.37521
  14         A9        -0.14999  -0.01757  -0.00661   0.34167   0.16109
  15         A10        0.00004   0.01707   0.02856  -0.61912   0.43169
  16         A11       -0.00007   0.03075  -0.00116  -0.43119  -0.61963
  17         D1        -0.52225   0.00034   0.00030   0.00018   0.00284
  18         D2         0.00015  -0.53798  -0.20675  -0.02911  -0.00622
  19         D3         0.00001  -0.44837   0.36284  -0.00763  -0.01789
  20         D4        -0.00014   0.08961   0.56959   0.02149  -0.01167
                           6         7         8         9        10
     Eigenvalues --     0.06195   0.07179   0.07854   0.07868   0.40075
   1         R1         0.45209  -0.70713  -0.00058  -0.00407  -0.00874
   2         R2         0.00008  -0.00750  -0.00001   0.00001   0.72982
   3         R3        -0.00011  -0.00719   0.00001  -0.00003   0.46436
   4         R4         0.00003  -0.00716   0.00003   0.00000   0.50149
   5         R5        -0.45243  -0.70690   0.00263   0.00272  -0.00874
   6         A1         0.17810  -0.00256  -0.00100  -0.57857  -0.00271
   7         A2         0.18042  -0.00139  -0.49972   0.28807   0.00160
   8         A3         0.18501   0.00383   0.50011   0.28702   0.00111
   9         A4        -0.00054  -0.00063   0.00044  -0.00005   0.00150
  10         A5         0.00015   0.00047  -0.00023  -0.00041   0.00182
  11         A6        -0.17635  -0.00359   0.00080   0.57842  -0.00271
  12         A7         0.00046   0.00016  -0.00021   0.00047  -0.00332
  13         A8        -0.18377   0.00069   0.49998  -0.28817   0.00160
  14         A9        -0.18341   0.00302  -0.50017  -0.28677   0.00112
  15         A10        0.00176  -0.00614  -0.00020  -0.00014  -0.00542
  16         A11       -0.00286  -0.00436   0.00018  -0.00020   0.00056
  17         D1        -0.62761   0.00014   0.00072   0.00400  -0.00000
  18         D2        -0.00035  -0.00063   0.00010  -0.00006   0.00150
  19         D3        -0.00012  -0.00047   0.00009   0.00006  -0.00182
  20         D4         0.00023   0.00016  -0.00001   0.00012  -0.00332
                          11        12
     Eigenvalues --     0.40175   0.40198
   1         R1        -0.00179   0.00019
   2         R2        -0.68266   0.00409
   3         R3         0.49125  -0.73607
   4         R4         0.53930   0.67555
   5         R5        -0.00179   0.00020
   6         A1         0.01207  -0.00021
   7         A2        -0.00539   0.01054
   8         A3        -0.00669  -0.01033
   9         A4        -0.00856  -0.01405
  10         A5        -0.00746   0.01433
  11         A6         0.01208  -0.00022
  12         A7         0.01602  -0.00028
  13         A8        -0.00541   0.01053
  14         A9        -0.00669  -0.01032
  15         A10        0.02415  -0.00044
  16         A11        0.00149   0.02410
  17         D1        -0.00001  -0.00000
  18         D2        -0.00856  -0.01406
  19         D3         0.00745  -0.01433
  20         D4         0.01601  -0.00028
 Eigenvalue     1 is  -1.62D-02 should be greater than     0.000000 Eigenvector:
                          R5        R1        D1        A8        A2
   1                    0.54355  -0.54354  -0.52225  -0.15124   0.15116
                          A1        A6        A3        A9        D2
   1                    0.15110  -0.15106   0.15003  -0.14999   0.00015
 Angle between quadratic step and forces=  47.94 degrees.
 Linear search not attempted -- first point.
 Iteration  1 RMS(Cart)=  0.00070678 RMS(Int)=  0.00000025
 Iteration  2 RMS(Cart)=  0.00000025 RMS(Int)=  0.00000003
 ITry= 1 IFail=0 DXMaxC= 1.35D-03 DCOld= 1.00D+10 DXMaxT= 3.00D-01 DXLimC= 3.00D+00 Rises=F
 Variable       Old X    -DE/DX   Delta X   Delta X   Delta X     New X
                                 (Linear)    (Quad)   (Total)
    R1        4.36306   0.00000   0.00000   0.00005   0.00005   4.36312
    R2        2.03112  -0.00012   0.00000  -0.00026  -0.00026   2.03086
    R3        2.03128  -0.00017   0.00000  -0.00045  -0.00045   2.03083
    R4        2.03142  -0.00018   0.00000  -0.00046  -0.00046   2.03096
    R5        4.36301  -0.00001   0.00000  -0.00017  -0.00017   4.36284
    A1        1.57001   0.00004   0.00000   0.00066   0.00066   1.57067
    A2        1.57093  -0.00002   0.00000  -0.00039  -0.00039   1.57055
    A3        1.57133  -0.00001   0.00000  -0.00028  -0.00028   1.57105
    A4        2.09440  -0.00000   0.00000  -0.00008  -0.00008   2.09432
    A5        2.09436   0.00001   0.00000   0.00013   0.00013   2.09450
    A6        1.57021   0.00003   0.00000   0.00054   0.00054   1.57075
    A7        2.09442  -0.00000   0.00000  -0.00006  -0.00006   2.09437
    A8        1.57079  -0.00001   0.00000  -0.00016  -0.00016   1.57063
    A9        1.57151  -0.00002   0.00000  -0.00038  -0.00038   1.57113
   A10        3.14022   0.00007   0.00000   0.00120   0.00120   3.14142
   A11        3.14095   0.00000   0.00000   0.00006   0.00006   3.14101
    D1       -3.14146  -0.00000   0.00000   0.00000   0.00000  -3.14146
    D2        2.09440  -0.00000   0.00000  -0.00008  -0.00008   2.09432
    D3       -2.09436  -0.00001   0.00000  -0.00013  -0.00013  -2.09450
    D4        2.09442  -0.00000   0.00000  -0.00006  -0.00006   2.09437
         Item               Value     Threshold  Converged?
 Maximum Force            0.000176     0.000450     YES
 RMS     Force            0.000065     0.000300     YES
 Maximum Displacement     0.001348     0.001800     YES
 RMS     Displacement     0.000707     0.001200     YES
 Predicted change in Energy=-1.729936D-07
 Optimization completed.
    -- Stationary point found.
                           ----------------------------
                           !   Optimized Parameters   !
                           ! (Angstroms and Degrees)  !
 --------------------------                            --------------------------
 ! Name  Definition              Value          Derivative Info.                !
 --------------------------------------------------------------------------------
 ! R1    R(1,2)                  2.3088         -DE/DX =    0.0                 !
 ! R2    R(2,3)                  1.0748         -DE/DX =   -0.0001              !
 ! R3    R(2,4)                  1.0749         -DE/DX =   -0.0002              !
 ! R4    R(2,5)                  1.075          -DE/DX =   -0.0002              !
 ! R5    R(2,6)                  2.3088         -DE/DX =    0.0                 !
 ! A1    A(1,2,3)               89.955          -DE/DX =    0.0                 !
 ! A2    A(1,2,4)               90.0079         -DE/DX =    0.0                 !
 ! A3    A(1,2,5)               90.0307         -DE/DX =    0.0                 !
 ! A4    A(3,2,4)              120.0002         -DE/DX =    0.0                 !
 ! A5    A(3,2,5)              119.9982         -DE/DX =    0.0                 !
 ! A6    A(3,2,6)               89.9662         -DE/DX =    0.0                 !
 ! A7    A(4,2,5)              120.0016         -DE/DX =    0.0                 !
 ! A8    A(4,2,6)               89.9994         -DE/DX =    0.0                 !
 ! A9    A(5,2,6)               90.0408         -DE/DX =    0.0                 !
 ! A10   L(1,2,6,3,-1)         179.9211         -DE/DX =    0.0001              !
 ! A11   L(1,2,6,3,-2)         179.963          -DE/DX =    0.0                 !
 ! D1    D(3,2,5,4)           -179.9926         -DE/DX =    0.0                 !
 ! D2    D(3,2,6,4)            120.0002         -DE/DX =    0.0                 !
 ! D3    D(3,2,6,5)           -119.9982         -DE/DX =    0.0                 !
 ! D4    D(4,2,6,5)            120.0016         -DE/DX =    0.0                 !
 --------------------------------------------------------------------------------
 GradGradGradGradGradGradGradGradGradGradGradGradGradGradGradGradGradGrad

 Leave Link  103 at Wed Oct  7 14:21:37 2020, MaxMem=  2684354560 cpu:               2.4 elap:               0.6
 (Enter /udrive/faculty/rpeverati/g16/g16/l9999.exe)

 ----------------------------------------------------------------------

 Electric dipole moment (input orientation):
 (Debye = 10**-18 statcoulomb cm , SI units = C m)
                  (au)            (Debye)         (10**-30 SI)
   Tot        0.163950D-02      0.416718D-02      0.139002D-01
   x         -0.530358D-03     -0.134804D-02     -0.449656D-02
   y          0.154523D-02      0.392758D-02      0.131010D-01
   z         -0.137607D-03     -0.349761D-03     -0.116668D-02

 Dipole polarizability, Alpha (input orientation).
 (esu units = cm**3 , SI units = C**2 m**2 J**-1)
 Alpha(0;0):
               (au)            (10**-24 esu)      (10**-40 SI)
   iso        0.471888D+02      0.699265D+01      0.778037D+01
   aniso      0.735648D+02      0.109012D+02      0.121292D+02
   xx         0.226617D+02      0.335811D+01      0.373641D+01
   yx         0.110985D-01      0.164462D-02      0.182989D-02
   yy         0.226779D+02      0.336051D+01      0.373908D+01
   zx         0.407580D-02      0.603971D-03      0.672008D-03
   zy         0.622169D+00      0.921959D-01      0.102582D+00
   zz         0.962267D+02      0.142593D+02      0.158656D+02

 ----------------------------------------------------------------------

 Dipole orientation:
    17          1.42444555         -4.11036793         -0.33339569
     6          0.00063520          0.00022507          0.00139426
     1          0.80977564          0.42650578         -1.81217773
     1         -1.91195578         -0.67222250          0.12749730
     1          1.10422776          0.24618369          1.68907621
    17         -1.42318505          4.11129516          0.32956672

 Electric dipole moment (dipole orientation):
 (Debye = 10**-18 statcoulomb cm , SI units = C m)
                  (au)            (Debye)         (10**-30 SI)
   Tot        0.163950D-02      0.416718D-02      0.139002D-01
   x          0.000000D+00      0.000000D+00      0.000000D+00
   y          0.000000D+00      0.000000D+00      0.000000D+00
   z          0.163950D-02      0.416718D-02      0.139002D-01

 Dipole polarizability, Alpha (dipole orientation).
 (esu units = cm**3 , SI units = C**2 m**2 J**-1)
 Alpha(0;0):
               (au)            (10**-24 esu)      (10**-40 SI)
   iso        0.471888D+02      0.699265D+01      0.778037D+01
   aniso      0.735648D+02      0.109012D+02      0.121292D+02
   xx         0.305045D+02      0.452030D+01      0.502951D+01
   yx        -0.226195D+02     -0.335186D+01     -0.372945D+01
   yy         0.879724D+02      0.130362D+02      0.145047D+02
   zx        -0.181264D+01     -0.268605D+00     -0.298864D+00
   zy         0.527017D+01      0.780958D+00      0.868933D+00
   zz         0.230893D+02      0.342148D+01      0.380692D+01

 ----------------------------------------------------------------------

 Test job not archived.
 1\1\GINC-NODE23\Freq\RM062X\6-31G(d)\C1H3Cl2(1-)\RPEVERATI\07-Oct-2020
 \0\\#P Freq M062X/6-31G* 5D 7F Integral=UltraFineGrid SCF=(NoSymm,XQC,
 MaxCyc=120) EmpiricalDispersion=GD3 IOp(1/33=1) Geom=Check Guess=Read\
 \TS search on BH76.\\-1,1\Cl,0.0008209382,0.0186890131,2.3086972956\C,
 0.0000987011,0.0008108686,-0.0000654461\H,0.7648951848,-0.7543666427,0
 .0063874854\H,-1.0364059075,-0.2839275176,0.0023149257\H,0.2718002659,
 1.0408546787,-0.008780034\Cl,0.000588657,-0.0203618432,-2.3087739125\\
 Version=ES64L-G16RevA.03\State=1-A\HF=-960.259244\RMSD=8.656e-10\RMSF=
 6.573e-05\ZeroPoint=0.0381148\Thermal=0.0426438\Dipole=-0.0005304,0.00
 15452,-0.0001376\DipoleDeriv=-0.6326354,0.0001076,-0.0007892,0.0000733
 ,-0.6329323,-0.0104304,-0.0001158,-0.0113613,-1.9964281,0.1045933,0.00
 01549,0.0000977,0.0005972,0.1063751,0.0300847,0.0001695,0.0301024,3.66
 56225,0.0533619,0.0178436,-0.0001145,0.0187457,0.0535263,-0.0023621,-0
 .0001772,-0.0023473,-0.2238576,0.0373945,-0.0097053,0.0001022,-0.01000
 42,0.0700317,-0.0024913,0.0000679,-0.0025002,-0.2255409,0.069889,-0.00
 85208,0.0000935,-0.0094868,0.0359228,-0.0021584,0.0000613,-0.0021946,-
 0.2233833,-0.6326032,0.0001201,0.0006105,0.0000748,-0.6329235,-0.01264
 24,-0.0000056,-0.0116991,-1.9964125\Polar=22.6616727,0.0110985,22.6778
 769,0.0040758,0.6221686,96.2267051\Quadrupole=9.0307893,9.0288007,-18.
 0595901,-0.0000191,-0.001157,-0.2290618\PG=C01 [X(C1H3Cl2)]\NImag=1\\0
 .00870872,0.00004663,0.00847094,-0.00001224,0.00033079,0.04381645,-0.0
 1518200,0.00000413,0.00001450,0.70838345,0.00000296,-0.01518877,0.0004
 6788,-0.00004931,0.70810477,0.00005182,0.00041472,0.04092253,0.0000193
 7,-0.00651831,-0.06415758,0.00136749,-0.00138038,-0.00117257,-0.227972
 95,0.16855310,-0.00144065,0.22584520,-0.00133005,0.00145421,0.00103727
 ,0.16859768,-0.22362421,0.00185332,-0.17731995,0.22096377,0.00628741,-
 0.00637340,-0.01891708,-0.00143947,0.00185667,-0.00585658,0.00151348,-
 0.00154106,0.04013868,0.00246756,0.00068170,0.00160801,-0.37095361,-0.
 08596336,0.00071919,-0.01029698,-0.00799234,0.00006783,0.37639316,0.00
 060510,0.00020688,0.00027833,-0.08602429,-0.08102697,0.00063386,0.0192
 4570,0.00980144,-0.00006814,0.09052818,0.07116236,-0.00854335,-0.00248
 319,-0.01890383,0.00072087,0.00063401,-0.00575619,-0.00016334,-0.00006
 760,0.00181334,-0.00075822,-0.00026173,0.03996134,0.00022470,0.0006486
 7,-0.00044487,-0.07909002,-0.08254551,0.00068952,0.00968923,0.01948147
 ,-0.00016416,-0.00007731,-0.02510372,0.00021130,0.06902889,0.00067628,
 0.00264967,-0.00184000,-0.08253209,-0.37307454,0.00308040,-0.00773727,
 -0.01013384,0.00009996,0.00209165,-0.00038298,0.00001842,0.08686242,0.
 37840730,0.00222806,0.00835179,-0.01890074,0.00069268,0.00307825,-0.00
 607460,0.00006517,0.00010195,0.00181589,-0.00001776,0.00001944,0.00183
 027,-0.00072690,-0.00283853,0.04010787,0.00241353,-0.00000075,0.000007
 17,-0.01518486,0.00000212,-0.00003925,0.00136801,-0.00143681,-0.006265
 10,0.00246718,0.00074904,0.00853274,0.00022451,0.00063901,-0.00224126,
 0.00871162,-0.00000091,0.00240708,-0.00027427,0.00000388,-0.01519029,0
 .00053601,-0.00136119,0.00153862,0.00602597,0.00065417,0.00023927,0.00
 216010,0.00065666,0.00253439,-0.00871290,0.00004740,0.00847093,-0.0000
 1170,-0.00024071,-0.02801734,-0.00000796,0.00048149,0.04092242,0.00119
 792,-0.00138387,-0.01899425,-0.00161906,-0.00060175,-0.01894493,0.0004
 3511,0.00147975,-0.01877868,0.00000569,0.00026509,0.04381278\\0.000022
 27,-0.00001998,-0.00000162,-0.00001693,-0.00000276,0.00000070,0.000094
 48,-0.00007385,0.00000765,-0.00016666,-0.00005072,-0.00000585,0.000050
 45,0.00016864,0.00000490,0.00001638,-0.00002133,-0.00000578\\\@


 ACTORS ARE SO FORTUNATE.  THEY CAN CHOOSE WHETHER
 THEY WILL APPEAR IN A TRAGEDY OR IN COMEDY,
 WHETHER THEY WILL SUFFER OF MAKE MERRY,
 LAUGH OR SHED TEARS.  BUT IN REAL LIFE IT IS DIFFERENT.
 MOST MEN AND WOMEN ARE FORCED TO PERFORM
 PARTS FOR WHICH THEY HAVE NO QUALIFICATIONS.
 THE WORLD IS A STAGE, BUT THE PLAY IS BADLY CAST.

                                   -- OSCAR WILDE
 Job cpu time:       0 days  0 hours  4 minutes  4.4 seconds.
 Elapsed time:       0 days  0 hours  0 minutes 28.4 seconds.
 File lengths (MBytes):  RWF=      7 Int=      0 D2E=      0 Chk=      1 Scr=      1
 Normal termination of Gaussian 16 at Wed Oct  7 14:21:38 2020.
