 Entering Gaussian System, Link 0=g16
 Input=MN_81_RKT04_BH76_M062XD30_631Gs.in
 Output=MN_81_RKT04_BH76_M062XD30_631Gs.log
 Initial command:
 /udrive/faculty/rpeverati/g16/g16/l1.exe "/udrive/scratch-directories/gaussian09/rpeverati/Gau-380.inp" -scrdir="/udrive/scratch-directories/gaussian09/rpeverati/"
 Entering Link 1 = /udrive/faculty/rpeverati/g16/g16/l1.exe PID=       381.
  
 Copyright (c) 1988,1990,1992,1993,1995,1998,2003,2009,2016,
            Gaussian, Inc.  All Rights Reserved.
  
 This is part of the Gaussian(R) 16 program.  It is based on
 the Gaussian(R) 09 system (copyright 2009, Gaussian, Inc.),
 the Gaussian(R) 03 system (copyright 2003, Gaussian, Inc.),
 the Gaussian(R) 98 system (copyright 1998, Gaussian, Inc.),
 the Gaussian(R) 94 system (copyright 1995, Gaussian, Inc.),
 the Gaussian 92(TM) system (copyright 1992, Gaussian, Inc.),
 the Gaussian 90(TM) system (copyright 1990, Gaussian, Inc.),
 the Gaussian 88(TM) system (copyright 1988, Gaussian, Inc.),
 the Gaussian 86(TM) system (copyright 1986, Carnegie Mellon
 University), and the Gaussian 82(TM) system (copyright 1983,
 Carnegie Mellon University). Gaussian is a federally registered
 trademark of Gaussian, Inc.
  
 This software contains proprietary and confidential information,
 including trade secrets, belonging to Gaussian, Inc.
  
 This software is provided under written license and may be
 used, copied, transmitted, or stored only in accord with that
 written license.
  
 The following legend is applicable only to US Government
 contracts under FAR:
  
                    RESTRICTED RIGHTS LEGEND
  
 Use, reproduction and disclosure by the US Government is
 subject to restrictions as set forth in subparagraphs (a)
 and (c) of the Commercial Computer Software - Restricted
 Rights clause in FAR 52.227-19.
  
 Gaussian, Inc.
 340 Quinnipiac St., Bldg. 40, Wallingford CT 06492
  
  
 ---------------------------------------------------------------
 Warning -- This program may not be used in any manner that
 competes with the business of Gaussian, Inc. or will provide
 assistance to any competitor of Gaussian, Inc.  The licensee
 of this program is prohibited from giving any competitor of
 Gaussian, Inc. access to this program.  By using this program,
 the user acknowledges that Gaussian, Inc. is engaged in the
 business of creating and licensing software in the field of
 computational chemistry and represents and warrants to the
 licensee that it is not a competitor of Gaussian, Inc. and that
 it will not use this program in any manner prohibited above.
 ---------------------------------------------------------------
  

 Cite this work as:
 Gaussian 16, Revision A.03,
 M. J. Frisch, G. W. Trucks, H. B. Schlegel, G. E. Scuseria, 
 M. A. Robb, J. R. Cheeseman, G. Scalmani, V. Barone, 
 G. A. Petersson, H. Nakatsuji, X. Li, M. Caricato, A. V. Marenich, 
 J. Bloino, B. G. Janesko, R. Gomperts, B. Mennucci, H. P. Hratchian, 
 J. V. Ortiz, A. F. Izmaylov, J. L. Sonnenberg, D. Williams-Young, 
 F. Ding, F. Lipparini, F. Egidi, J. Goings, B. Peng, A. Petrone, 
 T. Henderson, D. Ranasinghe, V. G. Zakrzewski, J. Gao, N. Rega, 
 G. Zheng, W. Liang, M. Hada, M. Ehara, K. Toyota, R. Fukuda, 
 J. Hasegawa, M. Ishida, T. Nakajima, Y. Honda, O. Kitao, H. Nakai, 
 T. Vreven, K. Throssell, J. A. Montgomery, Jr., J. E. Peralta, 
 F. Ogliaro, M. J. Bearpark, J. J. Heyd, E. N. Brothers, K. N. Kudin, 
 V. N. Staroverov, T. A. Keith, R. Kobayashi, J. Normand, 
 K. Raghavachari, A. P. Rendell, J. C. Burant, S. S. Iyengar, 
 J. Tomasi, M. Cossi, J. M. Millam, M. Klene, C. Adamo, R. Cammi, 
 J. W. Ochterski, R. L. Martin, K. Morokuma, O. Farkas, 
 J. B. Foresman, and D. J. Fox, Gaussian, Inc., Wallingford CT, 2016.
 
 ******************************************
 Gaussian 16:  ES64L-G16RevA.03 25-Dec-2016
                 7-Oct-2020 
 ******************************************
 %NoSave
 %nproc=12
 Will use up to   12 processors via shared memory.
 %mem=20GB
 %chk=MN_81_RKT04_BH76_M062XD30_631Gs
 ----------------------------------------------------------------------
 #P Opt(TS,MaxCyc=50,NoEigenTest,MaxStep=10,AddRedundant) M062X/6-31G* 
 5D 7F Integral=UltraFineGrid SCF=(NoSymm,XQC,MaxCyc=120) EmpiricalDisp
 ersion=GD3 IOp(1/33=1)
 ----------------------------------------------------------------------
 1/5=1,6=50,8=10,11=1,18=120,26=4,33=1,38=1/1,3;
 2/9=110,12=2,17=6,18=5,40=1/2;
 3/5=1,6=6,7=1,8=11,11=2,25=1,30=1,71=1,74=-55,75=-5,124=31/1,2,3;
 4/9=2/1;
 5/5=2,7=120,8=3,13=1,38=5/2,8;
 6/7=2,8=2,9=2,10=2,28=1/1;
 7//1,2,3,16;
 1/5=1,6=50,8=10,11=1,18=20,26=4,33=1/3(2);
 2/9=110/2;
 99//99;
 2/9=110/2;
 3/5=1,6=6,7=1,8=11,11=2,25=1,30=1,71=1,74=-55,75=-5,124=31/1,2,3;
 4/5=5,9=2,16=3,69=1/1;
 5/5=2,7=120,8=3,13=1,38=5/2,8;
 7//1,2,3,16;
 1/5=1,6=50,8=10,11=1,18=20,26=4,33=1/3(-5);
 2/9=110/2;
 6/7=2,8=2,9=2,10=2,19=2,28=1/1;
 99/9=1/99;
 Leave Link    1 at Wed Oct  7 14:22:32 2020, MaxMem=  2684354560 cpu:               9.9 elap:               1.0
 (Enter /udrive/faculty/rpeverati/g16/g16/l101.exe)
 ONIOM data not found on unit 2.
 ------------------
 TS search on BH76.
 ------------------
 TstMul:  ICh=     0
 TstMul:  Mul=     2
 TstMul:  ICh=     0
 TstMul:  Mul=     2
 Symbolic Z-matrix:
 Charge =  0 Multiplicity = 2
 C                    -1.21149   0.00797   0.00041 
 O                     1.29397  -0.10869   0.00013 
 H                     0.00948  -0.11802   0.0028 
 H                    -1.52553  -0.23325   1.01007 
 H                    -1.43067   1.03323  -0.27808 
 H                    -1.55271  -0.71011  -0.7377 
 H                     1.41664   0.8499   -0.00059 
 
 RdStrC is calling ZToCFu for IStruc=1 NZ=     7.
 PrtBox:  NBox=     1 Levels=  1 BoxLen=    8.00 SMaxX=        5.61
          Shift=            2.934200            1.341920            1.394060
 Box      1 Number                   0 centers from      1 to      7:
 After GenITR:
 ITRead=  0  0  0  0  0  0  0
 MicOpt= -1 -1 -1 -1 -1 -1 -1
 Add virtual bond connecting atoms H3         and O2         Dist= 2.43D+00.
 The following ModRedundant input section has been read:
 
 ITRead=  0  0  0  0  0  0  0
 MicOpt= -1 -1 -1 -1 -1 -1 -1
 NAtoms=      7 NQM=        7 NQMF=       0 NMMI=      0 NMMIF=      0
                NMic=       0 NMicF=      0.
                    Isotopes and Nuclear Properties:
 (Nuclear quadrupole moments (NQMom) in fm**2, nuclear magnetic moments (NMagM)
  in nuclear magnetons)

  Atom         1           2           3           4           5           6           7
 IAtWgt=          12          16           1           1           1           1           1
 AtmWgt=  12.0000000  15.9949146   1.0078250   1.0078250   1.0078250   1.0078250   1.0078250
 NucSpn=           0           0           1           1           1           1           1
 AtZEff=   0.0000000   0.0000000   0.0000000   0.0000000   0.0000000   0.0000000   0.0000000
 NQMom=    0.0000000   0.0000000   0.0000000   0.0000000   0.0000000   0.0000000   0.0000000
 NMagM=    0.0000000   0.0000000   2.7928460   2.7928460   2.7928460   2.7928460   2.7928460
 AtZNuc=   6.0000000   8.0000000   1.0000000   1.0000000   1.0000000   1.0000000   1.0000000
 No MM parameters found.
 Leave Link  101 at Wed Oct  7 14:22:34 2020, MaxMem=  2684354560 cpu:              20.0 elap:               1.8
 (Enter /udrive/faculty/rpeverati/g16/g16/l103.exe)

 GradGradGradGradGradGradGradGradGradGradGradGradGradGradGradGradGradGrad
 Berny optimization.
 Optmz: redundant internal coordinate code flag= 1
 Initialization pass.
                           ----------------------------
                           !    Initial Parameters    !
                           ! (Angstroms and Degrees)  !
 --------------------------                            --------------------------
 ! Name  Definition              Value          Derivative Info.                !
 --------------------------------------------------------------------------------
 ! R1    R(1,3)                  1.2274         estimate D2E/DX2                !
 ! R2    R(1,4)                  1.0845         estimate D2E/DX2                !
 ! R3    R(1,5)                  1.0848         estimate D2E/DX2                !
 ! R4    R(1,6)                  1.0848         estimate D2E/DX2                !
 ! R5    R(2,3)                  1.2845         estimate D2E/DX2                !
 ! R6    R(2,7)                  0.9664         estimate D2E/DX2                !
 ! A1    A(3,1,4)              105.2711         estimate D2E/DX2                !
 ! A2    A(3,1,5)              107.367          estimate D2E/DX2                !
 ! A3    A(3,1,6)              104.2563         estimate D2E/DX2                !
 ! A4    A(4,1,5)              112.9983         estimate D2E/DX2                !
 ! A5    A(4,1,6)              113.273          estimate D2E/DX2                !
 ! A6    A(5,1,6)              112.7916         estimate D2E/DX2                !
 ! A7    A(3,2,7)               97.7088         estimate D2E/DX2                !
 ! A8    L(1,3,2,7,-1)         173.692          estimate D2E/DX2                !
 ! A9    L(1,3,2,7,-2)         180.3499         estimate D2E/DX2                !
 ! D1    D(4,1,2,7)           -104.2472         estimate D2E/DX2                !
 ! D2    D(5,1,2,7)             15.3168         estimate D2E/DX2                !
 ! D3    D(6,1,2,7)            134.7639         estimate D2E/DX2                !
 --------------------------------------------------------------------------------
 Maximum allowed force set to 1.00D+20.
 Trust Radius=1.00D-01 FncErr=1.00D-07 GrdErr=1.00D-06 EigMax=2.50D+02 EigMin=1.00D-04
 Number of steps in this run=     50 maximum allowed number of steps=    100.
 Search for a saddle point of order  1.
 GradGradGradGradGradGradGradGradGradGradGradGradGradGradGradGradGradGrad

 Leave Link  103 at Wed Oct  7 14:22:35 2020, MaxMem=  2684354560 cpu:               2.0 elap:               0.7
 (Enter /udrive/faculty/rpeverati/g16/g16/l202.exe)
                          Input orientation:                          
 ---------------------------------------------------------------------
 Center     Atomic      Atomic             Coordinates (Angstroms)
 Number     Number       Type             X           Y           Z
 ---------------------------------------------------------------------
      1          6           0       -1.211488    0.007968    0.000407
      2          8           0        1.293965   -0.108694    0.000133
      3          1           0        0.009476   -0.118020    0.002799
      4          1           0       -1.525528   -0.233250    1.010072
      5          1           0       -1.430668    1.033234   -0.278082
      6          1           0       -1.552712   -0.710113   -0.737705
      7          1           0        1.416639    0.849896   -0.000591
 ---------------------------------------------------------------------
                    Distance matrix (angstroms):
                    1          2          3          4          5
     1  C    0.000000
     2  O    2.508168   0.000000
     3  H    1.227449   1.284526   0.000000
     4  H    1.084542   2.997505   1.839596   0.000000
     5  H    1.084789   2.967327   1.865019   1.808956   0.000000
     6  H    1.084843   3.001613   1.827389   1.811867   1.807044
     7  H    2.759691   0.966408   1.707917   3.294084   2.866665
                    6          7
     6  H    0.000000
     7  H    3.434241   0.000000
 Stoichiometry    CH5O(2)
 Framework group  C1[X(CH5O)]
 Deg. of freedom    15
 Full point group                 C1      NOp   1
 Largest Abelian subgroup         C1      NOp   1
 Largest concise Abelian subgroup C1      NOp   1
                         Standard orientation:                         
 ---------------------------------------------------------------------
 Center     Atomic      Atomic             Coordinates (Angstroms)
 Number     Number       Type             X           Y           Z
 ---------------------------------------------------------------------
      1          6           0       -1.211488    0.007968    0.000407
      2          8           0        1.293965   -0.108694    0.000133
      3          1           0        0.009476   -0.118020    0.002799
      4          1           0       -1.525528   -0.233250    1.010072
      5          1           0       -1.430668    1.033235   -0.278082
      6          1           0       -1.552712   -0.710113   -0.737705
      7          1           0        1.416639    0.849895   -0.000591
 ---------------------------------------------------------------------
 Rotational constants (GHZ):         120.8646308           9.2474374           9.1021904
 Leave Link  202 at Wed Oct  7 14:22:36 2020, MaxMem=  2684354560 cpu:               1.7 elap:               0.6
 (Enter /udrive/faculty/rpeverati/g16/g16/l301.exe)
 Standard basis: 6-31G(d) (5D, 7F)
 Ernie: Thresh=  0.10000D-02 Tol=  0.10000D-05 Strict=F.
 There are    40 symmetry adapted cartesian basis functions of A   symmetry.
 There are    38 symmetry adapted basis functions of A   symmetry.
    38 basis functions,    76 primitive gaussians,    40 cartesian basis functions
    10 alpha electrons        9 beta electrons
       nuclear repulsion energy        37.1187830199 Hartrees.
 IExCor= 4336 DFT=T Ex+Corr=M062X ExCW=0 ScaHFX=  0.540000
 ScaDFX=  1.000000  1.000000  1.000000  1.000000 ScalE2=  1.000000  1.000000
 IRadAn=      5 IRanWt=     -1 IRanGd=            0 ICorTp=0 IEmpDi=131
 NAtoms=    7 NActive=    7 NUniq=    7 SFac= 1.00D+00 NAtFMM=   60 NAOKFM=F Big=F
 Integral buffers will be    131072 words long.
 Raffenetti 2 integral format.
 Two-electron integral symmetry is turned on.
 R6Disp:  Grimme-D3 Dispersion energy=       -0.0000179390 Hartrees.
 Nuclear repulsion after empirical dispersion term =       37.1187650809 Hartrees.
 Leave Link  301 at Wed Oct  7 14:22:37 2020, MaxMem=  2684354560 cpu:               2.4 elap:               0.7
 (Enter /udrive/faculty/rpeverati/g16/g16/l302.exe)
 NPDir=0 NMtPBC=     1 NCelOv=     1 NCel=       1 NClECP=     1 NCelD=      1
         NCelK=      1 NCelE2=     1 NClLst=     1 CellRange=     0.0.
 One-electron integrals computed using PRISM.
 One-electron integral symmetry used in STVInt
 NBasis=    38 RedAO= T EigKep=  1.02D-02  NBF=    38
 NBsUse=    38 1.00D-06 EigRej= -1.00D+00 NBFU=    38
 Precomputing XC quadrature grid using
 IXCGrd= 4 IRadAn=           5 IRanWt=          -1 IRanGd=           0 AccXCQ= 0.00D+00.
 Generated NRdTot=       0 NPtTot=           0 NUsed=           0 NTot=          32
 NSgBfM=    40    40    40    40    40 MxSgAt=     7 MxSgA2=     7.
 Leave Link  302 at Wed Oct  7 14:22:38 2020, MaxMem=  2684354560 cpu:               3.9 elap:               0.7
 (Enter /udrive/faculty/rpeverati/g16/g16/l303.exe)
 DipDrv:  MaxL=1.
 Leave Link  303 at Wed Oct  7 14:22:39 2020, MaxMem=  2684354560 cpu:               1.6 elap:               0.5
 (Enter /udrive/faculty/rpeverati/g16/g16/l401.exe)
 SCF N**3 symmetry information disabled.
 ExpMin= 1.61D-01 ExpMax= 5.48D+03 ExpMxC= 8.25D+02 IAcc=3 IRadAn=         5 AccDes= 0.00D+00
 Harris functional with IExCor= 1009 and IRadAn=       5 diagonalized for initial guess.
 HarFok:  IExCor= 1009 AccDes= 0.00D+00 IRadAn=         5 IDoV= 1 UseB2=F ITyADJ=14
 ICtDFT=  3500011 ScaDFX=  1.000000  1.000000  1.000000  1.000000
 FoFCou: FMM=F IPFlag=           0 FMFlag=      100000 FMFlg1=           0
         NFxFlg=           0 DoJE=T BraDBF=F KetDBF=T FulRan=T
         wScrn=  0.000000 ICntrl=       500 IOpCl=  0 I1Cent=   200000004 NGrid=           0
         NMat0=    1 NMatS0=      1 NMatT0=    0 NMatD0=    1 NMtDS0=    0 NMtDT0=    0
 Petite list used in FoFCou.
 Harris En= -116.134944218645    
 JPrj=0 DoOrth=F DoCkMO=F.
 Initial guess <Sx>= 0.0000 <Sy>= 0.0000 <Sz>= 0.5000 <S**2>= 0.7500 S= 0.5000
 Leave Link  401 at Wed Oct  7 14:22:40 2020, MaxMem=  2684354560 cpu:               6.1 elap:               1.0
 (Enter /udrive/faculty/rpeverati/g16/g16/l502.exe)
 Keep R1 and R2 ints in memory in canonical form, NReq=10915733.
 FoFCou: FMM=F IPFlag=           0 FMFlag=           0 FMFlg1=           0
         NFxFlg=           0 DoJE=F BraDBF=F KetDBF=F FulRan=T
         wScrn=  0.000000 ICntrl=       600 IOpCl=  0 I1Cent=           0 NGrid=           0
         NMat0=    1 NMatS0=    741 NMatT0=    0 NMatD0=    1 NMtDS0=    0 NMtDT0=    0
 Symmetry not used in FoFCou.
 Two-electron integral symmetry not used.
 UHF open shell SCF:
 Using DIIS extrapolation, IDIIS=  1040.
 NGot=  2684354560 LenX=  2683800373 LenY=  2683798332
 Requested convergence on RMS density matrix=1.00D-08 within 120 cycles.
 Requested convergence on MAX density matrix=1.00D-06.
 Requested convergence on             energy=1.00D-06.
 No special actions if energy rises.
 Integral accuracy reduced to 1.0D-05 until final iterations.

 Cycle   1  Pass 0  IDiag  1:
 E= -116.069671379732    
 DIIS: error= 5.52D-02 at cycle   1 NSaved=   1.
 NSaved= 1 IEnMin= 1 EnMin= -116.069671379732     IErMin= 1 ErrMin= 5.52D-02
 ErrMax= 5.52D-02  0.00D+00 EMaxC= 1.00D-01 BMatC= 3.56D-01 BMatP= 3.56D-01
 IDIUse=3 WtCom= 4.48D-01 WtEn= 5.52D-01
 Coeff-Com:  0.100D+01
 Coeff-En:   0.100D+01
 Coeff:      0.100D+01
 Gap=     0.387 Goal=   None    Shift=    0.000
 Gap=     0.275 Goal=   None    Shift=    0.000
 GapD=    0.275 DampG=1.000 DampE=0.500 DampFc=0.5000 IDamp=-1.
 Damping current iteration by 5.00D-01
 RMSDP=1.12D-02 MaxDP=1.10D-01              OVMax= 1.28D-01

 Cycle   2  Pass 0  IDiag  1:
 E= -116.115335341823     Delta-E=       -0.045663962090 Rises=F Damp=T
 DIIS: error= 1.01D-02 at cycle   2 NSaved=   2.
 NSaved= 2 IEnMin= 2 EnMin= -116.115335341823     IErMin= 2 ErrMin= 1.01D-02
 ErrMax= 1.01D-02  0.00D+00 EMaxC= 1.00D-01 BMatC= 1.58D-02 BMatP= 3.56D-01
 IDIUse=3 WtCom= 8.99D-01 WtEn= 1.01D-01
 Coeff-Com: -0.936D-01 0.109D+01
 Coeff-En:   0.000D+00 0.100D+01
 Coeff:     -0.841D-01 0.108D+01
 Gap=     0.467 Goal=   None    Shift=    0.000
 Gap=     0.278 Goal=   None    Shift=    0.000
 RMSDP=2.21D-03 MaxDP=2.16D-02 DE=-4.57D-02 OVMax= 5.12D-02

 Cycle   3  Pass 0  IDiag  1:
 E= -116.155713245062     Delta-E=       -0.040377903239 Rises=F Damp=F
 DIIS: error= 4.61D-03 at cycle   3 NSaved=   3.
 NSaved= 3 IEnMin= 3 EnMin= -116.155713245062     IErMin= 3 ErrMin= 4.61D-03
 ErrMax= 4.61D-03  0.00D+00 EMaxC= 1.00D-01 BMatC= 2.47D-03 BMatP= 1.58D-02
 IDIUse=3 WtCom= 9.54D-01 WtEn= 4.61D-02
 Coeff-Com: -0.209D-01 0.217D+00 0.804D+00
 Coeff-En:   0.000D+00 0.000D+00 0.100D+01
 Coeff:     -0.199D-01 0.207D+00 0.813D+00
 Gap=     0.471 Goal=   None    Shift=    0.000
 Gap=     0.267 Goal=   None    Shift=    0.000
 RMSDP=8.06D-04 MaxDP=1.27D-02 DE=-4.04D-02 OVMax= 2.84D-02

 Cycle   4  Pass 0  IDiag  1:
 E= -116.156187207334     Delta-E=       -0.000473962272 Rises=F Damp=F
 DIIS: error= 5.61D-03 at cycle   4 NSaved=   4.
 NSaved= 4 IEnMin= 4 EnMin= -116.156187207334     IErMin= 3 ErrMin= 4.61D-03
 ErrMax= 5.61D-03  0.00D+00 EMaxC= 1.00D-01 BMatC= 1.87D-03 BMatP= 2.47D-03
 IDIUse=3 WtCom= 9.44D-01 WtEn= 5.61D-02
 Coeff-Com:  0.137D-01-0.809D-01 0.454D+00 0.613D+00
 Coeff-En:   0.000D+00 0.000D+00 0.235D+00 0.765D+00
 Coeff:      0.129D-01-0.763D-01 0.442D+00 0.622D+00
 Gap=     0.472 Goal=   None    Shift=    0.000
 Gap=     0.277 Goal=   None    Shift=    0.000
 RMSDP=5.15D-04 MaxDP=6.64D-03 DE=-4.74D-04 OVMax= 7.08D-03

 Cycle   5  Pass 0  IDiag  1:
 E= -116.156625544460     Delta-E=       -0.000438337126 Rises=F Damp=F
 DIIS: error= 7.52D-04 at cycle   5 NSaved=   5.
 NSaved= 5 IEnMin= 5 EnMin= -116.156625544460     IErMin= 5 ErrMin= 7.52D-04
 ErrMax= 7.52D-04  0.00D+00 EMaxC= 1.00D-01 BMatC= 3.57D-05 BMatP= 1.87D-03
 IDIUse=3 WtCom= 9.92D-01 WtEn= 7.52D-03
 Coeff-Com: -0.148D-02 0.271D-02-0.197D+00-0.234D+00 0.143D+01
 Coeff-En:   0.000D+00 0.000D+00 0.000D+00 0.000D+00 0.100D+01
 Coeff:     -0.147D-02 0.269D-02-0.196D+00-0.232D+00 0.143D+01
 Gap=     0.472 Goal=   None    Shift=    0.000
 Gap=     0.278 Goal=   None    Shift=    0.000
 RMSDP=2.71D-04 MaxDP=3.86D-03 DE=-4.38D-04 OVMax= 6.48D-03

 Cycle   6  Pass 0  IDiag  1:
 E= -116.156661830501     Delta-E=       -0.000036286041 Rises=F Damp=F
 DIIS: error= 2.39D-04 at cycle   6 NSaved=   6.
 NSaved= 6 IEnMin= 6 EnMin= -116.156661830501     IErMin= 6 ErrMin= 2.39D-04
 ErrMax= 2.39D-04  0.00D+00 EMaxC= 1.00D-01 BMatC= 3.54D-06 BMatP= 3.57D-05
 IDIUse=3 WtCom= 9.98D-01 WtEn= 2.39D-03
 Coeff-Com: -0.153D-02 0.732D-02-0.620D-01-0.947D-01 0.254D+00 0.897D+00
 Coeff-En:   0.000D+00 0.000D+00 0.000D+00 0.000D+00 0.000D+00 0.100D+01
 Coeff:     -0.153D-02 0.730D-02-0.619D-01-0.945D-01 0.254D+00 0.897D+00
 Gap=     0.472 Goal=   None    Shift=    0.000
 Gap=     0.279 Goal=   None    Shift=    0.000
 RMSDP=5.12D-05 MaxDP=6.96D-04 DE=-3.63D-05 OVMax= 1.26D-03

 Cycle   7  Pass 0  IDiag  1:
 E= -116.156663965561     Delta-E=       -0.000002135060 Rises=F Damp=F
 DIIS: error= 9.49D-05 at cycle   7 NSaved=   7.
 NSaved= 7 IEnMin= 7 EnMin= -116.156663965561     IErMin= 7 ErrMin= 9.49D-05
 ErrMax= 9.49D-05  0.00D+00 EMaxC= 1.00D-01 BMatC= 3.65D-07 BMatP= 3.54D-06
 IDIUse=1 WtCom= 1.00D+00 WtEn= 0.00D+00
 Coeff-Com:  0.587D-03-0.232D-02 0.377D-01 0.420D-01-0.190D+00-0.355D+00
 Coeff-Com:  0.147D+01
 Coeff:      0.587D-03-0.232D-02 0.377D-01 0.420D-01-0.190D+00-0.355D+00
 Coeff:      0.147D+01
 Gap=     0.472 Goal=   None    Shift=    0.000
 Gap=     0.279 Goal=   None    Shift=    0.000
 RMSDP=3.07D-05 MaxDP=3.42D-04 DE=-2.14D-06 OVMax= 8.04D-04

 Cycle   8  Pass 0  IDiag  1:
 E= -116.156664373236     Delta-E=       -0.000000407675 Rises=F Damp=F
 DIIS: error= 2.06D-05 at cycle   8 NSaved=   8.
 NSaved= 8 IEnMin= 8 EnMin= -116.156664373236     IErMin= 8 ErrMin= 2.06D-05
 ErrMax= 2.06D-05  0.00D+00 EMaxC= 1.00D-01 BMatC= 3.15D-08 BMatP= 3.65D-07
 IDIUse=1 WtCom= 1.00D+00 WtEn= 0.00D+00
 Coeff-Com:  0.114D-03-0.323D-03-0.129D-02-0.215D-02 0.165D-01-0.240D-01
 Coeff-Com: -0.210D+00 0.122D+01
 Coeff:      0.114D-03-0.323D-03-0.129D-02-0.215D-02 0.165D-01-0.240D-01
 Coeff:     -0.210D+00 0.122D+01
 Gap=     0.472 Goal=   None    Shift=    0.000
 Gap=     0.279 Goal=   None    Shift=    0.000
 RMSDP=7.01D-06 MaxDP=7.12D-05 DE=-4.08D-07 OVMax= 1.91D-04

 Initial convergence to 1.0D-05 achieved.  Increase integral accuracy.
 Cycle   9  Pass 1  IDiag  1:
 E= -116.156677089449     Delta-E=       -0.000012716213 Rises=F Damp=F
 DIIS: error= 1.16D-05 at cycle   1 NSaved=   1.
 NSaved= 1 IEnMin= 1 EnMin= -116.156677089449     IErMin= 1 ErrMin= 1.16D-05
 ErrMax= 1.16D-05  0.00D+00 EMaxC= 1.00D-01 BMatC= 3.85D-08 BMatP= 3.85D-08
 IDIUse=1 WtCom= 1.00D+00 WtEn= 0.00D+00
 Coeff-Com:  0.100D+01
 Coeff:      0.100D+01
 Gap=     0.472 Goal=   None    Shift=    0.000
 Gap=     0.279 Goal=   None    Shift=    0.000
 RMSDP=7.01D-06 MaxDP=7.12D-05 DE=-1.27D-05 OVMax= 5.21D-05

 Cycle  10  Pass 1  IDiag  1:
 E= -116.156677101948     Delta-E=       -0.000000012499 Rises=F Damp=F
 DIIS: error= 8.43D-06 at cycle   2 NSaved=   2.
 NSaved= 2 IEnMin= 2 EnMin= -116.156677101948     IErMin= 2 ErrMin= 8.43D-06
 ErrMax= 8.43D-06  0.00D+00 EMaxC= 1.00D-01 BMatC= 5.95D-09 BMatP= 3.85D-08
 IDIUse=1 WtCom= 1.00D+00 WtEn= 0.00D+00
 Coeff-Com:  0.138D+00 0.862D+00
 Coeff:      0.138D+00 0.862D+00
 Gap=     0.472 Goal=   None    Shift=    0.000
 Gap=     0.279 Goal=   None    Shift=    0.000
 RMSDP=1.49D-06 MaxDP=1.43D-05 DE=-1.25D-08 OVMax= 5.24D-05

 Cycle  11  Pass 1  IDiag  1:
 E= -116.156677103199     Delta-E=       -0.000000001251 Rises=F Damp=F
 DIIS: error= 7.77D-06 at cycle   3 NSaved=   3.
 NSaved= 3 IEnMin= 3 EnMin= -116.156677103199     IErMin= 3 ErrMin= 7.77D-06
 ErrMax= 7.77D-06  0.00D+00 EMaxC= 1.00D-01 BMatC= 5.15D-09 BMatP= 5.95D-09
 IDIUse=1 WtCom= 1.00D+00 WtEn= 0.00D+00
 Coeff-Com: -0.876D-01 0.489D+00 0.598D+00
 Coeff:     -0.876D-01 0.489D+00 0.598D+00
 Gap=     0.472 Goal=   None    Shift=    0.000
 Gap=     0.279 Goal=   None    Shift=    0.000
 RMSDP=7.62D-07 MaxDP=7.65D-06 DE=-1.25D-09 OVMax= 1.79D-05

 Cycle  12  Pass 1  IDiag  1:
 E= -116.156677104493     Delta-E=       -0.000000001294 Rises=F Damp=F
 DIIS: error= 1.98D-06 at cycle   4 NSaved=   4.
 NSaved= 4 IEnMin= 4 EnMin= -116.156677104493     IErMin= 4 ErrMin= 1.98D-06
 ErrMax= 1.98D-06  0.00D+00 EMaxC= 1.00D-01 BMatC= 1.17D-10 BMatP= 5.15D-09
 IDIUse=1 WtCom= 1.00D+00 WtEn= 0.00D+00
 Coeff-Com: -0.266D-02-0.107D+00-0.111D+00 0.122D+01
 Coeff:     -0.266D-02-0.107D+00-0.111D+00 0.122D+01
 Gap=     0.472 Goal=   None    Shift=    0.000
 Gap=     0.279 Goal=   None    Shift=    0.000
 RMSDP=4.23D-07 MaxDP=5.19D-06 DE=-1.29D-09 OVMax= 1.35D-05

 Cycle  13  Pass 1  IDiag  1:
 E= -116.156677104676     Delta-E=       -0.000000000183 Rises=F Damp=F
 DIIS: error= 8.30D-07 at cycle   5 NSaved=   5.
 NSaved= 5 IEnMin= 5 EnMin= -116.156677104676     IErMin= 5 ErrMin= 8.30D-07
 ErrMax= 8.30D-07  0.00D+00 EMaxC= 1.00D-01 BMatC= 3.37D-11 BMatP= 1.17D-10
 IDIUse=1 WtCom= 1.00D+00 WtEn= 0.00D+00
 Coeff-Com:  0.150D-01-0.870D-01-0.137D+00 0.836D-01 0.113D+01
 Coeff:      0.150D-01-0.870D-01-0.137D+00 0.836D-01 0.113D+01
 Gap=     0.472 Goal=   None    Shift=    0.000
 Gap=     0.279 Goal=   None    Shift=    0.000
 RMSDP=2.55D-07 MaxDP=2.84D-06 DE=-1.83D-10 OVMax= 7.45D-06

 Cycle  14  Pass 1  IDiag  1:
 E= -116.156677104727     Delta-E=       -0.000000000050 Rises=F Damp=F
 DIIS: error= 5.28D-07 at cycle   6 NSaved=   6.
 NSaved= 6 IEnMin= 6 EnMin= -116.156677104727     IErMin= 6 ErrMin= 5.28D-07
 ErrMax= 5.28D-07  0.00D+00 EMaxC= 1.00D-01 BMatC= 7.86D-12 BMatP= 3.37D-11
 IDIUse=1 WtCom= 1.00D+00 WtEn= 0.00D+00
 Coeff-Com:  0.420D-02-0.274D-02-0.275D-01-0.164D+00 0.287D+00 0.904D+00
 Coeff:      0.420D-02-0.274D-02-0.275D-01-0.164D+00 0.287D+00 0.904D+00
 Gap=     0.472 Goal=   None    Shift=    0.000
 Gap=     0.279 Goal=   None    Shift=    0.000
 RMSDP=1.14D-07 MaxDP=1.74D-06 DE=-5.05D-11 OVMax= 4.64D-06

 Cycle  15  Pass 1  IDiag  1:
 E= -116.156677104739     Delta-E=       -0.000000000013 Rises=F Damp=F
 DIIS: error= 4.12D-07 at cycle   7 NSaved=   7.
 NSaved= 7 IEnMin= 7 EnMin= -116.156677104739     IErMin= 7 ErrMin= 4.12D-07
 ErrMax= 4.12D-07  0.00D+00 EMaxC= 1.00D-01 BMatC= 2.24D-12 BMatP= 7.86D-12
 IDIUse=1 WtCom= 1.00D+00 WtEn= 0.00D+00
 Coeff-Com: -0.440D-02 0.236D-01 0.351D-01 0.113D-01-0.323D+00-0.149D+00
 Coeff-Com:  0.141D+01
 Coeff:     -0.440D-02 0.236D-01 0.351D-01 0.113D-01-0.323D+00-0.149D+00
 Coeff:      0.141D+01
 Gap=     0.472 Goal=   None    Shift=    0.000
 Gap=     0.279 Goal=   None    Shift=    0.000
 RMSDP=1.08D-07 MaxDP=1.99D-06 DE=-1.27D-11 OVMax= 5.27D-06

 Cycle  16  Pass 1  IDiag  1:
 E= -116.156677104747     Delta-E=       -0.000000000008 Rises=F Damp=F
 DIIS: error= 2.81D-07 at cycle   8 NSaved=   8.
 NSaved= 8 IEnMin= 8 EnMin= -116.156677104747     IErMin= 8 ErrMin= 2.81D-07
 ErrMax= 2.81D-07  0.00D+00 EMaxC= 1.00D-01 BMatC= 9.20D-13 BMatP= 2.24D-12
 IDIUse=1 WtCom= 1.00D+00 WtEn= 0.00D+00
 Coeff-Com:  0.264D-02-0.233D-01-0.213D-01 0.601D-01 0.187D+00-0.252D+00
 Coeff-Com: -0.132D+01 0.237D+01
 Coeff:      0.264D-02-0.233D-01-0.213D-01 0.601D-01 0.187D+00-0.252D+00
 Coeff:     -0.132D+01 0.237D+01
 Gap=     0.472 Goal=   None    Shift=    0.000
 Gap=     0.279 Goal=   None    Shift=    0.000
 RMSDP=1.40D-07 MaxDP=2.66D-06 DE=-8.01D-12 OVMax= 7.08D-06

 Cycle  17  Pass 1  IDiag  1:
 E= -116.156677104753     Delta-E=       -0.000000000006 Rises=F Damp=F
 DIIS: error= 1.05D-07 at cycle   9 NSaved=   9.
 NSaved= 9 IEnMin= 9 EnMin= -116.156677104753     IErMin= 9 ErrMin= 1.05D-07
 ErrMax= 1.05D-07  0.00D+00 EMaxC= 1.00D-01 BMatC= 1.86D-13 BMatP= 9.20D-13
 IDIUse=1 WtCom= 1.00D+00 WtEn= 0.00D+00
 Coeff-Com:  0.934D-03-0.434D-02-0.582D-02-0.103D-01 0.784D-01 0.819D-01
 Coeff-Com: -0.266D+00-0.311D+00 0.144D+01
 Coeff:      0.934D-03-0.434D-02-0.582D-02-0.103D-01 0.784D-01 0.819D-01
 Coeff:     -0.266D+00-0.311D+00 0.144D+01
 Gap=     0.472 Goal=   None    Shift=    0.000
 Gap=     0.279 Goal=   None    Shift=    0.000
 RMSDP=6.25D-08 MaxDP=1.18D-06 DE=-5.80D-12 OVMax= 3.15D-06

 Cycle  18  Pass 1  IDiag  1:
 E= -116.156677104754     Delta-E=       -0.000000000001 Rises=F Damp=F
 DIIS: error= 2.72D-08 at cycle  10 NSaved=  10.
 NSaved=10 IEnMin=10 EnMin= -116.156677104754     IErMin=10 ErrMin= 2.72D-08
 ErrMax= 2.72D-08  0.00D+00 EMaxC= 1.00D-01 BMatC= 2.05D-14 BMatP= 1.86D-13
 IDIUse=1 WtCom= 1.00D+00 WtEn= 0.00D+00
 Coeff-Com: -0.447D-03 0.358D-02 0.403D-02-0.128D-01-0.337D-01 0.434D-01
 Coeff-Com:  0.222D+00-0.382D+00-0.944D-01 0.125D+01
 Coeff:     -0.447D-03 0.358D-02 0.403D-02-0.128D-01-0.337D-01 0.434D-01
 Coeff:      0.222D+00-0.382D+00-0.944D-01 0.125D+01
 Gap=     0.472 Goal=   None    Shift=    0.000
 Gap=     0.279 Goal=   None    Shift=    0.000
 RMSDP=1.99D-08 MaxDP=3.70D-07 DE=-1.25D-12 OVMax= 9.92D-07

 Cycle  19  Pass 1  IDiag  1:
 E= -116.156677104754     Delta-E=        0.000000000000 Rises=F Damp=F
 DIIS: error= 4.71D-09 at cycle  11 NSaved=  11.
 NSaved=11 IEnMin=10 EnMin= -116.156677104754     IErMin=11 ErrMin= 4.71D-09
 ErrMax= 4.71D-09  0.00D+00 EMaxC= 1.00D-01 BMatC= 1.30D-15 BMatP= 2.05D-14
 IDIUse=1 WtCom= 1.00D+00 WtEn= 0.00D+00
 Coeff-Com: -0.445D-04 0.605D-04 0.408D-03 0.222D-02-0.320D-02-0.103D-01
 Coeff-Com: -0.255D-02 0.699D-01-0.120D+00-0.139D+00 0.120D+01
 Coeff:     -0.445D-04 0.605D-04 0.408D-03 0.222D-02-0.320D-02-0.103D-01
 Coeff:     -0.255D-02 0.699D-01-0.120D+00-0.139D+00 0.120D+01
 Gap=     0.472 Goal=   None    Shift=    0.000
 Gap=     0.279 Goal=   None    Shift=    0.000
 RMSDP=2.44D-09 MaxDP=3.75D-08 DE= 2.84D-13 OVMax= 1.00D-07

 SCF Done:  E(UM062X) =  -116.156677105     A.U. after   19 cycles
            NFock= 19  Conv=0.24D-08     -V/T= 2.0052
 <Sx>= 0.0000 <Sy>= 0.0000 <Sz>= 0.5000 <S**2>= 0.7591 S= 0.5045
 <L.S>= 0.000000000000E+00
 KE= 1.155558972146D+02 PE=-3.466750173346D+02 EE= 7.784367793442D+01
 Annihilation of the first spin contaminant:
 S**2 before annihilation     0.7591,   after     0.7500
 Leave Link  502 at Wed Oct  7 14:22:47 2020, MaxMem=  2684354560 cpu:              71.2 elap:               6.4
 (Enter /udrive/faculty/rpeverati/g16/g16/l508.exe)
 QCSCF skips out because SCF is already converged.
 Leave Link  508 at Wed Oct  7 14:22:48 2020, MaxMem=  2684354560 cpu:               0.3 elap:               0.5
 (Enter /udrive/faculty/rpeverati/g16/g16/l601.exe)
 Copying SCF densities to generalized density rwf, IOpCl= 1 IROHF=0.

 **********************************************************************

            Population analysis using the SCF density.

 **********************************************************************

 Orbital symmetries:
 Alpha Orbitals:
       Occupied  (A) (A) (A) (A) (A) (A) (A) (A) (A) (A)
       Virtual   (A) (A) (A) (A) (A) (A) (A) (A) (A) (A) (A) (A)
                 (A) (A) (A) (A) (A) (A) (A) (A) (A) (A) (A) (A)
                 (A) (A) (A) (A)
 Beta  Orbitals:
       Occupied  (A) (A) (A) (A) (A) (A) (A) (A) (A)
       Virtual   (A) (A) (A) (A) (A) (A) (A) (A) (A) (A) (A) (A)
                 (A) (A) (A) (A) (A) (A) (A) (A) (A) (A) (A) (A)
                 (A) (A) (A) (A) (A)
 The electronic state is 2-A.
 Alpha  occ. eigenvalues --  -19.65088 -10.54739  -1.10851  -0.80574  -0.56552
 Alpha  occ. eigenvalues --   -0.50269  -0.48603  -0.48329  -0.38761  -0.33681
 Alpha virt. eigenvalues --    0.13471   0.17841   0.21086   0.21385   0.33451
 Alpha virt. eigenvalues --    0.55844   0.55956   0.59566   0.83107   0.89749
 Alpha virt. eigenvalues --    0.95356   0.95540   0.98630   0.99021   1.03943
 Alpha virt. eigenvalues --    1.15743   1.26337   1.64075   1.67691   1.70958
 Alpha virt. eigenvalues --    1.80186   1.81885   1.84648   1.93033   2.27329
 Alpha virt. eigenvalues --    2.27448   2.45195   2.58481
  Beta  occ. eigenvalues --  -19.63880 -10.54296  -1.06362  -0.78496  -0.52470
  Beta  occ. eigenvalues --   -0.47803  -0.47671  -0.43645  -0.36195
  Beta virt. eigenvalues --   -0.08299   0.13984   0.18258   0.21638   0.21925
  Beta virt. eigenvalues --    0.36005   0.56386   0.56480   0.62770   0.82955
  Beta virt. eigenvalues --    0.91664   0.96560   0.96730   0.99419   1.00363
  Beta virt. eigenvalues --    1.05511   1.19320   1.28149   1.66728   1.70585
  Beta virt. eigenvalues --    1.73653   1.82853   1.83054   1.87639   1.96897
  Beta virt. eigenvalues --    2.29404   2.29500   2.46775   2.59880
          Condensed to atoms (all electrons):
               1          2          3          4          5          6
     1  C    5.364559  -0.063248   0.255480   0.370689   0.370054   0.372577
     2  O   -0.063248   8.399225   0.075814  -0.000200   0.000414   0.000163
     3  H    0.255480   0.075814   0.410506  -0.014496  -0.015955  -0.014136
     4  H    0.370689  -0.000200  -0.014496   0.492049  -0.023622  -0.022666
     5  H    0.370054   0.000414  -0.015955  -0.023622   0.507578  -0.022775
     6  H    0.372577   0.000163  -0.014136  -0.022666  -0.022775   0.485513
     7  H    0.012035   0.224674  -0.023748  -0.000134  -0.000672   0.000011
               7
     1  C    0.012035
     2  O    0.224674
     3  H   -0.023748
     4  H   -0.000134
     5  H   -0.000672
     6  H    0.000011
     7  H    0.380048
          Atomic-Atomic Spin Densities.
               1          2          3          4          5          6
     1  C    0.576883  -0.089580   0.044316  -0.014085  -0.012074  -0.014974
     2  O   -0.089580   0.786456  -0.042665   0.002685   0.002453   0.002758
     3  H    0.044316  -0.042665  -0.100663   0.002435   0.003022   0.002079
     4  H   -0.014085   0.002685   0.002435  -0.011616   0.002879   0.003553
     5  H   -0.012074   0.002453   0.003022   0.002879  -0.015794   0.002988
     6  H   -0.014974   0.002758   0.002079   0.003553   0.002988  -0.009681
     7  H    0.004329  -0.006484   0.004650  -0.000166  -0.000219  -0.000148
               7
     1  C    0.004329
     2  O   -0.006484
     3  H    0.004650
     4  H   -0.000166
     5  H   -0.000219
     6  H   -0.000148
     7  H   -0.021089
 Mulliken charges and spin densities:
               1          2
     1  C   -0.682147   0.494815
     2  O   -0.636841   0.655624
     3  H    0.326534  -0.086827
     4  H    0.198379  -0.014314
     5  H    0.184978  -0.016744
     6  H    0.201313  -0.013426
     7  H    0.407785  -0.019127
 Sum of Mulliken charges =   0.00000   1.00000
 Mulliken charges and spin densities with hydrogens summed into heavy atoms:
               1          2
     1  C    0.229056   0.363504
     2  O   -0.229056   0.636496
 Electronic spatial extent (au):  <R**2>=            156.2311
 Charge=              0.0000 electrons
 Dipole moment (field-independent basis, Debye):
    X=             -1.2638    Y=              1.6017    Z=             -0.0027  Tot=              2.0402
 Quadrupole moment (field-independent basis, Debye-Ang):
   XX=            -14.5376   YY=            -12.5864   ZZ=            -14.4578
   XY=              2.6495   XZ=             -0.0005   YZ=              0.0158
 Traceless Quadrupole moment (field-independent basis, Debye-Ang):
   XX=             -0.6770   YY=              1.2742   ZZ=             -0.5972
   XY=              2.6495   XZ=             -0.0005   YZ=              0.0158
 Octapole moment (field-independent basis, Debye-Ang**2):
  XXX=              5.9551  YYY=              2.1400  ZZZ=              0.5350  XYY=              2.9756
  XXY=              3.5306  XXZ=             -0.0077  XZZ=              0.1689  YZZ=             -0.2838
  YYZ=             -0.5364  XYZ=             -0.0679
 Hexadecapole moment (field-independent basis, Debye-Ang**3):
 XXXX=           -151.3457 YYYY=            -19.7017 ZZZZ=            -19.0905 XXXY=              6.6928
 XXXZ=             -0.0065 YYYX=              1.9176 YYYZ=             -0.0232 ZZZX=             -0.8689
 ZZZY=              0.0500 XXYY=            -25.0060 XXZZ=            -27.9009 YYZZ=             -6.7107
 XXYZ=              0.1699 YYXZ=              0.8608 ZZXY=              1.2947
 N-N= 3.711876508092D+01 E-N=-3.466750173455D+02  KE= 1.155558972146D+02
                          Isotropic Fermi Contact Couplings
        Atom                 a.u.       MegaHertz       Gauss      10(-4) cm-1
     1  C(13)              0.14315     160.92273      57.42123      53.67805
     2  O(17)              0.09055     -54.88966     -19.58600     -18.30922
     3  H(1)              -0.02635    -117.78894     -42.03002     -39.29016
     4  H(1)              -0.00404     -18.04849      -6.44015      -6.02033
     5  H(1)              -0.00496     -22.19127      -7.91840      -7.40221
     6  H(1)              -0.00373     -16.66740      -5.94734      -5.55964
     7  H(1)              -0.01010     -45.13911     -16.10676     -15.05679
 --------------------------------------------------------
       Center         ----  Spin Dipole Couplings  ----
                      3XX-RR        3YY-RR        3ZZ-RR
 --------------------------------------------------------
     1   Atom        0.512747     -0.254586     -0.258161
     2   Atom        2.386004     -1.163650     -1.222354
     3   Atom        0.240455     -0.118903     -0.121552
     4   Atom        0.000881     -0.030964      0.030083
     5   Atom       -0.001178      0.031142     -0.029965
     6   Atom        0.001658     -0.001586     -0.000072
     7   Atom       -0.028689      0.120244     -0.091556
 --------------------------------------------------------
                        XY            XZ            YZ
 --------------------------------------------------------
     1   Atom       -0.047303      0.002505     -0.000370
     2   Atom       -0.403073     -0.004427      0.000671
     3   Atom       -0.011497     -0.000223     -0.000136
     4   Atom        0.002270     -0.017643     -0.015626
     5   Atom       -0.014934      0.003606     -0.017888
     6   Atom        0.011714      0.014150      0.033975
     7   Atom        0.026160     -0.000094     -0.000153
 --------------------------------------------------------


 ---------------------------------------------------------------------------------
              Anisotropic Spin Dipole Couplings in Principal Axis System
 ---------------------------------------------------------------------------------

       Atom             a.u.   MegaHertz   Gauss  10(-4) cm-1        Axes

              Baa    -0.2582   -34.652   -12.365   -11.559  0.0140  0.2791  0.9602
     1 C(13)  Bbb    -0.2574   -34.544   -12.326   -11.523  0.0598  0.9583 -0.2794
              Bcc     0.5157    69.197    24.691    23.082  0.9981 -0.0613  0.0033
 
              Baa    -1.2224    88.449    31.561    29.503 -0.0002 -0.0129  0.9999
     2 O(17)  Bbb    -1.2088    87.471    31.212    29.177  0.1114  0.9937  0.0128
              Bcc     2.4312  -175.920   -62.773   -58.681  0.9938 -0.1114 -0.0012
 
              Baa    -0.1216   -64.859   -23.143   -21.635  0.0026  0.0624  0.9980
     3 H(1)   Bbb    -0.1193   -63.632   -22.706   -21.225  0.0318  0.9975 -0.0625
              Bcc     0.2408   128.492    45.849    42.860  0.9995 -0.0319 -0.0006
 
              Baa    -0.0349   -18.594    -6.635    -6.202  0.0617  0.9664  0.2494
     4 H(1)   Bbb    -0.0067    -3.574    -1.275    -1.192  0.9148 -0.1547  0.3731
              Bcc     0.0415    22.168     7.910     7.395 -0.3991 -0.2051  0.8937
 
              Baa    -0.0348   -18.579    -6.630    -6.197  0.0142  0.2647  0.9642
     5 H(1)   Bbb    -0.0067    -3.572    -1.275    -1.192  0.9409  0.3229 -0.1024
              Bcc     0.0415    22.152     7.904     7.389 -0.3385  0.9087 -0.2445
 
              Baa    -0.0349   -18.613    -6.642    -6.209 -0.0480 -0.7050  0.7076
     6 H(1)   Bbb    -0.0067    -3.561    -1.271    -1.188  0.9075 -0.3267 -0.2640
              Bcc     0.0416    22.174     7.912     7.397  0.4172  0.6295  0.6555
 
              Baa    -0.0916   -48.850   -17.431   -16.295  0.0013  0.0006  1.0000
     7 H(1)   Bbb    -0.0331   -17.687    -6.311    -5.900  0.9858 -0.1681 -0.0012
              Bcc     0.1247    66.537    23.742    22.194  0.1681  0.9858 -0.0008
 

 ---------------------------------------------------------------------------------

 No NMR shielding tensors so no spin-rotation constants.
 Leave Link  601 at Wed Oct  7 14:22:49 2020, MaxMem=  2684354560 cpu:               5.1 elap:               0.7
 (Enter /udrive/faculty/rpeverati/g16/g16/l701.exe)
 ... and contract with generalized density number  0.
 Compute integral first derivatives.
 R6Disp: Adding Grimme-D3 dispersion energy 1st derivatives to the gradient.
 Leave Link  701 at Wed Oct  7 14:22:49 2020, MaxMem=  2684354560 cpu:               3.3 elap:               0.5
 (Enter /udrive/faculty/rpeverati/g16/g16/l702.exe)
 L702 exits ... SP integral derivatives will be done elsewhere.
 Leave Link  702 at Wed Oct  7 14:22:50 2020, MaxMem=  2684354560 cpu:               1.5 elap:               0.5
 (Enter /udrive/faculty/rpeverati/g16/g16/l703.exe)
 Integral derivatives from FoFJK, PRISM(SPDF).
 Compute integral first derivatives, UseDBF=F ICtDFT=           0.
 Calling FoFJK, ICntrl=      2127 FMM=F ISym2X=0 I1Cent= 0 IOpClX= 1 NMat=1 NMatS=1 NMatT=0.
 FoFJK:  IHMeth= 1 ICntrl=    2127 DoSepK=F KAlg= 0 I1Cent=           0 FoldK=F
 IRaf=         0 NMat=       1 IRICut=       1 DoRegI=T DoRafI=F ISym2E= 0 IDoP0=0 IntGTp=1.
 FoFCou: FMM=F IPFlag=           0 FMFlag=      100000 FMFlg1=         800
         NFxFlg=           0 DoJE=F BraDBF=F KetDBF=F FulRan=T
         wScrn=  0.000000 ICntrl=      2127 IOpCl=  1 I1Cent=           0 NGrid=           0
         NMat0=    1 NMatS0=      1 NMatT0=    0 NMatD0=    1 NMtDS0=    0 NMtDT0=    0
 Symmetry not used in FoFCou.
 Leave Link  703 at Wed Oct  7 14:22:51 2020, MaxMem=  2684354560 cpu:               8.7 elap:               1.0
 (Enter /udrive/faculty/rpeverati/g16/g16/l716.exe)
 Dipole        =-4.97213883D-01 6.30154645D-01-1.06213658D-03
 ***** Axes restored to original set *****
 -------------------------------------------------------------------
 Center     Atomic                   Forces (Hartrees/Bohr)
 Number     Number              X              Y              Z
 -------------------------------------------------------------------
      1        6           0.004437921    0.000288010   -0.000019658
      2        8          -0.002474783   -0.008122512   -0.000067816
      3        1          -0.000254539   -0.002489099    0.000116472
      4        1          -0.001468638   -0.000575904    0.002359855
      5        1          -0.001274634    0.002680713   -0.000745990
      6        1          -0.001500283   -0.001611034   -0.001648860
      7        1           0.002534956    0.009829826    0.000005997
 -------------------------------------------------------------------
 Cartesian Forces:  Max     0.009829826 RMS     0.003281972
 Leave Link  716 at Wed Oct  7 14:22:52 2020, MaxMem=  2684354560 cpu:               2.3 elap:               0.7
 (Enter /udrive/faculty/rpeverati/g16/g16/l103.exe)

 GradGradGradGradGradGradGradGradGradGradGradGradGradGradGradGradGradGrad
 Berny optimization.
 Optmz: redundant internal coordinate code flag= 1
 FormGI is forming the generalized inverse of G from B-inverse, IUseBI=4.
 Internal  Forces:  Max     0.010071211 RMS     0.002760728
 Search for a saddle point.
 Step number   1 out of a maximum of   50
 All quantities printed in internal units (Hartrees-Bohrs-Radians)
 Swapping is turned off.
 Second derivative matrix not updated -- first step.
 The second derivative matrix:
                          R1        R2        R3        R4        R5
           R1           0.22765
           R2           0.00000   0.35451
           R3           0.00000   0.00000   0.35422
           R4           0.00000   0.00000   0.00000   0.35415
           R5           0.00000   0.00000   0.00000   0.00000   0.19397
           R6           0.00000   0.00000   0.00000   0.00000   0.00000
           A1           0.00000   0.00000   0.00000   0.00000   0.00000
           A2           0.00000   0.00000   0.00000   0.00000   0.00000
           A3           0.00000   0.00000   0.00000   0.00000   0.00000
           A4           0.00000   0.00000   0.00000   0.00000   0.00000
           A5           0.00000   0.00000   0.00000   0.00000   0.00000
           A6           0.00000   0.00000   0.00000   0.00000   0.00000
           A7           0.00000   0.00000   0.00000   0.00000   0.00000
           A8           0.00000   0.00000   0.00000   0.00000   0.00000
           A9           0.00000   0.00000   0.00000   0.00000   0.00000
           D1           0.00000   0.00000   0.00000   0.00000   0.00000
           D2           0.00000   0.00000   0.00000   0.00000   0.00000
           D3           0.00000   0.00000   0.00000   0.00000   0.00000
                          R6        A1        A2        A3        A4
           R6           0.54118
           A1           0.00000   0.16000
           A2           0.00000   0.00000   0.16000
           A3           0.00000   0.00000   0.00000   0.16000
           A4           0.00000   0.00000   0.00000   0.00000   0.16000
           A5           0.00000   0.00000   0.00000   0.00000   0.00000
           A6           0.00000   0.00000   0.00000   0.00000   0.00000
           A7           0.00000   0.00000   0.00000   0.00000   0.00000
           A8           0.00000   0.00000   0.00000   0.00000   0.00000
           A9           0.00000   0.00000   0.00000   0.00000   0.00000
           D1           0.00000   0.00000   0.00000   0.00000   0.00000
           D2           0.00000   0.00000   0.00000   0.00000   0.00000
           D3           0.00000   0.00000   0.00000   0.00000   0.00000
                          A5        A6        A7        A8        A9
           A5           0.16000
           A6           0.00000   0.16000
           A7           0.00000   0.00000   0.16000
           A8           0.00000   0.00000   0.00000   0.00230
           A9           0.00000   0.00000   0.00000   0.00000   0.00230
           D1           0.00000   0.00000   0.00000   0.00000   0.00000
           D2           0.00000   0.00000   0.00000   0.00000   0.00000
           D3           0.00000   0.00000   0.00000   0.00000   0.00000
                          D1        D2        D3
           D1           0.00230
           D2           0.00000   0.00230
           D3           0.00000   0.00000   0.00230
 ITU=  0
 Eigenvectors of the second derivative matrix:
                           1         2         3         4         5
     Eigenvalues --     0.00230   0.00230   0.00230   0.10693   0.10730
   1         R1         0.00000  -0.00000  -0.00000   0.00185  -0.00100
   2         R2         0.00000  -0.00000  -0.00000  -0.00000  -0.00000
   3         R3        -0.00000  -0.00000  -0.00000  -0.00000   0.00000
   4         R4        -0.00000  -0.00000   0.00000  -0.00000   0.00000
   5         R5         0.00000  -0.00000  -0.00000  -0.00241   0.00140
   6         R6        -0.00000  -0.00000   0.00000  -0.00001  -0.00002
   7         A1        -0.00000   0.00000   0.00000  -0.20091  -0.16382
   8         A2        -0.00000  -0.00000   0.00000   0.24943  -0.07126
   9         A3         0.00000  -0.00000  -0.00000  -0.07755   0.24868
  10         A4         0.00000   0.00000  -0.00000   0.14372  -0.59984
  11         A5         0.00000   0.00000   0.00000  -0.57889   0.17299
  12         A6         0.00000   0.00000   0.00000   0.44619   0.42697
  13         A7         0.00000  -0.00000   0.00000   0.00021   0.00032
  14         A8        -0.00059   0.97966  -0.08891  -0.09051   0.05175
  15         A9        -0.41228   0.08269   0.90087   0.03428   0.05212
  16         D1        -0.51927  -0.16381  -0.24420  -0.32197   0.33503
  17         D2        -0.55292   0.01917  -0.16105  -0.13627  -0.45255
  18         D3        -0.50465   0.07887  -0.30814   0.45271   0.10845
                           6         7         8         9        10
     Eigenvalues --     0.16000   0.16000   0.16000   0.16000   0.19397
   1         R1         0.00000  -0.00000   0.00000  -0.00000   0.00002
   2         R2        -0.00000   0.00000   0.00000   0.00000   0.00000
   3         R3        -0.00000   0.00000   0.00000  -0.00000   0.00000
   4         R4         0.00000   0.00000   0.00000   0.00000  -0.00000
   5         R5         0.00000   0.00000   0.00000  -0.00000  -0.99999
   6         R6        -0.00000   0.00000  -0.00000  -0.00000  -0.00000
   7         A1         0.12118   0.06636  -0.81125   0.28679   0.00047
   8         A2         0.26094   0.58820   0.35357   0.46795  -0.00128
   9         A3         0.74324  -0.19260   0.07543  -0.40696   0.00098
  10         A4        -0.15844  -0.27372   0.17743  -0.31216  -0.00217
  11         A5        -0.38430   0.05598   0.32898   0.05253   0.00299
  12         A6        -0.40961  -0.17194  -0.18006  -0.03419  -0.00087
  13         A7        -0.15573   0.71057  -0.19760  -0.65711  -0.00000
  14         A8         0.00000  -0.00000  -0.00000  -0.00000  -0.00019
  15         A9        -0.00000   0.00000   0.00000  -0.00000   0.00001
  16         D1        -0.00000  -0.00000  -0.00000  -0.00000  -0.00080
  17         D2        -0.00000  -0.00000   0.00000  -0.00000   0.00020
  18         D3        -0.00000   0.00000   0.00000  -0.00000   0.00060
                          11        12        13        14        15
     Eigenvalues --     0.22765   0.35415   0.35422   0.35451   0.54118
   1         R1         0.99999   0.00000   0.00000   0.00000   0.00000
   2         R2        -0.00000   0.00000  -0.00000   1.00000  -0.00000
   3         R3        -0.00000  -0.00000   1.00000   0.00000  -0.00000
   4         R4        -0.00000   1.00000   0.00000  -0.00000   0.00000
   5         R5         0.00004  -0.00000   0.00000  -0.00000  -0.00000
   6         R6        -0.00000  -0.00000   0.00000   0.00000   1.00000
   7         A1         0.00045  -0.00000   0.00000   0.00000  -0.00003
   8         A2        -0.00115  -0.00000  -0.00000  -0.00000   0.00001
   9         A3         0.00084  -0.00000   0.00000   0.00000   0.00002
  10         A4        -0.00186   0.00000  -0.00000   0.00000  -0.00005
  11         A5         0.00268  -0.00000  -0.00000  -0.00000  -0.00002
  12         A6        -0.00087   0.00000   0.00000   0.00000   0.00008
  13         A7        -0.00000   0.00000  -0.00000   0.00000   0.00000
  14         A8        -0.00028  -0.00000   0.00000   0.00000   0.00000
  15         A9         0.00001   0.00000   0.00000  -0.00000  -0.00001
  16         D1        -0.00119  -0.00000   0.00000  -0.00000  -0.00002
  17         D2         0.00026  -0.00000   0.00000  -0.00000   0.00008
  18         D3         0.00093   0.00000   0.00000   0.00000  -0.00006
 Eigenvalue     1 is   2.30D-03 should be less than     0.000000 Eigenvector:
                          D2        D1        D3        A9        A8
   1                   -0.55292  -0.51927  -0.50465  -0.41228  -0.00059
                          A7        A1        A2        A6        A4
   1                    0.00000  -0.00000  -0.00000   0.00000   0.00000
 RLam0= 2.30D-03.
 Iter=   1 RLamda= 0.00000000D+00 Sum=-1.71300223D-03.
 Iter=   2 RLamda=-1.71300223D-03 Sum=-1.11270844D-03.
 Iter=   3 RLamda=-1.11270844D-03 Sum=-1.25465349D-03.
 Iter=   4 RLamda=-1.25465349D-03 Sum=-1.21677725D-03.
 Iter=   5 RLamda=-1.21677725D-03 Sum=-1.22658594D-03.
 Iter=   6 RLamda=-1.22658594D-03 Sum=-1.22402566D-03.
 Iter=   7 RLamda=-1.22402566D-03 Sum=-1.22469258D-03.
 Iter=   8 RLamda=-1.22469258D-03 Sum=-1.22451876D-03.
 Iter=   9 RLamda=-1.22451876D-03 Sum=-1.22456406D-03.
 Iter=  10 RLamda=-1.22456406D-03 Sum=-1.22455225D-03.
 Iter=  11 RLamda=-1.22455225D-03 Sum=-1.22455533D-03.
 RFO step:  Lambda0=2.300927789D-03 Lambda=-1.22455225D-03.
 Linear search not attempted -- option 19 set.
 Maximum step size (   0.100) exceeded in Quadratic search.
    -- Step size scaled by   0.185
 Iteration  1 RMS(Cart)=  0.04374861 RMS(Int)=  0.00160416
 Iteration  2 RMS(Cart)=  0.00195209 RMS(Int)=  0.00023741
 Iteration  3 RMS(Cart)=  0.00000133 RMS(Int)=  0.00023741
 Iteration  4 RMS(Cart)=  0.00000000 RMS(Int)=  0.00023741
 ITry= 1 IFail=0 DXMaxC= 1.00D-01 DCOld= 1.00D+10 DXMaxT= 1.00D-01 DXLimC= 3.00D+00 Rises=F
 Variable       Old X    -DE/DX   Delta X   Delta X   Delta X     New X
                                 (Linear)    (Quad)   (Total)
    R1        2.31954  -0.00011   0.00000  -0.00009  -0.00009   2.31946
    R2        2.04949   0.00275   0.00000   0.00143   0.00143   2.05092
    R3        2.04995   0.00298   0.00000   0.00155   0.00155   2.05151
    R4        2.05006   0.00266   0.00000   0.00139   0.00139   2.05144
    R5        2.42740   0.00007   0.00000   0.00007   0.00006   2.42747
    R6        1.82625   0.01007   0.00000   0.00344   0.00344   1.82969
    A1        1.83733   0.00081   0.00000   0.00093   0.00074   1.83806
    A2        1.87391   0.00089   0.00000   0.00106   0.00120   1.87511
    A3        1.81962   0.00078   0.00000   0.00086   0.00089   1.82051
    A4        1.97219  -0.00056   0.00000  -0.00058  -0.00072   1.97147
    A5        1.97699  -0.00089   0.00000  -0.00111  -0.00139   1.97559
    A6        1.96858  -0.00065   0.00000  -0.00073  -0.00029   1.96829
    A7        1.70534   0.00231   0.00000   0.00266   0.00266   1.70800
    A8        3.03150  -0.00179   0.00000  -0.09288  -0.09279   2.93871
    A9        3.14770   0.00008   0.00000  -0.03556  -0.03564   3.11206
    D1       -1.81946   0.00014   0.00000  -0.03700  -0.03687  -1.85632
    D2        0.26733  -0.00001   0.00000  -0.05601  -0.05550   0.21183
    D3        2.35207  -0.00011   0.00000  -0.05877  -0.05939   2.29268
         Item               Value     Threshold  Converged?
 Maximum Force            0.010071     0.000450     NO 
 RMS     Force            0.002761     0.000300     NO 
 Maximum Displacement     0.100269     0.001800     NO 
 RMS     Displacement     0.044233     0.001200     NO 
 Predicted change in Energy=-1.965572D-04
 Lowest energy point so far.  Saving SCF results.
 Largest change from initial coordinates is atom    7       0.055 Angstoms.
 GradGradGradGradGradGradGradGradGradGradGradGradGradGradGradGradGradGrad

 Leave Link  103 at Wed Oct  7 14:22:53 2020, MaxMem=  2684354560 cpu:               4.8 elap:               1.0
 (Enter /udrive/faculty/rpeverati/g16/g16/l202.exe)
                          Input orientation:                          
 ---------------------------------------------------------------------
 Center     Atomic      Atomic             Coordinates (Angstroms)
 Number     Number       Type             X           Y           Z
 ---------------------------------------------------------------------
      1          6           0       -1.201291    0.003300    0.000347
      2          8           0        1.295711   -0.092960    0.021427
      3          1           0        0.013659   -0.171081    0.003187
      4          1           0       -1.526971   -0.231935    1.008550
      5          1           0       -1.380647    1.038831   -0.271791
      6          1           0       -1.571026   -0.696550   -0.742607
      7          1           0        1.370251    0.871414   -0.022078
 ---------------------------------------------------------------------
                    Distance matrix (angstroms):
                    1          2          3          4          5
     1  C    0.000000
     2  O    2.498945   0.000000
     3  H    1.227403   1.284560   0.000000
     4  H    1.085300   2.993537   1.840652   0.000000
     5  H    1.085612   2.920586   1.866437   1.809843   0.000000
     6  H    1.085576   3.027581   1.828538   1.812280   1.808165
     7  H    2.714212   0.968228   1.711074   3.267027   2.767277
                    6          7
     6  H    0.000000
     7  H    3.410100   0.000000
 Stoichiometry    CH5O(2)
 Framework group  C1[X(CH5O)]
 Deg. of freedom    15
 Full point group                 C1      NOp   1
 RotChk:  IX=0 Diff= 6.43D-02
 Largest Abelian subgroup         C1      NOp   1
 Largest concise Abelian subgroup C1      NOp   1
                         Standard orientation:                         
 ---------------------------------------------------------------------
 Center     Atomic      Atomic             Coordinates (Angstroms)
 Number     Number       Type             X           Y           Z
 ---------------------------------------------------------------------
      1          6           0       -1.204615    0.008018    0.000778
      2          8           0        1.291653   -0.107638    0.000353
      3          1           0        0.008943   -0.175343   -0.012483
      4          1           0       -1.525481   -0.269228    0.999805
      5          1           0       -1.377742    1.055893   -0.224023
      6          1           0       -1.584616   -0.655461   -0.769852
      7          1           0        1.373358    0.857136   -0.000944
 ---------------------------------------------------------------------
 Rotational constants (GHZ):         120.3449646           9.3275403           9.1770585
 Leave Link  202 at Wed Oct  7 14:22:54 2020, MaxMem=  2684354560 cpu:               1.2 elap:               0.5
 (Enter /udrive/faculty/rpeverati/g16/g16/l301.exe)
 Standard basis: 6-31G(d) (5D, 7F)
 Ernie: Thresh=  0.10000D-02 Tol=  0.10000D-05 Strict=F.
 There are    40 symmetry adapted cartesian basis functions of A   symmetry.
 There are    38 symmetry adapted basis functions of A   symmetry.
    38 basis functions,    76 primitive gaussians,    40 cartesian basis functions
    10 alpha electrons        9 beta electrons
       nuclear repulsion energy        37.1811014702 Hartrees.
 IExCor= 4336 DFT=T Ex+Corr=M062X ExCW=0 ScaHFX=  0.540000
 ScaDFX=  1.000000  1.000000  1.000000  1.000000 ScalE2=  1.000000  1.000000
 IRadAn=      5 IRanWt=     -1 IRanGd=            0 ICorTp=0 IEmpDi=131
 NAtoms=    7 NActive=    7 NUniq=    7 SFac= 1.00D+00 NAtFMM=   60 NAOKFM=F Big=F
 Integral buffers will be    131072 words long.
 Raffenetti 2 integral format.
 Two-electron integral symmetry is turned on.
 R6Disp:  Grimme-D3 Dispersion energy=       -0.0000171060 Hartrees.
 Nuclear repulsion after empirical dispersion term =       37.1810843642 Hartrees.
 Leave Link  301 at Wed Oct  7 14:22:55 2020, MaxMem=  2684354560 cpu:               1.6 elap:               0.5
 (Enter /udrive/faculty/rpeverati/g16/g16/l302.exe)
 NPDir=0 NMtPBC=     1 NCelOv=     1 NCel=       1 NClECP=     1 NCelD=      1
         NCelK=      1 NCelE2=     1 NClLst=     1 CellRange=     0.0.
 One-electron integrals computed using PRISM.
 One-electron integral symmetry used in STVInt
 NBasis=    38 RedAO= T EigKep=  1.09D-02  NBF=    38
 NBsUse=    38 1.00D-06 EigRej= -1.00D+00 NBFU=    38
 Precomputing XC quadrature grid using
 IXCGrd= 4 IRadAn=           5 IRanWt=          -1 IRanGd=           0 AccXCQ= 0.00D+00.
 Generated NRdTot=       0 NPtTot=           0 NUsed=           0 NTot=          32
 NSgBfM=    40    40    40    40    40 MxSgAt=     7 MxSgA2=     7.
 Leave Link  302 at Wed Oct  7 14:22:56 2020, MaxMem=  2684354560 cpu:               3.4 elap:               0.7
 (Enter /udrive/faculty/rpeverati/g16/g16/l303.exe)
 DipDrv:  MaxL=1.
 Leave Link  303 at Wed Oct  7 14:22:56 2020, MaxMem=  2684354560 cpu:               1.5 elap:               0.4
 (Enter /udrive/faculty/rpeverati/g16/g16/l401.exe)
 Initial guess from the checkpoint file:  "MN_81_RKT04_BH76_M062XD30_631Gs.chk"
 SCF N**3 symmetry information disabled.
 B after Tr=    -0.000000   -0.000000   -0.000000
         Rot=    0.999796   -0.020163   -0.000335    0.001278 Ang=  -2.32 deg.
 Guess basis will be translated and rotated to current coordinates.
 JPrj=2 DoOrth=T DoCkMO=T.
 Initial guess <Sx>= 0.0000 <Sy>= 0.0000 <Sz>= 0.5000 <S**2>= 0.7591 S= 0.5045
 Generating alternative initial guess.
 ExpMin= 1.61D-01 ExpMax= 5.48D+03 ExpMxC= 8.25D+02 IAcc=2 IRadAn=         4 AccDes= 0.00D+00
 Harris functional with IExCor= 1009 and IRadAn=       4 diagonalized for initial guess.
 HarFok:  IExCor= 1009 AccDes= 0.00D+00 IRadAn=         4 IDoV= 1 UseB2=F ITyADJ=14
 ICtDFT=  3500011 ScaDFX=  1.000000  1.000000  1.000000  1.000000
 FoFCou: FMM=F IPFlag=           0 FMFlag=      100000 FMFlg1=           0
         NFxFlg=           0 DoJE=T BraDBF=F KetDBF=T FulRan=T
         wScrn=  0.000000 ICntrl=       500 IOpCl=  0 I1Cent=   200000004 NGrid=           0
         NMat0=    1 NMatS0=      1 NMatT0=    0 NMatD0=    1 NMtDS0=    0 NMtDT0=    0
 Petite list used in FoFCou.
 Harris En= -116.134295285568    
 Leave Link  401 at Wed Oct  7 14:22:58 2020, MaxMem=  2684354560 cpu:               7.5 elap:               1.0
 (Enter /udrive/faculty/rpeverati/g16/g16/l502.exe)
 Keep R1 and R2 ints in memory in canonical form, NReq=10915733.
 FoFCou: FMM=F IPFlag=           0 FMFlag=           0 FMFlg1=           0
         NFxFlg=           0 DoJE=F BraDBF=F KetDBF=F FulRan=T
         wScrn=  0.000000 ICntrl=       600 IOpCl=  0 I1Cent=           0 NGrid=           0
         NMat0=    1 NMatS0=    741 NMatT0=    0 NMatD0=    1 NMtDS0=    0 NMtDT0=    0
 Symmetry not used in FoFCou.
 Two-electron integral symmetry not used.
 UHF open shell SCF:
 Using DIIS extrapolation, IDIIS=  1040.
 NGot=  2684354560 LenX=  2683800373 LenY=  2683798332
 Requested convergence on RMS density matrix=1.00D-08 within 120 cycles.
 Requested convergence on MAX density matrix=1.00D-06.
 Requested convergence on             energy=1.00D-06.
 No special actions if energy rises.
 Integral accuracy reduced to 1.0D-05 until final iterations.

 Cycle   1  Pass 0  IDiag  1:
 E= -116.155780482009    
 DIIS: error= 2.76D-03 at cycle   1 NSaved=   1.
 NSaved= 1 IEnMin= 1 EnMin= -116.155780482009     IErMin= 1 ErrMin= 2.76D-03
 ErrMax= 2.76D-03  0.00D+00 EMaxC= 1.00D-01 BMatC= 2.07D-03 BMatP= 2.07D-03
 IDIUse=3 WtCom= 9.72D-01 WtEn= 2.76D-02
 Coeff-Com:  0.100D+01
 Coeff-En:   0.100D+01
 Coeff:      0.100D+01
 Gap=     0.659 Goal=   None    Shift=    0.000
 Gap=     0.704 Goal=   None    Shift=    0.000
 GapD=    0.659 DampG=2.000 DampE=1.000 DampFc=2.0000 IDamp=-1.
 RMSDP=9.87D-04 MaxDP=7.10D-03              OVMax= 1.01D-02

 Cycle   2  Pass 0  IDiag  1:
 E= -116.156704599969     Delta-E=       -0.000924117960 Rises=F Damp=F
 DIIS: error= 8.67D-04 at cycle   2 NSaved=   2.
 NSaved= 2 IEnMin= 2 EnMin= -116.156704599969     IErMin= 2 ErrMin= 8.67D-04
 ErrMax= 8.67D-04  0.00D+00 EMaxC= 1.00D-01 BMatC= 8.20D-05 BMatP= 2.07D-03
 IDIUse=3 WtCom= 9.91D-01 WtEn= 8.67D-03
 Coeff-Com: -0.168D+00 0.117D+01
 Coeff-En:   0.000D+00 0.100D+01
 Coeff:     -0.166D+00 0.117D+01
 Gap=     0.469 Goal=   None    Shift=    0.000
 Gap=     0.281 Goal=   None    Shift=    0.000
 RMSDP=2.99D-04 MaxDP=2.08D-03 DE=-9.24D-04 OVMax= 4.94D-03

 Cycle   3  Pass 0  IDiag  1:
 E= -116.156776694168     Delta-E=       -0.000072094200 Rises=F Damp=F
 DIIS: error= 4.39D-04 at cycle   3 NSaved=   3.
 NSaved= 3 IEnMin= 3 EnMin= -116.156776694168     IErMin= 3 ErrMin= 4.39D-04
 ErrMax= 4.39D-04  0.00D+00 EMaxC= 1.00D-01 BMatC= 8.17D-06 BMatP= 8.20D-05
 IDIUse=3 WtCom= 9.96D-01 WtEn= 4.39D-03
 Coeff-Com: -0.350D-01 0.656D-01 0.969D+00
 Coeff-En:   0.000D+00 0.000D+00 0.100D+01
 Coeff:     -0.348D-01 0.654D-01 0.969D+00
 Gap=     0.469 Goal=   None    Shift=    0.000
 Gap=     0.280 Goal=   None    Shift=    0.000
 RMSDP=7.59D-05 MaxDP=8.23D-04 DE=-7.21D-05 OVMax= 2.08D-03

 Cycle   4  Pass 0  IDiag  1:
 E= -116.156783568641     Delta-E=       -0.000006874472 Rises=F Damp=F
 DIIS: error= 2.31D-04 at cycle   4 NSaved=   4.
 NSaved= 4 IEnMin= 4 EnMin= -116.156783568641     IErMin= 4 ErrMin= 2.31D-04
 ErrMax= 2.31D-04  0.00D+00 EMaxC= 1.00D-01 BMatC= 2.12D-06 BMatP= 8.17D-06
 IDIUse=3 WtCom= 9.98D-01 WtEn= 2.31D-03
 Coeff-Com:  0.105D-01-0.123D+00 0.204D+00 0.909D+00
 Coeff-En:   0.000D+00 0.000D+00 0.000D+00 0.100D+01
 Coeff:      0.105D-01-0.123D+00 0.203D+00 0.909D+00
 Gap=     0.469 Goal=   None    Shift=    0.000
 Gap=     0.280 Goal=   None    Shift=    0.000
 RMSDP=4.40D-05 MaxDP=5.07D-04 DE=-6.87D-06 OVMax= 1.21D-03

 Cycle   5  Pass 0  IDiag  1:
 E= -116.156785395696     Delta-E=       -0.000001827055 Rises=F Damp=F
 DIIS: error= 1.04D-04 at cycle   5 NSaved=   5.
 NSaved= 5 IEnMin= 5 EnMin= -116.156785395696     IErMin= 5 ErrMin= 1.04D-04
 ErrMax= 1.04D-04  0.00D+00 EMaxC= 1.00D-01 BMatC= 9.75D-07 BMatP= 2.12D-06
 IDIUse=3 WtCom= 9.99D-01 WtEn= 1.04D-03
 Coeff-Com:  0.122D-01-0.583D-01-0.181D+00 0.438D+00 0.789D+00
 Coeff-En:   0.000D+00 0.000D+00 0.000D+00 0.000D+00 0.100D+01
 Coeff:      0.122D-01-0.582D-01-0.180D+00 0.437D+00 0.789D+00
 Gap=     0.469 Goal=   None    Shift=    0.000
 Gap=     0.280 Goal=   None    Shift=    0.000
 RMSDP=2.20D-05 MaxDP=2.76D-04 DE=-1.83D-06 OVMax= 7.18D-04

 Cycle   6  Pass 0  IDiag  1:
 E= -116.156785989524     Delta-E=       -0.000000593828 Rises=F Damp=F
 DIIS: error= 5.16D-05 at cycle   6 NSaved=   6.
 NSaved= 6 IEnMin= 6 EnMin= -116.156785989524     IErMin= 6 ErrMin= 5.16D-05
 ErrMax= 5.16D-05  0.00D+00 EMaxC= 1.00D-01 BMatC= 8.65D-08 BMatP= 9.75D-07
 IDIUse=1 WtCom= 1.00D+00 WtEn= 0.00D+00
 Coeff-Com: -0.672D-03 0.156D-01-0.744D-01-0.594D-01 0.976D-01 0.102D+01
 Coeff:     -0.672D-03 0.156D-01-0.744D-01-0.594D-01 0.976D-01 0.102D+01
 Gap=     0.469 Goal=   None    Shift=    0.000
 Gap=     0.280 Goal=   None    Shift=    0.000
 RMSDP=1.22D-05 MaxDP=1.73D-04 DE=-5.94D-07 OVMax= 4.60D-04

 Cycle   7  Pass 0  IDiag  1:
 E= -116.156786136289     Delta-E=       -0.000000146765 Rises=F Damp=F
 DIIS: error= 3.97D-05 at cycle   7 NSaved=   7.
 NSaved= 7 IEnMin= 7 EnMin= -116.156786136289     IErMin= 7 ErrMin= 3.97D-05
 ErrMax= 3.97D-05  0.00D+00 EMaxC= 1.00D-01 BMatC= 3.41D-08 BMatP= 8.65D-08
 IDIUse=1 WtCom= 1.00D+00 WtEn= 0.00D+00
 Coeff-Com: -0.297D-02 0.179D-01 0.941D-02-0.928D-01-0.153D+00 0.295D+00
 Coeff-Com:  0.927D+00
 Coeff:     -0.297D-02 0.179D-01 0.941D-02-0.928D-01-0.153D+00 0.295D+00
 Coeff:      0.927D+00
 Gap=     0.469 Goal=   None    Shift=    0.000
 Gap=     0.280 Goal=   None    Shift=    0.000
 RMSDP=7.88D-06 MaxDP=1.37D-04 DE=-1.47D-07 OVMax= 3.61D-04

 Initial convergence to 1.0D-05 achieved.  Increase integral accuracy.
 Cycle   8  Pass 1  IDiag  1:
 E= -116.156799920580     Delta-E=       -0.000013784291 Rises=F Damp=F
 DIIS: error= 3.02D-05 at cycle   1 NSaved=   1.
 NSaved= 1 IEnMin= 1 EnMin= -116.156799920580     IErMin= 1 ErrMin= 3.02D-05
 ErrMax= 3.02D-05  0.00D+00 EMaxC= 1.00D-01 BMatC= 3.90D-08 BMatP= 3.90D-08
 IDIUse=1 WtCom= 1.00D+00 WtEn= 0.00D+00
 Coeff-Com:  0.100D+01
 Coeff:      0.100D+01
 Gap=     0.469 Goal=   None    Shift=    0.000
 Gap=     0.280 Goal=   None    Shift=    0.000
 RMSDP=7.88D-06 MaxDP=1.37D-04 DE=-1.38D-05 OVMax= 2.18D-04

 Cycle   9  Pass 1  IDiag  1:
 E= -116.156799955173     Delta-E=       -0.000000034594 Rises=F Damp=F
 DIIS: error= 2.47D-05 at cycle   2 NSaved=   2.
 NSaved= 2 IEnMin= 2 EnMin= -116.156799955173     IErMin= 2 ErrMin= 2.47D-05
 ErrMax= 2.47D-05  0.00D+00 EMaxC= 1.00D-01 BMatC= 8.50D-09 BMatP= 3.90D-08
 IDIUse=1 WtCom= 1.00D+00 WtEn= 0.00D+00
 Coeff-Com: -0.682D-01 0.107D+01
 Coeff:     -0.682D-01 0.107D+01
 Gap=     0.469 Goal=   None    Shift=    0.000
 Gap=     0.280 Goal=   None    Shift=    0.000
 RMSDP=3.86D-06 MaxDP=7.18D-05 DE=-3.46D-08 OVMax= 1.90D-04

 Cycle  10  Pass 1  IDiag  1:
 E= -116.156799973792     Delta-E=       -0.000000018618 Rises=F Damp=F
 DIIS: error= 1.99D-05 at cycle   3 NSaved=   3.
 NSaved= 3 IEnMin= 3 EnMin= -116.156799973792     IErMin= 3 ErrMin= 1.99D-05
 ErrMax= 1.99D-05  0.00D+00 EMaxC= 1.00D-01 BMatC= 5.81D-09 BMatP= 8.50D-09
 IDIUse=1 WtCom= 1.00D+00 WtEn= 0.00D+00
 Coeff-Com: -0.118D+00 0.329D+00 0.789D+00
 Coeff:     -0.118D+00 0.329D+00 0.789D+00
 Gap=     0.469 Goal=   None    Shift=    0.000
 Gap=     0.280 Goal=   None    Shift=    0.000
 RMSDP=2.65D-06 MaxDP=4.97D-05 DE=-1.86D-08 OVMax= 1.32D-04

 Cycle  11  Pass 1  IDiag  1:
 E= -116.156799984458     Delta-E=       -0.000000010667 Rises=F Damp=F
 DIIS: error= 1.66D-05 at cycle   4 NSaved=   4.
 NSaved= 4 IEnMin= 4 EnMin= -116.156799984458     IErMin= 4 ErrMin= 1.66D-05
 ErrMax= 1.66D-05  0.00D+00 EMaxC= 1.00D-01 BMatC= 3.60D-09 BMatP= 5.81D-09
 IDIUse=1 WtCom= 1.00D+00 WtEn= 0.00D+00
 Coeff-Com:  0.511D-01-0.108D+01 0.124D+00 0.190D+01
 Coeff:      0.511D-01-0.108D+01 0.124D+00 0.190D+01
 Gap=     0.469 Goal=   None    Shift=    0.000
 Gap=     0.280 Goal=   None    Shift=    0.000
 RMSDP=7.26D-06 MaxDP=1.39D-04 DE=-1.07D-08 OVMax= 3.67D-04

 Cycle  12  Pass 1  IDiag  1:
 E= -116.156800003541     Delta-E=       -0.000000019082 Rises=F Damp=F
 DIIS: error= 7.39D-06 at cycle   5 NSaved=   5.
 NSaved= 5 IEnMin= 5 EnMin= -116.156800003541     IErMin= 5 ErrMin= 7.39D-06
 ErrMax= 7.39D-06  0.00D+00 EMaxC= 1.00D-01 BMatC= 1.02D-09 BMatP= 3.60D-09
 IDIUse=1 WtCom= 1.00D+00 WtEn= 0.00D+00
 Coeff-Com:  0.810D-01-0.601D+00-0.318D+00 0.809D+00 0.103D+01
 Coeff:      0.810D-01-0.601D+00-0.318D+00 0.809D+00 0.103D+01
 Gap=     0.469 Goal=   None    Shift=    0.000
 Gap=     0.280 Goal=   None    Shift=    0.000
 RMSDP=4.33D-06 MaxDP=8.27D-05 DE=-1.91D-08 OVMax= 2.19D-04

 Cycle  13  Pass 1  IDiag  1:
 E= -116.156800007998     Delta-E=       -0.000000004458 Rises=F Damp=F
 DIIS: error= 1.89D-06 at cycle   6 NSaved=   6.
 NSaved= 6 IEnMin= 6 EnMin= -116.156800007998     IErMin= 6 ErrMin= 1.89D-06
 ErrMax= 1.89D-06  0.00D+00 EMaxC= 1.00D-01 BMatC= 1.08D-10 BMatP= 1.02D-09
 IDIUse=1 WtCom= 1.00D+00 WtEn= 0.00D+00
 Coeff-Com:  0.527D-02 0.914D-01-0.130D+00-0.169D+00 0.195D+00 0.101D+01
 Coeff:      0.527D-02 0.914D-01-0.130D+00-0.169D+00 0.195D+00 0.101D+01
 Gap=     0.469 Goal=   None    Shift=    0.000
 Gap=     0.280 Goal=   None    Shift=    0.000
 RMSDP=1.26D-06 MaxDP=2.39D-05 DE=-4.46D-09 OVMax= 6.36D-05

 Cycle  14  Pass 1  IDiag  1:
 E= -116.156800008328     Delta-E=       -0.000000000330 Rises=F Damp=F
 DIIS: error= 3.20D-07 at cycle   7 NSaved=   7.
 NSaved= 7 IEnMin= 7 EnMin= -116.156800008328     IErMin= 7 ErrMin= 3.20D-07
 ErrMax= 3.20D-07  0.00D+00 EMaxC= 1.00D-01 BMatC= 9.74D-12 BMatP= 1.08D-10
 IDIUse=1 WtCom= 1.00D+00 WtEn= 0.00D+00
 Coeff-Com: -0.963D-02 0.732D-01 0.324D-01-0.757D-01-0.153D+00-0.461D-01
 Coeff-Com:  0.118D+01
 Coeff:     -0.963D-02 0.732D-01 0.324D-01-0.757D-01-0.153D+00-0.461D-01
 Coeff:      0.118D+01
 Gap=     0.469 Goal=   None    Shift=    0.000
 Gap=     0.280 Goal=   None    Shift=    0.000
 RMSDP=2.34D-07 MaxDP=3.99D-06 DE=-3.30D-10 OVMax= 1.07D-05

 Cycle  15  Pass 1  IDiag  1:
 E= -116.156800008343     Delta-E=       -0.000000000014 Rises=F Damp=F
 DIIS: error= 1.25D-07 at cycle   8 NSaved=   8.
 NSaved= 8 IEnMin= 8 EnMin= -116.156800008343     IErMin= 8 ErrMin= 1.25D-07
 ErrMax= 1.25D-07  0.00D+00 EMaxC= 1.00D-01 BMatC= 6.70D-13 BMatP= 9.74D-12
 IDIUse=1 WtCom= 1.00D+00 WtEn= 0.00D+00
 Coeff-Com:  0.157D-02-0.203D-01-0.144D-02 0.341D-01 0.118D-01-0.741D-01
 Coeff-Com: -0.229D+00 0.128D+01
 Coeff:      0.157D-02-0.203D-01-0.144D-02 0.341D-01 0.118D-01-0.741D-01
 Coeff:     -0.229D+00 0.128D+01
 Gap=     0.469 Goal=   None    Shift=    0.000
 Gap=     0.280 Goal=   None    Shift=    0.000
 RMSDP=4.20D-08 MaxDP=4.39D-07 DE=-1.43D-11 OVMax= 1.19D-06

 Cycle  16  Pass 1  IDiag  1:
 E= -116.156800008344     Delta-E=       -0.000000000001 Rises=F Damp=F
 DIIS: error= 3.27D-08 at cycle   9 NSaved=   9.
 NSaved= 9 IEnMin= 9 EnMin= -116.156800008344     IErMin= 9 ErrMin= 3.27D-08
 ErrMax= 3.27D-08  0.00D+00 EMaxC= 1.00D-01 BMatC= 5.24D-14 BMatP= 6.70D-13
 IDIUse=1 WtCom= 1.00D+00 WtEn= 0.00D+00
 Coeff-Com:  0.426D-03-0.197D-02-0.393D-02 0.265D-02 0.817D-02 0.146D-01
 Coeff-Com: -0.482D-01-0.195D+00 0.122D+01
 Coeff:      0.426D-03-0.197D-02-0.393D-02 0.265D-02 0.817D-02 0.146D-01
 Coeff:     -0.482D-01-0.195D+00 0.122D+01
 Gap=     0.469 Goal=   None    Shift=    0.000
 Gap=     0.280 Goal=   None    Shift=    0.000
 RMSDP=9.28D-09 MaxDP=1.03D-07 DE=-8.53D-13 OVMax= 2.26D-07

 SCF Done:  E(UM062X) =  -116.156800008     A.U. after   16 cycles
            NFock= 16  Conv=0.93D-08     -V/T= 2.0053
 <Sx>= 0.0000 <Sy>= 0.0000 <Sz>= 0.5000 <S**2>= 0.7589 S= 0.5045
 <L.S>= 0.000000000000E+00
 KE= 1.155499754614D+02 PE=-3.467895543151D+02 EE= 7.790169448109D+01
 Annihilation of the first spin contaminant:
 S**2 before annihilation     0.7589,   after     0.7500
 Leave Link  502 at Wed Oct  7 14:23:03 2020, MaxMem=  2684354560 cpu:              59.0 elap:               5.3
 (Enter /udrive/faculty/rpeverati/g16/g16/l508.exe)
 QCSCF skips out because SCF is already converged.
 Leave Link  508 at Wed Oct  7 14:23:04 2020, MaxMem=  2684354560 cpu:               0.4 elap:               0.7
 (Enter /udrive/faculty/rpeverati/g16/g16/l701.exe)
 ... and contract with generalized density number  0.
 Compute integral first derivatives.
 R6Disp: Adding Grimme-D3 dispersion energy 1st derivatives to the gradient.
 Leave Link  701 at Wed Oct  7 14:23:05 2020, MaxMem=  2684354560 cpu:               3.9 elap:               0.9
 (Enter /udrive/faculty/rpeverati/g16/g16/l702.exe)
 L702 exits ... SP integral derivatives will be done elsewhere.
 Leave Link  702 at Wed Oct  7 14:23:06 2020, MaxMem=  2684354560 cpu:               2.3 elap:               0.8
 (Enter /udrive/faculty/rpeverati/g16/g16/l703.exe)
 Integral derivatives from FoFJK, PRISM(SPDF).
 Compute integral first derivatives, UseDBF=F ICtDFT=           0.
 Calling FoFJK, ICntrl=      2127 FMM=F ISym2X=0 I1Cent= 0 IOpClX= 1 NMat=1 NMatS=1 NMatT=0.
 FoFJK:  IHMeth= 1 ICntrl=    2127 DoSepK=F KAlg= 0 I1Cent=           0 FoldK=F
 IRaf=         0 NMat=       1 IRICut=       1 DoRegI=T DoRafI=F ISym2E= 0 IDoP0=0 IntGTp=1.
 FoFCou: FMM=F IPFlag=           0 FMFlag=      100000 FMFlg1=         800
         NFxFlg=           0 DoJE=F BraDBF=F KetDBF=F FulRan=T
         wScrn=  0.000000 ICntrl=      2127 IOpCl=  1 I1Cent=           0 NGrid=           0
         NMat0=    1 NMatS0=      1 NMatT0=    0 NMatD0=    1 NMtDS0=    0 NMtDT0=    0
 Symmetry not used in FoFCou.
 Leave Link  703 at Wed Oct  7 14:23:08 2020, MaxMem=  2684354560 cpu:               9.5 elap:               1.3
 (Enter /udrive/faculty/rpeverati/g16/g16/l716.exe)
 Dipole        =-5.14831718D-01 6.20415008D-01-3.74652505D-03
 ***** Axes restored to original set *****
 -------------------------------------------------------------------
 Center     Atomic                   Forces (Hartrees/Bohr)
 Number     Number              X              Y              Z
 -------------------------------------------------------------------
      1        6           0.004032384   -0.000859394   -0.000097577
      2        8          -0.001440179   -0.006924468    0.000120676
      3        1          -0.000453245   -0.000750117    0.000451837
      4        1          -0.001308286   -0.000271251    0.001904999
      5        1          -0.001167967    0.002090367   -0.000563808
      6        1          -0.001587683   -0.001125012   -0.001512365
      7        1           0.001924976    0.007839875   -0.000303762
 -------------------------------------------------------------------
 Cartesian Forces:  Max     0.007839875 RMS     0.002679893
 Leave Link  716 at Wed Oct  7 14:23:09 2020, MaxMem=  2684354560 cpu:               1.7 elap:               0.6
 (Enter /udrive/faculty/rpeverati/g16/g16/l103.exe)

 GradGradGradGradGradGradGradGradGradGradGradGradGradGradGradGradGradGrad
 Berny optimization.
 Optmz: redundant internal coordinate code flag= 1
 Red2BG:  D1=  1.38D-01 OD1=  1.97D-01 B2RMS=  0.00D+00 IAprox=0
 FormGI is forming the generalized inverse of G from B-inverse, IUseBI=4.
 Internal  Forces:  Max     0.007970218 RMS     0.002235816
 Search for a saddle point.
 Step number   2 out of a maximum of   50
 All quantities printed in internal units (Hartrees-Bohrs-Radians)
 Swapping is turned off.
 Update second derivatives using D2CorX and points    1    2
 The second derivative matrix:
                          R1        R2        R3        R4        R5
           R1           0.22767
           R2          -0.00001   0.35451
           R3          -0.00003   0.00001   0.35425
           R4           0.00002  -0.00001  -0.00003   0.35417
           R5           0.00009  -0.00005  -0.00012   0.00009   0.19440
           R6          -0.00006   0.00002   0.00007  -0.00007  -0.00028
           A1           0.00001  -0.00001  -0.00002   0.00001   0.00005
           A2           0.00004  -0.00002  -0.00005   0.00004   0.00018
           A3           0.00009  -0.00005  -0.00012   0.00009   0.00041
           A4          -0.00006   0.00003   0.00009  -0.00006  -0.00029
           A5          -0.00000   0.00000   0.00000   0.00000  -0.00000
           A6          -0.00005   0.00003   0.00007  -0.00005  -0.00025
           A7           0.00009  -0.00005  -0.00013   0.00009   0.00042
           A8           0.00073  -0.00021  -0.00082   0.00089   0.00342
           A9           0.00016  -0.00002  -0.00015   0.00022   0.00075
           D1           0.00012   0.00000  -0.00010   0.00018   0.00057
           D2           0.00020  -0.00001  -0.00017   0.00029   0.00094
           D3           0.00021  -0.00001  -0.00018   0.00032   0.00102
                          R6        A1        A2        A3        A4
           R6           0.54135
           A1          -0.00004   0.16001
           A2          -0.00012   0.00002   0.16007
           A3          -0.00027   0.00005   0.00017   0.16039
           A4           0.00019  -0.00003  -0.00012  -0.00028   0.16020
           A5           0.00001   0.00000   0.00000  -0.00000   0.00000
           A6           0.00016  -0.00003  -0.00010  -0.00024   0.00017
           A7          -0.00028   0.00005   0.00017   0.00040  -0.00028
           A8          -0.00186   0.00049   0.00154   0.00337  -0.00239
           A9          -0.00035   0.00012   0.00036   0.00076  -0.00054
           D1          -0.00023   0.00010   0.00029   0.00059  -0.00042
           D2          -0.00039   0.00016   0.00046   0.00095  -0.00068
           D3          -0.00042   0.00017   0.00050   0.00103  -0.00074
                          A5        A6        A7        A8        A9
           A5           0.16000
           A6           0.00000   0.16014
           A7           0.00000  -0.00024   0.16040
           A8          -0.00017  -0.00202   0.00362   0.01941
           A9          -0.00006  -0.00045   0.00084   0.00210   0.00212
           D1          -0.00006  -0.00035   0.00067   0.00054  -0.00054
           D2          -0.00010  -0.00056   0.00109   0.00140  -0.00069
           D3          -0.00010  -0.00061   0.00118   0.00161  -0.00071
                          D1        D2        D3
           D1           0.00146
           D2          -0.00116   0.00072
           D3          -0.00122  -0.00166   0.00055
 ITU=  0  0
 Eigenvectors of the second derivative matrix:
                           1         2         3         4         5
     Eigenvalues --    -0.00240   0.00230   0.01901   0.10592   0.10867
   1         R1        -0.00109   0.00000   0.00347  -0.00430  -0.00257
   2         R2        -0.00003   0.00000  -0.00060   0.00015   0.00012
   3         R3         0.00057   0.00000  -0.00247   0.00047   0.00034
   4         R4        -0.00113  -0.00000   0.00278  -0.00041  -0.00028
   5         R5        -0.00632  -0.00000   0.02027  -0.00006  -0.00119
   6         R6         0.00086  -0.00000  -0.00361   0.00055   0.00052
   7         A1        -0.00191   0.00000   0.00622   0.22313  -0.13735
   8         A2        -0.00276   0.00000   0.00670  -0.26122  -0.06547
   9         A3        -0.00867  -0.00000   0.02816   0.08529   0.23627
  10         A4         0.00743   0.00000  -0.02477  -0.13709  -0.61780
  11         A5        -0.00160  -0.00000   0.00918   0.55743   0.17459
  12         A6         0.00532   0.00000  -0.01862  -0.44672   0.42660
  13         A7        -0.00899  -0.00000   0.02666  -0.00710  -0.00737
[...]
 The second derivative matrix:
                          R1        R2        R3        R4        R5
           R1           0.13533
           R2           0.00142   0.36430
           R3           0.00144   0.00089   0.36332
           R4           0.00144   0.00066   0.00089   0.36443
           R5           0.11257  -0.00008   0.00009  -0.00013   0.02415
           R6           0.00356  -0.00008   0.00023  -0.00009  -0.00718
           A1           0.01473   0.00172  -0.00617  -0.00657  -0.00735
           A2           0.01574  -0.00631   0.00089  -0.00636  -0.00508
           A3           0.01464  -0.00660  -0.00624   0.00180  -0.00822
           A4          -0.01311   0.00651   0.00670  -0.00353   0.00518
           A5          -0.01268   0.00676  -0.00367   0.00681   0.00750
           A6          -0.01324  -0.00352   0.00673   0.00649   0.00522
           A7          -0.00023  -0.00059   0.00130  -0.00088   0.01021
           A8           0.00314   0.00115  -0.00260   0.00165   0.00581
           A9          -0.00007  -0.00204   0.00027   0.00182  -0.00004
           D1           0.00039  -0.00010  -0.00522   0.00467  -0.00158
           D2           0.00007   0.00490   0.00002  -0.00492   0.00021
           D3          -0.00045  -0.00471   0.00528   0.00002   0.00139
                          R6        A1        A2        A3        A4
           R6           0.50393
           A1          -0.00139   0.07855
           A2          -0.00065  -0.00642   0.08291
           A3          -0.00159  -0.00767  -0.00669   0.07860
           A4           0.00098  -0.02388  -0.02848  -0.00336   0.05744
           A5           0.00099  -0.02870  -0.00305  -0.02839  -0.00495
           A6           0.00117  -0.00336  -0.02881  -0.02380  -0.00486
           A7           0.00667   0.00071  -0.00163   0.00126   0.00006
           A8          -0.00275   0.00335  -0.00028   0.00400  -0.00659
           A9           0.00001  -0.00106   0.00004   0.00091  -0.00253
           D1           0.00001  -0.00011  -0.00548   0.00607  -0.01973
           D2           0.00006   0.00359   0.00021  -0.00360   0.02068
           D3          -0.00015  -0.00617   0.00562  -0.00001  -0.00070
                          A5        A6        A7        A8        A9
           A5           0.06280
           A6          -0.00482   0.05779
           A7          -0.00014  -0.00021   0.10672
           A8           0.00651  -0.00580   0.00453   0.02494
           A9          -0.00064   0.00325   0.00003  -0.00005   0.00516
           D1           0.01919   0.00070  -0.00010   0.00222   0.00055
           D2           0.00003  -0.02101   0.00004  -0.00011  -0.00217
           D3          -0.01892   0.01967   0.00014  -0.00225   0.00123
                          D1        D2        D3
           D1           0.01691
           D2          -0.00840   0.01675
           D3          -0.00782  -0.00845   0.01673
 ITU=  0
 Eigenvectors of the second derivative matrix:
                           1         2         3         4         5
     Eigenvalues --    -0.05275   0.00028   0.00485   0.02288   0.07095
   1         R1         0.52751   0.00056   0.00062  -0.05319   0.00360
   2         R2        -0.00569   0.00040   0.00346  -0.00069  -0.02483
   3         R3        -0.00595   0.00019  -0.00028  -0.00074   0.04472
   4         R4        -0.00566  -0.00064  -0.00328  -0.00142  -0.01592
   5         R5        -0.82440  -0.00063  -0.00034   0.03699  -0.02236
   6         R6        -0.01535  -0.00013  -0.00008   0.00703   0.00279
   7         A1        -0.08461  -0.01988   0.00366  -0.02573   0.31898
   8         A2        -0.07154   0.00193   0.00030   0.01493  -0.45878
   9         A3        -0.08992   0.01853  -0.00343  -0.03122   0.20717
  10         A4         0.06789  -0.00578   0.00030   0.03800  -0.19262
  11         A5         0.07677   0.00128   0.00250  -0.04102   0.44043
  12         A6         0.06829   0.00411  -0.00321   0.03790  -0.29240
  13         A7         0.05323   0.00066  -0.00015  -0.05668  -0.05294
  14         A8         0.05035  -0.00498  -0.00184   0.96053   0.19526
  15         A9        -0.00016  -0.05932   0.99181   0.00456  -0.01991
  16         D1        -0.02136  -0.57450  -0.06591  -0.18827   0.34480
  17         D2         0.00220  -0.57639   0.05674   0.01113   0.05443
  18         D3         0.01989  -0.57739  -0.09319   0.16704  -0.40212
                           6         7         8         9        10
     Eigenvalues --     0.07308   0.10055   0.10565   0.10867   0.11708
   1         R1         0.00410  -0.01091  -0.09073   0.03143  -0.07474
   2         R2         0.03505   0.00516   0.00509  -0.00938   0.03278
   3         R3         0.00586   0.00045   0.00907   0.00339   0.03130
   4         R4        -0.04013  -0.00343   0.00651  -0.00956   0.03280
   5         R5        -0.00490  -0.00287  -0.03594   0.03342  -0.27250
   6         R6         0.00062  -0.00147  -0.01205   0.00709   0.00649
   7         A1        -0.39638   0.53620  -0.13135  -0.31881   0.37286
   8         A2        -0.05369   0.02819   0.40722   0.45276   0.46158
   9         A3         0.46452  -0.53755  -0.04081  -0.34292   0.37152
  10         A4        -0.43845  -0.44554  -0.17848  -0.15394  -0.33244
  11         A5         0.05671   0.00781   0.22935   0.48395  -0.37328
  12         A6         0.37465   0.41523  -0.24911  -0.14219  -0.33866
  13         A7        -0.01193   0.07567   0.80083  -0.52848  -0.24903
  14         A8         0.03664   0.00714   0.08514   0.00792   0.01466
  15         A9         0.06273   0.02029  -0.00441  -0.00401  -0.00048
  16         D1         0.27046   0.08040   0.06592   0.09102  -0.00773
  17         D2        -0.41872  -0.18338   0.01578  -0.00026   0.00271
  18         D3         0.17774   0.07281  -0.07565  -0.08749   0.00557
                          11        12        13        14        15
     Eigenvalues --     0.21066   0.36352   0.36456   0.36658   0.50419
   1         R1        -0.83897   0.00059  -0.00017   0.00369   0.00497
   2         R2        -0.00482  -0.35766  -0.71061   0.60331  -0.00027
   3         R3        -0.00443   0.88047  -0.04504   0.46859   0.00239
   4         R4        -0.00521  -0.30636   0.70005   0.64258  -0.00039
   5         R5        -0.49148   0.00116  -0.00034   0.00365  -0.01331
   6         R6        -0.00316  -0.00255   0.00023  -0.00101   0.99972
   7         A1        -0.09114  -0.01364  -0.01865  -0.02416  -0.00311
   8         A2        -0.11527   0.01596   0.00007  -0.02951  -0.00149
   9         A3        -0.08711  -0.01252   0.02122  -0.02304  -0.00358
  10         A4         0.08833   0.01650  -0.02580   0.01932   0.00226
  11         A5         0.07623  -0.02689   0.00038   0.02641   0.00215
  12         A6         0.08930   0.01837   0.02336   0.02077   0.00266
  13         A7        -0.04833   0.00593  -0.00094  -0.00110   0.01636
  14         A8        -0.03727  -0.01106   0.00152   0.00098  -0.00581
  15         A9         0.00056   0.00131   0.00825   0.00021   0.00003
  16         D1         0.00144  -0.02068   0.01253   0.00192  -0.00002
  17         D2        -0.00129  -0.00083  -0.02389  -0.00070   0.00012
  18         D3        -0.00033   0.02178   0.01098  -0.00138  -0.00025
 Eigenvalue     1 is  -5.27D-02 should be greater than     0.000000 Eigenvector:
                          R5        R1        A3        A1        A5
   1                   -0.82440   0.52751  -0.08992  -0.08461   0.07677
                          A2        A6        A4        A7        A8
   1                   -0.07154   0.06829   0.06789   0.05323   0.05035
 Angle between quadratic step and forces=  76.53 degrees.
 Linear search not attempted -- first point.
 Iteration  1 RMS(Cart)=  0.00113714 RMS(Int)=  0.00000327
 Iteration  2 RMS(Cart)=  0.00000220 RMS(Int)=  0.00000015
 Iteration  3 RMS(Cart)=  0.00000000 RMS(Int)=  0.00000015
 ITry= 1 IFail=0 DXMaxC= 3.29D-03 DCOld= 1.00D+10 DXMaxT= 3.00D-01 DXLimC= 3.00D+00 Rises=F
 Variable       Old X    -DE/DX   Delta X   Delta X   Delta X     New X
                                 (Linear)    (Quad)   (Total)
    R1        2.32735  -0.00001   0.00000  -0.00038  -0.00038   2.32697
    R2        2.05756  -0.00001   0.00000  -0.00004  -0.00004   2.05752
    R3        2.05816  -0.00000   0.00000  -0.00000  -0.00000   2.05816
    R4        2.05770   0.00000   0.00000   0.00002   0.00002   2.05772
    R5        2.41220   0.00006   0.00000   0.00092   0.00092   2.41312
    R6        1.84460   0.00001   0.00000   0.00004   0.00004   1.84464
    A1        1.83998   0.00002   0.00000   0.00011   0.00011   1.84009
    A2        1.88227  -0.00002   0.00000  -0.00014  -0.00014   1.88213
    A3        1.83192  -0.00002   0.00000  -0.00009  -0.00009   1.83183
    A4        1.96416   0.00001   0.00000   0.00004   0.00004   1.96420
    A5        1.97165   0.00001   0.00000   0.00003   0.00003   1.97168
    A6        1.96206   0.00001   0.00000   0.00004   0.00004   1.96210
    A7        1.73140  -0.00004   0.00000  -0.00039  -0.00039   1.73101
    A8        2.94417  -0.00001   0.00000  -0.00019  -0.00019   2.94397
    A9        3.15856  -0.00002   0.00000  -0.00353  -0.00353   3.15503
    D1       -1.94701  -0.00000   0.00000  -0.00376  -0.00376  -1.95076
    D2        0.12600   0.00000   0.00000  -0.00407  -0.00407   0.12193
    D3        2.19798  -0.00001   0.00000  -0.00381  -0.00381   2.19417
         Item               Value     Threshold  Converged?
 Maximum Force            0.000060     0.000450     YES
 RMS     Force            0.000020     0.000300     YES
 Maximum Displacement     0.003293     0.001800     NO 
 RMS     Displacement     0.001137     0.001200     YES
 Predicted change in Energy=-1.252436D-07
                           ----------------------------
                           ! Non-Optimized Parameters !
                           ! (Angstroms and Degrees)  !
 --------------------------                            --------------------------
 ! Name  Definition              Value          Derivative Info.                !
 --------------------------------------------------------------------------------
 ! R1    R(1,3)                  1.2314         -DE/DX =    0.0                 !
 ! R2    R(1,4)                  1.0888         -DE/DX =    0.0                 !
 ! R3    R(1,5)                  1.0891         -DE/DX =    0.0                 !
 ! R4    R(1,6)                  1.0889         -DE/DX =    0.0                 !
 ! R5    R(2,3)                  1.277          -DE/DX =    0.0001              !
 ! R6    R(2,7)                  0.9761         -DE/DX =    0.0                 !
 ! A1    A(3,1,4)              105.4293         -DE/DX =    0.0                 !
 ! A2    A(3,1,5)              107.8379         -DE/DX =    0.0                 !
 ! A3    A(3,1,6)              104.9562         -DE/DX =    0.0                 !
 ! A4    A(4,1,5)              112.5402         -DE/DX =    0.0                 !
 ! A5    A(4,1,6)              112.9692         -DE/DX =    0.0                 !
 ! A6    A(5,1,6)              112.4198         -DE/DX =    0.0                 !
 ! A7    A(3,2,7)               99.1795         -DE/DX =    0.0                 !
 ! A8    L(1,3,2,7,-1)         168.6773         -DE/DX =    0.0                 !
 ! A9    L(1,3,2,7,-2)         180.7699         -DE/DX =    0.0                 !
 ! D1    D(4,1,2,7)           -111.7706         -DE/DX =    0.0                 !
 ! D2    D(5,1,2,7)              6.9862         -DE/DX =    0.0                 !
 ! D3    D(6,1,2,7)            125.7166         -DE/DX =    0.0                 !
 --------------------------------------------------------------------------------
 GradGradGradGradGradGradGradGradGradGradGradGradGradGradGradGradGradGrad

 Leave Link  103 at Wed Oct  7 14:25:48 2020, MaxMem=  2684354560 cpu:               1.8 elap:               0.4
 (Enter /udrive/faculty/rpeverati/g16/g16/l9999.exe)

 ----------------------------------------------------------------------

 Electric dipole moment (input orientation):
 (Debye = 10**-18 statcoulomb cm , SI units = C m)
                  (au)            (Debye)         (10**-30 SI)
   Tot        0.802081D+00      0.203869D+01      0.680033D+01
   x         -0.509697D+00     -0.129552D+01     -0.432139D+01
   y          0.614553D+00      0.156204D+01      0.521040D+01
   z         -0.766000D-01     -0.194698D+00     -0.649442D+00

 Dipole polarizability, Alpha (input orientation).
 (esu units = cm**3 , SI units = C**2 m**2 J**-1)
 Alpha(0;0):
               (au)            (10**-24 esu)      (10**-40 SI)
   iso        0.229919D+02      0.340705D+01      0.379085D+01
   aniso      0.203716D+02      0.301875D+01      0.335882D+01
   xx         0.363502D+02      0.538655D+01      0.599334D+01
   yx         0.121792D+01      0.180477D+00      0.200808D+00
   yy         0.180015D+02      0.266755D+01      0.296805D+01
   zx         0.164608D-01      0.243924D-02      0.271402D-02
   zy        -0.405407D+00     -0.600751D-01     -0.668426D-01
   zz         0.146239D+02      0.216704D+01      0.241116D+01

 ----------------------------------------------------------------------

 Dipole orientation:
     6         -1.24863105         -1.22821112          1.44426585
     8          1.30281438          1.19893402         -1.69318821
     1         -0.09851305         -0.15402360         -0.27034357
     1         -0.68178866         -3.20285377          1.33013336
     1         -0.69542642         -0.35012131          3.22161117
     1         -3.23933430         -0.93802911          1.01181319
     1          2.25230755          2.10472984         -0.39682882

 Electric dipole moment (dipole orientation):
 (Debye = 10**-18 statcoulomb cm , SI units = C m)
                  (au)            (Debye)         (10**-30 SI)
   Tot        0.802081D+00      0.203869D+01      0.680033D+01
   x          0.000000D+00      0.000000D+00      0.000000D+00
   y          0.000000D+00      0.000000D+00      0.000000D+00
   z          0.802081D+00      0.203869D+01      0.680033D+01

 Dipole polarizability, Alpha (dipole orientation).
 (esu units = cm**3 , SI units = C**2 m**2 J**-1)
 Alpha(0;0):
               (au)            (10**-24 esu)      (10**-40 SI)
   iso        0.229919D+02      0.340705D+01      0.379085D+01
   aniso      0.203716D+02      0.301875D+01      0.335882D+01
   xx         0.227198D+02      0.336673D+01      0.374600D+01
   yx         0.777694D+01      0.115242D+01      0.128224D+01
   yy         0.220002D+02      0.326009D+01      0.362734D+01
   zx        -0.633346D+01     -0.938522D+00     -0.104425D+01
   zy        -0.603430D+01     -0.894191D+00     -0.994922D+00
   zz         0.242556D+02      0.359431D+01      0.399921D+01

 ----------------------------------------------------------------------

 Test job not archived.
 1\1\GINC-NODE60\Freq\UM062X\6-31G(d)\C1H5O1(2)\RPEVERATI\07-Oct-2020\0
 \\#P Freq M062X/6-31G* 5D 7F Integral=UltraFineGrid SCF=(NoSymm,XQC,Ma
 xCyc=120) EmpiricalDispersion=GD3 IOp(1/33=1) Geom=Check Guess=Read\\T
 S search on BH76.\\0,2\C,-1.201288335,0.0018016477,0.0051111116\O,1.29
 25264432,-0.092731116,0.0375597901\H,0.0181783199,-0.1662791753,0.0429
 845229\H,-1.5593600473,-0.2497301974,1.0021222181\H,-1.3867886353,1.04
 30960389,-0.2547077112\H,-1.5563261874,-0.6867138758,-0.7601136609\H,1
 .3927438328,0.8715766614,-0.0759228524\\Version=ES64L-G16RevA.03\State
 =2-A\HF=-116.1569295\S2=0.759003\S2-1=0.\S2A=0.750031\RMSD=4.557e-10\R
 MSF=2.770e-05\ZeroPoint=0.0515283\Thermal=0.0561371\Dipole=-0.5096969,
 0.6145533,-0.0766\DipoleDeriv=0.7507986,0.0232063,-0.0000235,-0.082729
 4,-0.0148694,-0.0049896,0.0201234,-0.0038194,-0.0253103,0.0796166,0.03
 03669,0.000315,-0.0184613,-0.2351372,-0.0307877,0.0024906,-0.0308598,-
 0.4939261,-1.0417367,-0.0143845,-0.0071466,-0.0407129,0.1496391,0.0017
 988,-0.003121,0.0028227,0.161775,-0.0568443,-0.0207825,0.0641776,0.012
 6742,0.0693989,0.0250165,-0.0023003,0.0305164,-0.0443102,-0.0553254,0.
 0195213,-0.0071523,0.0096966,-0.0770729,0.0369289,-0.0021503,0.0355603
 ,0.0621004,-0.0552264,-0.0480046,-0.0492369,0.0141063,0.023388,-0.0588
 134,-0.0024082,-0.0644809,0.0056682,0.3787176,0.010077,-0.0009334,0.10
 54264,0.0846535,0.0308466,-0.0126342,0.0302608,0.3340031\Polar=36.3502
 082,1.2179202,18.0015463,0.0164608,-0.4054069,14.6239248\Quadrupole=-0
 .5699635,0.9941736,-0.4242101,1.9470168,-0.2332876,-0.1472497\PG=C01 [
 X(C1H5O1)]\NImag=1\\0.26408124,0.03337977,0.58437052,-0.00916761,0.000
 44228,0.58554338,-0.12754826,0.01827552,-0.00366374,0.05415963,-0.0017
 5727,0.00104988,0.00000073,0.03771117,0.51016624,-0.00015947,0.0004613
 5,0.00290027,-0.00423627,-0.05987320,0.00967603,0.03228931,-0.00729020
 ,0.00163840,0.09062491,-0.00814886,0.00122347,-0.06566711,0.01700373,-
 0.03695944,0.00206492,0.00601035,-0.02155224,0.00190106,-0.00191835,0.
 06193883,-0.00254730,0.00190825,-0.02723476,0.00056819,0.00196798,-0.0
 0561182,0.00004891,-0.00385031,0.03342266,-0.06409924,-0.02623071,0.09
 737359,0.00590266,-0.00021202,-0.00110879,-0.01952492,-0.00557002,0.01
 930438,0.06881343,-0.02489670,-0.06686413,0.06003721,-0.00078383,-0.00
 038303,-0.00020775,0.00309781,0.00059114,-0.00251721,0.02584470,0.0633
 8791,0.08946280,0.06116403,-0.29528553,0.00225207,-0.00052068,0.000749
 05,-0.00430043,-0.00016243,-0.00019751,-0.09757471,-0.06693642,0.31303
 048,-0.04068359,0.05264045,-0.01315712,0.00411579,0.00058537,0.0000286
 3,-0.01468670,0.02043516,-0.00519213,0.00320454,-0.01186876,0.00198392
 ,0.04456160,0.04587816,-0.31723703,0.06633135,-0.00006211,0.00087760,-
 0.00036846,-0.00163410,-0.00235807,0.00029305,0.00147737,-0.00343406,-
 0.00054523,-0.05114307,0.33653973,-0.01140268,0.06647878,-0.06793733,-
 0.00001232,-0.00031677,-0.00040360,0.00041584,0.00029934,-0.00108896,-
 0.00723849,0.02762004,-0.00327039,0.01278155,-0.07242070,0.06435479,-0
 .06327877,-0.06820351,-0.07336011,0.00641415,-0.00002232,0.00106031,-0
 .02005926,-0.01408937,-0.01480549,0.00568704,0.00856880,0.00852941,0.0
 0311714,0.00471941,0.00570769,0.06819373,-0.06344181,-0.16669700,-0.12
 828799,-0.00199715,0.00017353,0.00044393,0.00490043,0.00153879,0.00155
 496,0.00355912,0.00686589,0.00670931,-0.01131463,-0.01469373,-0.021679
 07,0.06792905,0.17315483,-0.06696063,-0.12956759,-0.19597486,-0.001801
 79,0.00098072,0.00025611,0.00231489,-0.00082828,-0.00106669,-0.0114286
 5,-0.01824262,-0.01505250,0.00377269,0.00659677,0.00793256,0.07371014,
 0.14122898,0.20380580,-0.00076069,-0.00257133,0.00033660,-0.03366888,-
 0.02815607,0.00319212,-0.00297624,-0.02187151,0.00262344,0.00001648,0.
 00003798,-0.00035307,0.00037121,0.00076434,-0.00025158,-0.00007405,0.0
 0036499,0.00039336,0.03709217,-0.00616588,0.00233719,-0.00058851,-0.05
 915395,-0.49033197,0.05764307,0.01099326,-0.00319901,0.00064327,0.0011
 3156,-0.00016373,0.00029142,0.00066547,0.00030556,0.00001837,0.0010979
 4,-0.00034231,-0.00016798,0.05143159,0.49139427,0.00077489,-0.00088710
 ,-0.00201117,0.00689386,0.05776121,-0.00756604,-0.00134108,0.00057569,
 0.00177709,0.00067268,0.00024675,0.00002639,-0.00021753,0.00011322,0.0
 0041293,-0.00084195,0.00002988,0.00009958,-0.00594087,-0.05783965,0.00
 726121\\0.00001895,-0.00000560,-0.00004284,-0.00008039,0.00002196,-0.0
 0001580,0.00006591,-0.00000643,0.00003670,0.00000253,-0.00000248,0.000
 00819,-0.00001358,-0.00000115,0.00000200,-0.00001225,0.00000381,0.0000
 0559,0.00001883,-0.00001011,0.00000615\\\@


 "ANNA, YOU MUSN'T SPEAK OF OXIDIZED MURIATIC ACID
 ANYMORE, FROM NOW ON YOU MUST SAY CHLORINE."
   -- JENS JACOB BERZELIUS, IN 1820, TO HIS COOK, WHO HAD
 COMPLAINED OF THE SMELL OF THE FLASK SHE WAS CLEANING.
 Job cpu time:       0 days  0 hours  3 minutes 58.2 seconds.
 Elapsed time:       0 days  0 hours  0 minutes 25.3 seconds.
 File lengths (MBytes):  RWF=      7 Int=      0 D2E=      0 Chk=      1 Scr=      1
 Normal termination of Gaussian 16 at Wed Oct  7 14:25:49 2020.
