 Entering Gaussian System, Link 0=g16
 Input=MN_84_RKT08_BH76_M062XD30_631Gs.in
 Output=MN_84_RKT08_BH76_M062XD30_631Gs.log
 Initial command:
 /udrive/faculty/rpeverati/g16/g16/l1.exe "/udrive/scratch-directories/gaussian09/rpeverati/Gau-25830.inp" -scrdir="/udrive/scratch-directories/gaussian09/rpeverati/"
 Entering Link 1 = /udrive/faculty/rpeverati/g16/g16/l1.exe PID=     25847.
  
 Copyright (c) 1988,1990,1992,1993,1995,1998,2003,2009,2016,
            Gaussian, Inc.  All Rights Reserved.
  
 This is part of the Gaussian(R) 16 program.  It is based on
 the Gaussian(R) 09 system (copyright 2009, Gaussian, Inc.),
 the Gaussian(R) 03 system (copyright 2003, Gaussian, Inc.),
 the Gaussian(R) 98 system (copyright 1998, Gaussian, Inc.),
 the Gaussian(R) 94 system (copyright 1995, Gaussian, Inc.),
 the Gaussian 92(TM) system (copyright 1992, Gaussian, Inc.),
 the Gaussian 90(TM) system (copyright 1990, Gaussian, Inc.),
 the Gaussian 88(TM) system (copyright 1988, Gaussian, Inc.),
 the Gaussian 86(TM) system (copyright 1986, Carnegie Mellon
 University), and the Gaussian 82(TM) system (copyright 1983,
 Carnegie Mellon University). Gaussian is a federally registered
 trademark of Gaussian, Inc.
  
 This software contains proprietary and confidential information,
 including trade secrets, belonging to Gaussian, Inc.
  
 This software is provided under written license and may be
 used, copied, transmitted, or stored only in accord with that
 written license.
  
 The following legend is applicable only to US Government
 contracts under FAR:
  
                    RESTRICTED RIGHTS LEGEND
  
 Use, reproduction and disclosure by the US Government is
 subject to restrictions as set forth in subparagraphs (a)
 and (c) of the Commercial Computer Software - Restricted
 Rights clause in FAR 52.227-19.
  
 Gaussian, Inc.
 340 Quinnipiac St., Bldg. 40, Wallingford CT 06492
  
  
 ---------------------------------------------------------------
 Warning -- This program may not be used in any manner that
 competes with the business of Gaussian, Inc. or will provide
 assistance to any competitor of Gaussian, Inc.  The licensee
 of this program is prohibited from giving any competitor of
 Gaussian, Inc. access to this program.  By using this program,
 the user acknowledges that Gaussian, Inc. is engaged in the
 business of creating and licensing software in the field of
 computational chemistry and represents and warrants to the
 licensee that it is not a competitor of Gaussian, Inc. and that
 it will not use this program in any manner prohibited above.
 ---------------------------------------------------------------
  

 Cite this work as:
 Gaussian 16, Revision A.03,
 M. J. Frisch, G. W. Trucks, H. B. Schlegel, G. E. Scuseria, 
 M. A. Robb, J. R. Cheeseman, G. Scalmani, V. Barone, 
 G. A. Petersson, H. Nakatsuji, X. Li, M. Caricato, A. V. Marenich, 
 J. Bloino, B. G. Janesko, R. Gomperts, B. Mennucci, H. P. Hratchian, 
 J. V. Ortiz, A. F. Izmaylov, J. L. Sonnenberg, D. Williams-Young, 
 F. Ding, F. Lipparini, F. Egidi, J. Goings, B. Peng, A. Petrone, 
 T. Henderson, D. Ranasinghe, V. G. Zakrzewski, J. Gao, N. Rega, 
 G. Zheng, W. Liang, M. Hada, M. Ehara, K. Toyota, R. Fukuda, 
 J. Hasegawa, M. Ishida, T. Nakajima, Y. Honda, O. Kitao, H. Nakai, 
 T. Vreven, K. Throssell, J. A. Montgomery, Jr., J. E. Peralta, 
 F. Ogliaro, M. J. Bearpark, J. J. Heyd, E. N. Brothers, K. N. Kudin, 
 V. N. Staroverov, T. A. Keith, R. Kobayashi, J. Normand, 
 K. Raghavachari, A. P. Rendell, J. C. Burant, S. S. Iyengar, 
 J. Tomasi, M. Cossi, J. M. Millam, M. Klene, C. Adamo, R. Cammi, 
 J. W. Ochterski, R. L. Martin, K. Morokuma, O. Farkas, 
 J. B. Foresman, and D. J. Fox, Gaussian, Inc., Wallingford CT, 2016.
 
 ******************************************
 Gaussian 16:  ES64L-G16RevA.03 25-Dec-2016
                 7-Oct-2020 
 ******************************************
 %NoSave
 %nproc=12
 Will use up to   12 processors via shared memory.
 %mem=20GB
 %chk=MN_84_RKT08_BH76_M062XD30_631Gs
 ----------------------------------------------------------------------
 #P Opt(TS,MaxCyc=50,NoEigenTest,MaxStep=10,AddRedundant) M062X/6-31G* 
 5D 7F Integral=UltraFineGrid SCF=(NoSymm,XQC,MaxCyc=120) EmpiricalDisp
 ersion=GD3 IOp(1/33=1)
 ----------------------------------------------------------------------
 1/5=1,6=50,8=10,11=1,18=120,26=4,33=1,38=1/1,3;
 2/9=110,12=2,17=6,18=5,40=1/2;
 3/5=1,6=6,7=1,8=11,11=2,25=1,30=1,71=1,74=-55,75=-5,124=31/1,2,3;
 4/9=2/1;
 5/5=2,7=120,8=3,13=1,38=5/2,8;
 6/7=2,8=2,9=2,10=2,28=1/1;
 7//1,2,3,16;
 1/5=1,6=50,8=10,11=1,18=20,26=4,33=1/3(2);
 2/9=110/2;
 99//99;
 2/9=110/2;
 3/5=1,6=6,7=1,8=11,11=2,25=1,30=1,71=1,74=-55,75=-5,124=31/1,2,3;
 4/5=5,9=2,16=3,69=1/1;
 5/5=2,7=120,8=3,13=1,38=5/2,8;
 7//1,2,3,16;
 1/5=1,6=50,8=10,11=1,18=20,26=4,33=1/3(-5);
 2/9=110/2;
 6/7=2,8=2,9=2,10=2,19=2,28=1/1;
 99/9=1/99;
 Leave Link    1 at Wed Oct  7 14:23:02 2020, MaxMem=  2684354560 cpu:               7.6 elap:               0.9
 (Enter /udrive/faculty/rpeverati/g16/g16/l101.exe)
 ONIOM data not found on unit 2.
 ------------------
 TS search on BH76.
 ------------------
 TstMul:  ICh=     0
 TstMul:  Mul=     2
 TstMul:  ICh=     0
 TstMul:  Mul=     2
 Symbolic Z-matrix:
 Charge =  0 Multiplicity = 2
 C                    -1.80062   0.16806   0.21737 
 H                    -2.15165  -0.76439  -0.20442 
 H                    -2.00034   1.06077  -0.36035 
 H                    -1.87514   0.26606   1.29228 
 H                    -0.42003   0.03937   0.05086 
 Cl                    1.01476  -0.09471  -0.12251 
 
 RdStrC is calling ZToCFu for IStruc=1 NZ=     6.
 PrtBox:  NBox=     1 Levels=  1 BoxLen=    8.00 SMaxX=        5.98
          Shift=            4.066020            1.444480            0.680954
 Box      1 Number                   0 centers from      1 to      6:
 After GenITR:
 ITRead=  0  0  0  0  0  0
 MicOpt= -1 -1 -1 -1 -1 -1
 Add virtual bond connecting atoms H5         and C1         Dist= 2.64D+00.
 The following ModRedundant input section has been read:
 
 ITRead=  0  0  0  0  0  0
 MicOpt= -1 -1 -1 -1 -1 -1
 NAtoms=      6 NQM=        6 NQMF=       0 NMMI=      0 NMMIF=      0
                NMic=       0 NMicF=      0.
                    Isotopes and Nuclear Properties:
 (Nuclear quadrupole moments (NQMom) in fm**2, nuclear magnetic moments (NMagM)
  in nuclear magnetons)

  Atom         1           2           3           4           5           6
 IAtWgt=          12           1           1           1           1          35
 AtmWgt=  12.0000000   1.0078250   1.0078250   1.0078250   1.0078250  34.9688527
 NucSpn=           0           1           1           1           1           3
 AtZEff=   0.0000000   0.0000000   0.0000000   0.0000000   0.0000000   0.0000000
 NQMom=    0.0000000   0.0000000   0.0000000   0.0000000   0.0000000  -8.1650000
 NMagM=    0.0000000   2.7928460   2.7928460   2.7928460   2.7928460   0.8218740
 AtZNuc=   6.0000000   1.0000000   1.0000000   1.0000000   1.0000000  17.0000000
 No MM parameters found.
 Leave Link  101 at Wed Oct  7 14:23:03 2020, MaxMem=  2684354560 cpu:               4.1 elap:               0.5
 (Enter /udrive/faculty/rpeverati/g16/g16/l103.exe)

 GradGradGradGradGradGradGradGradGradGradGradGradGradGradGradGradGradGrad
 Berny optimization.
 Optmz: redundant internal coordinate code flag= 1
 Initialization pass.
                           ----------------------------
                           !    Initial Parameters    !
                           ! (Angstroms and Degrees)  !
 --------------------------                            --------------------------
 ! Name  Definition              Value          Derivative Info.                !
 --------------------------------------------------------------------------------
 ! R1    R(1,2)                  1.0819         estimate D2E/DX2                !
 ! R2    R(1,3)                  1.0819         estimate D2E/DX2                !
 ! R3    R(1,4)                  1.0819         estimate D2E/DX2                !
 ! R4    R(1,5)                  1.3965         estimate D2E/DX2                !
 ! R5    R(5,6)                  1.4514         estimate D2E/DX2                !
 ! A1    A(2,1,3)              116.2983         estimate D2E/DX2                !
 ! A2    A(2,1,4)              116.298          estimate D2E/DX2                !
 ! A3    A(2,1,5)              101.235          estimate D2E/DX2                !
 ! A4    A(3,1,4)              116.2983         estimate D2E/DX2                !
 ! A5    A(3,1,5)              101.2363         estimate D2E/DX2                !
 ! A6    A(4,1,5)              101.2387         estimate D2E/DX2                !
 ! A7    L(1,5,6,2,-1)         179.983          estimate D2E/DX2                !
 ! A8    L(1,5,6,2,-2)         179.9906         estimate D2E/DX2                !
 ! D1    D(2,1,4,3)           -142.6998         estimate D2E/DX2                !
 ! D2    D(2,1,5,3)            119.9994         estimate D2E/DX2                !
 ! D3    D(2,1,5,4)           -119.9999         estimate D2E/DX2                !
 ! D4    D(3,1,5,4)            120.0007         estimate D2E/DX2                !
 --------------------------------------------------------------------------------
 Maximum allowed force set to 1.00D+20.
 Trust Radius=1.00D-01 FncErr=1.00D-07 GrdErr=1.00D-06 EigMax=2.50D+02 EigMin=1.00D-04
 Number of steps in this run=     50 maximum allowed number of steps=    100.
 Search for a saddle point of order  1.
 GradGradGradGradGradGradGradGradGradGradGradGradGradGradGradGradGradGrad

 Leave Link  103 at Wed Oct  7 14:23:03 2020, MaxMem=  2684354560 cpu:               1.7 elap:               0.5
 (Enter /udrive/faculty/rpeverati/g16/g16/l202.exe)
                          Input orientation:                          
 ---------------------------------------------------------------------
 Center     Atomic      Atomic             Coordinates (Angstroms)
 Number     Number       Type             X           Y           Z
 ---------------------------------------------------------------------
      1          6           0       -1.800621    0.168058    0.217373
      2          1           0       -2.151645   -0.764386   -0.204420
      3          1           0       -2.000343    1.060773   -0.360345
      4          1           0       -1.875139    0.266062    1.292282
      5          1           0       -0.420026    0.039365    0.050855
      6         17           0        1.014761   -0.094715   -0.122506
 ---------------------------------------------------------------------
                    Distance matrix (angstroms):
                    1          2          3          4          5
     1  C    0.000000
     2  H    1.081933   0.000000
     3  H    1.081937   1.838045   0.000000
     4  H    1.081937   1.838042   1.838048   0.000000
     5  H    1.396543   1.926054   1.926074   1.926107   0.000000
     6  Cl   2.847971   3.237483   3.237680   3.237794   1.451428
                    6
     6  Cl   0.000000
 This structure is nearly, but not quite of a higher symmetry.
 Consider Symm=Loose if the higher symmetry is desired.
 Stoichiometry    CH4Cl(2)
 Framework group  C1[X(CH4Cl)]
 Deg. of freedom    12
 Full point group                 C1      NOp   1
 Largest Abelian subgroup         C1      NOp   1
 Largest concise Abelian subgroup C1      NOp   1
                         Standard orientation:                         
 ---------------------------------------------------------------------
 Center     Atomic      Atomic             Coordinates (Angstroms)
 Number     Number       Type             X           Y           Z
 ---------------------------------------------------------------------
      1          6           0        1.123581    0.795539    1.192653
      2          1           0        0.451257    0.990690    2.017563
      3          1           0        1.453376    1.657976    0.628715
      4          1           0        1.856169    0.014241    1.345872
      5          1           0        0.262287    0.185511    0.278120
      6         17           0       -0.633210   -0.448332   -0.672129
 ---------------------------------------------------------------------
 Rotational constants (GHZ):         148.4293786           5.6191147           5.6191139
 Leave Link  202 at Wed Oct  7 14:23:04 2020, MaxMem=  2684354560 cpu:               1.8 elap:               0.6
 (Enter /udrive/faculty/rpeverati/g16/g16/l301.exe)
 Standard basis: 6-31G(d) (5D, 7F)
 Ernie: Thresh=  0.10000D-02 Tol=  0.10000D-05 Strict=F.
 There are    42 symmetry adapted cartesian basis functions of A   symmetry.
 There are    40 symmetry adapted basis functions of A   symmetry.
    40 basis functions,    96 primitive gaussians,    42 cartesian basis functions
    14 alpha electrons       13 beta electrons
       nuclear repulsion energy        46.2514809951 Hartrees.
 IExCor= 4336 DFT=T Ex+Corr=M062X ExCW=0 ScaHFX=  0.540000
 ScaDFX=  1.000000  1.000000  1.000000  1.000000 ScalE2=  1.000000  1.000000
 IRadAn=      5 IRanWt=     -1 IRanGd=            0 ICorTp=0 IEmpDi=131
 NAtoms=    6 NActive=    6 NUniq=    6 SFac= 1.00D+00 NAtFMM=   60 NAOKFM=F Big=F
 Integral buffers will be    131072 words long.
 Raffenetti 2 integral format.
 Two-electron integral symmetry is turned on.
 R6Disp:  Grimme-D3 Dispersion energy=       -0.0000084737 Hartrees.
 Nuclear repulsion after empirical dispersion term =       46.2514725214 Hartrees.
 Leave Link  301 at Wed Oct  7 14:23:05 2020, MaxMem=  2684354560 cpu:               2.7 elap:               0.8
 (Enter /udrive/faculty/rpeverati/g16/g16/l302.exe)
 NPDir=0 NMtPBC=     1 NCelOv=     1 NCel=       1 NClECP=     1 NCelD=      1
         NCelK=      1 NCelE2=     1 NClLst=     1 CellRange=     0.0.
 One-electron integrals computed using PRISM.
 One-electron integral symmetry used in STVInt
 NBasis=    40 RedAO= T EigKep=  1.04D-02  NBF=    40
 NBsUse=    40 1.00D-06 EigRej= -1.00D+00 NBFU=    40
 Precomputing XC quadrature grid using
 IXCGrd= 4 IRadAn=           5 IRanWt=          -1 IRanGd=           0 AccXCQ= 0.00D+00.
 Generated NRdTot=       0 NPtTot=           0 NUsed=           0 NTot=          32
 NSgBfM=    42    42    42    42    42 MxSgAt=     6 MxSgA2=     6.
 Leave Link  302 at Wed Oct  7 14:23:06 2020, MaxMem=  2684354560 cpu:               4.2 elap:               0.9
 (Enter /udrive/faculty/rpeverati/g16/g16/l303.exe)
 DipDrv:  MaxL=1.
 Leave Link  303 at Wed Oct  7 14:23:07 2020, MaxMem=  2684354560 cpu:               2.0 elap:               0.7
 (Enter /udrive/faculty/rpeverati/g16/g16/l401.exe)
 SCF N**3 symmetry information disabled.
 ExpMin= 1.43D-01 ExpMax= 2.52D+04 ExpMxC= 3.78D+03 IAcc=3 IRadAn=         5 AccDes= 0.00D+00
 Harris functional with IExCor= 1009 and IRadAn=       5 diagonalized for initial guess.
 HarFok:  IExCor= 1009 AccDes= 0.00D+00 IRadAn=         5 IDoV= 1 UseB2=F ITyADJ=14
 ICtDFT=  3500011 ScaDFX=  1.000000  1.000000  1.000000  1.000000
 FoFCou: FMM=F IPFlag=           0 FMFlag=      100000 FMFlg1=           0
         NFxFlg=           0 DoJE=T BraDBF=F KetDBF=T FulRan=T
         wScrn=  0.000000 ICntrl=       500 IOpCl=  0 I1Cent=   200000004 NGrid=           0
         NMat0=    1 NMatS0=      1 NMatT0=    0 NMatD0=    1 NMtDS0=    0 NMtDT0=    0
 Petite list used in FoFCou.
 Harris En= -500.315833800899    
 JPrj=0 DoOrth=F DoCkMO=F.
 Initial guess <Sx>= 0.0000 <Sy>= 0.0000 <Sz>= 0.5000 <S**2>= 0.7500 S= 0.5000
 Leave Link  401 at Wed Oct  7 14:23:09 2020, MaxMem=  2684354560 cpu:               7.0 elap:               1.1
 (Enter /udrive/faculty/rpeverati/g16/g16/l502.exe)
 Keep R1 and R2 ints in memory in canonical form, NReq=11040253.
 FoFCou: FMM=F IPFlag=           0 FMFlag=           0 FMFlg1=           0
         NFxFlg=           0 DoJE=F BraDBF=F KetDBF=F FulRan=T
         wScrn=  0.000000 ICntrl=       600 IOpCl=  0 I1Cent=           0 NGrid=           0
         NMat0=    1 NMatS0=    820 NMatT0=    0 NMatD0=    1 NMtDS0=    0 NMtDT0=    0
 Symmetry not used in FoFCou.
 Two-electron integral symmetry not used.
 UHF open shell SCF:
 Using DIIS extrapolation, IDIIS=  1040.
 NGot=  2684354560 LenX=  2683676641 LenY=  2683674436
 Requested convergence on RMS density matrix=1.00D-08 within 120 cycles.
 Requested convergence on MAX density matrix=1.00D-06.
 Requested convergence on             energy=1.00D-06.
 No special actions if energy rises.
 Integral accuracy reduced to 1.0D-05 until final iterations.

 Cycle   1  Pass 0  IDiag  1:
 E= -500.487206013995    
 DIIS: error= 4.25D-02 at cycle   1 NSaved=   1.
 NSaved= 1 IEnMin= 1 EnMin= -500.487206013995     IErMin= 1 ErrMin= 4.25D-02
 ErrMax= 4.25D-02  0.00D+00 EMaxC= 1.00D-01 BMatC= 2.80D-01 BMatP= 2.80D-01
 IDIUse=3 WtCom= 5.75D-01 WtEn= 4.25D-01
 Coeff-Com:  0.100D+01
 Coeff-En:   0.100D+01
 Coeff:      0.100D+01
 Gap=     0.488 Goal=   None    Shift=    0.000
 Gap=     0.332 Goal=   None    Shift=    0.000
 GapD=    0.332 DampG=1.000 DampE=0.500 DampFc=0.5000 IDamp=-1.
 Damping current iteration by 5.00D-01
 RMSDP=1.17D-02 MaxDP=1.25D-01              OVMax= 2.63D-01

 Cycle   2  Pass 0  IDiag  1:
 E= -500.524785512171     Delta-E=       -0.037579498176 Rises=F Damp=T
 DIIS: error= 1.03D-02 at cycle   2 NSaved=   2.
 NSaved= 2 IEnMin= 2 EnMin= -500.524785512171     IErMin= 2 ErrMin= 1.03D-02
 ErrMax= 1.03D-02  0.00D+00 EMaxC= 1.00D-01 BMatC= 1.52D-02 BMatP= 2.80D-01
 IDIUse=3 WtCom= 8.97D-01 WtEn= 1.03D-01
 Coeff-Com: -0.634D-01 0.106D+01
 Coeff-En:   0.000D+00 0.100D+01
 Coeff:     -0.569D-01 0.106D+01
 Gap=     0.472 Goal=   None    Shift=    0.000
 Gap=     0.353 Goal=   None    Shift=    0.000
 RMSDP=2.39D-03 MaxDP=4.18D-02 DE=-3.76D-02 OVMax= 1.10D-01

 Cycle   3  Pass 0  IDiag  1:
 E= -500.560870711979     Delta-E=       -0.036085199808 Rises=F Damp=F
 DIIS: error= 3.25D-03 at cycle   3 NSaved=   3.
 NSaved= 3 IEnMin= 3 EnMin= -500.560870711979     IErMin= 3 ErrMin= 3.25D-03
 ErrMax= 3.25D-03  0.00D+00 EMaxC= 1.00D-01 BMatC= 1.00D-03 BMatP= 1.52D-02
 IDIUse=3 WtCom= 9.68D-01 WtEn= 3.25D-02
 Coeff-Com: -0.258D-01 0.690D-01 0.957D+00
 Coeff-En:   0.000D+00 0.000D+00 0.100D+01
 Coeff:     -0.249D-01 0.667D-01 0.958D+00
 Gap=     0.467 Goal=   None    Shift=    0.000
 Gap=     0.245 Goal=   None    Shift=    0.000
 RMSDP=8.45D-04 MaxDP=8.74D-03 DE=-3.61D-02 OVMax= 2.32D-02

 Cycle   4  Pass 0  IDiag  1:
 E= -500.561444351806     Delta-E=       -0.000573639827 Rises=F Damp=F
 DIIS: error= 1.65D-03 at cycle   4 NSaved=   4.
 NSaved= 4 IEnMin= 4 EnMin= -500.561444351806     IErMin= 4 ErrMin= 1.65D-03
 ErrMax= 1.65D-03  0.00D+00 EMaxC= 1.00D-01 BMatC= 2.71D-04 BMatP= 1.00D-03
 IDIUse=3 WtCom= 9.84D-01 WtEn= 1.65D-02
 Coeff-Com:  0.713D-03-0.331D-01 0.246D+00 0.787D+00
 Coeff-En:   0.000D+00 0.000D+00 0.000D+00 0.100D+01
 Coeff:      0.701D-03-0.326D-01 0.242D+00 0.790D+00
 Gap=     0.466 Goal=   None    Shift=    0.000
 Gap=     0.244 Goal=   None    Shift=    0.000
 RMSDP=4.68D-04 MaxDP=5.08D-03 DE=-5.74D-04 OVMax= 6.03D-03

 Cycle   5  Pass 0  IDiag  1:
 E= -500.561574890321     Delta-E=       -0.000130538515 Rises=F Damp=F
 DIIS: error= 4.94D-04 at cycle   5 NSaved=   5.
 NSaved= 5 IEnMin= 5 EnMin= -500.561574890321     IErMin= 5 ErrMin= 4.94D-04
 ErrMax= 4.94D-04  0.00D+00 EMaxC= 1.00D-01 BMatC= 3.05D-05 BMatP= 2.71D-04
 IDIUse=3 WtCom= 9.95D-01 WtEn= 4.94D-03
 Coeff-Com:  0.390D-02-0.863D-02-0.213D+00-0.176D+00 0.139D+01
 Coeff-En:   0.000D+00 0.000D+00 0.000D+00 0.000D+00 0.100D+01
 Coeff:      0.388D-02-0.859D-02-0.212D+00-0.175D+00 0.139D+01
 Gap=     0.467 Goal=   None    Shift=    0.000
 Gap=     0.245 Goal=   None    Shift=    0.000
 RMSDP=3.13D-04 MaxDP=2.49D-03 DE=-1.31D-04 OVMax= 6.91D-03

 Cycle   6  Pass 0  IDiag  1:
 E= -500.561610277901     Delta-E=       -0.000035387581 Rises=F Damp=F
 DIIS: error= 8.98D-05 at cycle   6 NSaved=   6.
 NSaved= 6 IEnMin= 6 EnMin= -500.561610277901     IErMin= 6 ErrMin= 8.98D-05
 ErrMax= 8.98D-05  0.00D+00 EMaxC= 1.00D-01 BMatC= 1.07D-06 BMatP= 3.05D-05
 IDIUse=1 WtCom= 1.00D+00 WtEn= 0.00D+00
 Coeff-Com: -0.792D-03 0.331D-02 0.741D-02-0.207D-01-0.811D-01 0.109D+01
 Coeff:     -0.792D-03 0.331D-02 0.741D-02-0.207D-01-0.811D-01 0.109D+01
 Gap=     0.467 Goal=   None    Shift=    0.000
 Gap=     0.245 Goal=   None    Shift=    0.000
 RMSDP=4.72D-05 MaxDP=5.01D-04 DE=-3.54D-05 OVMax= 8.11D-04

 Cycle   7  Pass 0  IDiag  1:
 E= -500.561611237533     Delta-E=       -0.000000959632 Rises=F Damp=F
 DIIS: error= 3.17D-05 at cycle   7 NSaved=   7.
 NSaved= 7 IEnMin= 7 EnMin= -500.561611237533     IErMin= 7 ErrMin= 3.17D-05
 ErrMax= 3.17D-05  0.00D+00 EMaxC= 1.00D-01 BMatC= 1.42D-07 BMatP= 1.07D-06
 IDIUse=1 WtCom= 1.00D+00 WtEn= 0.00D+00
 Coeff-Com: -0.267D-03 0.393D-03 0.241D-01 0.189D-01-0.154D+00-0.277D-01
 Coeff-Com:  0.114D+01
 Coeff:     -0.267D-03 0.393D-03 0.241D-01 0.189D-01-0.154D+00-0.277D-01
 Coeff:      0.114D+01
 Gap=     0.467 Goal=   None    Shift=    0.000
 Gap=     0.245 Goal=   None    Shift=    0.000
 RMSDP=1.90D-05 MaxDP=2.06D-04 DE=-9.60D-07 OVMax= 3.77D-04

 Cycle   8  Pass 0  IDiag  1:
 E= -500.561611374421     Delta-E=       -0.000000136888 Rises=F Damp=F
 DIIS: error= 8.68D-06 at cycle   8 NSaved=   8.
 NSaved= 8 IEnMin= 8 EnMin= -500.561611374421     IErMin= 8 ErrMin= 8.68D-06
 ErrMax= 8.68D-06  0.00D+00 EMaxC= 1.00D-01 BMatC= 1.29D-08 BMatP= 1.42D-07
 IDIUse=1 WtCom= 1.00D+00 WtEn= 0.00D+00
 Coeff-Com:  0.137D-03-0.383D-03 0.370D-03-0.378D-04 0.367D-02-0.762D-01
 Coeff-Com:  0.392D-02 0.107D+01
 Coeff:      0.137D-03-0.383D-03 0.370D-03-0.378D-04 0.367D-02-0.762D-01
 Coeff:      0.392D-02 0.107D+01
 Gap=     0.467 Goal=   None    Shift=    0.000
 Gap=     0.245 Goal=   None    Shift=    0.000
 RMSDP=4.84D-06 MaxDP=5.18D-05 DE=-1.37D-07 OVMax= 8.83D-05

 Initial convergence to 1.0D-05 achieved.  Increase integral accuracy.
 Cycle   9  Pass 1  IDiag  1:
 E= -500.561738052147     Delta-E=       -0.000126677726 Rises=F Damp=F
 DIIS: error= 5.87D-05 at cycle   1 NSaved=   1.
 NSaved= 1 IEnMin= 1 EnMin= -500.561738052147     IErMin= 1 ErrMin= 5.87D-05
 ErrMax= 5.87D-05  0.00D+00 EMaxC= 1.00D-01 BMatC= 3.55D-07 BMatP= 3.55D-07
 IDIUse=1 WtCom= 1.00D+00 WtEn= 0.00D+00
 Coeff-Com:  0.100D+01
 Coeff:      0.100D+01
 Gap=     0.467 Goal=   None    Shift=    0.000
 Gap=     0.245 Goal=   None    Shift=    0.000
 RMSDP=4.84D-06 MaxDP=5.18D-05 DE=-1.27D-04 OVMax= 1.60D-04

 Cycle  10  Pass 1  IDiag  1:
 E= -500.561738141729     Delta-E=       -0.000000089582 Rises=F Damp=F
 DIIS: error= 1.49D-05 at cycle   2 NSaved=   2.
 NSaved= 2 IEnMin= 2 EnMin= -500.561738141729     IErMin= 2 ErrMin= 1.49D-05
 ErrMax= 1.49D-05  0.00D+00 EMaxC= 1.00D-01 BMatC= 2.28D-08 BMatP= 3.55D-07
 IDIUse=1 WtCom= 1.00D+00 WtEn= 0.00D+00
 Coeff-Com:  0.286D-01 0.971D+00
 Coeff:      0.286D-01 0.971D+00
 Gap=     0.467 Goal=   None    Shift=    0.000
 Gap=     0.245 Goal=   None    Shift=    0.000
 RMSDP=4.74D-06 MaxDP=1.04D-04 DE=-8.96D-08 OVMax= 9.75D-05

 Cycle  11  Pass 1  IDiag  1:
 E= -500.561738152757     Delta-E=       -0.000000011029 Rises=F Damp=F
 DIIS: error= 8.55D-06 at cycle   3 NSaved=   3.
 NSaved= 3 IEnMin= 3 EnMin= -500.561738152757     IErMin= 3 ErrMin= 8.55D-06
 ErrMax= 8.55D-06  0.00D+00 EMaxC= 1.00D-01 BMatC= 8.85D-09 BMatP= 2.28D-08
 IDIUse=1 WtCom= 1.00D+00 WtEn= 0.00D+00
 Coeff-Com: -0.362D-01 0.354D+00 0.682D+00
 Coeff:     -0.362D-01 0.354D+00 0.682D+00
 Gap=     0.467 Goal=   None    Shift=    0.000
 Gap=     0.245 Goal=   None    Shift=    0.000
 RMSDP=2.29D-06 MaxDP=3.53D-05 DE=-1.10D-08 OVMax= 4.52D-05

 Cycle  12  Pass 1  IDiag  1:
 E= -500.561738156775     Delta-E=       -0.000000004018 Rises=F Damp=F
 DIIS: error= 3.24D-06 at cycle   4 NSaved=   4.
 NSaved= 4 IEnMin= 4 EnMin= -500.561738156775     IErMin= 4 ErrMin= 3.24D-06
 ErrMax= 3.24D-06  0.00D+00 EMaxC= 1.00D-01 BMatC= 7.94D-10 BMatP= 8.85D-09
 IDIUse=1 WtCom= 1.00D+00 WtEn= 0.00D+00
 Coeff-Com: -0.892D-02-0.669D-01 0.134D-01 0.106D+01
 Coeff:     -0.892D-02-0.669D-01 0.134D-01 0.106D+01
 Gap=     0.467 Goal=   None    Shift=    0.000
 Gap=     0.245 Goal=   None    Shift=    0.000
 RMSDP=1.34D-06 MaxDP=2.38D-05 DE=-4.02D-09 OVMax= 4.90D-05

 Cycle  13  Pass 1  IDiag  1:
 E= -500.561738157969     Delta-E=       -0.000000001194 Rises=F Damp=F
 DIIS: error= 1.85D-06 at cycle   5 NSaved=   5.
 NSaved= 5 IEnMin= 5 EnMin= -500.561738157969     IErMin= 5 ErrMin= 1.85D-06
 ErrMax= 1.85D-06  0.00D+00 EMaxC= 1.00D-01 BMatC= 3.26D-10 BMatP= 7.94D-10
 IDIUse=1 WtCom= 1.00D+00 WtEn= 0.00D+00
 Coeff-Com:  0.556D-02-0.109D+00-0.173D+00 0.403D+00 0.873D+00
 Coeff:      0.556D-02-0.109D+00-0.173D+00 0.403D+00 0.873D+00
 Gap=     0.467 Goal=   None    Shift=    0.000
 Gap=     0.245 Goal=   None    Shift=    0.000
 RMSDP=8.96D-07 MaxDP=1.36D-05 DE=-1.19D-09 OVMax= 3.30D-05

 Cycle  14  Pass 1  IDiag  1:
 E= -500.561738158384     Delta-E=       -0.000000000415 Rises=F Damp=F
 DIIS: error= 9.16D-07 at cycle   6 NSaved=   6.
 NSaved= 6 IEnMin= 6 EnMin= -500.561738158384     IErMin= 6 ErrMin= 9.16D-07
 ErrMax= 9.16D-07  0.00D+00 EMaxC= 1.00D-01 BMatC= 2.95D-11 BMatP= 3.26D-10
 IDIUse=1 WtCom= 1.00D+00 WtEn= 0.00D+00
 Coeff-Com:  0.110D-03 0.476D-01 0.558D-01-0.315D+00-0.350D+00 0.156D+01
 Coeff:      0.110D-03 0.476D-01 0.558D-01-0.315D+00-0.350D+00 0.156D+01
 Gap=     0.467 Goal=   None    Shift=    0.000
 Gap=     0.245 Goal=   None    Shift=    0.000
 RMSDP=6.01D-07 MaxDP=8.36D-06 DE=-4.15D-10 OVMax= 2.45D-05

 Cycle  15  Pass 1  IDiag  1:
 E= -500.561738158486     Delta-E=       -0.000000000102 Rises=F Damp=F
 DIIS: error= 2.20D-07 at cycle   7 NSaved=   7.
 NSaved= 7 IEnMin= 7 EnMin= -500.561738158486     IErMin= 7 ErrMin= 2.20D-07
 ErrMax= 2.20D-07  0.00D+00 EMaxC= 1.00D-01 BMatC= 2.23D-12 BMatP= 2.95D-11
 IDIUse=1 WtCom= 1.00D+00 WtEn= 0.00D+00
 Coeff-Com: -0.437D-03 0.210D-02 0.790D-02 0.119D-01-0.146D-01-0.256D+00
 Coeff-Com:  0.125D+01
 Coeff:     -0.437D-03 0.210D-02 0.790D-02 0.119D-01-0.146D-01-0.256D+00
 Coeff:      0.125D+01
 Gap=     0.467 Goal=   None    Shift=    0.000
 Gap=     0.245 Goal=   None    Shift=    0.000
 RMSDP=1.35D-07 MaxDP=1.88D-06 DE=-1.02D-10 OVMax= 5.52D-06

 Cycle  16  Pass 1  IDiag  1:
 E= -500.561738158491     Delta-E=       -0.000000000005 Rises=F Damp=F
 DIIS: error= 5.71D-08 at cycle   8 NSaved=   8.
 NSaved= 8 IEnMin= 8 EnMin= -500.561738158491     IErMin= 8 ErrMin= 5.71D-08
 ErrMax= 5.71D-08  0.00D+00 EMaxC= 1.00D-01 BMatC= 3.59D-13 BMatP= 2.23D-12
 IDIUse=1 WtCom= 1.00D+00 WtEn= 0.00D+00
 Coeff-Com: -0.218D-04-0.706D-02-0.685D-02 0.451D-01 0.534D-01-0.264D+00
 Coeff-Com:  0.169D+00 0.101D+01
 Coeff:     -0.218D-04-0.706D-02-0.685D-02 0.451D-01 0.534D-01-0.264D+00
 Coeff:      0.169D+00 0.101D+01
 Gap=     0.467 Goal=   None    Shift=    0.000
 Gap=     0.245 Goal=   None    Shift=    0.000
 RMSDP=4.20D-08 MaxDP=6.25D-07 DE=-4.77D-12 OVMax= 1.63D-06

 Cycle  17  Pass 1  IDiag  1:
 E= -500.561738158493     Delta-E=       -0.000000000002 Rises=F Damp=F
 DIIS: error= 1.57D-08 at cycle   9 NSaved=   9.
 NSaved= 9 IEnMin= 9 EnMin= -500.561738158493     IErMin= 9 ErrMin= 1.57D-08
 ErrMax= 1.57D-08  0.00D+00 EMaxC= 1.00D-01 BMatC= 3.76D-14 BMatP= 3.59D-13
 IDIUse=1 WtCom= 1.00D+00 WtEn= 0.00D+00
 Coeff-Com:  0.675D-04 0.684D-03 0.715D-03-0.907D-02-0.390D-02 0.681D-01
 Coeff-Com: -0.179D+00-0.121D+00 0.124D+01
 Coeff:      0.675D-04 0.684D-03 0.715D-03-0.907D-02-0.390D-02 0.681D-01
 Coeff:     -0.179D+00-0.121D+00 0.124D+01
 Gap=     0.467 Goal=   None    Shift=    0.000
 Gap=     0.245 Goal=   None    Shift=    0.000
 RMSDP=1.42D-08 MaxDP=1.39D-07 DE=-2.16D-12 OVMax= 3.41D-07

 Cycle  18  Pass 1  IDiag  1:
 E= -500.561738158493     Delta-E=        0.000000000000 Rises=F Damp=F
 DIIS: error= 3.99D-09 at cycle  10 NSaved=  10.
 NSaved=10 IEnMin= 9 EnMin= -500.561738158493     IErMin=10 ErrMin= 3.99D-09
 ErrMax= 3.99D-09  0.00D+00 EMaxC= 1.00D-01 BMatC= 2.20D-15 BMatP= 3.76D-14
 IDIUse=1 WtCom= 1.00D+00 WtEn= 0.00D+00
 Coeff-Com:  0.112D-04 0.658D-03 0.716D-03-0.491D-02-0.491D-02 0.303D-01
 Coeff-Com: -0.335D-01-0.980D-01 0.119D+00 0.991D+00
 Coeff:      0.112D-04 0.658D-03 0.716D-03-0.491D-02-0.491D-02 0.303D-01
 Coeff:     -0.335D-01-0.980D-01 0.119D+00 0.991D+00
 Gap=     0.467 Goal=   None    Shift=    0.000
 Gap=     0.245 Goal=   None    Shift=    0.000
 RMSDP=2.70D-09 MaxDP=2.58D-08 DE= 1.14D-13 OVMax= 5.15D-08

 SCF Done:  E(UM062X) =  -500.561738158     A.U. after   18 cycles
            NFock= 18  Conv=0.27D-08     -V/T= 2.0015
 <Sx>= 0.0000 <Sy>= 0.0000 <Sz>= 0.5000 <S**2>= 0.7586 S= 0.5043
 <L.S>= 0.000000000000E+00
 KE= 4.998019221172D+02 PE=-1.280578062672D+03 EE= 2.339629298747D+02
 Annihilation of the first spin contaminant:
 S**2 before annihilation     0.7586,   after     0.7500
 Leave Link  502 at Wed Oct  7 14:23:16 2020, MaxMem=  2684354560 cpu:              78.6 elap:               7.1
 (Enter /udrive/faculty/rpeverati/g16/g16/l508.exe)
 QCSCF skips out because SCF is already converged.
 Leave Link  508 at Wed Oct  7 14:23:17 2020, MaxMem=  2684354560 cpu:               0.2 elap:               0.4
 (Enter /udrive/faculty/rpeverati/g16/g16/l601.exe)
 Copying SCF densities to generalized density rwf, IOpCl= 1 IROHF=0.

 **********************************************************************

            Population analysis using the SCF density.

 **********************************************************************

 Orbital symmetries:
 Alpha Orbitals:
       Occupied  (A) (A) (A) (A) (A) (A) (A) (A) (A) (A) (A) (A)
                 (A) (A)
       Virtual   (A) (A) (A) (A) (A) (A) (A) (A) (A) (A) (A) (A)
                 (A) (A) (A) (A) (A) (A) (A) (A) (A) (A) (A) (A)
                 (A) (A)
 Beta  Orbitals:
       Occupied  (A) (A) (A) (A) (A) (A) (A) (A) (A) (A) (A) (A)
                 (A)
       Virtual   (A) (A) (A) (A) (A) (A) (A) (A) (A) (A) (A) (A)
                 (A) (A) (A) (A) (A) (A) (A) (A) (A) (A) (A) (A)
                 (A) (A) (A)
 The electronic state is 2-A.
 Alpha  occ. eigenvalues -- -102.62809 -10.58750  -9.79096  -7.51862  -7.50570
 Alpha  occ. eigenvalues --   -7.50570  -0.91665  -0.82381  -0.53688  -0.52171
 Alpha  occ. eigenvalues --   -0.52170  -0.37334  -0.37334  -0.32662
 Alpha virt. eigenvalues --    0.14060   0.19004   0.19427   0.19427   0.43866
 Alpha virt. eigenvalues --    0.47046   0.47046   0.49200   0.58508   0.58510
 Alpha virt. eigenvalues --    0.58661   0.91610   0.92048   0.92049   0.94454
 Alpha virt. eigenvalues --    0.94455   0.95873   0.95874   1.03557   1.09492
 Alpha virt. eigenvalues --    1.38402   1.64275   1.64275   2.05010   2.22345
 Alpha virt. eigenvalues --    2.22346
  Beta  occ. eigenvalues -- -102.62288 -10.58229  -9.78922  -7.50483  -7.50406
  Beta  occ. eigenvalues --   -7.50406  -0.89221  -0.79432  -0.51027  -0.51026
  Beta  occ. eigenvalues --   -0.48899  -0.36413  -0.36412
  Beta virt. eigenvalues --   -0.11866   0.14614   0.20289   0.20289   0.21726
  Beta virt. eigenvalues --    0.44782   0.47416   0.47416   0.51535   0.59124
  Beta virt. eigenvalues --    0.59126   0.62806   0.92416   0.94376   0.94377
  Beta virt. eigenvalues --    0.96395   0.96397   0.97106   0.97108   1.03727
  Beta virt. eigenvalues --    1.11797   1.39554   1.69425   1.69425   2.12050
  Beta virt. eigenvalues --    2.26490   2.26491
          Condensed to atoms (all electrons):
               1          2          3          4          5          6
     1  C    5.429362   0.373088   0.373082   0.373081   0.126147  -0.109889
     2  H    0.373088   0.460760  -0.021310  -0.021311  -0.016199   0.000937
     3  H    0.373082  -0.021310   0.460763  -0.021311  -0.016193   0.000937
     4  H    0.373081  -0.021311  -0.021311   0.460765  -0.016189   0.000937
     5  H    0.126147  -0.016199  -0.016193  -0.016189   0.702021   0.144735
     6  Cl  -0.109889   0.000937   0.000937   0.000937   0.144735  17.145251
          Atomic-Atomic Spin Densities.
               1          2          3          4          5          6
     1  C    0.829459  -0.017836  -0.017837  -0.017836   0.073187  -0.109731
     2  H   -0.017836  -0.020658   0.003722   0.003722   0.002211   0.003436
     3  H   -0.017837   0.003722  -0.020654   0.003723   0.002210   0.003435
     4  H   -0.017836   0.003722   0.003723  -0.020653   0.002210   0.003435
     5  H    0.073187   0.002211   0.002210   0.002210  -0.150156  -0.015055
     6  Cl  -0.109731   0.003436   0.003435   0.003435  -0.015055   0.536671
 Mulliken charges and spin densities:
               1          2
     1  C   -0.564871   0.739406
     2  H    0.224036  -0.025403
     3  H    0.224033  -0.025400
     4  H    0.224029  -0.025400
     5  H    0.075680  -0.085393
     6  Cl  -0.182908   0.422190
 Sum of Mulliken charges =   0.00000   1.00000
 Mulliken charges and spin densities with hydrogens summed into heavy atoms:
               1          2
     1  C    0.182908   0.577810
     6  Cl  -0.182908   0.422190
 Electronic spatial extent (au):  <R**2>=            237.1101
 Charge=              0.0000 electrons
 Dipole moment (field-independent basis, Debye):
    X=              1.8410    Y=              1.3035    Z=              1.9542  Tot=              2.9845
 Quadrupole moment (field-independent basis, Debye-Ang):
   XX=            -20.1152   YY=            -20.5315   ZZ=            -20.0101
   XY=              0.5904   XZ=              0.8851   YZ=              0.6264
 Traceless Quadrupole moment (field-independent basis, Debye-Ang):
   XX=              0.1038   YY=             -0.3126   ZZ=              0.2088
   XY=              0.5904   XZ=              0.8851   YZ=              0.6264
 Octapole moment (field-independent basis, Debye-Ang**2):
  XXX=              1.0322  YYY=              1.1165  ZZZ=              1.2465  XYY=              0.8559
  XXY=             -0.4341  XXZ=              0.1328  XZZ=             -0.7206  YZZ=              0.1446
  YYZ=             -0.1396  XYZ=             -1.0076
 Hexadecapole moment (field-independent basis, Debye-Ang**3):
 XXXX=           -113.8685 YYYY=            -71.3967 ZZZZ=           -123.0857 XXXY=            -30.8875
 XXXZ=            -43.2756 YYYX=            -28.1431 YYYZ=            -32.7429 ZZZX=            -45.8783
 ZZZY=            -29.7970 XXYY=            -29.5599 XXZZ=            -39.2508 YYZZ=            -32.7846
 XXYZ=            -11.2218 YYXZ=            -15.0203 ZZXY=            -10.4578
 N-N= 4.625147252139D+01 E-N=-1.280578062689D+03  KE= 4.998019221172D+02
                          Isotropic Fermi Contact Couplings
        Atom                 a.u.       MegaHertz       Gauss      10(-4) cm-1
     1  C(13)              0.14179     159.39868      56.87741      53.16968
     2  H(1)              -0.00780     -34.87252     -12.44338     -11.63222
     3  H(1)              -0.00780     -34.86586     -12.44100     -11.63000
     4  H(1)              -0.00780     -34.86313     -12.44003     -11.62909
     5  H(1)              -0.02362    -105.56912     -37.66969     -35.21407
     6  Cl(35)             0.12270      53.79742      19.19626      17.94489
 --------------------------------------------------------
       Center         ----  Spin Dipole Couplings  ----
                      3XX-RR        3YY-RR        3ZZ-RR
 --------------------------------------------------------
     1   Atom        0.051160     -0.155051      0.103891
     2   Atom        0.012870     -0.038822      0.025952
     3   Atom       -0.025498      0.023466      0.002032
     4   Atom        0.011509      0.018742     -0.030251
     5   Atom        0.012742     -0.038546      0.025804
     6   Atom        0.198451     -0.598100      0.399648
 --------------------------------------------------------
                        XY            XZ            YZ
 --------------------------------------------------------
     1   Atom        0.293105      0.439389      0.311208
     2   Atom        0.000181     -0.034633      0.024447
     3   Atom        0.034178      0.000584     -0.034633
     4   Atom       -0.040755      0.024462      0.003395
     5   Atom        0.072845      0.109208      0.077332
     6   Atom        1.129583      1.693755      1.198684
 --------------------------------------------------------


 ---------------------------------------------------------------------------------
              Anisotropic Spin Dipole Couplings in Principal Axis System
 ---------------------------------------------------------------------------------

       Atom             a.u.   MegaHertz   Gauss  10(-4) cm-1        Axes

              Baa    -0.3627   -48.665   -17.365   -16.233  0.7564 -0.5591 -0.3395
     1 C(13)  Bbb    -0.3626   -48.663   -17.364   -16.232  0.2178  0.7047 -0.6752
              Bcc     0.7253    97.329    34.729    32.465  0.6167  0.4368  0.6548
 
              Baa    -0.0495   -26.428    -9.430    -8.815 -0.2191  0.8943 -0.3902
     2 H(1)   Bbb    -0.0089    -4.723    -1.685    -1.575  0.7745  0.4026  0.4879
              Bcc     0.0584    31.151    11.116    10.391 -0.5934  0.1953  0.7809
 
              Baa    -0.0495   -26.428    -9.430    -8.815  0.7643 -0.5312 -0.3655
     3 H(1)   Bbb    -0.0089    -4.724    -1.686    -1.576  0.5567  0.2576  0.7898
              Bcc     0.0584    31.152    11.116    10.391  0.3254  0.8071 -0.4926
 
              Baa    -0.0495   -26.428    -9.430    -8.815 -0.5452 -0.3630  0.7556
     4 H(1)   Bbb    -0.0089    -4.724    -1.686    -1.576  0.4691  0.6149  0.6339
              Bcc     0.0584    31.152    11.116    10.391 -0.6947  0.7001 -0.1649
 
              Baa    -0.0901   -48.089   -17.159   -16.041 -0.6341 -0.2170  0.7421
     5 H(1)   Bbb    -0.0901   -48.089   -17.159   -16.041 -0.4663  0.8730 -0.1431
              Bcc     0.1803    96.178    34.319    32.081  0.6168  0.4368  0.6548
 
              Baa    -1.3977   -73.152   -26.102   -24.401 -0.6989 -0.0783  0.7109
     6 Cl(35) Bbb    -1.3975   -73.144   -26.100   -24.398 -0.3617  0.8962 -0.2569
              Bcc     2.7952   146.296    52.202    48.799  0.6170  0.4367  0.6547
 

 ---------------------------------------------------------------------------------

 No NMR shielding tensors so no spin-rotation constants.
 Leave Link  601 at Wed Oct  7 14:23:18 2020, MaxMem=  2684354560 cpu:               6.0 elap:               0.8
 (Enter /udrive/faculty/rpeverati/g16/g16/l701.exe)
 ... and contract with generalized density number  0.
 Compute integral first derivatives.
 R6Disp: Adding Grimme-D3 dispersion energy 1st derivatives to the gradient.
 Leave Link  701 at Wed Oct  7 14:23:19 2020, MaxMem=  2684354560 cpu:               3.9 elap:               0.7
 (Enter /udrive/faculty/rpeverati/g16/g16/l702.exe)
 L702 exits ... SP integral derivatives will be done elsewhere.
 Leave Link  702 at Wed Oct  7 14:23:20 2020, MaxMem=  2684354560 cpu:               1.1 elap:               0.5
 (Enter /udrive/faculty/rpeverati/g16/g16/l703.exe)
 Integral derivatives from FoFJK, PRISM(SPDF).
 Compute integral first derivatives, UseDBF=F ICtDFT=           0.
 Calling FoFJK, ICntrl=      2127 FMM=F ISym2X=0 I1Cent= 0 IOpClX= 1 NMat=1 NMatS=1 NMatT=0.
 FoFJK:  IHMeth= 1 ICntrl=    2127 DoSepK=F KAlg= 0 I1Cent=           0 FoldK=F
 IRaf=         0 NMat=       1 IRICut=       1 DoRegI=T DoRafI=F ISym2E= 0 IDoP0=0 IntGTp=1.
 FoFCou: FMM=F IPFlag=           0 FMFlag=      100000 FMFlg1=         800
         NFxFlg=           0 DoJE=F BraDBF=F KetDBF=F FulRan=T
         wScrn=  0.000000 ICntrl=      2127 IOpCl=  1 I1Cent=           0 NGrid=           0
         NMat0=    1 NMatS0=      1 NMatT0=    0 NMatD0=    1 NMtDS0=    0 NMtDT0=    0
 Symmetry not used in FoFCou.
 Leave Link  703 at Wed Oct  7 14:23:21 2020, MaxMem=  2684354560 cpu:              12.0 elap:               1.3
 (Enter /udrive/faculty/rpeverati/g16/g16/l716.exe)
 Dipole        = 7.24323827D-01 5.12844587D-01 7.68833572D-01
 ***** Axes restored to original set *****
 -------------------------------------------------------------------
 Center     Atomic                   Forces (Hartrees/Bohr)
 Number     Number              X              Y              Z
 -------------------------------------------------------------------
      1        6           0.009113537   -0.000844049   -0.001093423
      2        1          -0.001730542   -0.002486145   -0.001065313
      3        1          -0.001312744    0.002514193   -0.001489040
      4        1          -0.000973473    0.000337490    0.003032881
      5        1          -0.014849068    0.001336646    0.001726579
      6       17           0.009752289   -0.000858134   -0.001111684
 -------------------------------------------------------------------
 Cartesian Forces:  Max     0.014849068 RMS     0.004933664
 Leave Link  716 at Wed Oct  7 14:23:22 2020, MaxMem=  2684354560 cpu:               1.8 elap:               0.6
 (Enter /udrive/faculty/rpeverati/g16/g16/l103.exe)

 GradGradGradGradGradGradGradGradGradGradGradGradGradGradGradGradGradGrad
 Berny optimization.
 Optmz: redundant internal coordinate code flag= 1
 FormGI is forming the generalized inverse of G from B-inverse, IUseBI=4.
 Internal  Forces:  Max     0.009852531 RMS     0.003014023
 Search for a saddle point.
 Step number   1 out of a maximum of   50
 All quantities printed in internal units (Hartrees-Bohrs-Radians)
 Swapping is turned off.
 Second derivative matrix not updated -- first step.
 The second derivative matrix:
                          R1        R2        R3        R4        R5
           R1           0.35762
           R2           0.00000   0.35761
           R3           0.00000   0.00000   0.35761
           R4           0.00000   0.00000   0.00000   0.14494
           R5           0.00000   0.00000   0.00000   0.00000   0.19191
           A1           0.00000   0.00000   0.00000   0.00000   0.00000
           A2           0.00000   0.00000   0.00000   0.00000   0.00000
           A3           0.00000   0.00000   0.00000   0.00000   0.00000
           A4           0.00000   0.00000   0.00000   0.00000   0.00000
           A5           0.00000   0.00000   0.00000   0.00000   0.00000
           A6           0.00000   0.00000   0.00000   0.00000   0.00000
           A7           0.00000   0.00000   0.00000   0.00000   0.00000
           A8           0.00000   0.00000   0.00000   0.00000   0.00000
           D1           0.00000   0.00000   0.00000   0.00000   0.00000
           D2           0.00000   0.00000   0.00000   0.00000   0.00000
           D3           0.00000   0.00000   0.00000   0.00000   0.00000
           D4           0.00000   0.00000   0.00000   0.00000   0.00000
                          A1        A2        A3        A4        A5
           A1           0.16000
           A2           0.00000   0.16000
           A3           0.00000   0.00000   0.16000
           A4           0.00000   0.00000   0.00000   0.16000
           A5           0.00000   0.00000   0.00000   0.00000   0.16000
           A6           0.00000   0.00000   0.00000   0.00000   0.00000
           A7           0.00000   0.00000   0.00000   0.00000   0.00000
           A8           0.00000   0.00000   0.00000   0.00000   0.00000
           D1           0.00000   0.00000   0.00000   0.00000   0.00000
           D2           0.00000   0.00000   0.00000   0.00000   0.00000
           D3           0.00000   0.00000   0.00000   0.00000   0.00000
           D4           0.00000   0.00000   0.00000   0.00000   0.00000
                          A6        A7        A8        D1        D2
           A6           0.16000
           A7           0.00000   0.00230
           A8           0.00000   0.00000   0.00230
           D1           0.00000   0.00000   0.00000   0.00341
           D2           0.00000   0.00000   0.00000   0.00000   0.00230
           D3           0.00000   0.00000   0.00000   0.00000   0.00000
           D4           0.00000   0.00000   0.00000   0.00000   0.00000
                          D3        D4
           D3           0.00230
           D4           0.00000   0.00230
 ITU=  0
 Eigenvectors of the second derivative matrix:
                           1         2         3         4         5
     Eigenvalues --     0.00230   0.00230   0.04949   0.07158   0.07475
   1         R1         0.00000  -0.00000   0.00000   0.00000   0.00000
   2         R2        -0.00000   0.00000   0.00000   0.00000  -0.00000
   3         R3         0.00000   0.00000   0.00000  -0.00000  -0.00000
   4         R4         0.00000  -0.00000   0.00000   0.00000   0.00000
   5         R5        -0.00000  -0.00000  -0.00000  -0.00000  -0.00000
   6         A1         0.00000   0.00000   0.33021   0.00000  -0.39712
   7         A2        -0.00000   0.00000   0.06690   0.44638   0.32299
   8         A3         0.00000  -0.00000  -0.22719   0.14279  -0.21364
   9         A4        -0.00000  -0.00000   0.06687  -0.44641   0.32294
  10         A5        -0.00000   0.00000  -0.22720  -0.14274  -0.21365
  11         A6         0.00000  -0.00000  -0.27105   0.00000   0.03825
  12         A7         0.04893   0.99880  -0.00000  -0.00000   0.00000
  13         A8         0.99880  -0.04893   0.00000  -0.00000   0.00000
  14         D1         0.00000  -0.00000  -0.80369   0.00004  -0.21481
  15         D2         0.00000   0.00000   0.19898   0.00002  -0.57433
  16         D3        -0.00000   0.00000   0.09947  -0.52947  -0.28719
  17         D4        -0.00000  -0.00000  -0.09951  -0.52949   0.28714
                           6         7         8         9        10
     Eigenvalues --     0.14494   0.16000   0.16000   0.19191   0.35761
   1         R1         0.00000  -0.00000  -0.00000   0.00000   0.00000
   2         R2        -0.00000  -0.00000  -0.00000  -0.00000   0.00000
   3         R3        -0.00000  -0.00000  -0.00000   0.00000   1.00000
   4         R4        -1.00000   0.00000  -0.00000  -0.00000  -0.00000
   5         R5         0.00000  -0.00000  -0.00000  -1.00000   0.00000
   6         A1         0.00000  -0.02958  -0.22667   0.00000  -0.00000
   7         A2         0.00000   0.23218   0.11459  -0.00000   0.00000
   8         A3        -0.00000  -0.62158   0.44160   0.00000   0.00000
   9         A4        -0.00000  -0.19500   0.17036   0.00000  -0.00000
  10         A5         0.00000   0.71410   0.26728  -0.00000   0.00000
  11         A6         0.00000  -0.10441  -0.80001   0.00000  -0.00000
  12         A7        -0.00000  -0.00000   0.00000  -0.00000  -0.00000
  13         A8         0.00000   0.00000   0.00000  -0.00000  -0.00000
  14         D1        -0.00000  -0.00000  -0.00000   0.00000   0.00000
  15         D2        -0.00000  -0.00000  -0.00000   0.00000  -0.00000
  16         D3        -0.00000   0.00000   0.00000   0.00000  -0.00000
  17         D4        -0.00000   0.00000   0.00000   0.00000  -0.00000
                          11        12
     Eigenvalues --     0.35761   0.35762
   1         R1         0.00000  -1.00000
   2         R2         1.00000   0.00000
   3         R3        -0.00000   0.00000
   4         R4        -0.00000  -0.00000
   5         R5        -0.00000  -0.00000
   6         A1        -0.00000   0.00000
   7         A2        -0.00000   0.00000
   8         A3         0.00000   0.00000
   9         A4        -0.00000   0.00000
  10         A5         0.00000  -0.00000
  11         A6        -0.00000  -0.00000
  12         A7        -0.00000  -0.00000
  13         A8        -0.00000   0.00000
  14         D1         0.00000  -0.00000
  15         D2        -0.00000  -0.00000
  16         D3         0.00000  -0.00000
  17         D4         0.00000  -0.00000
 Eigenvalue     1 is   2.30D-03 should be less than     0.000000 Eigenvector:
                          A8        A7        A4        D4        A6
   1                    0.99880   0.04893  -0.00000  -0.00000   0.00000
                          D1        D2        A5        A1        D3
   1                    0.00000   0.00000  -0.00000   0.00000  -0.00000
 RLam0= 2.30D-03.
 Iter=   1 RLamda= 0.00000000D+00 Sum=-8.09088322D-04.
 Iter=   2 RLamda=-8.09088322D-04 Sum=-8.03298174D-04.
 Iter=   3 RLamda=-8.03298174D-04 Sum=-8.03335753D-04.
 Iter=   4 RLamda=-8.03335753D-04 Sum=-8.03335509D-04.
 RFO step:  Lambda0=2.300810619D-03 Lambda=-8.03335753D-04.
 Linear search not attempted -- option 19 set.
 Maximum step size (   0.100) exceeded in Quadratic search.
    -- Step size scaled by   0.891
 Iteration  1 RMS(Cart)=  0.02117073 RMS(Int)=  0.00071259
 Iteration  2 RMS(Cart)=  0.00099063 RMS(Int)=  0.00002467
 Iteration  3 RMS(Cart)=  0.00000125 RMS(Int)=  0.00002463
 Iteration  4 RMS(Cart)=  0.00000000 RMS(Int)=  0.00002463
 ITry= 1 IFail=0 DXMaxC= 4.52D-02 DCOld= 1.00D+10 DXMaxT= 1.00D-01 DXLimC= 3.00D+00 Rises=F
 Variable       Old X    -DE/DX   Delta X   Delta X   Delta X     New X
                                 (Linear)    (Quad)   (Total)
    R1        2.04456   0.00311   0.00000   0.00774   0.00774   2.05229
    R2        2.04456   0.00311   0.00000   0.00774   0.00774   2.05230
    R3        2.04456   0.00312   0.00000   0.00775   0.00775   2.05231
    R4        2.63908  -0.00516   0.00000  -0.03151  -0.03151   2.60757
    R5        2.74280   0.00985   0.00000   0.04554   0.04554   2.78835
    A1        2.02979  -0.00010   0.00000  -0.00354  -0.00360   2.02619
    A2        2.02978  -0.00029   0.00000  -0.00376  -0.00381   2.02597
    A3        1.76688   0.00036   0.00000   0.00597   0.00597   1.77286
    A4        2.02979  -0.00029   0.00000  -0.00381  -0.00386   2.02593
    A5        1.76691   0.00033   0.00000   0.00576   0.00577   1.77267
    A6        1.76695   0.00038   0.00000   0.00565   0.00565   1.77260
    A7        3.14130   0.00013   0.00000   0.03458   0.03458   3.17588
    A8        3.14143   0.00004   0.00000  -0.07357  -0.07357   3.06786
    D1       -2.49058   0.00104   0.00000   0.01760   0.01756  -2.47303
    D2        2.09439   0.00013   0.00000   0.00023   0.00022   2.09461
    D3       -2.09439   0.00006   0.00000   0.00005   0.00005  -2.09435
    D4        2.09441  -0.00007   0.00000  -0.00018  -0.00018   2.09423
         Item               Value     Threshold  Converged?
 Maximum Force            0.009853     0.000450     NO 
 RMS     Force            0.003014     0.000300     NO 
 Maximum Displacement     0.045203     0.001800     NO 
 RMS     Displacement     0.021530     0.001200     NO 
 Predicted change in Energy=-3.898121D-04
 Lowest energy point so far.  Saving SCF results.
 Largest change from initial coordinates is atom    5       0.027 Angstoms.
 GradGradGradGradGradGradGradGradGradGradGradGradGradGradGradGradGradGrad

 Leave Link  103 at Wed Oct  7 14:23:23 2020, MaxMem=  2684354560 cpu:               4.2 elap:               0.7
 (Enter /udrive/faculty/rpeverati/g16/g16/l202.exe)
                          Input orientation:                          
 ---------------------------------------------------------------------
 Center     Atomic      Atomic             Coordinates (Angstroms)
 Number     Number       Type             X           Y           Z
 ---------------------------------------------------------------------
      1          6           0       -1.795555    0.165455    0.217523
      2          1           0       -2.166573   -0.763925   -0.204440
      3          1           0       -1.983523    1.062901   -0.364474
      4          1           0       -1.881878    0.268538    1.295205
      5          1           0       -0.432676    0.015444    0.062317
      6         17           0        1.027191   -0.073254   -0.132892
 ---------------------------------------------------------------------
                    Distance matrix (angstroms):
                    1          2          3          4          5
     1  C    0.000000
     2  H    1.086027   0.000000
     3  H    1.086030   1.842936   0.000000
     4  H    1.086037   1.842815   1.842791   0.000000
     5  H    1.379866   1.919629   1.919490   1.919441   0.000000
     6  Cl   2.854412   3.268375   3.226280   3.258675   1.475529
                    6
     6  Cl   0.000000
 Stoichiometry    CH4Cl(2)
 Framework group  C1[X(CH4Cl)]
 Deg. of freedom    12
 Full point group                 C1      NOp   1
 RotChk:  IX=2 Diff= 1.95D+00
 Largest Abelian subgroup         C1      NOp   1
 Largest concise Abelian subgroup C1      NOp   1
                         Standard orientation:                         
 ---------------------------------------------------------------------
 Center     Atomic      Atomic             Coordinates (Angstroms)
 Number     Number       Type             X           Y           Z
 ---------------------------------------------------------------------
      1          6           0        1.824118    0.001672    0.000400
      2          1           0        2.061879   -0.866593    0.607887
      3          1           0        2.013038    0.969397    0.455679
      4          1           0        2.050579   -0.080073   -1.058613
      5          1           0        0.444781   -0.035575   -0.008050
      6         17           0       -1.030293    0.000166    0.000041
 ---------------------------------------------------------------------
 Rotational constants (GHZ):         147.6466788           5.5869219           5.5868895
 Leave Link  202 at Wed Oct  7 14:23:24 2020, MaxMem=  2684354560 cpu:               1.4 elap:               0.5
 (Enter /udrive/faculty/rpeverati/g16/g16/l301.exe)
 Standard basis: 6-31G(d) (5D, 7F)
 Ernie: Thresh=  0.10000D-02 Tol=  0.10000D-05 Strict=F.
 There are    42 symmetry adapted cartesian basis functions of A   symmetry.
 There are    40 symmetry adapted basis functions of A   symmetry.
    40 basis functions,    96 primitive gaussians,    42 cartesian basis functions
    14 alpha electrons       13 beta electrons
       nuclear repulsion energy        46.0680710203 Hartrees.
 IExCor= 4336 DFT=T Ex+Corr=M062X ExCW=0 ScaHFX=  0.540000
 ScaDFX=  1.000000  1.000000  1.000000  1.000000 ScalE2=  1.000000  1.000000
 IRadAn=      5 IRanWt=     -1 IRanGd=            0 ICorTp=0 IEmpDi=131
 NAtoms=    6 NActive=    6 NUniq=    6 SFac= 1.00D+00 NAtFMM=   60 NAOKFM=F Big=F
 Integral buffers will be    131072 words long.
 Raffenetti 2 integral format.
 Two-electron integral symmetry is turned on.
 R6Disp:  Grimme-D3 Dispersion energy=       -0.0000087456 Hartrees.
 Nuclear repulsion after empirical dispersion term =       46.0680622747 Hartrees.
 Leave Link  301 at Wed Oct  7 14:23:24 2020, MaxMem=  2684354560 cpu:               1.8 elap:               0.5
 (Enter /udrive/faculty/rpeverati/g16/g16/l302.exe)
 NPDir=0 NMtPBC=     1 NCelOv=     1 NCel=       1 NClECP=     1 NCelD=      1
         NCelK=      1 NCelE2=     1 NClLst=     1 CellRange=     0.0.
 One-electron integrals computed using PRISM.
 One-electron integral symmetry used in STVInt
 NBasis=    40 RedAO= T EigKep=  1.05D-02  NBF=    40
 NBsUse=    40 1.00D-06 EigRej= -1.00D+00 NBFU=    40
 Precomputing XC quadrature grid using
 IXCGrd= 4 IRadAn=           5 IRanWt=          -1 IRanGd=           0 AccXCQ= 0.00D+00.
 Generated NRdTot=       0 NPtTot=           0 NUsed=           0 NTot=          32
 NSgBfM=    42    42    42    42    42 MxSgAt=     6 MxSgA2=     6.
 Leave Link  302 at Wed Oct  7 14:23:25 2020, MaxMem=  2684354560 cpu:               3.4 elap:               0.7
 (Enter /udrive/faculty/rpeverati/g16/g16/l303.exe)
 DipDrv:  MaxL=1.
 Leave Link  303 at Wed Oct  7 14:23:26 2020, MaxMem=  2684354560 cpu:               1.1 elap:               0.4
 (Enter /udrive/faculty/rpeverati/g16/g16/l401.exe)
 Initial guess from the checkpoint file:  "MN_84_RKT08_BH76_M062XD30_631Gs.chk"
 SCF N**3 symmetry information disabled.
 B after Tr=     0.000000   -0.000000    0.000000
         Rot=    0.723725   -0.533224   -0.437537   -0.021361 Ang= -87.27 deg.
 Guess basis will be translated and rotated to current coordinates.
 JPrj=2 DoOrth=T DoCkMO=T.
 Initial guess <Sx>= 0.0000 <Sy>= 0.0000 <Sz>= 0.5000 <S**2>= 0.7587 S= 0.5043
 Generating alternative initial guess.
 ExpMin= 1.43D-01 ExpMax= 2.52D+04 ExpMxC= 3.78D+03 IAcc=2 IRadAn=         4 AccDes= 0.00D+00
 Harris functional with IExCor= 1009 and IRadAn=       4 diagonalized for initial guess.
 HarFok:  IExCor= 1009 AccDes= 0.00D+00 IRadAn=         4 IDoV= 1 UseB2=F ITyADJ=14
 ICtDFT=  3500011 ScaDFX=  1.000000  1.000000  1.000000  1.000000
 FoFCou: FMM=F IPFlag=           0 FMFlag=      100000 FMFlg1=           0
         NFxFlg=           0 DoJE=T BraDBF=F KetDBF=T FulRan=T
         wScrn=  0.000000 ICntrl=       500 IOpCl=  0 I1Cent=   200000004 NGrid=           0
         NMat0=    1 NMatS0=      1 NMatT0=    0 NMatD0=    1 NMtDS0=    0 NMtDT0=    0
 Petite list used in FoFCou.
 Harris En= -500.319657957803    
 Leave Link  401 at Wed Oct  7 14:23:27 2020, MaxMem=  2684354560 cpu:               7.8 elap:               1.0
 (Enter /udrive/faculty/rpeverati/g16/g16/l502.exe)
 Keep R1 and R2 ints in memory in canonical form, NReq=11040253.
 FoFCou: FMM=F IPFlag=           0 FMFlag=           0 FMFlg1=           0
         NFxFlg=           0 DoJE=F BraDBF=F KetDBF=F FulRan=T
         wScrn=  0.000000 ICntrl=       600 IOpCl=  0 I1Cent=           0 NGrid=           0
         NMat0=    1 NMatS0=    820 NMatT0=    0 NMatD0=    1 NMtDS0=    0 NMtDT0=    0
 Symmetry not used in FoFCou.
 Two-electron integral symmetry not used.
 UHF open shell SCF:
 Using DIIS extrapolation, IDIIS=  1040.
 NGot=  2684354560 LenX=  2683676641 LenY=  2683674436
 Requested convergence on RMS density matrix=1.00D-08 within 120 cycles.
 Requested convergence on MAX density matrix=1.00D-06.
 Requested convergence on             energy=1.00D-06.
 No special actions if energy rises.
 Integral accuracy reduced to 1.0D-05 until final iterations.

 Cycle   1  Pass 0  IDiag  1:
 E= -500.561773303313    
 DIIS: error= 1.57D-03 at cycle   1 NSaved=   1.
 NSaved= 1 IEnMin= 1 EnMin= -500.561773303313     IErMin= 1 ErrMin= 1.57D-03
 ErrMax= 1.57D-03  0.00D+00 EMaxC= 1.00D-01 BMatC= 6.89D-04 BMatP= 6.89D-04
 IDIUse=3 WtCom= 9.84D-01 WtEn= 1.57D-02
 Coeff-Com:  0.100D+01
 Coeff-En:   0.100D+01
 Coeff:      0.100D+01
 Gap=     0.624 Goal=   None    Shift=    0.000
 Gap=     0.687 Goal=   None    Shift=    0.000
 GapD=    0.624 DampG=2.000 DampE=1.000 DampFc=2.0000 IDamp=-1.
 RMSDP=8.13D-04 MaxDP=1.02D-02              OVMax= 1.23D-02

 Cycle   2  Pass 0  IDiag  1:
 E= -500.562173350004     Delta-E=       -0.000400046691 Rises=F Damp=F
 DIIS: error= 8.25D-04 at cycle   2 NSaved=   2.
 NSaved= 2 IEnMin= 2 EnMin= -500.562173350004     IErMin= 2 ErrMin= 8.25D-04
 ErrMax= 8.25D-04  0.00D+00 EMaxC= 1.00D-01 BMatC= 5.38D-05 BMatP= 6.89D-04
 IDIUse=3 WtCom= 9.92D-01 WtEn= 8.25D-03
 Coeff-Com: -0.909D-01 0.109D+01
 Coeff-En:   0.000D+00 0.100D+01
 Coeff:     -0.902D-01 0.109D+01
 Gap=     0.469 Goal=   None    Shift=    0.000
 Gap=     0.241 Goal=   None    Shift=    0.000
 RMSDP=3.15D-04 MaxDP=3.48D-03 DE=-4.00D-04 OVMax= 4.75D-03

 Cycle   3  Pass 0  IDiag  1:
 E= -500.562216223997     Delta-E=       -0.000042873993 Rises=F Damp=F
 DIIS: error= 4.31D-04 at cycle   3 NSaved=   3.
 NSaved= 3 IEnMin= 3 EnMin= -500.562216223997     IErMin= 3 ErrMin= 4.31D-04
 ErrMax= 4.31D-04  0.00D+00 EMaxC= 1.00D-01 BMatC= 1.38D-05 BMatP= 5.38D-05
 IDIUse=3 WtCom= 9.96D-01 WtEn= 4.31D-03
 Coeff-Com: -0.825D-01 0.308D+00 0.774D+00
 Coeff-En:   0.000D+00 0.000D+00 0.100D+01
 Coeff:     -0.822D-01 0.307D+00 0.775D+00
 Gap=     0.469 Goal=   None    Shift=    0.000
 Gap=     0.240 Goal=   None    Shift=    0.000
 RMSDP=1.07D-04 MaxDP=1.69D-03 DE=-4.29D-05 OVMax= 3.05D-03

 Cycle   4  Pass 0  IDiag  1:
 E= -500.562225242544     Delta-E=       -0.000009018547 Rises=F Damp=F
 DIIS: error= 1.91D-04 at cycle   4 NSaved=   4.
 NSaved= 4 IEnMin= 4 EnMin= -500.562225242544     IErMin= 4 ErrMin= 1.91D-04
 ErrMax= 1.91D-04  0.00D+00 EMaxC= 1.00D-01 BMatC= 2.82D-06 BMatP= 1.38D-05
 IDIUse=3 WtCom= 9.98D-01 WtEn= 1.91D-03
 Coeff-Com:  0.415D-02-0.140D+00 0.121D+00 0.101D+01
 Coeff-En:   0.000D+00 0.000D+00 0.000D+00 0.100D+01
 Coeff:      0.415D-02-0.140D+00 0.121D+00 0.101D+01
 Gap=     0.469 Goal=   None    Shift=    0.000
 Gap=     0.241 Goal=   None    Shift=    0.000
 RMSDP=8.90D-05 MaxDP=1.47D-03 DE=-9.02D-06 OVMax= 1.35D-03

 Cycle   5  Pass 0  IDiag  1:
 E= -500.562227850734     Delta-E=       -0.000002608191 Rises=F Damp=F
 DIIS: error= 6.78D-05 at cycle   5 NSaved=   5.
 NSaved= 5 IEnMin= 5 EnMin= -500.562227850734     IErMin= 5 ErrMin= 6.78D-05
 ErrMax= 6.78D-05  0.00D+00 EMaxC= 1.00D-01 BMatC= 5.14D-07 BMatP= 2.82D-06
 IDIUse=1 WtCom= 1.00D+00 WtEn= 0.00D+00
 Coeff-Com:  0.205D-01-0.122D+00-0.119D+00 0.350D+00 0.870D+00
 Coeff:      0.205D-01-0.122D+00-0.119D+00 0.350D+00 0.870D+00
 Gap=     0.469 Goal=   None    Shift=    0.000
 Gap=     0.240 Goal=   None    Shift=    0.000
 RMSDP=3.43D-05 MaxDP=4.33D-04 DE=-2.61D-06 OVMax= 8.35D-04

 Cycle   6  Pass 0  IDiag  1:
 E= -500.562228363116     Delta-E=       -0.000000512382 Rises=F Damp=F
 DIIS: error= 1.97D-05 at cycle   6 NSaved=   6.
 NSaved= 6 IEnMin= 6 EnMin= -500.562228363116     IErMin= 6 ErrMin= 1.97D-05
 ErrMax= 1.97D-05  0.00D+00 EMaxC= 1.00D-01 BMatC= 3.11D-08 BMatP= 5.14D-07
 IDIUse=1 WtCom= 1.00D+00 WtEn= 0.00D+00
 Coeff-Com: -0.197D-02 0.218D-01-0.281D-02-0.131D+00-0.468D-01 0.116D+01
 Coeff:     -0.197D-02 0.218D-01-0.281D-02-0.131D+00-0.468D-01 0.116D+01
 Gap=     0.469 Goal=   None    Shift=    0.000
 Gap=     0.240 Goal=   None    Shift=    0.000
 RMSDP=1.16D-05 MaxDP=1.78D-04 DE=-5.12D-07 OVMax= 3.03D-04

 Cycle   7  Pass 0  IDiag  1:
 E= -500.562228419608     Delta-E=       -0.000000056492 Rises=F Damp=F
 DIIS: error= 9.66D-06 at cycle   7 NSaved=   7.
 NSaved= 7 IEnMin= 7 EnMin= -500.562228419608     IErMin= 7 ErrMin= 9.66D-06
 ErrMax= 9.66D-06  0.00D+00 EMaxC= 1.00D-01 BMatC= 4.23D-09 BMatP= 3.11D-08
 IDIUse=1 WtCom= 1.00D+00 WtEn= 0.00D+00
 Coeff-Com: -0.160D-02 0.814D-02 0.110D-01-0.135D-01-0.710D-01-0.169D+00
 Coeff-Com:  0.124D+01
 Coeff:     -0.160D-02 0.814D-02 0.110D-01-0.135D-01-0.710D-01-0.169D+00
 Coeff:      0.124D+01
 Gap=     0.469 Goal=   None    Shift=    0.000
 Gap=     0.240 Goal=   None    Shift=    0.000
 RMSDP=4.87D-06 MaxDP=9.17D-05 DE=-5.65D-08 OVMax= 1.56D-04

 Initial convergence to 1.0D-05 achieved.  Increase integral accuracy.
 Cycle   8  Pass 1  IDiag  1:
 E= -500.562393947041     Delta-E=       -0.000165527433 Rises=F Damp=F
 DIIS: error= 5.00D-05 at cycle   1 NSaved=   1.
 NSaved= 1 IEnMin= 1 EnMin= -500.562393947041     IErMin= 1 ErrMin= 5.00D-05
 ErrMax= 5.00D-05  0.00D+00 EMaxC= 1.00D-01 BMatC= 3.36D-07 BMatP= 3.36D-07
 IDIUse=1 WtCom= 1.00D+00 WtEn= 0.00D+00
 Coeff-Com:  0.100D+01
 Coeff:      0.100D+01
 Gap=     0.469 Goal=   None    Shift=    0.000
 Gap=     0.240 Goal=   None    Shift=    0.000
 RMSDP=4.87D-06 MaxDP=9.17D-05 DE=-1.66D-04 OVMax= 1.15D-04

 Cycle   9  Pass 1  IDiag  1:
 E= -500.562394024019     Delta-E=       -0.000000076977 Rises=F Damp=F
 DIIS: error= 1.50D-05 at cycle   2 NSaved=   2.
 NSaved= 2 IEnMin= 2 EnMin= -500.562394024019     IErMin= 2 ErrMin= 1.50D-05
 ErrMax= 1.50D-05  0.00D+00 EMaxC= 1.00D-01 BMatC= 1.90D-08 BMatP= 3.36D-07
 IDIUse=1 WtCom= 1.00D+00 WtEn= 0.00D+00
 Coeff-Com:  0.215D-01 0.978D+00
 Coeff:      0.215D-01 0.978D+00
 Gap=     0.469 Goal=   None    Shift=    0.000
 Gap=     0.240 Goal=   None    Shift=    0.000
 RMSDP=4.42D-06 MaxDP=8.26D-05 DE=-7.70D-08 OVMax= 8.62D-05

 Cycle  10  Pass 1  IDiag  1:
 E= -500.562394032829     Delta-E=       -0.000000008811 Rises=F Damp=F
 DIIS: error= 8.14D-06 at cycle   3 NSaved=   3.
 NSaved= 3 IEnMin= 3 EnMin= -500.562394032829     IErMin= 3 ErrMin= 8.14D-06
 ErrMax= 8.14D-06  0.00D+00 EMaxC= 1.00D-01 BMatC= 7.91D-09 BMatP= 1.90D-08
 IDIUse=1 WtCom= 1.00D+00 WtEn= 0.00D+00
 Coeff-Com: -0.352D-01 0.363D+00 0.672D+00
 Coeff:     -0.352D-01 0.363D+00 0.672D+00
 Gap=     0.469 Goal=   None    Shift=    0.000
 Gap=     0.240 Goal=   None    Shift=    0.000
 RMSDP=2.04D-06 MaxDP=3.66D-05 DE=-8.81D-09 OVMax= 2.60D-05

 Cycle  11  Pass 1  IDiag  1:
 E= -500.562394036022     Delta-E=       -0.000000003193 Rises=F Damp=F
 DIIS: error= 2.24D-06 at cycle   4 NSaved=   4.
 NSaved= 4 IEnMin= 4 EnMin= -500.562394036022     IErMin= 4 ErrMin= 2.24D-06
 ErrMax= 2.24D-06  0.00D+00 EMaxC= 1.00D-01 BMatC= 6.23D-10 BMatP= 7.91D-09
 IDIUse=1 WtCom= 1.00D+00 WtEn= 0.00D+00
 Coeff-Com: -0.998D-02-0.619D-01 0.221D-01 0.105D+01
 Coeff:     -0.998D-02-0.619D-01 0.221D-01 0.105D+01
 Gap=     0.469 Goal=   None    Shift=    0.000
 Gap=     0.240 Goal=   None    Shift=    0.000
 RMSDP=1.04D-06 MaxDP=1.60D-05 DE=-3.19D-09 OVMax= 2.81D-05

 Cycle  12  Pass 1  IDiag  1:
 E= -500.562394036780     Delta-E=       -0.000000000758 Rises=F Damp=F
 DIIS: error= 1.53D-06 at cycle   5 NSaved=   5.
 NSaved= 5 IEnMin= 5 EnMin= -500.562394036780     IErMin= 5 ErrMin= 1.53D-06
 ErrMax= 1.53D-06  0.00D+00 EMaxC= 1.00D-01 BMatC= 2.55D-10 BMatP= 6.23D-10
 IDIUse=1 WtCom= 1.00D+00 WtEn= 0.00D+00
 Coeff-Com:  0.305D-02-0.958D-01-0.140D+00 0.417D+00 0.816D+00
 Coeff:      0.305D-02-0.958D-01-0.140D+00 0.417D+00 0.816D+00
 Gap=     0.469 Goal=   None    Shift=    0.000
 Gap=     0.240 Goal=   None    Shift=    0.000
 RMSDP=6.35D-07 MaxDP=9.96D-06 DE=-7.58D-10 OVMax= 1.75D-05

 Cycle  13  Pass 1  IDiag  1:
 E= -500.562394037032     Delta-E=       -0.000000000252 Rises=F Damp=F
 DIIS: error= 7.64D-07 at cycle   6 NSaved=   6.
 NSaved= 6 IEnMin= 6 EnMin= -500.562394037032     IErMin= 6 ErrMin= 7.64D-07
 ErrMax= 7.64D-07  0.00D+00 EMaxC= 1.00D-01 BMatC= 2.26D-11 BMatP= 2.55D-10
 IDIUse=1 WtCom= 1.00D+00 WtEn= 0.00D+00
 Coeff-Com:  0.386D-03 0.518D-01 0.570D-01-0.338D+00-0.405D+00 0.163D+01
 Coeff:      0.386D-03 0.518D-01 0.570D-01-0.338D+00-0.405D+00 0.163D+01
 Gap=     0.469 Goal=   None    Shift=    0.000
 Gap=     0.240 Goal=   None    Shift=    0.000
 RMSDP=5.10D-07 MaxDP=9.06D-06 DE=-2.52D-10 OVMax= 1.61D-05

 Cycle  14  Pass 1  IDiag  1:
 E= -500.562394037112     Delta-E=       -0.000000000080 Rises=F Damp=F
 DIIS: error= 2.41D-07 at cycle   7 NSaved=   7.
 NSaved= 7 IEnMin= 7 EnMin= -500.562394037112     IErMin= 7 ErrMin= 2.41D-07
 ErrMax= 2.41D-07  0.00D+00 EMaxC= 1.00D-01 BMatC= 2.15D-12 BMatP= 2.26D-11
 IDIUse=1 WtCom= 1.00D+00 WtEn= 0.00D+00
 Coeff-Com: -0.399D-03-0.139D-02 0.171D-02 0.338D-01 0.615D-02-0.403D+00
 Coeff-Com:  0.136D+01
 Coeff:     -0.399D-03-0.139D-02 0.171D-02 0.338D-01 0.615D-02-0.403D+00
 Coeff:      0.136D+01
 Gap=     0.469 Goal=   None    Shift=    0.000
 Gap=     0.240 Goal=   None    Shift=    0.000
 RMSDP=1.59D-07 MaxDP=3.07D-06 DE=-8.00D-11 OVMax= 5.40D-06

 Cycle  15  Pass 1  IDiag  1:
 E= -500.562394037121     Delta-E=       -0.000000000009 Rises=F Damp=F
 DIIS: error= 6.08D-08 at cycle   8 NSaved=   8.
 NSaved= 8 IEnMin= 8 EnMin= -500.562394037121     IErMin= 8 ErrMin= 6.08D-08
 ErrMax= 6.08D-08  0.00D+00 EMaxC= 1.00D-01 BMatC= 2.76D-13 BMatP= 2.15D-12
 IDIUse=1 WtCom= 1.00D+00 WtEn= 0.00D+00
 Coeff-Com: -0.129D-04-0.678D-02-0.665D-02 0.413D-01 0.540D-01-0.216D+00
 Coeff-Com:  0.232D-01 0.111D+01
 Coeff:     -0.129D-04-0.678D-02-0.665D-02 0.413D-01 0.540D-01-0.216D+00
 Coeff:      0.232D-01 0.111D+01
 Gap=     0.469 Goal=   None    Shift=    0.000
 Gap=     0.240 Goal=   None    Shift=    0.000
 RMSDP=4.42D-08 MaxDP=8.37D-07 DE=-8.87D-12 OVMax= 1.45D-06

 Cycle  16  Pass 1  IDiag  1:
 E= -500.562394037120     Delta-E=        0.000000000001 Rises=F Damp=F
 DIIS: error= 1.59D-08 at cycle   9 NSaved=   9.
 NSaved= 9 IEnMin= 8 EnMin= -500.562394037121     IErMin= 9 ErrMin= 1.59D-08
 ErrMax= 1.59D-08  0.00D+00 EMaxC= 1.00D-01 BMatC= 3.90D-14 BMatP= 2.76D-13
 IDIUse=1 WtCom= 1.00D+00 WtEn= 0.00D+00
 Coeff-Com:  0.727D-04 0.641D-03 0.105D-02-0.918D-02-0.380D-02 0.758D-01
 Coeff-Com: -0.191D+00-0.104D+00 0.123D+01
 Coeff:      0.727D-04 0.641D-03 0.105D-02-0.918D-02-0.380D-02 0.758D-01
 Coeff:     -0.191D+00-0.104D+00 0.123D+01
 Gap=     0.469 Goal=   None    Shift=    0.000
 Gap=     0.240 Goal=   None    Shift=    0.000
 RMSDP=1.57D-08 MaxDP=2.17D-07 DE= 1.36D-12 OVMax= 3.50D-07

 Cycle  17  Pass 1  IDiag  1:
 E= -500.562394037120     Delta-E=       -0.000000000001 Rises=F Damp=F
 DIIS: error= 4.89D-09 at cycle  10 NSaved=  10.
 NSaved=10 IEnMin= 8 EnMin= -500.562394037121     IErMin=10 ErrMin= 4.89D-09
 ErrMax= 4.89D-09  0.00D+00 EMaxC= 1.00D-01 BMatC= 2.97D-15 BMatP= 3.90D-14
 IDIUse=1 WtCom= 1.00D+00 WtEn= 0.00D+00
 Coeff-Com:  0.131D-04 0.738D-03 0.894D-03-0.558D-02-0.581D-02 0.323D-01
 Coeff-Com: -0.299D-01-0.130D+00 0.151D+00 0.986D+00
 Coeff:      0.131D-04 0.738D-03 0.894D-03-0.558D-02-0.581D-02 0.323D-01
 Coeff:     -0.299D-01-0.130D+00 0.151D+00 0.986D+00
 Gap=     0.469 Goal=   None    Shift=    0.000
 Gap=     0.240 Goal=   None    Shift=    0.000
 RMSDP=3.58D-09 MaxDP=4.75D-08 DE=-6.82D-13 OVMax= 8.39D-08

 SCF Done:  E(UM062X) =  -500.562394037     A.U. after   17 cycles
            NFock= 17  Conv=0.36D-08     -V/T= 2.0016
 <Sx>= 0.0000 <Sy>= 0.0000 <Sz>= 0.5000 <S**2>= 0.7588 S= 0.5044
 <L.S>= 0.000000000000E+00
 KE= 4.997692284465D+02 PE=-1.280182232867D+03 EE= 2.337825481083D+02
 Annihilation of the first spin contaminant:
 S**2 before annihilation     0.7588,   after     0.7500
 Leave Link  502 at Wed Oct  7 14:23:34 2020, MaxMem=  2684354560 cpu:              76.1 elap:               6.9
 (Enter /udrive/faculty/rpeverati/g16/g16/l508.exe)
 QCSCF skips out because SCF is already converged.
 Leave Link  508 at Wed Oct  7 14:23:35 2020, MaxMem=  2684354560 cpu:               0.6 elap:               0.8
 (Enter /udrive/faculty/rpeverati/g16/g16/l701.exe)
 ... and contract with generalized density number  0.
 Compute integral first derivatives.
 R6Disp: Adding Grimme-D3 dispersion energy 1st derivatives to the gradient.
 Leave Link  701 at Wed Oct  7 14:23:37 2020, MaxMem=  2684354560 cpu:               4.7 elap:               1.0
 (Enter /udrive/faculty/rpeverati/g16/g16/l702.exe)
 L702 exits ... SP integral derivatives will be done elsewhere.
 Leave Link  702 at Wed Oct  7 14:23:38 2020, MaxMem=  2684354560 cpu:               2.0 elap:               0.8
 (Enter /udrive/faculty/rpeverati/g16/g16/l703.exe)
 Integral derivatives from FoFJK, PRISM(SPDF).
 Compute integral first derivatives, UseDBF=F ICtDFT=           0.
 Calling FoFJK, ICntrl=      2127 FMM=F ISym2X=0 I1Cent= 0 IOpClX= 1 NMat=1 NMatS=1 NMatT=0.
 FoFJK:  IHMeth= 1 ICntrl=    2127 DoSepK=F KAlg= 0 I1Cent=           0 FoldK=F
 IRaf=         0 NMat=       1 IRICut=       1 DoRegI=T DoRafI=F ISym2E= 0 IDoP0=0 IntGTp=1.
 FoFCou: FMM=F IPFlag=           0 FMFlag=      100000 FMFlg1=         800
         NFxFlg=           0 DoJE=F BraDBF=F KetDBF=F FulRan=T
         wScrn=  0.000000 ICntrl=      2127 IOpCl=  1 I1Cent=           0 NGrid=           0
         NMat0=    1 NMatS0=      1 NMatT0=    0 NMatD0=    1 NMtDS0=    0 NMtDT0=    0
 Symmetry not used in FoFCou.
 Leave Link  703 at Wed Oct  7 14:23:40 2020, MaxMem=  2684354560 cpu:              12.8 elap:               1.7
 (Enter /udrive/faculty/rpeverati/g16/g16/l716.exe)
 Dipole        = 1.16957742D+00-3.94752426D-03-9.36317101D-04
 ***** Axes restored to original set *****
 -------------------------------------------------------------------
 Center     Atomic                   Forces (Hartrees/Bohr)
 Number     Number              X              Y              Z
 -------------------------------------------------------------------
      1        6           0.010895731   -0.001470843   -0.001102667
      2        1          -0.000918659   -0.000094901   -0.000029786
      3        1          -0.000907111    0.000170097    0.000046520
      4        1          -0.000860231    0.000143923    0.000295286
      5        1          -0.015753382    0.002024559    0.001671494
      6       17           0.007543651   -0.000772834   -0.000880847
 -------------------------------------------------------------------
 Cartesian Forces:  Max     0.015753382 RMS     0.004932846
 Leave Link  716 at Wed Oct  7 14:23:41 2020, MaxMem=  2684354560 cpu:               1.9 elap:               0.8
 (Enter /udrive/faculty/rpeverati/g16/g16/l103.exe)

 GradGradGradGradGradGradGradGradGradGradGradGradGradGradGradGradGradGrad
 Berny optimization.
 Optmz: redundant internal coordinate code flag= 1
 Red2BG:  D1=  2.27D-01 OD1=  7.76D-02 B2RMS=  0.00D+00 IAprox=0
 FormGI is forming the generalized inverse of G from B-inverse, IUseBI=4.
 Internal  Forces:  Max     0.008326258 RMS     0.002770746
 Search for a saddle point.
 Step number   2 out of a maximum of   50
 All quantities printed in internal units (Hartrees-Bohrs-Radians)
 Swapping is turned off.
 Update second derivatives using D2CorX and points    1    2
 The second derivative matrix:
                          R1        R2        R3        R4        R5
           R1           0.35778
           R2           0.00024   0.35791
           R3           0.00018   0.00025   0.35781
           R4           0.00372   0.00300   0.00359   0.08458
           R5          -0.00265  -0.00188  -0.00251   0.05923   0.13632
           A1           0.00027   0.00020   0.00025  -0.00525   0.00501
           A2           0.00027   0.00020   0.00025  -0.00542   0.00515
           A3          -0.00040  -0.00030  -0.00038   0.00835  -0.00791
           A4           0.00030   0.00023   0.00028  -0.00577   0.00551
           A5          -0.00044  -0.00033  -0.00042   0.00857  -0.00819
           A6          -0.00042  -0.00032  -0.00040   0.00828  -0.00790
           A7           0.00126   0.00152   0.00131   0.01125  -0.00611
           A8          -0.00197  -0.00259  -0.00209  -0.03133   0.02091
           D1           0.00033   0.00049   0.00036   0.00889  -0.00650
           D2           0.00001   0.00001   0.00001   0.00008  -0.00005
           D3           0.00001   0.00001   0.00001  -0.00005   0.00006
           D4           0.00000  -0.00000   0.00000  -0.00013   0.00011
                          A1        A2        A3        A4        A5
           A1           0.15955
           A2          -0.00046   0.15952
           A3           0.00071   0.00073   0.15888
           A4          -0.00049  -0.00051   0.00078   0.15946
           A5           0.00073   0.00076  -0.00116   0.00081   0.15880
           A6           0.00071   0.00073  -0.00112   0.00078  -0.00116
           A7           0.00069   0.00068  -0.00101   0.00079  -0.00116
           A8          -0.00215  -0.00215   0.00325  -0.00242   0.00358
           D1           0.00064   0.00065  -0.00098   0.00072  -0.00107
           D2           0.00000   0.00000  -0.00001   0.00001  -0.00001
           D3          -0.00001  -0.00001   0.00001  -0.00001   0.00001
           D4          -0.00001  -0.00001   0.00002  -0.00001   0.00002
                          A6        A7        A8        D1        D2
           A6           0.15888
           A7          -0.00110   0.00989
           A8           0.00341  -0.01346   0.02450
           D1          -0.00102   0.00270  -0.00407   0.00407
           D2          -0.00001   0.00005  -0.00008   0.00002   0.00230
           D3           0.00001   0.00003  -0.00008   0.00002   0.00000
           D4           0.00002  -0.00001   0.00001   0.00000  -0.00000
                          D3        D4
           D3           0.00230
           D4          -0.00000   0.00230
 ITU=  0  0
 Eigenvectors of the second derivative matrix:
                           1         2         3         4         5
     Eigenvalues --    -0.00799   0.00496   0.04413   0.07107   0.07208
   1         R1        -0.00399  -0.00095  -0.00598   0.00041  -0.00610
   2         R2        -0.00100   0.00057  -0.00581   0.00039  -0.00573
   3         R3        -0.00345  -0.00067  -0.00596   0.00041  -0.00604
   4         R4         0.49030   0.25124   0.10951  -0.01068   0.18931
   5         R5        -0.32815  -0.15986  -0.09370   0.00784  -0.13172
   6         A1         0.04371   0.02404   0.27349   0.02111  -0.43053
   7         A2         0.04000   0.02074   0.07705   0.43106   0.30197
   8         A3        -0.06401  -0.03390  -0.20906   0.15053  -0.13987
   9         A4         0.04407   0.02300   0.07851  -0.45527   0.25955
  10         A5        -0.06641  -0.03520  -0.20845  -0.14018  -0.15410
  11         A6        -0.06428  -0.03419  -0.23630  -0.00569   0.09445
  12         A7         0.16062  -0.94342   0.19075  -0.00707   0.10020
  13         A8         0.75446  -0.07206  -0.41907   0.01579  -0.22884
  14         D1        -0.19696  -0.10481  -0.71036  -0.00378  -0.01809
  15         D2         0.00096   0.00147   0.14743   0.02646  -0.56952
  16         D3         0.00226   0.00173   0.07466  -0.51714  -0.31021
  17         D4         0.00130   0.00026  -0.07277  -0.54360   0.25931
                           6         7         8         9        10
     Eigenvalues --     0.08831   0.15999   0.16000   0.17517   0.35761
   1         R1        -0.01548   0.00005  -0.00012  -0.00106   0.44051
   2         R2        -0.01451   0.00003  -0.00013   0.00029  -0.76798
   3         R3        -0.01533   0.00005  -0.00012  -0.00081   0.46490
   4         R4         0.59363   0.02217   0.00063  -0.54335   0.00296
   5         R5        -0.36954   0.00949  -0.00163  -0.83887  -0.00321
   6         A1         0.03492   0.22402   0.06310   0.00261   0.00002
   7         A2        -0.14763  -0.08287  -0.25248  -0.00701   0.00008
   8         A3         0.16907  -0.52352   0.55073  -0.00326  -0.00008
   9         A4        -0.15366  -0.20222   0.17180  -0.01033   0.00009
  10         A5         0.16633  -0.15922  -0.74269   0.00523  -0.00010
  11         A6         0.07046   0.77592   0.21878   0.02048  -0.00012
  12         A7         0.19386  -0.00009   0.00075  -0.00570   0.00015
  13         A8        -0.44400   0.00049  -0.00149  -0.00266  -0.00003
  14         D1         0.36185  -0.00057   0.00038   0.01975  -0.00029
  15         D2         0.15671  -0.00009   0.00001   0.00352  -0.00004
  16         D3         0.07460  -0.00004   0.00001   0.00147  -0.00002
  17         D4        -0.08212   0.00005  -0.00001  -0.00205   0.00002
                          11        12
     Eigenvalues --     0.35762   0.35854
   1         R1        -0.72175  -0.53357
   2         R2         0.00499  -0.64024
   3         R3         0.69214  -0.55181
   4         R4        -0.00053  -0.02049
   5         R5         0.00059   0.01425
   6         A1        -0.00001   0.00052
   7         A2        -0.00002   0.00011
   8         A3         0.00002  -0.00057
   9         A4        -0.00002  -0.00004
  10         A5         0.00002  -0.00025
  11         A6         0.00002  -0.00008
  12         A7        -0.00001  -0.00829
  13         A8        -0.00002   0.01471
  14         D1         0.00006  -0.00103
  15         D2         0.00001   0.00027
  16         D3         0.00000   0.00011
  17         D4        -0.00000  -0.00016
 RLam0= 3.83D-03.
 Iter=   1 RLamda= 0.00000000D+00 Sum=-2.72267209D-03.
 Iter=   2 RLamda=-2.72267209D-03 Sum=-2.06879635D-03.
 Iter=   3 RLamda=-2.06879635D-03 Sum=-2.18186614D-03.
 Iter=   4 RLamda=-2.18186614D-03 Sum=-2.16093054D-03.
 Iter=   5 RLamda=-2.16093054D-03 Sum=-2.16475985D-03.
 Iter=   6 RLamda=-2.16475985D-03 Sum=-2.16405786D-03.
 Iter=   7 RLamda=-2.16405786D-03 Sum=-2.16418650D-03.
 Iter=   8 RLamda=-2.16418650D-03 Sum=-2.16416292D-03.
 Iter=   9 RLamda=-2.16416292D-03 Sum=-2.16416724D-03.
 RFO step:  Lambda0=3.825231883D-03 Lambda=-2.16416292D-03.
 Linear search not attempted -- option 19 set.
 Maximum step size (   0.100) exceeded in Quadratic search.
    -- Step size scaled by   0.141
 Iteration  1 RMS(Cart)=  0.02664848 RMS(Int)=  0.00169519
 Iteration  2 RMS(Cart)=  0.00208758 RMS(Int)=  0.00000950
 Iteration  3 RMS(Cart)=  0.00000762 RMS(Int)=  0.00000393
 Iteration  4 RMS(Cart)=  0.00000000 RMS(Int)=  0.00000393
 ITry= 1 IFail=0 DXMaxC= 6.07D-02 DCOld= 1.00D+10 DXMaxT= 1.00D-01 DXLimC= 3.00D+00 Rises=F
 Variable       Old X    -DE/DX   Delta X   Delta X   Delta X     New X
[...]
     16 -0.278353D-02  0.489886D-02 -0.270936D-02  0.518857D-03 -0.928628D-04
     17 -0.489430D-02  0.272819D-02  0.272437D-02 -0.519904D-03  0.915159D-04
                6             7             8             9            10 
      6  0.162704D-01
      7 -0.875074D-02  0.196508D-01
      8 -0.345545D-02 -0.646671D-02  0.286262D-01
      9 -0.876362D-02 -0.718368D-02  0.684783D-02  0.196584D-01
     10 -0.340176D-02  0.683831D-02 -0.121294D-01 -0.641781D-02  0.282405D-01
     11  0.909494D-02 -0.707047D-02 -0.109455D-01 -0.713577D-02 -0.107278D-01
     12 -0.666709D-04 -0.834034D-04 -0.576948D-03  0.126433D-03  0.343527D-03
     13 -0.524692D-04  0.566044D-04  0.172990D-04  0.656386D-05 -0.366647D-03
     14 -0.304648D-02 -0.381921D-02  0.662594D-02 -0.380482D-02  0.644157D-02
     15  0.151671D-01 -0.913341D-02  0.119837D-02 -0.912052D-02  0.111346D-02
     16  0.758831D-02 -0.167902D-01  0.167986D-02  0.766478D-02 -0.559154D-03
     17 -0.757882D-02 -0.765679D-02  0.481487D-03  0.167853D-01 -0.167261D-02
               11            12            13            14            15 
     11  0.309051D-01
     12  0.276041D-03  0.217273D-01
     13  0.330210D-03  0.105154D-04  0.598640D-02
     14  0.620534D-02  0.639532D-04 -0.215240D-05  0.200969D-01
     15  0.325303D-02 -0.139070D-03 -0.157572D-03  0.611382D-03  0.166880D-01
     16  0.164165D-02  0.175489D-03 -0.160952D-03  0.293168D-03  0.833949D-02
     17 -0.161138D-02  0.314559D-03 -0.338049D-05 -0.318215D-03 -0.834854D-02
               16            17 
     16  0.167469D-01
     17  0.840740D-02  0.167559D-01
 Leave Link  716 at Wed Oct  7 14:27:33 2020, MaxMem=  2684354560 cpu:               1.7 elap:               0.5
 (Enter /udrive/faculty/rpeverati/g16/g16/l103.exe)

 GradGradGradGradGradGradGradGradGradGradGradGradGradGradGradGradGradGrad
 Berny optimization.
 Optmz: redundant internal coordinate code flag= 1
 Red2BG:  D1=  2.32D-01 OD1=  7.33D-15 B2RMS=  0.00D+00 IAprox=1
 Red2BG is reusing G-inverse.
 Internal  Forces:  Max     0.000033113 RMS     0.000015110
 Search for a local minimum.
 Step number   1 out of a maximum of    2
 All quantities printed in internal units (Hartrees-Bohrs-Radians)
 Second derivative matrix not updated -- analytic derivatives used.
 The second derivative matrix:
                          R1        R2        R3        R4        R5
           R1           0.37526
           R2           0.00001   0.37534
           R3           0.00002   0.00001   0.37512
           R4           0.00267   0.00265   0.00265   0.00346
           R5          -0.00076  -0.00075  -0.00075   0.07171   0.15648
           A1           0.00226   0.00229  -0.00375  -0.00074   0.00013
           A2           0.00294  -0.00345   0.00312  -0.00239   0.00044
           A3           0.00113  -0.00204  -0.00254   0.00309  -0.00052
           A4          -0.00345   0.00288   0.00312  -0.00241   0.00045
           A5          -0.00206   0.00122  -0.00251   0.00313  -0.00056
           A6          -0.00223  -0.00229   0.00056   0.00380  -0.00075
           A7          -0.00144   0.00072   0.00069  -0.00006   0.00003
           A8          -0.00000  -0.00063   0.00065  -0.00002   0.00000
           D1          -0.00387  -0.00382  -0.00324   0.01017  -0.00185
           D2           0.00211   0.00217  -0.00543   0.00104  -0.00018
           D3          -0.00278   0.00490  -0.00271   0.00052  -0.00009
           D4          -0.00489   0.00273   0.00272  -0.00052   0.00009
                          A1        A2        A3        A4        A5
           A1           0.01627
           A2          -0.00875   0.01965
           A3          -0.00346  -0.00647   0.02863
           A4          -0.00876  -0.00718   0.00685   0.01966
           A5          -0.00340   0.00684  -0.01213  -0.00642   0.02824
           A6           0.00909  -0.00707  -0.01095  -0.00714  -0.01073
           A7          -0.00007  -0.00008  -0.00058   0.00013   0.00034
           A8          -0.00005   0.00006   0.00002   0.00001  -0.00037
           D1          -0.00305  -0.00382   0.00663  -0.00380   0.00644
           D2           0.01517  -0.00913   0.00120  -0.00912   0.00111
           D3           0.00759  -0.01679   0.00168   0.00766  -0.00056
           D4          -0.00758  -0.00766   0.00048   0.01679  -0.00167
                          A6        A7        A8        D1        D2
           A6           0.03091
           A7           0.00028   0.02173
           A8           0.00033   0.00001   0.00599
           D1           0.00621   0.00006  -0.00000   0.02010
           D2           0.00325  -0.00014  -0.00016   0.00061   0.01669
           D3           0.00164   0.00018  -0.00016   0.00029   0.00834
           D4          -0.00161   0.00031  -0.00000  -0.00032  -0.00835
                          D3        D4
           D3           0.01675
           D4           0.00841   0.01676
 ITU=  0
 Eigenvectors of the second derivative matrix:
                           1         2         3         4         5
     Eigenvalues --    -0.02762   0.00597   0.02167   0.02948   0.03436
   1         R1        -0.00893   0.00003   0.00283  -0.01406  -0.01522
   2         R2        -0.00885   0.00144  -0.00150  -0.01357   0.01834
   3         R3        -0.00915  -0.00149  -0.00150  -0.00038  -0.00649
   4         R4         0.90945  -0.00058  -0.00381  -0.17617  -0.01896
   5         R5        -0.35694   0.00026   0.00163   0.08408   0.00926
   6         A1         0.02517   0.00235   0.00776   0.28002  -0.03852
   7         A2         0.03508  -0.00257   0.00776   0.05449   0.22971
   8         A3        -0.05517  -0.00062   0.03929  -0.14593   0.41247
   9         A4         0.03530  -0.00005  -0.01114   0.05157  -0.14443
  10         A5        -0.05661   0.01188  -0.02605  -0.15803  -0.66756
  11         A6        -0.06080  -0.01079  -0.02113  -0.39352   0.17099
  12         A7         0.00163  -0.00078   0.99798  -0.02154  -0.04570
  13         A8         0.00064   0.99983   0.00090  -0.00509   0.01383
  14         D1        -0.17927  -0.00029  -0.01035  -0.78219  -0.07125
  15         D2        -0.00617   0.00578   0.01209   0.20658  -0.11499
  16         D3        -0.00324   0.00603  -0.01346   0.09962  -0.41220
  17         D4         0.00293   0.00026  -0.02555  -0.10695  -0.29721
                           6         7         8         9        10
     Eigenvalues --     0.03517   0.05784   0.05867   0.18487   0.37544
   1         R1         0.00978   0.01362  -0.00517  -0.00114   0.15340
   2         R2        -0.00080  -0.01400  -0.00342  -0.00117   0.15387
   3         R3        -0.02120   0.00158   0.01959  -0.00096   0.97566
   4         R4        -0.06387   0.00283   0.03887   0.36846   0.00823
   5         R5         0.03171  -0.00169  -0.02121   0.92950  -0.00153
   6         A1        -0.11413   0.03413   0.47634  -0.00047  -0.00937
   7         A2         0.07562  -0.47691  -0.27128  -0.00338   0.00900
   8         A3        -0.57319   0.39110  -0.17344   0.00413  -0.00741
   9         A4         0.20084   0.43204  -0.33469  -0.00335   0.00899
  10         A5        -0.23612  -0.40538  -0.11408   0.00395  -0.00724
  11         A6         0.51630   0.03342   0.52144   0.00492  -0.00092
  12         A7         0.03789  -0.00333   0.00202   0.00003   0.00161
  13         A8         0.01075   0.00160   0.00166  -0.00004   0.00147
  14         D1        -0.25369   0.00818   0.07774   0.01305  -0.01241
  15         D2        -0.35764   0.03213   0.41861   0.00187  -0.01418
  16         D3        -0.06337   0.37959   0.18478   0.00093  -0.00707
  17         D4         0.29426   0.34746  -0.23383  -0.00094   0.00711
                          11        12
     Eigenvalues --     0.37553   0.37564
   1         R1         0.91038  -0.38321
   2         R2         0.36123   0.91925
   3         R3        -0.19991  -0.08464
   4         R4         0.00709   0.00297
   5         R5        -0.00128  -0.00051
   6         A1         0.01086   0.00464
   7         A2         0.00234  -0.01407
   8         A3         0.00218  -0.00564
   9         A4        -0.00851   0.01131
  10         A5        -0.00247   0.00576
  11         A6        -0.00817  -0.00356
  12         A7        -0.00341   0.00330
  13         A8        -0.00098  -0.00173
  14         D1        -0.01191  -0.00490
  15         D2         0.01138   0.00493
  16         D3        -0.00073   0.01752
  17         D4        -0.01210   0.01258
 Eigenvalue     1 is  -2.76D-02 should be greater than     0.000000 Eigenvector:
                          R4        R5        D1        A6        A5
   1                    0.90945  -0.35694  -0.17927  -0.06080  -0.05661
                          A3        A4        A2        A1        R3
   1                   -0.05517   0.03530   0.03508   0.02517  -0.00915
 Angle between quadratic step and forces=  32.38 degrees.
 Linear search not attempted -- first point.
 Iteration  1 RMS(Cart)=  0.00051109 RMS(Int)=  0.00000017
 Iteration  2 RMS(Cart)=  0.00000014 RMS(Int)=  0.00000009
 ITry= 1 IFail=0 DXMaxC= 1.32D-03 DCOld= 1.00D+10 DXMaxT= 3.00D-01 DXLimC= 3.00D+00 Rises=F
 Variable       Old X    -DE/DX   Delta X   Delta X   Delta X     New X
                                 (Linear)    (Quad)   (Total)
    R1        2.04949   0.00001   0.00000   0.00003   0.00003   2.04952
    R2        2.04945   0.00002   0.00000   0.00007   0.00007   2.04952
    R3        2.04951   0.00000   0.00000  -0.00000  -0.00000   2.04951
    R4        2.92562   0.00001   0.00000   0.00078   0.00078   2.92640
    R5        2.64612  -0.00003   0.00000  -0.00046  -0.00046   2.64565
    A1        2.04718  -0.00000   0.00000  -0.00013  -0.00013   2.04706
    A2        2.04704  -0.00000   0.00000   0.00004   0.00004   2.04708
    A3        1.73766   0.00001   0.00000   0.00028   0.00028   1.73794
    A4        2.04710   0.00000   0.00000  -0.00001  -0.00001   2.04710
    A5        1.73885  -0.00003   0.00000  -0.00080  -0.00080   1.73805
    A6        1.73718   0.00003   0.00000   0.00069   0.00069   1.73787
    A7        3.14179  -0.00001   0.00000  -0.00025  -0.00025   3.14154
    A8        3.14196  -0.00000   0.00000  -0.00013  -0.00013   3.14183
    D1       -2.58065   0.00001   0.00000   0.00021   0.00021  -2.58044
    D2        2.09468  -0.00001   0.00000  -0.00029  -0.00029   2.09440
    D3       -2.09404  -0.00001   0.00000  -0.00033  -0.00033  -2.09437
    D4        2.09446  -0.00000   0.00000  -0.00004  -0.00004   2.09442
         Item               Value     Threshold  Converged?
 Maximum Force            0.000033     0.000450     YES
 RMS     Force            0.000015     0.000300     YES
 Maximum Displacement     0.001318     0.001800     YES
 RMS     Displacement     0.000511     0.001200     YES
 Predicted change in Energy=-5.909576D-08
 Optimization completed.
    -- Stationary point found.
                           ----------------------------
                           !   Optimized Parameters   !
                           ! (Angstroms and Degrees)  !
 --------------------------                            --------------------------
 ! Name  Definition              Value          Derivative Info.                !
 --------------------------------------------------------------------------------
 ! R1    R(1,2)                  1.0845         -DE/DX =    0.0                 !
 ! R2    R(1,3)                  1.0845         -DE/DX =    0.0                 !
 ! R3    R(1,4)                  1.0846         -DE/DX =    0.0                 !
 ! R4    R(1,5)                  1.5482         -DE/DX =    0.0                 !
 ! R5    R(5,6)                  1.4003         -DE/DX =    0.0                 !
 ! A1    A(2,1,3)              117.295          -DE/DX =    0.0                 !
 ! A2    A(2,1,4)              117.2867         -DE/DX =    0.0                 !
 ! A3    A(2,1,5)               99.5606         -DE/DX =    0.0                 !
 ! A4    A(3,1,4)              117.2903         -DE/DX =    0.0                 !
 ! A5    A(3,1,5)               99.6287         -DE/DX =    0.0                 !
 ! A6    A(4,1,5)               99.533          -DE/DX =    0.0                 !
 ! A7    L(1,5,6,2,-1)         180.0111         -DE/DX =    0.0                 !
 ! A8    L(1,5,6,2,-2)         180.0209         -DE/DX =    0.0                 !
 ! D1    D(2,1,4,3)           -147.8602         -DE/DX =    0.0                 !
 ! D2    D(2,1,5,3)            120.0166         -DE/DX =    0.0                 !
 ! D3    D(2,1,5,4)           -119.9798         -DE/DX =    0.0                 !
 ! D4    D(3,1,5,4)            120.0036         -DE/DX =    0.0                 !
 --------------------------------------------------------------------------------
 GradGradGradGradGradGradGradGradGradGradGradGradGradGradGradGradGradGrad

 Leave Link  103 at Wed Oct  7 14:27:34 2020, MaxMem=  2684354560 cpu:               1.3 elap:               0.4
 (Enter /udrive/faculty/rpeverati/g16/g16/l9999.exe)

 ----------------------------------------------------------------------

 Electric dipole moment (input orientation):
 (Debye = 10**-18 statcoulomb cm , SI units = C m)
                  (au)            (Debye)         (10**-30 SI)
   Tot        0.122729D+01      0.311947D+01      0.104054D+02
   x         -0.121312D+01     -0.308345D+01     -0.102853D+02
   y          0.113454D+00      0.288371D+00      0.961902D+00
   z          0.147365D+00      0.374566D+00      0.124942D+01

 Dipole polarizability, Alpha (input orientation).
 (esu units = cm**3 , SI units = C**2 m**2 J**-1)
 Alpha(0;0):
               (au)            (10**-24 esu)      (10**-40 SI)
   iso        0.253951D+02      0.376316D+01      0.418708D+01
   aniso      0.231786D+02      0.343472D+01      0.382164D+01
   xx         0.403150D+02      0.597406D+01      0.664704D+01
   yx        -0.212274D+01     -0.314558D+00     -0.349993D+00
   yy         0.178638D+02      0.264714D+01      0.294534D+01
   zx        -0.274885D+01     -0.407338D+00     -0.453225D+00
   zy         0.253004D+00      0.374913D-01      0.417147D-01
   zz         0.180065D+02      0.266829D+01      0.296888D+01

 ----------------------------------------------------------------------

 Dipole orientation:
     6         -0.00189593          0.00001276          3.55022933
     1         -1.01719933         -1.74741587          3.89091979
     1         -1.00683475          1.75299674          3.89287446
     1          2.01932615         -0.00621967          3.88952267
     1         -0.00209878         -0.00035406          0.62461166
    17         -0.00158380         -0.00049626         -2.02150380

 Electric dipole moment (dipole orientation):
 (Debye = 10**-18 statcoulomb cm , SI units = C m)
                  (au)            (Debye)         (10**-30 SI)
   Tot        0.122729D+01      0.311947D+01      0.104054D+02
   x          0.000000D+00      0.000000D+00      0.000000D+00
   y          0.000000D+00      0.000000D+00      0.000000D+00
   z          0.122729D+01      0.311947D+01      0.104054D+02

 Dipole polarizability, Alpha (dipole orientation).
 (esu units = cm**3 , SI units = C**2 m**2 J**-1)
 Alpha(0;0):
               (au)            (10**-24 esu)      (10**-40 SI)
   iso        0.253951D+02      0.376316D+01      0.418708D+01
   aniso      0.231786D+02      0.343472D+01      0.382164D+01
   xx         0.176720D+02      0.261872D+01      0.291372D+01
   yx        -0.523188D-02     -0.775284D-03     -0.862620D-03
   yy         0.176658D+02      0.261780D+01      0.291269D+01
   zx        -0.173718D-02     -0.257424D-03     -0.286423D-03
   zy         0.411095D-02      0.609180D-03      0.677804D-03
   zz         0.408475D+02      0.605298D+01      0.673484D+01

 ----------------------------------------------------------------------

 Test job not archived.
 1\1\GINC-NODE19\Freq\UM062X\6-31G(d)\C1H4Cl1(2)\RPEVERATI\07-Oct-2020\
 0\\#P Freq M062X/6-31G* 5D 7F Integral=UltraFineGrid SCF=(NoSymm,XQC,M
 axCyc=120) EmpiricalDispersion=GD3 IOp(1/33=1) Geom=Check Guess=Read\\
 TS search on BH76.\\0,2\C,-1.8571322546,0.1735961968,0.2245897523\H,-2
 .1793838053,-0.7712127369,-0.1993522194\H,-2.0285934697,1.0675365275,-
 0.3650410528\H,-1.8982850505,0.2741768517,1.3036861724\H,-0.3268703149
 ,0.0302784353,0.0386074328\Cl,1.0572516984,-0.0992175978,-0.1292507951
 \\Version=ES64L-G16RevA.03\State=2-A\HF=-500.5604039\S2=0.758354\S2-1=
 0.\S2A=0.75004\RMSD=5.871e-10\RMSF=1.988e-05\ZeroPoint=0.0384933\Therm
 al=0.0423609\Dipole=-1.2131208,0.1134538,0.1473654\DipoleDeriv=0.04969
 33,-0.0021589,-0.0036855,-0.0024337,0.0214613,0.0000361,-0.0024039,-0.
 0004214,0.0216642,0.0470711,-0.0374118,-0.0160739,0.0050624,0.0137757,
 -0.0272811,0.0044018,-0.0245725,0.05824,0.0501031,0.0279548,-0.0156529
 ,-0.0096213,0.0202529,0.0370562,0.0101013,0.0306255,0.0477204,0.049682
 9,0.004734,0.0265738,0.0001278,0.0687343,-0.0090363,-0.0208365,-0.0048
 717,-0.0029707,0.320991,-0.0159278,-0.0208361,-0.0160409,0.1514869,0.0
 020336,-0.0208959,0.0020444,0.1525202,-0.5175414,0.0228097,0.0296746,0
 .0229056,-0.2757111,-0.0028085,0.0296332,-0.0028042,-0.2771741\Polar=4
 0.3149505,-2.1227408,17.8637832,-2.748854,0.253004,18.0065359\Quadrupo
 le=0.9451969,-0.4766775,-0.4685194,-0.1346972,-0.1733947,0.016241\PG=C
 01 [X(C1H4Cl1)]\NImag=1\\0.08426742,0.04951787,0.61397869,0.06519827,-
 0.00599858,0.61051173,-0.05118399,-0.09296759,-0.04462872,0.04884516,-
 0.07927355,-0.28459386,-0.10227846,0.08982671,0.29529802,-0.03813202,-
 0.10114620,-0.10175567,0.04258422,0.11119493,0.09635411,-0.03029834,0.
 04702329,-0.03760950,0.00607425,-0.00896750,0.00553721,0.02710774,0.03
 469176,-0.26251964,0.13657801,0.00637729,-0.01317802,0.01442293,-0.042
 40485,0.27017906,-0.02901009,0.13423910,-0.14463855,0.00204521,-0.0107
 7414,0.01005627,0.03318828,-0.14732642,0.14308224,-0.02175488,-0.00104
 176,0.02027994,0.00491450,-0.00097170,-0.01036091,0.00453893,-0.000481
 51,-0.00634186,0.01880701,-0.00237973,-0.05891537,-0.02861332,0.002768
 29,0.00272977,-0.02482452,-0.00234260,0.00701769,0.02408473,0.00123754
 ,0.04933740,0.00522383,-0.02740662,-0.35632192,0.00218863,0.00191849,-
 0.00476413,0.00216036,-0.00436005,-0.00860652,-0.01158296,0.03021899,0
 .37196326,0.09322348,-0.00969767,-0.01252132,-0.01013773,-0.00101882,0
 .00030293,-0.00881635,0.00238337,0.00002653,-0.00787747,0.00089584,0.0
 0262420,0.01657471,-0.00972012,-0.00966977,0.00118070,-0.00614959,-0.0
 0053274,0.00014265,0.00703298,-0.00181164,0.00006244,0.00141777,-0.000
 00506,-0.00048628,0.00024817,0.01888776,-0.01257114,0.00118080,-0.0090
 5586,-0.00212911,-0.00025038,0.00020254,-0.00321923,0.00092945,0.00011
 312,0.00835035,-0.00095819,-0.00281850,0.00025245,-0.00002990,0.018884
 05,-0.07425369,0.00716586,0.00928132,0.00148781,0.00040486,0.00006857,
 0.00139378,-0.00056606,0.00009193,0.00137192,-0.00017934,-0.00061405,-
 0.08296664,0.00717078,0.00931668,0.15296682,0.00716377,0.00171995,-0.0
 0086835,0.00014489,0.00027683,0.00021020,-0.00034133,0.00031256,-0.000
 28572,-0.00016035,-0.00016443,0.00011547,0.00718910,-0.00686856,-0.000
 87177,-0.01399609,0.00472366,0.00929115,-0.00086850,0.00126027,-0.0000
 6024,0.00018955,-0.00009312,-0.00005712,-0.00024392,-0.00000657,-0.000
 34455,0.00009231,0.00054781,0.00931521,-0.00086961,-0.00732535,-0.0181
 4445,0.00170017,0.00561696\\-0.00000688,0.00002384,-0.00004004,0.00001
 308,0.00000721,0.00000981,-0.00000786,-0.00001546,0.00001749,0.0000150
 2,-0.00000275,-0.00000331,-0.00004644,-0.00001136,0.00001830,0.0000330
 9,-0.00000148,-0.00000225\\\@


  DISAPPOINTMENT IS THE NURSE OF WISDOM.               
                              SIR BOYLE ROCHE                 
 Job cpu time:       0 days  0 hours  3 minutes 54.0 seconds.
 Elapsed time:       0 days  0 hours  0 minutes 26.1 seconds.
 File lengths (MBytes):  RWF=      8 Int=      0 D2E=      0 Chk=      1 Scr=      1
 Normal termination of Gaussian 16 at Wed Oct  7 14:27:35 2020.
