 Entering Gaussian System, Link 0=g16
 Input=MN_87_RKT11_BH76_M062XD30_631Gs.in
 Output=MN_87_RKT11_BH76_M062XD30_631Gs.log
 Initial command:
 /udrive/faculty/rpeverati/g16/g16/l1.exe "/udrive/scratch-directories/gaussian09/rpeverati/Gau-6554.inp" -scrdir="/udrive/scratch-directories/gaussian09/rpeverati/"
 Entering Link 1 = /udrive/faculty/rpeverati/g16/g16/l1.exe PID=      6555.
  
 Copyright (c) 1988,1990,1992,1993,1995,1998,2003,2009,2016,
            Gaussian, Inc.  All Rights Reserved.
  
 This is part of the Gaussian(R) 16 program.  It is based on
 the Gaussian(R) 09 system (copyright 2009, Gaussian, Inc.),
 the Gaussian(R) 03 system (copyright 2003, Gaussian, Inc.),
 the Gaussian(R) 98 system (copyright 1998, Gaussian, Inc.),
 the Gaussian(R) 94 system (copyright 1995, Gaussian, Inc.),
 the Gaussian 92(TM) system (copyright 1992, Gaussian, Inc.),
 the Gaussian 90(TM) system (copyright 1990, Gaussian, Inc.),
 the Gaussian 88(TM) system (copyright 1988, Gaussian, Inc.),
 the Gaussian 86(TM) system (copyright 1986, Carnegie Mellon
 University), and the Gaussian 82(TM) system (copyright 1983,
 Carnegie Mellon University). Gaussian is a federally registered
 trademark of Gaussian, Inc.
  
 This software contains proprietary and confidential information,
 including trade secrets, belonging to Gaussian, Inc.
  
 This software is provided under written license and may be
 used, copied, transmitted, or stored only in accord with that
 written license.
  
 The following legend is applicable only to US Government
 contracts under FAR:
  
                    RESTRICTED RIGHTS LEGEND
  
 Use, reproduction and disclosure by the US Government is
 subject to restrictions as set forth in subparagraphs (a)
 and (c) of the Commercial Computer Software - Restricted
 Rights clause in FAR 52.227-19.
  
 Gaussian, Inc.
 340 Quinnipiac St., Bldg. 40, Wallingford CT 06492
  
  
 ---------------------------------------------------------------
 Warning -- This program may not be used in any manner that
 competes with the business of Gaussian, Inc. or will provide
 assistance to any competitor of Gaussian, Inc.  The licensee
 of this program is prohibited from giving any competitor of
 Gaussian, Inc. access to this program.  By using this program,
 the user acknowledges that Gaussian, Inc. is engaged in the
 business of creating and licensing software in the field of
 computational chemistry and represents and warrants to the
 licensee that it is not a competitor of Gaussian, Inc. and that
 it will not use this program in any manner prohibited above.
 ---------------------------------------------------------------
  

 Cite this work as:
 Gaussian 16, Revision A.03,
 M. J. Frisch, G. W. Trucks, H. B. Schlegel, G. E. Scuseria, 
 M. A. Robb, J. R. Cheeseman, G. Scalmani, V. Barone, 
 G. A. Petersson, H. Nakatsuji, X. Li, M. Caricato, A. V. Marenich, 
 J. Bloino, B. G. Janesko, R. Gomperts, B. Mennucci, H. P. Hratchian, 
 J. V. Ortiz, A. F. Izmaylov, J. L. Sonnenberg, D. Williams-Young, 
 F. Ding, F. Lipparini, F. Egidi, J. Goings, B. Peng, A. Petrone, 
 T. Henderson, D. Ranasinghe, V. G. Zakrzewski, J. Gao, N. Rega, 
 G. Zheng, W. Liang, M. Hada, M. Ehara, K. Toyota, R. Fukuda, 
 J. Hasegawa, M. Ishida, T. Nakajima, Y. Honda, O. Kitao, H. Nakai, 
 T. Vreven, K. Throssell, J. A. Montgomery, Jr., J. E. Peralta, 
 F. Ogliaro, M. J. Bearpark, J. J. Heyd, E. N. Brothers, K. N. Kudin, 
 V. N. Staroverov, T. A. Keith, R. Kobayashi, J. Normand, 
 K. Raghavachari, A. P. Rendell, J. C. Burant, S. S. Iyengar, 
 J. Tomasi, M. Cossi, J. M. Millam, M. Klene, C. Adamo, R. Cammi, 
 J. W. Ochterski, R. L. Martin, K. Morokuma, O. Farkas, 
 J. B. Foresman, and D. J. Fox, Gaussian, Inc., Wallingford CT, 2016.
 
 ******************************************
 Gaussian 16:  ES64L-G16RevA.03 25-Dec-2016
                 7-Oct-2020 
 ******************************************
 %NoSave
 %nproc=12
 Will use up to   12 processors via shared memory.
 %mem=20GB
 %chk=MN_87_RKT11_BH76_M062XD30_631Gs
 ----------------------------------------------------------------------
 #P Opt(TS,MaxCyc=50,NoEigenTest,MaxStep=10,AddRedundant) M062X/6-31G* 
 5D 7F Integral=UltraFineGrid SCF=(NoSymm,XQC,MaxCyc=120) EmpiricalDisp
 ersion=GD3 IOp(1/33=1)
 ----------------------------------------------------------------------
 1/5=1,6=50,8=10,11=1,18=120,26=4,33=1,38=1/1,3;
 2/9=110,12=2,17=6,18=5,40=1/2;
 3/5=1,6=6,7=1,8=11,11=2,25=1,30=1,71=1,74=-55,75=-5,124=31/1,2,3;
 4/9=2/1;
 5/5=2,7=120,8=3,13=1,38=5/2,8;
 6/7=2,8=2,9=2,10=2,28=1/1;
 7//1,2,3,16;
 1/5=1,6=50,8=10,11=1,18=20,26=4,33=1/3(2);
 2/9=110/2;
 99//99;
 2/9=110/2;
 3/5=1,6=6,7=1,8=11,11=2,25=1,30=1,71=1,74=-55,75=-5,124=31/1,2,3;
 4/5=5,9=2,16=3,69=1/1;
 5/5=2,7=120,8=3,13=1,38=5/2,8;
 7//1,2,3,16;
 1/5=1,6=50,8=10,11=1,18=20,26=4,33=1/3(-5);
 2/9=110/2;
 6/7=2,8=2,9=2,10=2,19=2,28=1/1;
 99/9=1/99;
 Leave Link    1 at Wed Oct  7 14:23:02 2020, MaxMem=  2684354560 cpu:              11.0 elap:               1.1
 (Enter /udrive/faculty/rpeverati/g16/g16/l101.exe)
 ONIOM data not found on unit 2.
 ------------------
 TS search on BH76.
 ------------------
 TstMul:  ICh=     0
 TstMul:  Mul=     3
 TstMul:  ICh=     0
 TstMul:  Mul=     3
 Symbolic Z-matrix:
 Charge =  0 Multiplicity = 3
 C                     0.00029  -1.14229   0. 
 H                    -1.05596  -1.38474   0. 
 H                     0.52017  -1.40739   0.91245 
 H                     0.52017  -1.40739  -0.91245 
 H                     0.01156   0.1601    0. 
 O                     0.00029   1.36164   0. 
 
 RdStrC is calling ZToCFu for IStruc=1 NZ=     6.
 PrtBox:  NBox=     1 Levels=  1 BoxLen=    8.00 SMaxX=        5.23
          Shift=            1.995470            2.659580            1.724280
 Box      1 Number                   0 centers from      1 to      6:
 After GenITR:
 ITRead=  0  0  0  0  0  0
 MicOpt= -1 -1 -1 -1 -1 -1
 Add virtual bond connecting atoms O6         and H5         Dist= 2.27D+00.
 Add virtual bond connecting atoms H5         and C1         Dist= 2.46D+00.
 The following ModRedundant input section has been read:
 
 ITRead=  0  0  0  0  0  0
 MicOpt= -1 -1 -1 -1 -1 -1
 NAtoms=      6 NQM=        6 NQMF=       0 NMMI=      0 NMMIF=      0
                NMic=       0 NMicF=      0.
                    Isotopes and Nuclear Properties:
 (Nuclear quadrupole moments (NQMom) in fm**2, nuclear magnetic moments (NMagM)
  in nuclear magnetons)

  Atom         1           2           3           4           5           6
 IAtWgt=          12           1           1           1           1          16
 AtmWgt=  12.0000000   1.0078250   1.0078250   1.0078250   1.0078250  15.9949146
 NucSpn=           0           1           1           1           1           0
 AtZEff=   0.0000000   0.0000000   0.0000000   0.0000000   0.0000000   0.0000000
 NQMom=    0.0000000   0.0000000   0.0000000   0.0000000   0.0000000   0.0000000
 NMagM=    0.0000000   2.7928460   2.7928460   2.7928460   2.7928460   0.0000000
 AtZNuc=   6.0000000   1.0000000   1.0000000   1.0000000   1.0000000   8.0000000
 No MM parameters found.
 Leave Link  101 at Wed Oct  7 14:23:04 2020, MaxMem=  2684354560 cpu:              13.4 elap:               1.3
 (Enter /udrive/faculty/rpeverati/g16/g16/l103.exe)

 GradGradGradGradGradGradGradGradGradGradGradGradGradGradGradGradGradGrad
 Berny optimization.
 Optmz: redundant internal coordinate code flag= 1
 Initialization pass.
                           ----------------------------
                           !    Initial Parameters    !
                           ! (Angstroms and Degrees)  !
 --------------------------                            --------------------------
 ! Name  Definition              Value          Derivative Info.                !
 --------------------------------------------------------------------------------
 ! R1    R(1,2)                  1.0837         estimate D2E/DX2                !
 ! R2    R(1,3)                  1.0831         estimate D2E/DX2                !
 ! R3    R(1,4)                  1.0831         estimate D2E/DX2                !
 ! R4    R(1,5)                  1.3024         estimate D2E/DX2                !
 ! R5    R(5,6)                  1.2016         estimate D2E/DX2                !
 ! A1    A(2,1,3)              114.3975         estimate D2E/DX2                !
 ! A2    A(2,1,4)              114.3975         estimate D2E/DX2                !
 ! A3    A(2,1,5)              103.4234         estimate D2E/DX2                !
 ! A4    A(3,1,4)              114.7971         estimate D2E/DX2                !
 ! A5    A(3,1,5)              103.9219         estimate D2E/DX2                !
 ! A6    A(4,1,5)              103.9219         estimate D2E/DX2                !
 ! A7    L(1,5,6,2,-1)         178.9668         estimate D2E/DX2                !
 ! A8    L(1,5,6,2,-2)         180.0            estimate D2E/DX2                !
 ! D1    D(2,1,4,3)           -135.1686         estimate D2E/DX2                !
 ! D2    D(2,1,5,3)            119.7805         estimate D2E/DX2                !
 ! D3    D(2,1,5,4)           -119.7805         estimate D2E/DX2                !
 ! D4    D(3,1,5,4)            120.4391         estimate D2E/DX2                !
 --------------------------------------------------------------------------------
 Maximum allowed force set to 1.00D+20.
 Trust Radius=1.00D-01 FncErr=1.00D-07 GrdErr=1.00D-06 EigMax=2.50D+02 EigMin=1.00D-04
 Number of steps in this run=     50 maximum allowed number of steps=    100.
 Search for a saddle point of order  1.
 GradGradGradGradGradGradGradGradGradGradGradGradGradGradGradGradGradGrad

 Leave Link  103 at Wed Oct  7 14:23:05 2020, MaxMem=  2684354560 cpu:               1.5 elap:               0.7
 (Enter /udrive/faculty/rpeverati/g16/g16/l202.exe)
                          Input orientation:                          
 ---------------------------------------------------------------------
 Center     Atomic      Atomic             Coordinates (Angstroms)
 Number     Number       Type             X           Y           Z
 ---------------------------------------------------------------------
      1          6           0        0.000290   -1.142287    0.000000
      2          1           0       -1.055957   -1.384735    0.000000
      3          1           0        0.520167   -1.407389    0.912450
      4          1           0        0.520167   -1.407389   -0.912450
      5          1           0        0.011560    0.160099    0.000000
      6          8           0        0.000290    1.361642    0.000000
 ---------------------------------------------------------------------
                    Distance matrix (angstroms):
                    1          2          3          4          5
     1  C    0.000000
     2  H    1.083715   0.000000
     3  H    1.083105   1.821331   0.000000
     4  H    1.083105   1.821331   1.824899   0.000000
     5  H    1.302435   1.877793   1.883684   1.883684   0.000000
     6  O    2.503929   2.942489   2.961481   2.961481   1.201596
                    6
     6  O    0.000000
 Stoichiometry    CH4O(3)
 Framework group  CS[SG(CH2O),X(H2)]
 Deg. of freedom     8
 Full point group                 CS      NOp   2
 Largest Abelian subgroup         CS      NOp   2
 Largest concise Abelian subgroup CS      NOp   2
                         Standard orientation:                         
 ---------------------------------------------------------------------
 Center     Atomic      Atomic             Coordinates (Angstroms)
 Number     Number       Type             X           Y           Z
 ---------------------------------------------------------------------
      1          6           0        0.000290   -1.142287    0.000000
      2          1           0       -1.055957   -1.384735    0.000000
      3          1           0        0.520168   -1.407389    0.912450
      4          1           0        0.520168   -1.407389   -0.912450
      5          1           0        0.011560    0.160099   -0.000000
      6          8           0        0.000290    1.361642   -0.000000
 ---------------------------------------------------------------------
 Rotational constants (GHZ):         150.9743796           9.6384202           9.6367904
 Leave Link  202 at Wed Oct  7 14:23:07 2020, MaxMem=  2684354560 cpu:               1.6 elap:               0.8
 (Enter /udrive/faculty/rpeverati/g16/g16/l301.exe)
 Standard basis: 6-31G(d) (5D, 7F)
 Ernie: Thresh=  0.10000D-02 Tol=  0.10000D-05 Strict=F.
 There are    28 symmetry adapted cartesian basis functions of A'  symmetry.
 There are    10 symmetry adapted cartesian basis functions of A"  symmetry.
 There are    26 symmetry adapted basis functions of A'  symmetry.
 There are    10 symmetry adapted basis functions of A"  symmetry.
    36 basis functions,    72 primitive gaussians,    38 cartesian basis functions
    10 alpha electrons        8 beta electrons
       nuclear repulsion energy        30.9103326491 Hartrees.
 IExCor= 4336 DFT=T Ex+Corr=M062X ExCW=0 ScaHFX=  0.540000
 ScaDFX=  1.000000  1.000000  1.000000  1.000000 ScalE2=  1.000000  1.000000
 IRadAn=      5 IRanWt=     -1 IRanGd=            0 ICorTp=0 IEmpDi=131
 NAtoms=    6 NActive=    6 NUniq=    5 SFac= 1.44D+00 NAtFMM=   60 NAOKFM=F Big=F
 Integral buffers will be    131072 words long.
 Raffenetti 2 integral format.
 Two-electron integral symmetry is turned on.
 R6Disp:  Grimme-D3 Dispersion energy=       -0.0000089761 Hartrees.
 Nuclear repulsion after empirical dispersion term =       30.9103236730 Hartrees.
 Leave Link  301 at Wed Oct  7 14:23:08 2020, MaxMem=  2684354560 cpu:               1.8 elap:               0.8
 (Enter /udrive/faculty/rpeverati/g16/g16/l302.exe)
 NPDir=0 NMtPBC=     1 NCelOv=     1 NCel=       1 NClECP=     1 NCelD=      1
         NCelK=      1 NCelE2=     1 NClLst=     1 CellRange=     0.0.
 One-electron integrals computed using PRISM.
 One-electron integral symmetry used in STVInt
 NBasis=    36 RedAO= T EigKep=  1.14D-02  NBF=    26    10
 NBsUse=    36 1.00D-06 EigRej= -1.00D+00 NBFU=    26    10
 Precomputing XC quadrature grid using
 IXCGrd= 4 IRadAn=           5 IRanWt=          -1 IRanGd=           0 AccXCQ= 0.00D+00.
 Generated NRdTot=       0 NPtTot=           0 NUsed=           0 NTot=          32
 NSgBfM=    38    38    38    38    38 MxSgAt=     6 MxSgA2=     6.
 Leave Link  302 at Wed Oct  7 14:23:09 2020, MaxMem=  2684354560 cpu:               4.1 elap:               0.8
 (Enter /udrive/faculty/rpeverati/g16/g16/l303.exe)
 DipDrv:  MaxL=1.
 Leave Link  303 at Wed Oct  7 14:23:10 2020, MaxMem=  2684354560 cpu:               1.9 elap:               0.7
 (Enter /udrive/faculty/rpeverati/g16/g16/l401.exe)
 SCF N**3 symmetry information disabled.
 ExpMin= 1.61D-01 ExpMax= 5.48D+03 ExpMxC= 8.25D+02 IAcc=3 IRadAn=         5 AccDes= 0.00D+00
 Harris functional with IExCor= 1009 and IRadAn=       5 diagonalized for initial guess.
 HarFok:  IExCor= 1009 AccDes= 0.00D+00 IRadAn=         5 IDoV= 1 UseB2=F ITyADJ=14
 ICtDFT=  3500011 ScaDFX=  1.000000  1.000000  1.000000  1.000000
 FoFCou: FMM=F IPFlag=           0 FMFlag=      100000 FMFlg1=           0
         NFxFlg=           0 DoJE=T BraDBF=F KetDBF=T FulRan=T
         wScrn=  0.000000 ICntrl=       500 IOpCl=  0 I1Cent=   200000004 NGrid=           0
         NMat0=    1 NMatS0=      1 NMatT0=    0 NMatD0=    1 NMtDS0=    0 NMtDT0=    0
 Petite list used in FoFCou.
 Harris En= -115.398849812504    
 JPrj=0 DoOrth=F DoCkMO=F.
 Initial guess orbital symmetries:
 Alpha Orbitals:
       Occupied  (A') (A') (A') (A') (A") (A') (A') (A") (A') (A')
       Virtual   (A') (A') (A") (A') (A') (A") (A') (A') (A') (A")
                 (A') (A') (A") (A') (A') (A") (A') (A') (A") (A')
                 (A') (A") (A') (A") (A') (A')
 Beta  Orbitals:
       Occupied  (A') (A') (A') (A') (A") (A') (A') (A")
       Virtual   (A') (A') (A') (A') (A") (A') (A') (A") (A') (A')
                 (A') (A") (A') (A') (A") (A') (A') (A") (A') (A')
                 (A") (A') (A') (A") (A') (A") (A') (A')
 The electronic state of the initial guess is 3-A'.
 Initial guess <Sx>= 0.0000 <Sy>= 0.0000 <Sz>= 1.0000 <S**2>= 2.0000 S= 1.0000
 Leave Link  401 at Wed Oct  7 14:23:11 2020, MaxMem=  2684354560 cpu:               5.6 elap:               1.0
 (Enter /udrive/faculty/rpeverati/g16/g16/l502.exe)
 Keep R1 and R2 ints in memory in symmetry-blocked form, NReq=10599058.
 FoFCou: FMM=F IPFlag=           0 FMFlag=           0 FMFlg1=           0
         NFxFlg=           0 DoJE=F BraDBF=F KetDBF=F FulRan=T
         wScrn=  0.000000 ICntrl=       600 IOpCl=  0 I1Cent=           0 NGrid=           0
         NMat0=    1 NMatS0=    666 NMatT0=    0 NMatD0=    1 NMtDS0=    0 NMtDT0=    0
 Petite list used in FoFCou.
 UHF open shell SCF:
 Using DIIS extrapolation, IDIIS=  1040.
 NGot=  2684354560 LenX=  2684115610 LenY=  2684113725
 Requested convergence on RMS density matrix=1.00D-08 within 120 cycles.
 Requested convergence on MAX density matrix=1.00D-06.
 Requested convergence on             energy=1.00D-06.
 No special actions if energy rises.
 Integral accuracy reduced to 1.0D-05 until final iterations.

 Cycle   1  Pass 0  IDiag  1:
 E= -115.428114933383    
 DIIS: error= 5.67D-02 at cycle   1 NSaved=   1.
 NSaved= 1 IEnMin= 1 EnMin= -115.428114933383     IErMin= 1 ErrMin= 5.67D-02
 ErrMax= 5.67D-02  0.00D+00 EMaxC= 1.00D-01 BMatC= 2.21D-01 BMatP= 2.21D-01
 IDIUse=3 WtCom= 4.33D-01 WtEn= 5.67D-01
 Coeff-Com:  0.100D+01
 Coeff-En:   0.100D+01
 Coeff:      0.100D+01
 Gap=     0.484 Goal=   None    Shift=    0.000
 Gap=     0.320 Goal=   None    Shift=    0.000
 GapD=    0.320 DampG=1.000 DampE=0.500 DampFc=0.5000 IDamp=-1.
 Damping current iteration by 5.00D-01
 RMSDP=9.31D-03 MaxDP=1.29D-01              OVMax= 1.44D-01

 Cycle   2  Pass 0  IDiag  1:
 E= -115.458920370329     Delta-E=       -0.030805436947 Rises=F Damp=T
 DIIS: error= 1.53D-02 at cycle   2 NSaved=   2.
 NSaved= 2 IEnMin= 2 EnMin= -115.458920370329     IErMin= 2 ErrMin= 1.53D-02
 ErrMax= 1.53D-02  0.00D+00 EMaxC= 1.00D-01 BMatC= 1.53D-02 BMatP= 2.21D-01
 IDIUse=3 WtCom= 8.47D-01 WtEn= 1.53D-01
 Coeff-Com: -0.120D+00 0.112D+01
 Coeff-En:   0.000D+00 0.100D+01
 Coeff:     -0.102D+00 0.110D+01
 Gap=     0.487 Goal=   None    Shift=    0.000
 Gap=     0.310 Goal=   None    Shift=    0.000
 RMSDP=2.05D-03 MaxDP=3.10D-02 DE=-3.08D-02 OVMax= 9.43D-02

 Cycle   3  Pass 0  IDiag  1:
 E= -115.487176941343     Delta-E=       -0.028256571014 Rises=F Damp=F
 DIIS: error= 9.02D-03 at cycle   3 NSaved=   3.
 NSaved= 3 IEnMin= 3 EnMin= -115.487176941343     IErMin= 3 ErrMin= 9.02D-03
 ErrMax= 9.02D-03  0.00D+00 EMaxC= 1.00D-01 BMatC= 4.03D-03 BMatP= 1.53D-02
 IDIUse=3 WtCom= 9.10D-01 WtEn= 9.02D-02
 Coeff-Com: -0.630D-01 0.322D+00 0.741D+00
 Coeff-En:   0.000D+00 0.000D+00 0.100D+01
 Coeff:     -0.573D-01 0.293D+00 0.764D+00
 Gap=     0.494 Goal=   None    Shift=    0.000
 Gap=     0.285 Goal=   None    Shift=    0.000
 RMSDP=9.42D-04 MaxDP=1.57D-02 DE=-2.83D-02 OVMax= 1.35D-02

 Cycle   4  Pass 0  IDiag  1:
 E= -115.488030358653     Delta-E=       -0.000853417310 Rises=F Damp=F
 DIIS: error= 4.20D-03 at cycle   4 NSaved=   4.
 NSaved= 4 IEnMin= 4 EnMin= -115.488030358653     IErMin= 4 ErrMin= 4.20D-03
 ErrMax= 4.20D-03  0.00D+00 EMaxC= 1.00D-01 BMatC= 6.98D-04 BMatP= 4.03D-03
 IDIUse=3 WtCom= 9.58D-01 WtEn= 4.20D-02
 Coeff-Com:  0.150D-02-0.765D-01 0.247D+00 0.828D+00
 Coeff-En:   0.000D+00 0.000D+00 0.000D+00 0.100D+01
 Coeff:      0.144D-02-0.733D-01 0.236D+00 0.835D+00
 Gap=     0.492 Goal=   None    Shift=    0.000
 Gap=     0.283 Goal=   None    Shift=    0.000
 RMSDP=3.77D-04 MaxDP=7.14D-03 DE=-8.53D-04 OVMax= 1.31D-02

 Cycle   5  Pass 0  IDiag  1:
 E= -115.488265844925     Delta-E=       -0.000235486272 Rises=F Damp=F
 DIIS: error= 9.65D-04 at cycle   5 NSaved=   5.
 NSaved= 5 IEnMin= 5 EnMin= -115.488265844925     IErMin= 5 ErrMin= 9.65D-04
 ErrMax= 9.65D-04  0.00D+00 EMaxC= 1.00D-01 BMatC= 4.87D-05 BMatP= 6.98D-04
 IDIUse=3 WtCom= 9.90D-01 WtEn= 9.65D-03
 Coeff-Com: -0.385D-03 0.498D-02-0.168D+00-0.172D+00 0.134D+01
 Coeff-En:   0.000D+00 0.000D+00 0.000D+00 0.000D+00 0.100D+01
 Coeff:     -0.381D-03 0.493D-02-0.166D+00-0.170D+00 0.133D+01
 Gap=     0.494 Goal=   None    Shift=    0.000
 Gap=     0.285 Goal=   None    Shift=    0.000
 RMSDP=2.08D-04 MaxDP=2.86D-03 DE=-2.35D-04 OVMax= 3.99D-03

 Cycle   6  Pass 0  IDiag  1:
 E= -115.488291981927     Delta-E=       -0.000026137001 Rises=F Damp=F
 DIIS: error= 1.61D-04 at cycle   6 NSaved=   6.
 NSaved= 6 IEnMin= 6 EnMin= -115.488291981927     IErMin= 6 ErrMin= 1.61D-04
 ErrMax= 1.61D-04  0.00D+00 EMaxC= 1.00D-01 BMatC= 1.42D-06 BMatP= 4.87D-05
 IDIUse=3 WtCom= 9.98D-01 WtEn= 1.61D-03
 Coeff-Com: -0.802D-03 0.519D-02-0.352D-01-0.459D-01 0.182D+00 0.895D+00
 Coeff-En:   0.000D+00 0.000D+00 0.000D+00 0.000D+00 0.000D+00 0.100D+01
 Coeff:     -0.800D-03 0.518D-02-0.351D-01-0.459D-01 0.182D+00 0.895D+00
 Gap=     0.494 Goal=   None    Shift=    0.000
 Gap=     0.285 Goal=   None    Shift=    0.000
 RMSDP=2.77D-05 MaxDP=3.46D-04 DE=-2.61D-05 OVMax= 7.11D-04

 Cycle   7  Pass 0  IDiag  1:
 E= -115.488292734373     Delta-E=       -0.000000752447 Rises=F Damp=F
 DIIS: error= 8.31D-05 at cycle   7 NSaved=   7.
 NSaved= 7 IEnMin= 7 EnMin= -115.488292734373     IErMin= 7 ErrMin= 8.31D-05
 ErrMax= 8.31D-05  0.00D+00 EMaxC= 1.00D-01 BMatC= 1.92D-07 BMatP= 1.42D-06
 IDIUse=1 WtCom= 1.00D+00 WtEn= 0.00D+00
 Coeff-Com: -0.549D-04-0.934D-03 0.203D-01 0.307D-01-0.170D+00-0.216D+00
 Coeff-Com:  0.134D+01
 Coeff:     -0.549D-04-0.934D-03 0.203D-01 0.307D-01-0.170D+00-0.216D+00
 Coeff:      0.134D+01
 Gap=     0.494 Goal=   None    Shift=    0.000
 Gap=     0.285 Goal=   None    Shift=    0.000
 RMSDP=2.13D-05 MaxDP=2.74D-04 DE=-7.52D-07 OVMax= 4.70D-04

 Cycle   8  Pass 0  IDiag  1:
 E= -115.488292902104     Delta-E=       -0.000000167731 Rises=F Damp=F
 DIIS: error= 1.62D-05 at cycle   8 NSaved=   8.
 NSaved= 8 IEnMin= 8 EnMin= -115.488292902104     IErMin= 8 ErrMin= 1.62D-05
 ErrMax= 1.62D-05  0.00D+00 EMaxC= 1.00D-01 BMatC= 9.30D-09 BMatP= 1.92D-07
 IDIUse=1 WtCom= 1.00D+00 WtEn= 0.00D+00
 Coeff-Com:  0.230D-04 0.204D-03-0.708D-02-0.882D-02 0.591D-01 0.275D-01
 Coeff-Com: -0.523D+00 0.145D+01
 Coeff:      0.230D-04 0.204D-03-0.708D-02-0.882D-02 0.591D-01 0.275D-01
 Coeff:     -0.523D+00 0.145D+01
 Gap=     0.494 Goal=   None    Shift=    0.000
 Gap=     0.285 Goal=   None    Shift=    0.000
 RMSDP=5.44D-06 MaxDP=6.67D-05 DE=-1.68D-07 OVMax= 1.30D-04

 Initial convergence to 1.0D-05 achieved.  Increase integral accuracy.
 Cycle   9  Pass 1  IDiag  1:
 E= -115.488294397823     Delta-E=       -0.000001495718 Rises=F Damp=F
 DIIS: error= 2.31D-05 at cycle   1 NSaved=   1.
 NSaved= 1 IEnMin= 1 EnMin= -115.488294397823     IErMin= 1 ErrMin= 2.31D-05
 ErrMax= 2.31D-05  0.00D+00 EMaxC= 1.00D-01 BMatC= 4.50D-08 BMatP= 4.50D-08
 IDIUse=1 WtCom= 1.00D+00 WtEn= 0.00D+00
 Coeff-Com:  0.100D+01
 Coeff:      0.100D+01
 Gap=     0.494 Goal=   None    Shift=    0.000
 Gap=     0.285 Goal=   None    Shift=    0.000
 RMSDP=5.44D-06 MaxDP=6.67D-05 DE=-1.50D-06 OVMax= 4.31D-05

 Cycle  10  Pass 1  IDiag  1:
 E= -115.488294409077     Delta-E=       -0.000000011254 Rises=F Damp=F
 DIIS: error= 4.79D-06 at cycle   2 NSaved=   2.
 NSaved= 2 IEnMin= 2 EnMin= -115.488294409077     IErMin= 2 ErrMin= 4.79D-06
 ErrMax= 4.79D-06  0.00D+00 EMaxC= 1.00D-01 BMatC= 1.67D-09 BMatP= 4.50D-08
 IDIUse=1 WtCom= 1.00D+00 WtEn= 0.00D+00
 Coeff-Com: -0.237D-01 0.102D+01
 Coeff:     -0.237D-01 0.102D+01
 Gap=     0.494 Goal=   None    Shift=    0.000
 Gap=     0.285 Goal=   None    Shift=    0.000
 RMSDP=7.53D-07 MaxDP=9.55D-06 DE=-1.13D-08 OVMax= 9.44D-06

 Cycle  11  Pass 1  IDiag  1:
 E= -115.488294409475     Delta-E=       -0.000000000399 Rises=F Damp=F
 DIIS: error= 2.76D-06 at cycle   3 NSaved=   3.
 NSaved= 3 IEnMin= 3 EnMin= -115.488294409475     IErMin= 3 ErrMin= 2.76D-06
 ErrMax= 2.76D-06  0.00D+00 EMaxC= 1.00D-01 BMatC= 5.33D-10 BMatP= 1.67D-09
 IDIUse=1 WtCom= 1.00D+00 WtEn= 0.00D+00
 Coeff-Com: -0.495D-01 0.353D+00 0.696D+00
 Coeff:     -0.495D-01 0.353D+00 0.696D+00
 Gap=     0.494 Goal=   None    Shift=    0.000
 Gap=     0.285 Goal=   None    Shift=    0.000
 RMSDP=2.91D-07 MaxDP=3.56D-06 DE=-3.99D-10 OVMax= 4.76D-06

 Cycle  12  Pass 1  IDiag  1:
 E= -115.488294409593     Delta-E=       -0.000000000118 Rises=F Damp=F
 DIIS: error= 5.66D-07 at cycle   4 NSaved=   4.
 NSaved= 4 IEnMin= 4 EnMin= -115.488294409593     IErMin= 4 ErrMin= 5.66D-07
 ErrMax= 5.66D-07  0.00D+00 EMaxC= 1.00D-01 BMatC= 1.82D-11 BMatP= 5.33D-10
 IDIUse=1 WtCom= 1.00D+00 WtEn= 0.00D+00
 Coeff-Com: -0.925D-02 0.309D-01 0.161D+00 0.817D+00
 Coeff:     -0.925D-02 0.309D-01 0.161D+00 0.817D+00
 Gap=     0.494 Goal=   None    Shift=    0.000
 Gap=     0.285 Goal=   None    Shift=    0.000
 RMSDP=6.70D-08 MaxDP=9.01D-07 DE=-1.18D-10 OVMax= 1.57D-06

 Cycle  13  Pass 1  IDiag  1:
 E= -115.488294409598     Delta-E=       -0.000000000005 Rises=F Damp=F
 DIIS: error= 1.89D-07 at cycle   5 NSaved=   5.
 NSaved= 5 IEnMin= 5 EnMin= -115.488294409598     IErMin= 5 ErrMin= 1.89D-07
 ErrMax= 1.89D-07  0.00D+00 EMaxC= 1.00D-01 BMatC= 3.34D-12 BMatP= 1.82D-11
 IDIUse=1 WtCom= 1.00D+00 WtEn= 0.00D+00
 Coeff-Com:  0.212D-02-0.286D-01-0.201D-01 0.277D+00 0.769D+00
 Coeff:      0.212D-02-0.286D-01-0.201D-01 0.277D+00 0.769D+00
 Gap=     0.494 Goal=   None    Shift=    0.000
 Gap=     0.285 Goal=   None    Shift=    0.000
 RMSDP=3.20D-08 MaxDP=3.53D-07 DE=-5.12D-12 OVMax= 7.92D-07

 Cycle  14  Pass 1  IDiag  1:
 E= -115.488294409600     Delta-E=       -0.000000000001 Rises=F Damp=F
 DIIS: error= 7.17D-08 at cycle   6 NSaved=   6.
 NSaved= 6 IEnMin= 6 EnMin= -115.488294409600     IErMin= 6 ErrMin= 7.17D-08
 ErrMax= 7.17D-08  0.00D+00 EMaxC= 1.00D-01 BMatC= 4.44D-13 BMatP= 3.34D-12
 IDIUse=1 WtCom= 1.00D+00 WtEn= 0.00D+00
 Coeff-Com:  0.220D-02-0.151D-01-0.300D-01-0.387D-01 0.262D+00 0.820D+00
 Coeff:      0.220D-02-0.151D-01-0.300D-01-0.387D-01 0.262D+00 0.820D+00
 Gap=     0.494 Goal=   None    Shift=    0.000
 Gap=     0.285 Goal=   None    Shift=    0.000
 RMSDP=1.18D-08 MaxDP=1.04D-07 DE=-1.39D-12 OVMax= 3.82D-07

 Cycle  15  Pass 1  IDiag  1:
 E= -115.488294409600     Delta-E=        0.000000000000 Rises=F Damp=F
 DIIS: error= 1.72D-08 at cycle   7 NSaved=   7.
 NSaved= 7 IEnMin= 6 EnMin= -115.488294409600     IErMin= 7 ErrMin= 1.72D-08
 ErrMax= 1.72D-08  0.00D+00 EMaxC= 1.00D-01 BMatC= 8.57D-15 BMatP= 4.44D-13
 IDIUse=1 WtCom= 1.00D+00 WtEn= 0.00D+00
 Coeff-Com: -0.471D-03 0.402D-02 0.683D-02-0.128D-01-0.840D-01-0.156D+00
 Coeff-Com:  0.124D+01
 Coeff:     -0.471D-03 0.402D-02 0.683D-02-0.128D-01-0.840D-01-0.156D+00
 Coeff:      0.124D+01
 Gap=     0.494 Goal=   None    Shift=    0.000
 Gap=     0.285 Goal=   None    Shift=    0.000
 RMSDP=3.46D-09 MaxDP=3.65D-08 DE= 0.00D+00 OVMax= 1.37D-07

 SCF Done:  E(UM062X) =  -115.488294410     A.U. after   15 cycles
            NFock= 15  Conv=0.35D-08     -V/T= 2.0052
 <Sx>= 0.0000 <Sy>= 0.0000 <Sz>= 1.0000 <S**2>= 2.0139 S= 1.0046
 <L.S>= 0.000000000000E+00
 KE= 1.148873521726D+02 PE=-3.328336399612D+02 EE= 7.154766970602D+01
 Annihilation of the first spin contaminant:
 S**2 before annihilation     2.0139,   after     2.0001
 Leave Link  502 at Wed Oct  7 14:23:15 2020, MaxMem=  2684354560 cpu:              32.3 elap:               3.3
 (Enter /udrive/faculty/rpeverati/g16/g16/l508.exe)
 QCSCF skips out because SCF is already converged.
 Leave Link  508 at Wed Oct  7 14:23:15 2020, MaxMem=  2684354560 cpu:               0.2 elap:               0.2
 (Enter /udrive/faculty/rpeverati/g16/g16/l601.exe)
 Copying SCF densities to generalized density rwf, IOpCl= 1 IROHF=0.

 **********************************************************************

            Population analysis using the SCF density.

 **********************************************************************

 Orbital symmetries:
 Alpha Orbitals:
       Occupied  (A') (A') (A') (A') (A') (A') (A") (A') (A") (A')
       Virtual   (A') (A') (A") (A') (A') (A") (A') (A') (A') (A")
                 (A') (A') (A") (A') (A') (A') (A") (A') (A') (A")
                 (A') (A") (A') (A") (A') (A')
 Beta  Orbitals:
       Occupied  (A') (A') (A') (A') (A") (A') (A') (A")
       Virtual   (A') (A') (A') (A') (A") (A') (A") (A') (A') (A')
                 (A') (A") (A') (A") (A') (A') (A') (A') (A") (A')
                 (A") (A') (A") (A') (A') (A") (A') (A')
 The electronic state is 3-A'.
 Alpha  occ. eigenvalues --  -19.70596 -10.55942  -1.10457  -0.81052  -0.56361
 Alpha  occ. eigenvalues --   -0.50190  -0.49865  -0.48105  -0.41902  -0.33834
 Alpha virt. eigenvalues --    0.15526   0.20669   0.20769   0.30265   0.54861
 Alpha virt. eigenvalues --    0.55212   0.58185   0.76124   0.92371   0.95052
 Alpha virt. eigenvalues --    0.95131   0.96312   0.97206   1.01110   1.19834
 Alpha virt. eigenvalues --    1.66330   1.66531   1.67102   1.78435   1.82218
 Alpha virt. eigenvalues --    1.82522   1.82679   1.92965   2.25734   2.25888
 Alpha virt. eigenvalues --    2.54442
  Beta  occ. eigenvalues --  -19.67844 -10.55433  -0.97632  -0.78304  -0.48836
  Beta  occ. eigenvalues --   -0.48750  -0.45901  -0.36315
  Beta virt. eigenvalues --   -0.07812  -0.05766   0.15767   0.21419   0.21480
  Beta virt. eigenvalues --    0.33306   0.55915   0.55987   0.61693   0.77590
  Beta virt. eigenvalues --    0.96613   0.96657   0.97854   0.99076   1.00982
  Beta virt. eigenvalues --    1.04187   1.23240   1.70367   1.70514   1.71134
  Beta virt. eigenvalues --    1.85527   1.85616   1.87698   1.89514   1.98396
  Beta virt. eigenvalues --    2.28709   2.28881   2.57825
          Condensed to atoms (all electrons):
               1          2          3          4          5          6
     1  C    5.368605   0.371482   0.370191   0.370191   0.244913  -0.056955
     2  H    0.371482   0.482022  -0.021921  -0.021921  -0.014178   0.000666
     3  H    0.370191  -0.021921   0.483861  -0.022793  -0.013853  -0.000020
     4  H    0.370191  -0.021921  -0.022793   0.483861  -0.013853  -0.000020
     5  H    0.244913  -0.014178  -0.013853  -0.013853   0.404052   0.035437
     6  O   -0.056955   0.000666  -0.000020  -0.000020   0.035437   8.322868
          Atomic-Atomic Spin Densities.
               1          2          3          4          5          6
     1  C    0.687712  -0.014753  -0.014335  -0.014335   0.061707  -0.085839
     2  H   -0.014753  -0.015270   0.003098   0.003098   0.001476   0.002191
     3  H   -0.014335   0.003098  -0.017665   0.003799   0.001494   0.002619
     4  H   -0.014335   0.003098   0.003799  -0.017665   0.001494   0.002619
     5  H    0.061707   0.001476   0.001494   0.001494  -0.109345  -0.062510
     6  O   -0.085839   0.002191   0.002619   0.002619  -0.062510   1.688592
 Mulliken charges and spin densities:
               1          2
     1  C   -0.668426   0.620157
     2  H    0.203850  -0.020161
     3  H    0.204535  -0.020991
     4  H    0.204535  -0.020991
     5  H    0.357483  -0.105686
     6  O   -0.301977   1.547672
 Sum of Mulliken charges =   0.00000   2.00000
 Mulliken charges and spin densities with hydrogens summed into heavy atoms:
               1          2
     1  C   -0.055506   0.558013
     6  O    0.055506   1.441987
 Electronic spatial extent (au):  <R**2>=            144.3549
 Charge=              0.0000 electrons
 Dipole moment (field-independent basis, Debye):
    X=              0.0003    Y=             -1.8354    Z=             -0.0000  Tot=              1.8354
 Quadrupole moment (field-independent basis, Debye-Ang):
   XX=            -12.4560   YY=            -14.9656   ZZ=            -13.5783
   XY=              0.0037   XZ=             -0.0000   YZ=              0.0000
 Traceless Quadrupole moment (field-independent basis, Debye-Ang):
   XX=              1.2107   YY=             -1.2990   ZZ=              0.0883
   XY=              0.0037   XZ=             -0.0000   YZ=              0.0000
 Octapole moment (field-independent basis, Debye-Ang**2):
  XXX=             -0.8333  YYY=              3.2806  ZZZ=             -0.0000  XYY=              0.0399
  XXY=              1.6446  XXZ=             -0.0000  XZZ=              0.8115  YZZ=              0.0478
  YYZ=             -0.0000  XYZ=              0.0000
 Hexadecapole moment (field-independent basis, Debye-Ang**3):
 XXXX=            -17.0402 YYYY=           -143.2162 ZZZZ=            -18.3254 XXXY=              1.2201
 XXXZ=             -0.0000 YYYX=             -0.0685 YYYZ=              0.0000 ZZZX=             -0.0000
 ZZZY=             -0.0000 XXYY=            -23.8030 XXZZ=             -5.9117 YYZZ=            -25.9965
 XXYZ=             -0.0000 YYXZ=             -0.0000 ZZXY=             -1.2151
 N-N= 3.091032367300D+01 E-N=-3.328336400510D+02  KE= 1.148873521726D+02
                          Isotropic Fermi Contact Couplings
        Atom                 a.u.       MegaHertz       Gauss      10(-4) cm-1
     1  C(13)              0.15048      84.58351      30.18150      28.21402
     2  H(1)              -0.00550     -12.28863      -4.38489      -4.09904
     3  H(1)              -0.00612     -13.67761      -4.88051      -4.56236
     4  H(1)              -0.00612     -13.67761      -4.88051      -4.56236
     5  H(1)              -0.04169     -93.17574     -33.24742     -31.08008
     6  O(17)              0.18887     -57.24700     -20.42715     -19.09555
 --------------------------------------------------------
       Center         ----  Spin Dipole Couplings  ----
                      3XX-RR        3YY-RR        3ZZ-RR
 --------------------------------------------------------
     1   Atom       -0.319204      0.643571     -0.324367
     2   Atom        0.041849      0.006796     -0.048645
     3   Atom       -0.025995      0.006744      0.019251
     4   Atom       -0.025995      0.006744      0.019251
     5   Atom       -0.165999      0.367737     -0.201738
     6   Atom        2.404616      0.411290     -2.815906
 --------------------------------------------------------
                        XY            XZ            YZ
 --------------------------------------------------------
     1   Atom        0.011747      0.000000     -0.000000
     2   Atom        0.022287     -0.000000     -0.000000
     3   Atom       -0.010904      0.038348     -0.020539
     4   Atom       -0.010904     -0.038348      0.020539
     5   Atom       -0.002060     -0.000000      0.000000
     6   Atom        0.020604     -0.000000     -0.000000
 --------------------------------------------------------


 ---------------------------------------------------------------------------------
              Anisotropic Spin Dipole Couplings in Principal Axis System
 ---------------------------------------------------------------------------------

       Atom             a.u.   MegaHertz   Gauss  10(-4) cm-1        Axes

              Baa    -0.3244   -43.527   -15.532   -14.519 -0.0000  0.0000  1.0000
     1 C(13)  Bbb    -0.3193   -42.853   -15.291   -14.294  0.9999 -0.0122  0.0000
              Bcc     0.6437    86.380    30.823    28.813  0.0122  0.9999 -0.0000
 
              Baa    -0.0486   -25.955    -9.261    -8.658  0.0000  0.0000  1.0000
     2 H(1)   Bbb    -0.0040    -2.150    -0.767    -0.717 -0.4369  0.8995 -0.0000
              Bcc     0.0527    28.105    10.029     9.375  0.8995  0.4369  0.0000
 
              Baa    -0.0479   -25.560    -9.121    -8.526  0.8664 -0.0148 -0.4992
     3 H(1)   Bbb    -0.0050    -2.646    -0.944    -0.883  0.2361  0.8929  0.3834
              Bcc     0.0529    28.207    10.065     9.409  0.4401 -0.4501  0.7770
 
              Baa    -0.0479   -25.560    -9.121    -8.526  0.8664 -0.0148  0.4992
     4 H(1)   Bbb    -0.0050    -2.646    -0.944    -0.883  0.2361  0.8929 -0.3834
              Bcc     0.0529    28.207    10.065     9.409 -0.4401  0.4501  0.7770
 
              Baa    -0.2017  -107.638   -38.408   -35.904  0.0000  0.0000  1.0000
     5 H(1)   Bbb    -0.1660   -88.573   -31.605   -29.545  1.0000  0.0039  0.0000
              Bcc     0.3677   196.211    70.013    65.449 -0.0039  1.0000  0.0000
 
              Baa    -2.8159   203.757    72.706    67.966  0.0000  0.0000  1.0000
     6 O(17)  Bbb     0.4111   -29.745   -10.614    -9.922 -0.0103  0.9999 -0.0000
              Bcc     2.4048  -174.012   -62.092   -58.044  0.9999  0.0103  0.0000
 

 ---------------------------------------------------------------------------------

 No NMR shielding tensors so no spin-rotation constants.
 Leave Link  601 at Wed Oct  7 14:23:16 2020, MaxMem=  2684354560 cpu:               4.9 elap:               0.7
 (Enter /udrive/faculty/rpeverati/g16/g16/l701.exe)
 ... and contract with generalized density number  0.
 Compute integral first derivatives.
 R6Disp: Adding Grimme-D3 dispersion energy 1st derivatives to the gradient.
 Leave Link  701 at Wed Oct  7 14:23:17 2020, MaxMem=  2684354560 cpu:               3.2 elap:               0.6
 (Enter /udrive/faculty/rpeverati/g16/g16/l702.exe)
 L702 exits ... SP integral derivatives will be done elsewhere.
 Leave Link  702 at Wed Oct  7 14:23:18 2020, MaxMem=  2684354560 cpu:               1.5 elap:               0.5
 (Enter /udrive/faculty/rpeverati/g16/g16/l703.exe)
 Integral derivatives from FoFJK, PRISM(SPDF).
 Compute integral first derivatives, UseDBF=F ICtDFT=           0.
 Calling FoFJK, ICntrl=      2127 FMM=F ISym2X=1 I1Cent= 0 IOpClX= 1 NMat=1 NMatS=1 NMatT=0.
 FoFJK:  IHMeth= 1 ICntrl=    2127 DoSepK=F KAlg= 0 I1Cent=           0 FoldK=F
 IRaf=         0 NMat=       1 IRICut=       1 DoRegI=T DoRafI=F ISym2E= 1 IDoP0=0 IntGTp=1.
 FoFCou: FMM=F IPFlag=           0 FMFlag=      100000 FMFlg1=         800
         NFxFlg=           0 DoJE=F BraDBF=F KetDBF=F FulRan=T
         wScrn=  0.000000 ICntrl=      2127 IOpCl=  1 I1Cent=           0 NGrid=           0
         NMat0=    1 NMatS0=      1 NMatT0=    0 NMatD0=    1 NMtDS0=    0 NMtDT0=    0
 Petite list used in FoFCou.
 Leave Link  703 at Wed Oct  7 14:23:19 2020, MaxMem=  2684354560 cpu:               5.8 elap:               0.9
 (Enter /udrive/faculty/rpeverati/g16/g16/l716.exe)
 Dipole        = 1.00137359D-04-7.22116420D-01-2.22327686D-16
 ***** Axes restored to original set *****
 -------------------------------------------------------------------
 Center     Atomic                   Forces (Hartrees/Bohr)
 Number     Number              X              Y              Z
 -------------------------------------------------------------------
      1        6           0.000153579    0.009970748    0.000000000
      2        1          -0.002716230   -0.001866237   -0.000000000
      3        1           0.001334139   -0.002030150    0.002325135
      4        1           0.001334139   -0.002030150   -0.002325135
      5        1          -0.000035032   -0.011395707   -0.000000000
      6        8          -0.000070596    0.007351496    0.000000000
 -------------------------------------------------------------------
 Cartesian Forces:  Max     0.011395707 RMS     0.004195423
 Leave Link  716 at Wed Oct  7 14:23:20 2020, MaxMem=  2684354560 cpu:               2.0 elap:               0.6
 (Enter /udrive/faculty/rpeverati/g16/g16/l103.exe)

 GradGradGradGradGradGradGradGradGradGradGradGradGradGradGradGradGradGrad
 Berny optimization.
 Optmz: redundant internal coordinate code flag= 1
 FormGI is forming the generalized inverse of G from B-inverse, IUseBI=4.
 Internal  Forces:  Max     0.007351828 RMS     0.002472880
 Search for a saddle point.
 Step number   1 out of a maximum of   50
 All quantities printed in internal units (Hartrees-Bohrs-Radians)
 Swapping is turned off.
 Second derivative matrix not updated -- first step.
 The second derivative matrix:
                          R1        R2        R3        R4        R5
           R1           0.35549
           R2           0.00000   0.35622
           R3           0.00000   0.00000   0.35622
           R4           0.00000   0.00000   0.00000   0.18479
           R5           0.00000   0.00000   0.00000   0.00000   0.24549
           A1           0.00000   0.00000   0.00000   0.00000   0.00000
           A2           0.00000   0.00000   0.00000   0.00000   0.00000
           A3           0.00000   0.00000   0.00000   0.00000   0.00000
           A4           0.00000   0.00000   0.00000   0.00000   0.00000
           A5           0.00000   0.00000   0.00000   0.00000   0.00000
           A6           0.00000   0.00000   0.00000   0.00000   0.00000
           A7           0.00000   0.00000   0.00000   0.00000   0.00000
           A8           0.00000   0.00000   0.00000   0.00000   0.00000
           D1           0.00000   0.00000   0.00000   0.00000   0.00000
           D2           0.00000   0.00000   0.00000   0.00000   0.00000
           D3           0.00000   0.00000   0.00000   0.00000   0.00000
           D4           0.00000   0.00000   0.00000   0.00000   0.00000
                          A1        A2        A3        A4        A5
           A1           0.16000
           A2           0.00000   0.16000
           A3           0.00000   0.00000   0.16000
           A4           0.00000   0.00000   0.00000   0.16000
           A5           0.00000   0.00000   0.00000   0.00000   0.16000
           A6           0.00000   0.00000   0.00000   0.00000   0.00000
           A7           0.00000   0.00000   0.00000   0.00000   0.00000
           A8           0.00000   0.00000   0.00000   0.00000   0.00000
           D1           0.00000   0.00000   0.00000   0.00000   0.00000
           D2           0.00000   0.00000   0.00000   0.00000   0.00000
           D3           0.00000   0.00000   0.00000   0.00000   0.00000
           D4           0.00000   0.00000   0.00000   0.00000   0.00000
                          A6        A7        A8        D1        D2
           A6           0.16000
           A7           0.00000   0.00230
           A8           0.00000   0.00000   0.00230
           D1           0.00000   0.00000   0.00000   0.00326
           D2           0.00000   0.00000   0.00000   0.00000   0.00230
           D3           0.00000   0.00000   0.00000   0.00000   0.00000
           D4           0.00000   0.00000   0.00000   0.00000   0.00000
                          D3        D4
           D3           0.00230
           D4           0.00000   0.00230
 ITU=  0
 Eigenvectors of the second derivative matrix:
                           1         2         3         4         5
     Eigenvalues --     0.00230   0.00230   0.05311   0.06734   0.07512
   1         R1         0.00000  -0.00000   0.00000   0.00000  -0.00000
   2         R2        -0.00000  -0.00000   0.00000   0.00000   0.00000
   3         R3        -0.00000   0.00000   0.00000   0.00000   0.00000
   4         R4         0.00000  -0.00000   0.00000   0.00000  -0.00000
   5         R5         0.00000  -0.00000  -0.00000  -0.00000   0.00000
   6         A1         0.00000   0.00000   0.43611  -0.01564   0.24622
   7         A2        -0.00000   0.00000   0.02262   0.42622  -0.34222
   8         A3         0.00000  -0.00000  -0.16116   0.16834   0.28880
   9         A4         0.00000   0.00000   0.00145  -0.42140  -0.34524
  10         A5        -0.00000  -0.00000  -0.17119  -0.15682   0.28371
  11         A6         0.00000   0.00000  -0.27043   0.00684   0.00886
  12         A7        -0.99437   0.10601  -0.00000  -0.00000   0.00000
  13         A8        -0.10601  -0.99437   0.00000   0.00000  -0.00000
  14         D1         0.00000  -0.00000  -0.70815   0.01761   0.37823
  15         D2         0.00000  -0.00000   0.34529  -0.01168   0.51383
  16         D3         0.00000  -0.00000   0.15562  -0.54761   0.25472
  17         D4         0.00000  -0.00000  -0.18967  -0.53593  -0.25911
                           6         7         8         9        10
     Eigenvalues --     0.16000   0.16000   0.18479   0.24549   0.35549
   1         R1         0.00000   0.00000  -0.00000   0.00000  -1.00000
   2         R2        -0.00000   0.00000  -0.00000  -0.00000   0.00000
   3         R3         0.00000  -0.00000   0.00000  -0.00000   0.00000
   4         R4         0.00000   0.00000   1.00000   0.00000  -0.00000
   5         R5        -0.00000   0.00000  -0.00000   1.00000  -0.00000
   6         A1         0.15112  -0.20307  -0.00000   0.00000   0.00000
   7         A2        -0.30569  -0.01279   0.00000  -0.00000  -0.00000
   8         A3         0.32262   0.66519  -0.00000  -0.00000   0.00000
   9         A4         0.09356   0.29917  -0.00000  -0.00000   0.00000
  10         A5        -0.72969  -0.13227   0.00000  -0.00000  -0.00000
  11         A6         0.48830  -0.63963  -0.00000   0.00000   0.00000
  12         A7         0.00000   0.00000   0.00000   0.00000   0.00000
  13         A8         0.00000  -0.00000  -0.00000  -0.00000   0.00000
  14         D1         0.00000  -0.00000   0.00000  -0.00000  -0.00000
  15         D2         0.00000  -0.00000   0.00000  -0.00000  -0.00000
  16         D3         0.00000  -0.00000   0.00000   0.00000   0.00000
  17         D4        -0.00000  -0.00000  -0.00000   0.00000   0.00000
                          11        12
     Eigenvalues --     0.35622   0.35622
   1         R1         0.00000   0.00000
   2         R2         0.71014   0.70406
   3         R3         0.70406  -0.71014
   4         R4        -0.00000   0.00000
   5         R5         0.00000   0.00000
   6         A1        -0.00000   0.00000
   7         A2        -0.00000  -0.00000
   8         A3         0.00000   0.00000
   9         A4         0.00000  -0.00000
  10         A5        -0.00000  -0.00000
  11         A6         0.00000   0.00000
  12         A7        -0.00000  -0.00000
  13         A8         0.00000  -0.00000
  14         D1         0.00000  -0.00000
  15         D2        -0.00000   0.00000
  16         D3         0.00000   0.00000
  17         D4         0.00000  -0.00000
 Eigenvalue     1 is   2.30D-03 should be less than     0.000000 Eigenvector:
                          A7        A8        A3        A5        A6
   1                   -0.99437  -0.10601   0.00000  -0.00000   0.00000
                          D1        A2        R4        R1        R2
   1                    0.00000  -0.00000   0.00000   0.00000  -0.00000
 RLam0= 2.30D-03.
 Iter=   1 RLamda= 0.00000000D+00 Sum=-4.67597654D-04.
 Iter=   2 RLamda=-4.67597654D-04 Sum=-4.66248611D-04.
 Iter=   3 RLamda=-4.66248611D-04 Sum=-4.66252485D-04.
 RFO step:  Lambda0=2.300011740D-03 Lambda=-4.66248611D-04.
 Linear search not attempted -- option 19 set.
 Iteration  1 RMS(Cart)=  0.01871149 RMS(Int)=  0.00045378
 Iteration  2 RMS(Cart)=  0.00048663 RMS(Int)=  0.00007149
 Iteration  3 RMS(Cart)=  0.00000021 RMS(Int)=  0.00007148
 ITry= 1 IFail=0 DXMaxC= 4.38D-02 DCOld= 1.00D+10 DXMaxT= 1.00D-01 DXLimC= 3.00D+00 Rises=F
 ClnCor:  largest displacement from symmetrization is 3.07D-03 for atom     4.
 Variable       Old X    -DE/DX   Delta X   Delta X   Delta X     New X
                                 (Linear)    (Quad)   (Total)
    R1        2.04793   0.00307   0.00000   0.00861   0.00861   2.05654
    R2        2.04677   0.00310   0.00000   0.00868   0.00901   2.05578
    R3        2.04677   0.00310   0.00000   0.00868   0.00901   2.05578
    R4        2.46125  -0.00404   0.00000  -0.02183  -0.02184   2.43941
    R5        2.27069   0.00735   0.00000   0.02989   0.02989   2.30057
    A1        1.99661  -0.00021   0.00000  -0.00726  -0.00778   1.98883
    A2        1.99661  -0.00058   0.00000  -0.00755  -0.00778   1.98883
    A3        1.80508   0.00046   0.00000   0.00916   0.00918   1.81426
    A4        2.00359  -0.00065   0.00000  -0.00786  -0.00870   1.99489
    A5        1.81378   0.00064   0.00000   0.01030   0.01105   1.82482
    A6        1.81378   0.00079   0.00000   0.01030   0.01105   1.82482
    A7        3.12356  -0.00000   0.00000   0.05328   0.05329   3.17685
    A8        3.14159   0.00000   0.00000   0.00576   0.00000   3.14159
    D1       -2.35914   0.00169   0.00000   0.02844   0.02966  -2.32947
    D2        2.09056   0.00023   0.00000   0.00009  -0.00002   2.09055
    D3       -2.09056   0.00012   0.00000   0.00023   0.00002  -2.09055
    D4        2.10206  -0.00011   0.00000   0.00014   0.00003   2.10209
         Item               Value     Threshold  Converged?
 Maximum Force            0.007352     0.000450     NO 
 RMS     Force            0.002473     0.000300     NO 
 Maximum Displacement     0.043820     0.001800     NO 
 RMS     Displacement     0.018755     0.001200     NO 
 Predicted change in Energy=-2.295585D-04
 Lowest energy point so far.  Saving SCF results.
 Largest change from initial coordinates is atom    6       0.025 Angstoms.
 GradGradGradGradGradGradGradGradGradGradGradGradGradGradGradGradGradGrad

 Leave Link  103 at Wed Oct  7 14:23:21 2020, MaxMem=  2684354560 cpu:               5.1 elap:               0.9
 (Enter /udrive/faculty/rpeverati/g16/g16/l202.exe)
                          Input orientation:                          
 ---------------------------------------------------------------------
 Center     Atomic      Atomic             Coordinates (Angstroms)
 Number     Number       Type             X           Y           Z
 ---------------------------------------------------------------------
      1          6           0       -0.002476   -1.135188   -0.000000
      2          1           0       -1.056767   -1.405015   -0.000000
      3          1           0        0.522418   -1.404861    0.913910
      4          1           0        0.522418   -1.404861   -0.913910
      5          1           0       -0.011629    0.155659    0.000000
      6          8           0        0.022653    1.372587    0.000000
 ---------------------------------------------------------------------
                    Distance matrix (angstroms):
                    1          2          3          4          5
     1  C    0.000000
     2  H    1.088272   0.000000
     3  H    1.087874   1.824571   0.000000
     4  H    1.087874   1.824571   1.827820   0.000000
     5  H    1.290880   1.878302   1.885646   1.885646   0.000000
     6  O    2.507901   2.979970   2.966347   2.966347   1.217410
                    6
     6  O    0.000000
 Stoichiometry    CH4O(3)
 Framework group  CS[SG(CH2O),X(H2)]
 Deg. of freedom     8
 Full point group                 CS      NOp   2
 RotChk:  IX=0 Diff= 1.42D-02
 Largest Abelian subgroup         CS      NOp   2
 Largest concise Abelian subgroup CS      NOp   2
                         Standard orientation:                         
 ---------------------------------------------------------------------
 Center     Atomic      Atomic             Coordinates (Angstroms)
 Number     Number       Type             X           Y           Z
 ---------------------------------------------------------------------
      1          6           0        0.001027   -1.141373   -0.000000
      2          1           0       -1.050508   -1.421751   -0.000000
      3          1           0        0.528597   -1.405773    0.913910
      4          1           0        0.528597   -1.405773   -0.913910
      5          1           0       -0.021060    0.149318    0.000000
      6          8           0        0.001027    1.366527    0.000000
 ---------------------------------------------------------------------
 Rotational constants (GHZ):         150.4370135           9.5879873           9.5865937
 Leave Link  202 at Wed Oct  7 14:23:22 2020, MaxMem=  2684354560 cpu:               1.1 elap:               0.5
 (Enter /udrive/faculty/rpeverati/g16/g16/l301.exe)
 Standard basis: 6-31G(d) (5D, 7F)
 Ernie: Thresh=  0.10000D-02 Tol=  0.10000D-05 Strict=F.
 There are    28 symmetry adapted cartesian basis functions of A'  symmetry.
 There are    10 symmetry adapted cartesian basis functions of A"  symmetry.
 There are    26 symmetry adapted basis functions of A'  symmetry.
 There are    10 symmetry adapted basis functions of A"  symmetry.
    36 basis functions,    72 primitive gaussians,    38 cartesian basis functions
    10 alpha electrons        8 beta electrons
       nuclear repulsion energy        30.8074122336 Hartrees.
 IExCor= 4336 DFT=T Ex+Corr=M062X ExCW=0 ScaHFX=  0.540000
 ScaDFX=  1.000000  1.000000  1.000000  1.000000 ScalE2=  1.000000  1.000000
 IRadAn=      5 IRanWt=     -1 IRanGd=            0 ICorTp=0 IEmpDi=131
 NAtoms=    6 NActive=    6 NUniq=    5 SFac= 1.44D+00 NAtFMM=   60 NAOKFM=F Big=F
 Integral buffers will be    131072 words long.
 Raffenetti 2 integral format.
 Two-electron integral symmetry is turned on.
 R6Disp:  Grimme-D3 Dispersion energy=       -0.0000093964 Hartrees.
 Nuclear repulsion after empirical dispersion term =       30.8074028372 Hartrees.
 Leave Link  301 at Wed Oct  7 14:23:23 2020, MaxMem=  2684354560 cpu:               2.0 elap:               0.8
 (Enter /udrive/faculty/rpeverati/g16/g16/l302.exe)
 NPDir=0 NMtPBC=     1 NCelOv=     1 NCel=       1 NClECP=     1 NCelD=      1
         NCelK=      1 NCelE2=     1 NClLst=     1 CellRange=     0.0.
 One-electron integrals computed using PRISM.
 One-electron integral symmetry used in STVInt
 NBasis=    36 RedAO= T EigKep=  1.14D-02  NBF=    26    10
 NBsUse=    36 1.00D-06 EigRej= -1.00D+00 NBFU=    26    10
 Precomputing XC quadrature grid using
 IXCGrd= 4 IRadAn=           5 IRanWt=          -1 IRanGd=           0 AccXCQ= 0.00D+00.
 Generated NRdTot=       0 NPtTot=           0 NUsed=           0 NTot=          32
 NSgBfM=    38    38    38    38    38 MxSgAt=     6 MxSgA2=     6.
 Leave Link  302 at Wed Oct  7 14:23:25 2020, MaxMem=  2684354560 cpu:               3.5 elap:               0.8
 (Enter /udrive/faculty/rpeverati/g16/g16/l303.exe)
 DipDrv:  MaxL=1.
 Leave Link  303 at Wed Oct  7 14:23:26 2020, MaxMem=  2684354560 cpu:               1.9 elap:               0.8
 (Enter /udrive/faculty/rpeverati/g16/g16/l401.exe)
 Initial guess from the checkpoint file:  "MN_87_RKT11_BH76_M062XD30_631Gs.chk"
 SCF N**3 symmetry information disabled.
 B after Tr=     0.000000   -0.000000    0.000000
         Rot=    0.999999   -0.000000   -0.000000   -0.001223 Ang=  -0.14 deg.
 Guess basis will be translated and rotated to current coordinates.
 JPrj=2 DoOrth=T DoCkMO=T.
 Initial guess orbital symmetries:
 Alpha Orbitals:
       Occupied  (A') (A') (A') (A') (A') (A') (A") (A') (A") (A')
       Virtual   (A') (A') (A") (A') (A') (A") (A') (A') (A') (A")
                 (A') (A') (A") (A') (A') (A') (A") (A') (A') (A")
                 (A') (A") (A') (A") (A') (A')
 Beta  Orbitals:
       Occupied  (A') (A') (A') (A') (A") (A') (A') (A")
       Virtual   (A') (A') (A') (A') (A") (A') (A") (A') (A') (A')
                 (A') (A") (A') (A") (A') (A') (A') (A') (A") (A')
                 (A") (A') (A") (A') (A') (A") (A') (A')
 The electronic state of the initial guess is 3-A'.
 Initial guess <Sx>= 0.0000 <Sy>= 0.0000 <Sz>= 1.0000 <S**2>= 2.0138 S= 1.0046
 Generating alternative initial guess.
 ExpMin= 1.61D-01 ExpMax= 5.48D+03 ExpMxC= 8.25D+02 IAcc=2 IRadAn=         4 AccDes= 0.00D+00
 Harris functional with IExCor= 1009 and IRadAn=       4 diagonalized for initial guess.
 HarFok:  IExCor= 1009 AccDes= 0.00D+00 IRadAn=         4 IDoV= 1 UseB2=F ITyADJ=14
 ICtDFT=  3500011 ScaDFX=  1.000000  1.000000  1.000000  1.000000
 FoFCou: FMM=F IPFlag=           0 FMFlag=      100000 FMFlg1=           0
         NFxFlg=           0 DoJE=T BraDBF=F KetDBF=T FulRan=T
         wScrn=  0.000000 ICntrl=       500 IOpCl=  0 I1Cent=   200000004 NGrid=           0
         NMat0=    1 NMatS0=      1 NMatT0=    0 NMatD0=    1 NMtDS0=    0 NMtDT0=    0
 Petite list used in FoFCou.
 Harris En= -115.397868410430    
 Leave Link  401 at Wed Oct  7 14:23:28 2020, MaxMem=  2684354560 cpu:               8.0 elap:               1.3
 (Enter /udrive/faculty/rpeverati/g16/g16/l502.exe)
 Keep R1 and R2 ints in memory in symmetry-blocked form, NReq=10599058.
 FoFCou: FMM=F IPFlag=           0 FMFlag=           0 FMFlg1=           0
         NFxFlg=           0 DoJE=F BraDBF=F KetDBF=F FulRan=T
         wScrn=  0.000000 ICntrl=       600 IOpCl=  0 I1Cent=           0 NGrid=           0
         NMat0=    1 NMatS0=    666 NMatT0=    0 NMatD0=    1 NMtDS0=    0 NMtDT0=    0
 Petite list used in FoFCou.
 UHF open shell SCF:
 Using DIIS extrapolation, IDIIS=  1040.
 NGot=  2684354560 LenX=  2684115610 LenY=  2684113725
 Requested convergence on RMS density matrix=1.00D-08 within 120 cycles.
 Requested convergence on MAX density matrix=1.00D-06.
 Requested convergence on             energy=1.00D-06.
 No special actions if energy rises.
 Integral accuracy reduced to 1.0D-05 until final iterations.

 Cycle   1  Pass 0  IDiag  1:
 E= -115.488362941781    
 DIIS: error= 2.07D-03 at cycle   1 NSaved=   1.
 NSaved= 1 IEnMin= 1 EnMin= -115.488362941781     IErMin= 1 ErrMin= 2.07D-03
 ErrMax= 2.07D-03  0.00D+00 EMaxC= 1.00D-01 BMatC= 5.89D-04 BMatP= 5.89D-04
 IDIUse=3 WtCom= 9.79D-01 WtEn= 2.07D-02
 Coeff-Com:  0.100D+01
 Coeff-En:   0.100D+01
 Coeff:      0.100D+01
 Gap=     0.496 Goal=   None    Shift=    0.000
 Gap=     0.282 Goal=   None    Shift=    0.000
 GapD=    0.282 DampG=1.000 DampE=1.000 DampFc=1.0000 IDamp=-1.
 RMSDP=5.52D-04 MaxDP=6.08D-03              OVMax= 1.40D-02

 Cycle   2  Pass 0  IDiag  1:
 E= -115.488669269898     Delta-E=       -0.000306328117 Rises=F Damp=F
 DIIS: error= 1.20D-03 at cycle   2 NSaved=   2.
 NSaved= 2 IEnMin= 2 EnMin= -115.488669269898     IErMin= 2 ErrMin= 1.20D-03
 ErrMax= 1.20D-03  0.00D+00 EMaxC= 1.00D-01 BMatC= 7.56D-05 BMatP= 5.89D-04
 IDIUse=3 WtCom= 9.88D-01 WtEn= 1.20D-02
 Coeff-Com: -0.298D-01 0.103D+01
 Coeff-En:   0.000D+00 0.100D+01
 Coeff:     -0.295D-01 0.103D+01
 Gap=     0.497 Goal=   None    Shift=    0.000
 Gap=     0.285 Goal=   None    Shift=    0.000
 RMSDP=2.26D-04 MaxDP=2.67D-03 DE=-3.06D-04 OVMax= 4.26D-03

 Cycle   3  Pass 0  IDiag  1:
 E= -115.488707741365     Delta-E=       -0.000038471468 Rises=F Damp=F
 DIIS: error= 8.00D-04 at cycle   3 NSaved=   3.
 NSaved= 3 IEnMin= 3 EnMin= -115.488707741365     IErMin= 3 ErrMin= 8.00D-04
 ErrMax= 8.00D-04  0.00D+00 EMaxC= 1.00D-01 BMatC= 3.00D-05 BMatP= 7.56D-05
 IDIUse=3 WtCom= 9.92D-01 WtEn= 8.00D-03
 Coeff-Com: -0.963D-01 0.401D+00 0.695D+00
 Coeff-En:   0.000D+00 0.000D+00 0.100D+01
 Coeff:     -0.955D-01 0.398D+00 0.698D+00
 Gap=     0.497 Goal=   None    Shift=    0.000
 Gap=     0.284 Goal=   None    Shift=    0.000
 RMSDP=9.00D-05 MaxDP=1.54D-03 DE=-3.85D-05 OVMax= 4.10D-03

 Cycle   4  Pass 0  IDiag  1:
 E= -115.488721128985     Delta-E=       -0.000013387619 Rises=F Damp=F
 DIIS: error= 3.92D-04 at cycle   4 NSaved=   4.
 NSaved= 4 IEnMin= 4 EnMin= -115.488721128985     IErMin= 4 ErrMin= 3.92D-04
 ErrMax= 3.92D-04  0.00D+00 EMaxC= 1.00D-01 BMatC= 5.73D-06 BMatP= 3.00D-05
 IDIUse=3 WtCom= 9.96D-01 WtEn= 3.92D-03
 Coeff-Com: -0.623D-03-0.190D+00 0.130D+00 0.106D+01
 Coeff-En:   0.000D+00 0.000D+00 0.000D+00 0.100D+01
 Coeff:     -0.620D-03-0.189D+00 0.129D+00 0.106D+01
 Gap=     0.497 Goal=   None    Shift=    0.000
 Gap=     0.285 Goal=   None    Shift=    0.000
 RMSDP=7.55D-05 MaxDP=9.23D-04 DE=-1.34D-05 OVMax= 2.02D-03

 Cycle   5  Pass 0  IDiag  1:
 E= -115.488724998382     Delta-E=       -0.000003869397 Rises=F Damp=F
 DIIS: error= 7.65D-05 at cycle   5 NSaved=   5.
 NSaved= 5 IEnMin= 5 EnMin= -115.488724998382     IErMin= 5 ErrMin= 7.65D-05
 ErrMax= 7.65D-05  0.00D+00 EMaxC= 1.00D-01 BMatC= 5.28D-07 BMatP= 5.73D-06
 IDIUse=1 WtCom= 1.00D+00 WtEn= 0.00D+00
 Coeff-Com:  0.175D-01-0.119D+00-0.713D-01 0.215D+00 0.957D+00
 Coeff:      0.175D-01-0.119D+00-0.713D-01 0.215D+00 0.957D+00
 Gap=     0.497 Goal=   None    Shift=    0.000
 Gap=     0.285 Goal=   None    Shift=    0.000
 RMSDP=3.00D-05 MaxDP=3.50D-04 DE=-3.87D-06 OVMax= 1.02D-03

 Cycle   6  Pass 0  IDiag  1:
 E= -115.488725505665     Delta-E=       -0.000000507283 Rises=F Damp=F
 DIIS: error= 3.26D-05 at cycle   6 NSaved=   6.
 NSaved= 6 IEnMin= 6 EnMin= -115.488725505665     IErMin= 6 ErrMin= 3.26D-05
 ErrMax= 3.26D-05  0.00D+00 EMaxC= 1.00D-01 BMatC= 6.71D-08 BMatP= 5.28D-07
 IDIUse=1 WtCom= 1.00D+00 WtEn= 0.00D+00
 Coeff-Com:  0.126D-02 0.153D-01-0.157D-01-0.135D+00 0.147D+00 0.987D+00
 Coeff:      0.126D-02 0.153D-01-0.157D-01-0.135D+00 0.147D+00 0.987D+00
 Gap=     0.497 Goal=   None    Shift=    0.000
 Gap=     0.285 Goal=   None    Shift=    0.000
 RMSDP=8.30D-06 MaxDP=9.22D-05 DE=-5.07D-07 OVMax= 2.43D-04

 Initial convergence to 1.0D-05 achieved.  Increase integral accuracy.
 Cycle   7  Pass 1  IDiag  1:
 E= -115.488722733078     Delta-E=        0.000002772586 Rises=F Damp=F
 DIIS: error= 2.33D-05 at cycle   1 NSaved=   1.
 NSaved= 1 IEnMin= 1 EnMin= -115.488722733078     IErMin= 1 ErrMin= 2.33D-05
 ErrMax= 2.33D-05  0.00D+00 EMaxC= 1.00D-01 BMatC= 5.46D-08 BMatP= 5.46D-08
 IDIUse=1 WtCom= 1.00D+00 WtEn= 0.00D+00
 Coeff-Com:  0.100D+01
 Coeff:      0.100D+01
 Gap=     0.497 Goal=   None    Shift=    0.000
 Gap=     0.285 Goal=   None    Shift=    0.000
 RMSDP=8.30D-06 MaxDP=9.22D-05 DE= 2.77D-06 OVMax= 5.49D-05

 Cycle   8  Pass 1  IDiag  1:
 E= -115.488722749958     Delta-E=       -0.000000016879 Rises=F Damp=F
 DIIS: error= 6.84D-06 at cycle   2 NSaved=   2.
 NSaved= 2 IEnMin= 2 EnMin= -115.488722749958     IErMin= 2 ErrMin= 6.84D-06
 ErrMax= 6.84D-06  0.00D+00 EMaxC= 1.00D-01 BMatC= 2.75D-09 BMatP= 5.46D-08
 IDIUse=1 WtCom= 1.00D+00 WtEn= 0.00D+00
 Coeff-Com: -0.811D-01 0.108D+01
 Coeff:     -0.811D-01 0.108D+01
 Gap=     0.497 Goal=   None    Shift=    0.000
 Gap=     0.285 Goal=   None    Shift=    0.000
 RMSDP=1.08D-06 MaxDP=1.09D-05 DE=-1.69D-08 OVMax= 2.46D-05

 Cycle   9  Pass 1  IDiag  1:
 E= -115.488722751452     Delta-E=       -0.000000001494 Rises=F Damp=F
 DIIS: error= 3.77D-06 at cycle   3 NSaved=   3.
 NSaved= 3 IEnMin= 3 EnMin= -115.488722751452     IErMin= 3 ErrMin= 3.77D-06
 ErrMax= 3.77D-06  0.00D+00 EMaxC= 1.00D-01 BMatC= 5.98D-10 BMatP= 2.75D-09
 IDIUse=1 WtCom= 1.00D+00 WtEn= 0.00D+00
 Coeff-Com: -0.528D-01 0.181D+00 0.872D+00
 Coeff:     -0.528D-01 0.181D+00 0.872D+00
 Gap=     0.497 Goal=   None    Shift=    0.000
 Gap=     0.285 Goal=   None    Shift=    0.000
 RMSDP=4.30D-07 MaxDP=5.27D-06 DE=-1.49D-09 OVMax= 1.32D-05

 Cycle  10  Pass 1  IDiag  1:
 E= -115.488722751768     Delta-E=       -0.000000000316 Rises=F Damp=F
 DIIS: error= 2.12D-06 at cycle   4 NSaved=   4.
 NSaved= 4 IEnMin= 4 EnMin= -115.488722751768     IErMin= 4 ErrMin= 2.12D-06
 ErrMax= 2.12D-06  0.00D+00 EMaxC= 1.00D-01 BMatC= 1.32D-10 BMatP= 5.98D-10
 IDIUse=1 WtCom= 1.00D+00 WtEn= 0.00D+00
 Coeff-Com:  0.178D-01-0.219D+00 0.410D-01 0.116D+01
 Coeff:      0.178D-01-0.219D+00 0.410D-01 0.116D+01
 Gap=     0.497 Goal=   None    Shift=    0.000
 Gap=     0.285 Goal=   None    Shift=    0.000
 RMSDP=3.10D-07 MaxDP=4.70D-06 DE=-3.16D-10 OVMax= 1.22D-05

 Cycle  11  Pass 1  IDiag  1:
 E= -115.488722751883     Delta-E=       -0.000000000115 Rises=F Damp=F
 DIIS: error= 6.79D-07 at cycle   5 NSaved=   5.
 NSaved= 5 IEnMin= 5 EnMin= -115.488722751883     IErMin= 5 ErrMin= 6.79D-07
 ErrMax= 6.79D-07  0.00D+00 EMaxC= 1.00D-01 BMatC= 1.36D-11 BMatP= 1.32D-10
 IDIUse=1 WtCom= 1.00D+00 WtEn= 0.00D+00
 Coeff-Com:  0.105D-01-0.586D-01-0.123D+00 0.109D+00 0.106D+01
 Coeff:      0.105D-01-0.586D-01-0.123D+00 0.109D+00 0.106D+01
 Gap=     0.497 Goal=   None    Shift=    0.000
 Gap=     0.285 Goal=   None    Shift=    0.000
 RMSDP=1.21D-07 MaxDP=1.85D-06 DE=-1.15D-10 OVMax= 5.63D-06

 Cycle  12  Pass 1  IDiag  1:
 E= -115.488722751898     Delta-E=       -0.000000000015 Rises=F Damp=F
 DIIS: error= 1.48D-07 at cycle   6 NSaved=   6.
 NSaved= 6 IEnMin= 6 EnMin= -115.488722751898     IErMin= 6 ErrMin= 1.48D-07
 ErrMax= 1.48D-07  0.00D+00 EMaxC= 1.00D-01 BMatC= 8.29D-13 BMatP= 1.36D-11
 IDIUse=1 WtCom= 1.00D+00 WtEn= 0.00D+00
 Coeff-Com: -0.255D-02 0.224D-01 0.169D-01-0.102D+00-0.180D+00 0.124D+01
 Coeff:     -0.255D-02 0.224D-01 0.169D-01-0.102D+00-0.180D+00 0.124D+01
 Gap=     0.497 Goal=   None    Shift=    0.000
 Gap=     0.285 Goal=   None    Shift=    0.000
 RMSDP=3.63D-08 MaxDP=4.18D-07 DE=-1.49D-11 OVMax= 1.82D-06

 Cycle  13  Pass 1  IDiag  1:
 E= -115.488722751899     Delta-E=       -0.000000000001 Rises=F Damp=F
 DIIS: error= 4.93D-08 at cycle   7 NSaved=   7.
 NSaved= 7 IEnMin= 7 EnMin= -115.488722751899     IErMin= 7 ErrMin= 4.93D-08
 ErrMax= 4.93D-08  0.00D+00 EMaxC= 1.00D-01 BMatC= 2.23D-13 BMatP= 8.29D-13
 IDIUse=1 WtCom= 1.00D+00 WtEn= 0.00D+00
 Coeff-Com: -0.172D-02 0.129D-01 0.158D-01-0.441D-01-0.153D+00 0.476D+00
 Coeff-Com:  0.694D+00
 Coeff:     -0.172D-02 0.129D-01 0.158D-01-0.441D-01-0.153D+00 0.476D+00
 Coeff:      0.694D+00
 Gap=     0.497 Goal=   None    Shift=    0.000
 Gap=     0.285 Goal=   None    Shift=    0.000
 RMSDP=8.22D-09 MaxDP=6.91D-08 DE=-1.14D-12 OVMax= 3.43D-07

 SCF Done:  E(UM062X) =  -115.488722752     A.U. after   13 cycles
            NFock= 13  Conv=0.82D-08     -V/T= 2.0054
 <Sx>= 0.0000 <Sy>= 0.0000 <Sz>= 1.0000 <S**2>= 2.0137 S= 1.0046
 <L.S>= 0.000000000000E+00
 KE= 1.148654243314D+02 PE=-3.326106049281D+02 EE= 7.144905500759D+01
 Annihilation of the first spin contaminant:
 S**2 before annihilation     2.0137,   after     2.0001
 Leave Link  502 at Wed Oct  7 14:23:31 2020, MaxMem=  2684354560 cpu:              31.5 elap:               3.0
 (Enter /udrive/faculty/rpeverati/g16/g16/l508.exe)
 QCSCF skips out because SCF is already converged.
 Leave Link  508 at Wed Oct  7 14:23:31 2020, MaxMem=  2684354560 cpu:               0.2 elap:               0.3
 (Enter /udrive/faculty/rpeverati/g16/g16/l701.exe)
 ... and contract with generalized density number  0.
 Compute integral first derivatives.
 R6Disp: Adding Grimme-D3 dispersion energy 1st derivatives to the gradient.
 Leave Link  701 at Wed Oct  7 14:23:32 2020, MaxMem=  2684354560 cpu:               2.6 elap:               0.5
 (Enter /udrive/faculty/rpeverati/g16/g16/l702.exe)
 L702 exits ... SP integral derivatives will be done elsewhere.
 Leave Link  702 at Wed Oct  7 14:23:33 2020, MaxMem=  2684354560 cpu:               1.4 elap:               0.4
 (Enter /udrive/faculty/rpeverati/g16/g16/l703.exe)
 Integral derivatives from FoFJK, PRISM(SPDF).
 Compute integral first derivatives, UseDBF=F ICtDFT=           0.
 Calling FoFJK, ICntrl=      2127 FMM=F ISym2X=1 I1Cent= 0 IOpClX= 1 NMat=1 NMatS=1 NMatT=0.
 FoFJK:  IHMeth= 1 ICntrl=    2127 DoSepK=F KAlg= 0 I1Cent=           0 FoldK=F
 IRaf=         0 NMat=       1 IRICut=       1 DoRegI=T DoRafI=F ISym2E= 1 IDoP0=0 IntGTp=1.
 FoFCou: FMM=F IPFlag=           0 FMFlag=      100000 FMFlg1=         800
         NFxFlg=           0 DoJE=F BraDBF=F KetDBF=F FulRan=T
         wScrn=  0.000000 ICntrl=      2127 IOpCl=  1 I1Cent=           0 NGrid=           0
         NMat0=    1 NMatS0=      1 NMatT0=    0 NMatD0=    1 NMtDS0=    0 NMtDT0=    0
 Petite list used in FoFCou.
 Leave Link  703 at Wed Oct  7 14:23:34 2020, MaxMem=  2684354560 cpu:               5.5 elap:               0.7
 (Enter /udrive/faculty/rpeverati/g16/g16/l716.exe)
 Dipole        =-6.85730440D-03-6.97087778D-01 2.29648444D-17
 ***** Axes restored to original set *****
 -------------------------------------------------------------------
 Center     Atomic                   Forces (Hartrees/Bohr)
 Number     Number              X              Y              Z
 -------------------------------------------------------------------
      1        6          -0.000530942    0.008894671    0.000000000
      2        1           0.000121450   -0.000992856    0.000000000
      3        1          -0.000136013   -0.000779339   -0.000251843
      4        1          -0.000136013   -0.000779339    0.000251843
      5        1           0.000958977   -0.014884741    0.000000000
      6        8          -0.000277459    0.008541604    0.000000000
 -------------------------------------------------------------------
 Cartesian Forces:  Max     0.014884741 RMS     0.004578254
 Leave Link  716 at Wed Oct  7 14:23:34 2020, MaxMem=  2684354560 cpu:               1.5 elap:               0.5
 (Enter /udrive/faculty/rpeverati/g16/g16/l103.exe)

 GradGradGradGradGradGradGradGradGradGradGradGradGradGradGradGradGradGrad
 Berny optimization.
 Optmz: redundant internal coordinate code flag= 1
 Red2BG:  D1=  2.67D-01 OD1=  1.43D-01 B2RMS=  0.00D+00 IAprox=0
 FormGI is forming the generalized inverse of G from B-inverse, IUseBI=4.
 Internal  Forces:  Max     0.008530390 RMS     0.002622954
 Search for a saddle point.
 Step number   2 out of a maximum of   50
 All quantities printed in internal units (Hartrees-Bohrs-Radians)
 Swapping is turned off.
 Update second derivatives using D2CorX and points    1    2
 The second derivative matrix:
                          R1        R2        R3        R4        R5
           R1           0.35587
           R2           0.00052   0.35688
           R3           0.00052   0.00067   0.35688
           R4           0.00637   0.00603   0.00603   0.13017
           R5          -0.00853  -0.00806  -0.00806   0.07373   0.14596
           A1           0.00101   0.00089   0.00089  -0.01285   0.01732
           A2           0.00088   0.00076   0.00076  -0.01218   0.01641
           A3          -0.00141  -0.00126  -0.00126   0.01630  -0.02198
           A4           0.00085   0.00071   0.00071  -0.01289   0.01735
           A5          -0.00105  -0.00087  -0.00087   0.01624  -0.02187
           A6          -0.00100  -0.00083  -0.00083   0.01600  -0.02154
           A7           0.00460   0.00546   0.00546   0.02771  -0.03688
           A8           0.00000   0.00000   0.00000  -0.00000   0.00000
           D1           0.00235   0.00284   0.00284   0.01649  -0.02198
           D2           0.00005   0.00005   0.00005  -0.00027   0.00037
           D3           0.00007   0.00007   0.00007  -0.00037   0.00051
           D4           0.00003   0.00003   0.00003  -0.00010   0.00014
                          A1        A2        A3        A4        A5
           A1           0.15719
           A2          -0.00263   0.15754
           A3           0.00362   0.00340   0.15535
           A4          -0.00275  -0.00256   0.00356   0.15734
           A5           0.00345   0.00322  -0.00448   0.00334   0.15581
           A6           0.00339   0.00315  -0.00440   0.00327  -0.00411
           A7           0.00311   0.00242  -0.00483   0.00196  -0.00236
           A8          -0.00000  -0.00000   0.00000  -0.00000   0.00000
           D1           0.00202   0.00162  -0.00304   0.00139  -0.00169
           D2          -0.00007  -0.00007   0.00009  -0.00007   0.00009
           D3          -0.00010  -0.00010   0.00013  -0.00011   0.00013
           D4          -0.00003  -0.00003   0.00004  -0.00003   0.00004
                          A6        A7        A8        D1        D2
           A6           0.15598
           A7          -0.00211   0.04276
           A8           0.00000   0.00000   0.00230
           D1          -0.00155   0.02143   0.00000   0.01456
           D2           0.00009   0.00026  -0.00000   0.00015   0.00230
           D3           0.00013   0.00040  -0.00000   0.00023  -0.00000
           D4           0.00004   0.00015  -0.00000   0.00008  -0.00000
                          D3        D4
           D3           0.00230
           D4          -0.00000   0.00230
 ITU=  0  0
 Eigenvectors of the second derivative matrix:
                           1         2         3         4         5
     Eigenvalues --    -0.00989   0.00230   0.03424   0.06625   0.06817
   1         R1         0.01380   0.00000  -0.01140   0.00140   0.00751
   2         R2         0.01066   0.00000  -0.01212   0.00149   0.00771
   3         R3         0.01066   0.00000  -0.01212   0.00149   0.00771
   4         R4        -0.49161  -0.00000   0.03452  -0.00440  -0.06628
   5         R5         0.50433   0.00000  -0.03418   0.00405   0.05932
   6         A1        -0.12128  -0.00000   0.23722   0.05036   0.40642
   7         A2        -0.10454  -0.00000   0.07592   0.38065  -0.34143
   8         A3         0.15314   0.00000  -0.14867   0.18701   0.14339
   9         A4        -0.11409  -0.00000   0.07255  -0.44930  -0.23295
  10         A5         0.13887   0.00000  -0.15929  -0.14248   0.18692
  11         A6         0.13880   0.00000  -0.18023  -0.01643  -0.11549
  12         A7         0.48346   0.00000   0.74876  -0.04160  -0.19224
  13         A8        -0.00000   1.00000   0.00000  -0.00000   0.00000
  14         D1         0.41107   0.00000  -0.51330  -0.00593  -0.01596
  15         D2        -0.00799  -0.00000   0.13104   0.07703   0.60009
  16         D3        -0.01074  -0.00000   0.05886  -0.50206   0.36964
  17         D4        -0.00275  -0.00000  -0.07218  -0.57909  -0.23045
                           6         7         8         9        10
     Eigenvalues --     0.13410   0.16002   0.16060   0.21391   0.35566
   1         R1        -0.03982  -0.00011   0.00745   0.02100  -0.89182
   2         R2        -0.04096  -0.00017   0.00784   0.02064   0.31976
   3         R3        -0.04096  -0.00017   0.00784   0.02064   0.31976
   4         R4         0.59447  -0.02386  -0.11557   0.61994  -0.00524
   5         R5        -0.36838   0.00926   0.04533   0.77376   0.01081
   6         A1        -0.12660  -0.11391  -0.21587   0.01145   0.00039
   7         A2        -0.12947   0.31365   0.05922   0.02651   0.00021
   8         A3         0.26510  -0.43643   0.56387  -0.01968  -0.00016
   9         A4        -0.10686  -0.14884   0.30160   0.03061   0.00031
  10         A5         0.19450   0.73606  -0.02518  -0.02528  -0.00056
  11         A6         0.00094  -0.36550  -0.72035  -0.04194  -0.00043
  12         A7         0.39598   0.00212  -0.05845  -0.07177  -0.00373
  13         A8        -0.00000  -0.00000  -0.00000   0.00000  -0.00000
  14         D1         0.43760  -0.00019  -0.04911  -0.07680  -0.00113
  15         D2         0.05963  -0.00026  -0.00408  -0.00685   0.00012
  16         D3         0.02773  -0.00008  -0.00203  -0.00280   0.00003
  17         D4        -0.03191   0.00019   0.00205   0.00405  -0.00010
                          11        12
     Eigenvalues --     0.35622   0.35944
   1         R1        -0.00000   0.44966
   2         R2        -0.70711   0.62870
   3         R3         0.70711   0.62870
   4         R4         0.00000   0.03230
   5         R5        -0.00000  -0.06541
   6         A1        -0.00000  -0.00464
   7         A2         0.00000  -0.00354
   8         A3        -0.00000   0.00318
   9         A4         0.00000  -0.00468
  10         A5         0.00000   0.00692
  11         A6        -0.00000   0.00617
  12         A7         0.00000   0.03947
  13         A8        -0.00000   0.00000
  14         D1        -0.00000   0.01557
  15         D2        -0.00000  -0.00078
  16         D3        -0.00000  -0.00012
  17         D4         0.00000   0.00067
 RLam0= 4.15D-03.
 Iter=   1 RLamda= 0.00000000D+00 Sum=-5.46226140D-04.
 Iter=   2 RLamda=-5.46226140D-04 Sum=-5.42150326D-04.
 Iter=   3 RLamda=-5.42150326D-04 Sum=-5.42180403D-04.
 Iter=   4 RLamda=-5.42180403D-04 Sum=-5.42180181D-04.
 RFO step:  Lambda0=4.147001631D-03 Lambda=-5.42180403D-04.
 Linear search not attempted -- option 19 set.
 Maximum step size (   0.100) exceeded in Quadratic search.
    -- Step size scaled by   0.197
 Iteration  1 RMS(Cart)=  0.02462983 RMS(Int)=  0.00076219
 Iteration  2 RMS(Cart)=  0.00077404 RMS(Int)=  0.00014782
 Iteration  3 RMS(Cart)=  0.00000032 RMS(Int)=  0.00014782
 ITry= 1 IFail=0 DXMaxC= 5.40D-02 DCOld= 1.00D+10 DXMaxT= 1.00D-01 DXLimC= 3.00D+00 Rises=F
 ClnCor:  largest displacement from symmetrization is 1.61D-03 for atom     4.
 Variable       Old X    -DE/DX   Delta X   Delta X   Delta X     New X
                                 (Linear)    (Quad)   (Total)
    R1        2.05654   0.00013   0.00000  -0.00104  -0.00104   2.05550
    R2        2.05578  -0.00008   0.00000  -0.00079  -0.00029   2.05550
    R3        2.05578  -0.00008   0.00000  -0.00079  -0.00029   2.05550
    R4        2.43941  -0.00635   0.00000   0.04751   0.04751   2.48692
    R5        2.30057   0.00853   0.00000  -0.04782  -0.04782   2.25275
    A1        1.98883  -0.00019   0.00000   0.01273   0.01149   2.00033
    A2        1.98883  -0.00045   0.00000   0.01029   0.01149   2.00033
    A3        1.81426   0.00062   0.00000  -0.01551  -0.01547   1.79879
    A4        1.99489  -0.00040   0.00000   0.01142   0.01073   2.00562
    A5        1.82482   0.00029   0.00000  -0.01404  -0.01416   1.81066
    A6        1.82482   0.00040   0.00000  -0.01410  -0.01416   1.81066
    A7        3.17685  -0.00119   0.00000  -0.06634  -0.06634   3.11050
    A8        3.14159   0.00000   0.00000   0.00000   0.00000   3.14159
    D1       -2.32947   0.00117   0.00000  -0.04186  -0.04197  -2.37144
    D2        2.09055   0.00019   0.00000   0.00132   0.00022   2.09077
    D3       -2.09055   0.00006   0.00000   0.00144  -0.00022  -2.09077
    D4        2.10209  -0.00013   0.00000   0.00012  -0.00044   2.10165
         Item               Value     Threshold  Converged?
 Maximum Force            0.008530     0.000450     NO 
 RMS     Force            0.002623     0.000300     NO 
 Maximum Displacement     0.054009     0.001800     NO 
 RMS     Displacement     0.024453     0.001200     NO 
 Predicted change in Energy= 6.643957D-04
 Lowest energy point so far.  Saving SCF results.
 Largest change from initial coordinates is atom    6       0.029 Angstoms.
 GradGradGradGradGradGradGradGradGradGradGradGradGradGradGradGradGradGrad

 Leave Link  103 at Wed Oct  7 14:23:35 2020, MaxMem=  2684354560 cpu:               2.7 elap:               0.7
 (Enter /udrive/faculty/rpeverati/g16/g16/l202.exe)
                          Input orientation:                          
 ---------------------------------------------------------------------
 Center     Atomic      Atomic             Coordinates (Angstroms)
 Number     Number       Type             X           Y           Z
 ---------------------------------------------------------------------
      1          6           0        0.001278   -1.147129   -0.000000
      2          1           0       -1.061147   -1.380345   -0.000000
      3          1           0        0.523132   -1.411774    0.916935
      4          1           0        0.523132   -1.411774   -0.916935
      5          1           0        0.016952    0.168800    0.000000
      6          8           0       -0.005913    1.360687    0.000000
 ---------------------------------------------------------------------
                    Distance matrix (angstroms):
                    1          2          3          4          5
     1  C    0.000000
     2  H    1.087722   0.000000
     3  H    1.087721   1.830764   0.000000
     4  H    1.087721   1.830764   1.833870   0.000000
     5  H    1.316022   1.887366   1.896102   1.896102   0.000000
     6  O    2.507826   2.937138   2.967692   2.967692   1.192106
                    6
     6  O    0.000000
 Stoichiometry    CH4O(3)
 Framework group  CS[SG(CH2O),X(H2)]
 Deg. of freedom     8
 Full point group                 CS      NOp   2
 RotChk:  IX=0 Diff= 1.82D-02
 Largest Abelian subgroup         CS      NOp   2
 Largest concise Abelian subgroup CS      NOp   2
                         Standard orientation:                         
 ---------------------------------------------------------------------
 Center     Atomic      Atomic             Coordinates (Angstroms)
 Number     Number       Type             X           Y           Z
 ---------------------------------------------------------------------
      1          6           0        0.000081   -1.145335    0.000000
      2          1           0       -1.063009   -1.375505    0.000000
      3          1           0        0.521173   -1.411476    0.916935
[...]
     10 -0.258705D-02  0.122297D-02 -0.307971D-02  0.503393D-02 -0.188791D-02
     11 -0.293907D-02 -0.284659D-02  0.337456D-03  0.622974D-02 -0.252409D-02
     12 -0.109033D-02  0.636534D-03  0.636533D-03 -0.235822D-03 -0.218769D-03
     13  0.000000D+00 -0.980483D-03  0.980483D-03  0.000000D+00  0.000000D+00
     14 -0.449127D-02 -0.461124D-02 -0.371229D-02  0.152570D-01 -0.811675D-02
     15  0.222220D-02  0.208557D-02 -0.594430D-02  0.189430D-02 -0.133492D-02
     16 -0.312350D-02  0.514340D-02 -0.295502D-02  0.116744D-02 -0.293925D-03
     17 -0.534570D-02  0.305783D-02  0.298928D-02 -0.726856D-03  0.104100D-02
                6             7             8             9            10 
      6  0.167254D-01
      7 -0.900413D-02  0.234942D-01
      8 -0.634715D-02 -0.110899D-01  0.435897D-01
      9 -0.918813D-02 -0.613287D-02  0.123805D-01  0.239771D-01
     10 -0.571274D-02  0.118429D-01 -0.196858D-01 -0.112821D-01  0.429262D-01
     11  0.141173D-01 -0.121568D-01 -0.168225D-01 -0.130798D-01 -0.162383D-01
     12  0.235964D-03  0.245572D-03 -0.410421D-02 -0.529713D-03  0.207410D-02
     13 -0.145640D-03  0.169090D-03 -0.156609D-04  0.938422D-05 -0.196864D-03
     14 -0.548261D-02 -0.612406D-02  0.881444D-02 -0.631418D-02  0.858598D-02
     15  0.136193D-01 -0.971490D-02  0.278146D-02 -0.955365D-02  0.260340D-02
     16  0.692804D-02 -0.166468D-01  0.131534D-02  0.689623D-02  0.120012D-02
     17 -0.669122D-02 -0.693187D-02 -0.146612D-02  0.164499D-01 -0.140328D-02
               11            12            13            14            15 
     11  0.482389D-01
     12  0.207052D-02  0.234334D-01
     13  0.167545D-03  0.000000D+00  0.306018D-02
     14  0.716518D-02 -0.456728D-04  0.235612D-04  0.237605D-01
     15  0.244699D-02 -0.573417D-03 -0.243304D-03  0.853233D-03  0.171060D-01
     16  0.126134D-02  0.564250D-03 -0.245100D-03  0.407025D-03  0.861335D-02
     17 -0.118565D-02  0.113767D-02 -0.179639D-05 -0.446208D-03 -0.849266D-02
               16            17 
     16  0.172856D-01
     17  0.867228D-02  0.171649D-01
 Leave Link  716 at Wed Oct  7 14:25:19 2020, MaxMem=  2684354560 cpu:               3.0 elap:               0.6
 (Enter /udrive/faculty/rpeverati/g16/g16/l103.exe)

 GradGradGradGradGradGradGradGradGradGradGradGradGradGradGradGradGradGrad
 Berny optimization.
 Optmz: redundant internal coordinate code flag= 1
 Red2BG:  D1=  2.73D-01 OD1=  3.53D-15 B2RMS=  0.00D+00 IAprox=1
 Red2BG is reusing G-inverse.
 Internal  Forces:  Max     0.000126113 RMS     0.000040667
 Search for a local minimum.
 Step number   1 out of a maximum of    2
 All quantities printed in internal units (Hartrees-Bohrs-Radians)
 Second derivative matrix not updated -- analytic derivatives used.
 The second derivative matrix:
                          R1        R2        R3        R4        R5
           R1           0.36791
           R2           0.00039   0.36942
           R3           0.00039   0.00033   0.36942
           R4           0.00181   0.00135   0.00135   0.05149
           R5           0.00011  -0.00020  -0.00020   0.11443   0.10491
           A1           0.00235   0.00238  -0.00317  -0.00199   0.00106
           A2           0.00330  -0.00274   0.00371  -0.00519   0.00276
           A3           0.00161  -0.00253  -0.00313   0.00527  -0.00440
           A4          -0.00275   0.00337   0.00372  -0.00488   0.00259
           A5          -0.00259   0.00122  -0.00308   0.00503  -0.00189
           A6          -0.00294  -0.00285   0.00034   0.00623  -0.00252
           A7          -0.00109   0.00064   0.00064  -0.00024  -0.00022
           A8          -0.00000  -0.00098   0.00098   0.00000   0.00000
           D1          -0.00449  -0.00461  -0.00371   0.01526  -0.00812
           D2           0.00222   0.00209  -0.00594   0.00189  -0.00133
           D3          -0.00312   0.00514  -0.00296   0.00117  -0.00029
           D4          -0.00535   0.00306   0.00299  -0.00073   0.00104
                          A1        A2        A3        A4        A5
           A1           0.01673
           A2          -0.00900   0.02349
           A3          -0.00635  -0.01109   0.04359
           A4          -0.00919  -0.00613   0.01238   0.02398
           A5          -0.00571   0.01184  -0.01969  -0.01128   0.04293
           A6           0.01412  -0.01216  -0.01682  -0.01308  -0.01624
           A7           0.00024   0.00025  -0.00410  -0.00053   0.00207
           A8          -0.00015   0.00017  -0.00002   0.00001  -0.00020
           D1          -0.00548  -0.00612   0.00881  -0.00631   0.00859
           D2           0.01362  -0.00971   0.00278  -0.00955   0.00260
           D3           0.00693  -0.01665   0.00132   0.00690   0.00120
           D4          -0.00669  -0.00693  -0.00147   0.01645  -0.00140
                          A6        A7        A8        D1        D2
           A6           0.04824
           A7           0.00207   0.02343
           A8           0.00017  -0.00000   0.00306
           D1           0.00717  -0.00005   0.00002   0.02376
           D2           0.00245  -0.00057  -0.00024   0.00085   0.01711
           D3           0.00126   0.00056  -0.00025   0.00041   0.00861
           D4          -0.00119   0.00114  -0.00000  -0.00045  -0.00849
                          D3        D4
           D3           0.01729
           D4           0.00867   0.01716
 ITU=  0
 Eigenvectors of the second derivative matrix:
                           1         2         3         4         5
     Eigenvalues --    -0.04502   0.00305   0.02255   0.03596   0.04115
   1         R1         0.00612  -0.00000   0.00141  -0.01941  -0.02345
   2         R2         0.00597   0.00244   0.00001  -0.01703   0.02382
   3         R3         0.00660  -0.00244  -0.00014   0.01047  -0.00209
   4         R4        -0.76040  -0.00003  -0.00112  -0.11378   0.00499
   5         R5         0.59805   0.00003  -0.00398   0.11159   0.00483
   6         A1        -0.03958   0.00387  -0.02227   0.42457  -0.02326
   7         A2        -0.05824  -0.00383  -0.01919  -0.02987   0.35164
   8         A3         0.07952  -0.00002  -0.11739  -0.02990   0.31487
   9         A4        -0.05651   0.00001   0.03389  -0.05493  -0.31519
  10         A5         0.06469   0.00437   0.06275  -0.04955  -0.36925
  11         A6         0.06740  -0.00442   0.06366  -0.38322   0.04247
  12         A7         0.00028   0.00000  -0.98165  -0.08141  -0.14175
  13         A8         0.00014   0.99992   0.00007  -0.00795   0.00658
  14         D1         0.20132  -0.00173   0.01874  -0.58919  -0.00666
  15         D2         0.01357   0.00595  -0.04697   0.43553  -0.04374
  16         D3         0.00588   0.00594   0.04323   0.19449  -0.52929
  17         D4        -0.00769  -0.00001   0.09020  -0.24105  -0.48555
                           6         7         8         9        10
     Eigenvalues --     0.04721   0.07681   0.07861   0.19582   0.36812
   1         R1         0.00041   0.00455   0.00076  -0.00596  -0.96843
   2         R2         0.00478  -0.00139  -0.00480  -0.00334   0.16483
   3         R3         0.03004   0.00945  -0.00720  -0.00293   0.18404
   4         R4         0.13886   0.03286  -0.00962   0.62314  -0.00460
   5         R5        -0.13118  -0.03407   0.02665   0.78150  -0.00281
   6         A1         0.05566   0.27225  -0.23571  -0.00108  -0.00739
   7         A2        -0.22516  -0.44538  -0.09855  -0.00734  -0.00915
   8         A3         0.40481   0.20399   0.60168  -0.00278  -0.00768
   9         A4        -0.28173   0.02834   0.45057  -0.00822   0.01219
  10         A5         0.39052  -0.55711  -0.28106   0.01107   0.00613
  11         A6        -0.17397   0.55167  -0.47978   0.01446   0.00729
  12         A7        -0.06277  -0.01621  -0.07362  -0.00143   0.00395
  13         A8        -0.00573   0.00012   0.00002  -0.00001   0.00005
  14         D1         0.51441   0.05576  -0.03609   0.02032   0.00843
  15         D2         0.37578   0.16344  -0.12810   0.00202  -0.00881
  16         D3         0.15348   0.19261   0.05489   0.00354   0.01029
  17         D4        -0.22230   0.02917   0.18300   0.00151   0.01910
                          11        12
     Eigenvalues --     0.36944   0.37023
   1         R1        -0.00061   0.24722
   2         R2        -0.74590   0.64460
   3         R3         0.66524   0.72275
   4         R4        -0.00059   0.00655
   5         R5        -0.00006   0.00303
   6         A1        -0.01200  -0.00115
   7         A2         0.01416   0.00543
   8         A3        -0.00080  -0.01022
   9         A4         0.00002   0.01309
  10         A5        -0.00876  -0.00612
  11         A6         0.00659  -0.00756
  12         A7        -0.00015   0.00179
  13         A8         0.00382   0.00022
  14         D1         0.00257  -0.02022
  15         D2        -0.01694  -0.00774
  16         D3        -0.01782   0.00107
  17         D4        -0.00089   0.00882
 Eigenvalue     1 is  -4.50D-02 should be greater than     0.000000 Eigenvector:
                          R4        R5        D1        A3        A6
   1                   -0.76040   0.59805   0.20132   0.07952   0.06740
                          A5        A2        A4        A1        D2
   1                    0.06469  -0.05824  -0.05651  -0.03958   0.01357
 Angle between quadratic step and forces=  24.58 degrees.
 Linear search not attempted -- first point.
 Iteration  1 RMS(Cart)=  0.00065870 RMS(Int)=  0.00000043
 Iteration  2 RMS(Cart)=  0.00000045 RMS(Int)=  0.00000010
 ITry= 1 IFail=0 DXMaxC= 1.78D-03 DCOld= 1.00D+10 DXMaxT= 3.00D-01 DXLimC= 3.00D+00 Rises=F
 ClnCor:  largest displacement from symmetrization is 1.12D-05 for atom     4.
 Variable       Old X    -DE/DX   Delta X   Delta X   Delta X     New X
                                 (Linear)    (Quad)   (Total)
    R1        2.05508   0.00002   0.00000   0.00003   0.00003   2.05511
    R2        2.05392   0.00001   0.00000   0.00007   0.00007   2.05399
    R3        2.05392   0.00001   0.00000   0.00007   0.00007   2.05399
    R4        2.59818  -0.00003   0.00000  -0.00018  -0.00018   2.59800
    R5        2.16267  -0.00003   0.00000  -0.00013  -0.00013   2.16255
    A1        2.00575  -0.00002   0.00000  -0.00033  -0.00033   2.00542
    A2        2.00575  -0.00003   0.00000  -0.00034  -0.00033   2.00542
    A3        1.78837   0.00013   0.00000   0.00194   0.00194   1.79031
    A4        2.01184   0.00002   0.00000  -0.00003  -0.00004   2.01181
    A5        1.80432  -0.00005   0.00000  -0.00049  -0.00049   1.80384
    A6        1.80432  -0.00004   0.00000  -0.00048  -0.00049   1.80384
    A7        3.12574  -0.00005   0.00000  -0.00162  -0.00162   3.12412
    A8        3.14159  -0.00000   0.00000   0.00000   0.00000   3.14159
    D1       -2.39373   0.00004   0.00000   0.00098   0.00098  -2.39275
    D2        2.08998   0.00001   0.00000   0.00023   0.00022   2.09021
    D3       -2.08998  -0.00000   0.00000  -0.00021  -0.00022  -2.09021
    D4        2.10322  -0.00001   0.00000  -0.00044  -0.00044   2.10277
         Item               Value     Threshold  Converged?
 Maximum Force            0.000126     0.000450     YES
 RMS     Force            0.000041     0.000300     YES
 Maximum Displacement     0.001775     0.001800     YES
 RMS     Displacement     0.000658     0.001200     YES
 Predicted change in Energy=-2.279546D-07
 Optimization completed.
    -- Stationary point found.
                           ----------------------------
                           !   Optimized Parameters   !
                           ! (Angstroms and Degrees)  !
 --------------------------                            --------------------------
 ! Name  Definition              Value          Derivative Info.                !
 --------------------------------------------------------------------------------
 ! R1    R(1,2)                  1.0875         -DE/DX =    0.0                 !
 ! R2    R(1,3)                  1.0869         -DE/DX =    0.0                 !
 ! R3    R(1,4)                  1.0869         -DE/DX =    0.0                 !
 ! R4    R(1,5)                  1.3749         -DE/DX =    0.0                 !
 ! R5    R(5,6)                  1.1444         -DE/DX =    0.0                 !
 ! A1    A(2,1,3)              114.9213         -DE/DX =    0.0                 !
 ! A2    A(2,1,4)              114.9213         -DE/DX =    0.0                 !
 ! A3    A(2,1,5)              102.4662         -DE/DX =    0.0001              !
 ! A4    A(3,1,4)              115.2702         -DE/DX =    0.0                 !
 ! A5    A(3,1,5)              103.3801         -DE/DX =    0.0                 !
 ! A6    A(4,1,5)              103.3801         -DE/DX =    0.0                 !
 ! A7    L(1,5,6,2,-1)         179.0919         -DE/DX =    0.0                 !
 ! A8    L(1,5,6,2,-2)         180.0            -DE/DX =    0.0                 !
 ! D1    D(2,1,4,3)           -137.1504         -DE/DX =    0.0                 !
 ! D2    D(2,1,5,3)            119.7472         -DE/DX =    0.0                 !
 ! D3    D(2,1,5,4)           -119.7472         -DE/DX =    0.0                 !
 ! D4    D(3,1,5,4)            120.5056         -DE/DX =    0.0                 !
 --------------------------------------------------------------------------------
 GradGradGradGradGradGradGradGradGradGradGradGradGradGradGradGradGradGrad

 Leave Link  103 at Wed Oct  7 14:25:20 2020, MaxMem=  2684354560 cpu:               2.6 elap:               0.6
 (Enter /udrive/faculty/rpeverati/g16/g16/l9999.exe)

 ----------------------------------------------------------------------

 Electric dipole moment (input orientation):
 (Debye = 10**-18 statcoulomb cm , SI units = C m)
                  (au)            (Debye)         (10**-30 SI)
   Tot        0.837213D+00      0.212798D+01      0.709819D+01
   x          0.424376D-03      0.107866D-02      0.359801D-02
   y         -0.837213D+00     -0.212798D+01     -0.709819D+01
   z          0.000000D+00      0.000000D+00      0.000000D+00

 Dipole polarizability, Alpha (input orientation).
 (esu units = cm**3 , SI units = C**2 m**2 J**-1)
 Alpha(0;0):
               (au)            (10**-24 esu)      (10**-40 SI)
   iso        0.201916D+02      0.299208D+01      0.332914D+01
   aniso      0.175369D+02      0.259870D+01      0.289144D+01
   xx         0.145002D+02      0.214870D+01      0.239075D+01
   yx        -0.814367D-01     -0.120677D-01     -0.134271D-01
   yy         0.318811D+02      0.472429D+01      0.525649D+01
   zx         0.000000D+00      0.000000D+00      0.000000D+00
   zy         0.000000D+00      0.000000D+00      0.000000D+00
   zz         0.141935D+02      0.210325D+01      0.234019D+01

 ----------------------------------------------------------------------

 Dipole orientation:
     6          0.00193643          0.00000098          2.19759551
     1         -2.00777204         -0.00101772          2.62704839
     1          0.98912044          1.73535891          2.67987535
     1          0.99087920         -1.73435527          2.67987535
     1          0.02026333          0.00001027         -0.40052085
     8          0.00124312          0.00000063         -2.56311193

 Electric dipole moment (dipole orientation):
 (Debye = 10**-18 statcoulomb cm , SI units = C m)
                  (au)            (Debye)         (10**-30 SI)
   Tot        0.837213D+00      0.212798D+01      0.709819D+01
   x          0.000000D+00      0.000000D+00      0.000000D+00
   y          0.000000D+00      0.000000D+00      0.000000D+00
   z          0.837213D+00      0.212798D+01      0.709819D+01

 Dipole polarizability, Alpha (dipole orientation).
 (esu units = cm**3 , SI units = C**2 m**2 J**-1)
 Alpha(0;0):
               (au)            (10**-24 esu)      (10**-40 SI)
   iso        0.201916D+02      0.299208D+01      0.332914D+01
   aniso      0.175369D+02      0.259870D+01      0.289144D+01
   xx         0.145001D+02      0.214869D+01      0.239074D+01
   yx         0.155441D-03      0.230341D-04      0.256288D-04
   yy         0.141935D+02      0.210325D+01      0.234019D+01
   zx         0.726264D-01      0.107621D-01      0.119745D-01
   zy         0.368323D-04      0.545799D-05      0.607283D-05
   zz         0.318812D+02      0.472431D+01      0.525650D+01

 ----------------------------------------------------------------------

 Test job not archived.
 1\1\GINC-NODE56\Freq\UM062X\6-31G(d)\C1H4O1(3)\RPEVERATI\07-Oct-2020\0
 \\#P Freq M062X/6-31G* 5D 7F Integral=UltraFineGrid SCF=(NoSymm,XQC,Ma
 xCyc=120) EmpiricalDispersion=GD3 IOp(1/33=1) Geom=Check Guess=Read\\T
 S search on BH76.\\0,3\C,0.0016141884,-1.162916796,0.\H,-1.0617625432,
 -1.3907125189,0.\H,0.5246041803,-1.4178632258,0.9180469551\H,0.5246041
 803,-1.4178632258,-0.9180469551\H,0.0106154592,0.2119519143,0.\O,-0.00
 00296861,1.356340581,0.\\Version=ES64L-G16RevA.03\State=3-A'\HF=-115.4
 875973\S2=2.014137\S2-1=0.\S2A=2.00006\RMSD=1.734e-09\RMSF=4.892e-05\Z
 eroPoint=0.0391494\Thermal=0.0430025\Dipole=0.0004244,-0.8372133,0.\Di
 poleDeriv=0.0045509,0.0003837,0.,-0.0102056,0.6142759,0.,0.,0.,-0.0037
 529,-0.0429151,0.0095574,0.,-0.0393441,-0.0106944,0.,0.,0.,0.0728987,0
 .0451282,-0.0042867,-0.045619,0.0240555,-0.0091712,0.0455492,-0.048473
 4,-0.0060177,-0.0101589,0.0451282,-0.0042867,0.045619,0.0240555,-0.009
 1712,-0.0455492,0.0484734,0.0060177,-0.0101589,0.2030857,0.0051728,0.,
 0.0037479,-0.8374382,0.,0.,0.,0.1961871,-0.2549778,-0.0065404,0.,-0.00
 23091,0.2521991,0.,0.,0.,-0.2450152\Polar=14.5001635,-0.0814367,31.881
 117,0.,0.,14.1934642\Quadrupole=0.9949083,-1.1516969,0.1567886,0.00028
 32,0.,0.\PG=CS [SG(C1H2O1),X(H2)]\NImag=1\\0.60001881,-0.00904822,0.13
 812465,0.,0.,0.60042967,-0.33588800,-0.06004489,0.,0.35390945,-0.07196
 342,-0.03753013,0.,0.06779110,0.04023570,0.,0.,-0.05384490,0.,0.,0.046
 31585,-0.12233049,0.03448775,-0.11979240,-0.00880089,0.00919583,-0.024
 73742,0.12130767,0.03988129,-0.04164313,0.06970253,-0.00419334,0.00440
 021,-0.00737046,-0.03797093,0.04367441,-0.12048264,0.05872595,-0.26565
 059,0.00253800,-0.00009476,0.00392597,0.13117685,-0.06567122,0.2771312
 7,-0.12233049,0.03448775,0.11979240,-0.00880089,0.00919583,0.02473743,
 0.01013126,-0.00459247,-0.01336159,0.12130767,0.03988129,-0.04164313,-
 0.06970254,-0.00419334,0.00440021,0.00737046,-0.00459247,0.00490682,0.
 00793889,-0.03797093,0.04367441,0.12048264,-0.05872595,-0.26565059,-0.
 00253800,0.00009476,0.00392598,0.01336159,-0.00793889,-0.01497108,-0.1
 3117685,0.06567122,0.27713127,-0.02481437,-0.00126609,0.,-0.00073706,-
 0.01515318,0.,-0.00018221,0.00745517,-0.00011711,-0.00018221,0.0074551
 7,0.00011711,0.03632631,0.00014702,0.11485304,0.,0.00218611,-0.0182196
 5,0.,-0.00149191,-0.01684899,-0.00197837,-0.00149191,-0.01684899,0.001
 97837,0.00077886,-0.07246583,0.,0.,-0.01632197,0.,0.,0.00011238,-0.000
 46082,0.01149990,-0.00103303,0.00046082,-0.01149990,-0.00103303,0.,0.,
 0.02217257,0.00534455,0.00138369,0.,0.00031738,0.00093384,0.,-0.000125
 34,-0.00057972,0.00024650,-0.00012534,-0.00057972,-0.00024650,-0.01041
 047,-0.00012816,0.,0.00499921,0.00110205,-0.13216131,0.,-0.00154564,0.
 00671366,0.,0.00037173,0.00551067,0.00107950,0.00037172,0.00551067,-0.
 00107950,0.00073006,0.00953042,0.,-0.00102992,0.10489588,0.,0.,0.00103
 838,0.,0.,-0.00043529,0.00045221,-0.00022187,0.00059746,-0.00045221,0.
 00022187,0.00059746,0.,0.,-0.00389691,0.,0.,0.00209889\\0.00007297,-0.
 00012254,0.,-0.00000444,0.00009248,0.,0.00000890,0.00000107,-0.0000199
 5,0.00000890,0.00000107,0.00001995,-0.00010878,-0.00000144,0.,0.000022
 45,0.00002937,0.\\\@


 THERE'S A SUCKER BORN EVERY MINUTE

              -- PHINEAS TAYLOR (P.T.) BARNUM
 Job cpu time:       0 days  0 hours  2 minutes 50.2 seconds.
 Elapsed time:       0 days  0 hours  0 minutes 22.6 seconds.
 File lengths (MBytes):  RWF=      7 Int=      0 D2E=      0 Chk=      1 Scr=      1
 Normal termination of Gaussian 16 at Wed Oct  7 14:25:21 2020.
