 Entering Gaussian System, Link 0=g16
 Input=MN_96_RKT22_BH76_M062XD30_631Gs.in
 Output=MN_96_RKT22_BH76_M062XD30_631Gs.log
 Initial command:
 /udrive/faculty/rpeverati/g16/g16/l1.exe "/udrive/scratch-directories/gaussian09/rpeverati/Gau-23825.inp" -scrdir="/udrive/scratch-directories/gaussian09/rpeverati/"
 Entering Link 1 = /udrive/faculty/rpeverati/g16/g16/l1.exe PID=     23840.
  
 Copyright (c) 1988,1990,1992,1993,1995,1998,2003,2009,2016,
            Gaussian, Inc.  All Rights Reserved.
  
 This is part of the Gaussian(R) 16 program.  It is based on
 the Gaussian(R) 09 system (copyright 2009, Gaussian, Inc.),
 the Gaussian(R) 03 system (copyright 2003, Gaussian, Inc.),
 the Gaussian(R) 98 system (copyright 1998, Gaussian, Inc.),
 the Gaussian(R) 94 system (copyright 1995, Gaussian, Inc.),
 the Gaussian 92(TM) system (copyright 1992, Gaussian, Inc.),
 the Gaussian 90(TM) system (copyright 1990, Gaussian, Inc.),
 the Gaussian 88(TM) system (copyright 1988, Gaussian, Inc.),
 the Gaussian 86(TM) system (copyright 1986, Carnegie Mellon
 University), and the Gaussian 82(TM) system (copyright 1983,
 Carnegie Mellon University). Gaussian is a federally registered
 trademark of Gaussian, Inc.
  
 This software contains proprietary and confidential information,
 including trade secrets, belonging to Gaussian, Inc.
  
 This software is provided under written license and may be
 used, copied, transmitted, or stored only in accord with that
 written license.
  
 The following legend is applicable only to US Government
 contracts under FAR:
  
                    RESTRICTED RIGHTS LEGEND
  
 Use, reproduction and disclosure by the US Government is
 subject to restrictions as set forth in subparagraphs (a)
 and (c) of the Commercial Computer Software - Restricted
 Rights clause in FAR 52.227-19.
  
 Gaussian, Inc.
 340 Quinnipiac St., Bldg. 40, Wallingford CT 06492
  
  
 ---------------------------------------------------------------
 Warning -- This program may not be used in any manner that
 competes with the business of Gaussian, Inc. or will provide
 assistance to any competitor of Gaussian, Inc.  The licensee
 of this program is prohibited from giving any competitor of
 Gaussian, Inc. access to this program.  By using this program,
 the user acknowledges that Gaussian, Inc. is engaged in the
 business of creating and licensing software in the field of
 computational chemistry and represents and warrants to the
 licensee that it is not a competitor of Gaussian, Inc. and that
 it will not use this program in any manner prohibited above.
 ---------------------------------------------------------------
  

 Cite this work as:
 Gaussian 16, Revision A.03,
 M. J. Frisch, G. W. Trucks, H. B. Schlegel, G. E. Scuseria, 
 M. A. Robb, J. R. Cheeseman, G. Scalmani, V. Barone, 
 G. A. Petersson, H. Nakatsuji, X. Li, M. Caricato, A. V. Marenich, 
 J. Bloino, B. G. Janesko, R. Gomperts, B. Mennucci, H. P. Hratchian, 
 J. V. Ortiz, A. F. Izmaylov, J. L. Sonnenberg, D. Williams-Young, 
 F. Ding, F. Lipparini, F. Egidi, J. Goings, B. Peng, A. Petrone, 
 T. Henderson, D. Ranasinghe, V. G. Zakrzewski, J. Gao, N. Rega, 
 G. Zheng, W. Liang, M. Hada, M. Ehara, K. Toyota, R. Fukuda, 
 J. Hasegawa, M. Ishida, T. Nakajima, Y. Honda, O. Kitao, H. Nakai, 
 T. Vreven, K. Throssell, J. A. Montgomery, Jr., J. E. Peralta, 
 F. Ogliaro, M. J. Bearpark, J. J. Heyd, E. N. Brothers, K. N. Kudin, 
 V. N. Staroverov, T. A. Keith, R. Kobayashi, J. Normand, 
 K. Raghavachari, A. P. Rendell, J. C. Burant, S. S. Iyengar, 
 J. Tomasi, M. Cossi, J. M. Millam, M. Klene, C. Adamo, R. Cammi, 
 J. W. Ochterski, R. L. Martin, K. Morokuma, O. Farkas, 
 J. B. Foresman, and D. J. Fox, Gaussian, Inc., Wallingford CT, 2016.
 
 ******************************************
 Gaussian 16:  ES64L-G16RevA.03 25-Dec-2016
                 7-Oct-2020 
 ******************************************
 %NoSave
 %nproc=12
 Will use up to   12 processors via shared memory.
 %mem=20GB
 %chk=MN_96_RKT22_BH76_M062XD30_631Gs
 ----------------------------------------------------------------------
 #P Opt(TS,MaxCyc=50,NoEigenTest,MaxStep=10,AddRedundant) M062X/6-31G* 
 5D 7F Integral=UltraFineGrid SCF=(NoSymm,XQC,MaxCyc=120) EmpiricalDisp
 ersion=GD3 IOp(1/33=1)
 ----------------------------------------------------------------------
 1/5=1,6=50,8=10,11=1,18=120,26=4,33=1,38=1/1,3;
 2/9=110,12=2,17=6,18=5,40=1/2;
 3/5=1,6=6,7=1,8=11,11=2,25=1,30=1,71=1,74=-55,75=-5,124=31/1,2,3;
 4/9=2/1;
 5/5=2,7=120,8=3,13=1,38=5/2,8;
 6/7=2,8=2,9=2,10=2,28=1/1;
 7//1,2,3,16;
 1/5=1,6=50,8=10,11=1,18=20,26=4,33=1/3(2);
 2/9=110/2;
 99//99;
 2/9=110/2;
 3/5=1,6=6,7=1,8=11,11=2,25=1,30=1,71=1,74=-55,75=-5,124=31/1,2,3;
 4/5=5,9=2,16=3,69=1/1;
 5/5=2,7=120,8=3,13=1,38=5/2,8;
 7//1,2,3,16;
 1/5=1,6=50,8=10,11=1,18=20,26=4,33=1/3(-5);
 2/9=110/2;
 6/7=2,8=2,9=2,10=2,19=2,28=1/1;
 99/9=1/99;
 Leave Link    1 at Wed Oct  7 14:23:32 2020, MaxMem=  2684354560 cpu:               5.4 elap:               0.5
 (Enter /udrive/faculty/rpeverati/g16/g16/l101.exe)
 ONIOM data not found on unit 2.
 ------------------
 TS search on BH76.
 ------------------
 TstMul:  ICh=     0
 TstMul:  Mul=     1
 TstMul:  ICh=     0
 TstMul:  Mul=     1
 Symbolic Z-matrix:
 Charge =  0 Multiplicity = 1
 C                    -1.29962  -0.90486  -0.02015 
 C                    -1.20595   0.50582  -0.01341 
 C                     0.        1.18336   0.1533 
 C                     1.20595   0.50581  -0.01342 
 C                     1.29963  -0.90485  -0.02015 
 H                     2.1688   -1.32755  -0.5157 
 H                     1.03204  -1.45439   0.87317 
 H                     2.03713   1.08559  -0.3985 
 H                     0.        2.26292   0.08591 
 H                    -2.03713   1.08559  -0.39848 
 H                    -2.1688   -1.32754  -0.51572 
 H                    -0.00001  -1.18194  -0.52081 
 H                    -1.03206  -1.4544    0.87316 
 
 RdStrC is calling ZToCFu for IStruc=1 NZ=    13.
 PrtBox:  NBox=     2 Levels=  1 BoxLen=    8.00 SMaxX=        8.20
          Shift=            4.098430            2.748410            0.984185
 Box      1 Number                   0 centers from      1 to     12:
 Box      2 Number                   4 centers from     13 to     13:
 After GenITR:
 ITRead=  0  0  0  0  0  0  0  0  0  0  0  0  0
 MicOpt= -1 -1 -1 -1 -1 -1 -1 -1 -1 -1 -1 -1 -1
 Add virtual bond connecting atoms H12        and C1         Dist= 2.68D+00.
 Add virtual bond connecting atoms H12        and C5         Dist= 2.68D+00.
 The following ModRedundant input section has been read:
 
 ITRead=  0  0  0  0  0  0  0  0  0  0  0  0  0
 MicOpt= -1 -1 -1 -1 -1 -1 -1 -1 -1 -1 -1 -1 -1
 NAtoms=     13 NQM=       13 NQMF=       0 NMMI=      0 NMMIF=      0
                NMic=       0 NMicF=      0.
                    Isotopes and Nuclear Properties:
 (Nuclear quadrupole moments (NQMom) in fm**2, nuclear magnetic moments (NMagM)
  in nuclear magnetons)

  Atom         1           2           3           4           5           6           7           8           9          10
 IAtWgt=          12          12          12          12          12           1           1           1           1           1
 AtmWgt=  12.0000000  12.0000000  12.0000000  12.0000000  12.0000000   1.0078250   1.0078250   1.0078250   1.0078250   1.0078250
 NucSpn=           0           0           0           0           0           1           1           1           1           1
 AtZEff=   0.0000000   0.0000000   0.0000000   0.0000000   0.0000000   0.0000000   0.0000000   0.0000000   0.0000000   0.0000000
 NQMom=    0.0000000   0.0000000   0.0000000   0.0000000   0.0000000   0.0000000   0.0000000   0.0000000   0.0000000   0.0000000
 NMagM=    0.0000000   0.0000000   0.0000000   0.0000000   0.0000000   2.7928460   2.7928460   2.7928460   2.7928460   2.7928460
 AtZNuc=   6.0000000   6.0000000   6.0000000   6.0000000   6.0000000   1.0000000   1.0000000   1.0000000   1.0000000   1.0000000

  Atom        11          12          13
 IAtWgt=           1           1           1
 AtmWgt=   1.0078250   1.0078250   1.0078250
 NucSpn=           1           1           1
 AtZEff=   0.0000000   0.0000000   0.0000000
 NQMom=    0.0000000   0.0000000   0.0000000
 NMagM=    2.7928460   2.7928460   2.7928460
 AtZNuc=   1.0000000   1.0000000   1.0000000
 No MM parameters found.
 Leave Link  101 at Wed Oct  7 14:23:33 2020, MaxMem=  2684354560 cpu:              13.7 elap:               1.3
 (Enter /udrive/faculty/rpeverati/g16/g16/l103.exe)

 GradGradGradGradGradGradGradGradGradGradGradGradGradGradGradGradGradGrad
 Berny optimization.
 Optmz: redundant internal coordinate code flag= 1
 Initialization pass.
                           ----------------------------
                           !    Initial Parameters    !
                           ! (Angstroms and Degrees)  !
 --------------------------                            --------------------------
 ! Name  Definition              Value          Derivative Info.                !
 --------------------------------------------------------------------------------
 ! R1    R(1,2)                  1.4138         estimate D2E/DX2                !
 ! R2    R(1,11)                 1.0861         estimate D2E/DX2                !
 ! R3    R(1,12)                 1.42           estimate D2E/DX2                !
 ! R4    R(1,13)                 1.0824         estimate D2E/DX2                !
 ! R5    R(2,3)                  1.3933         estimate D2E/DX2                !
 ! R6    R(2,10)                 1.0841         estimate D2E/DX2                !
 ! R7    R(3,4)                  1.3933         estimate D2E/DX2                !
 ! R8    R(3,9)                  1.0817         estimate D2E/DX2                !
 ! R9    R(4,5)                  1.4138         estimate D2E/DX2                !
 ! R10   R(4,8)                  1.0841         estimate D2E/DX2                !
 ! R11   R(5,6)                  1.0861         estimate D2E/DX2                !
 ! R12   R(5,7)                  1.0824         estimate D2E/DX2                !
 ! R13   R(5,12)                 1.42           estimate D2E/DX2                !
 ! A1    A(2,1,11)             116.3274         estimate D2E/DX2                !
 ! A2    A(2,1,12)              97.8015         estimate D2E/DX2                !
 ! A3    A(2,1,13)             119.0957         estimate D2E/DX2                !
 ! A4    A(11,1,12)            119.7086         estimate D2E/DX2                !
 ! A5    A(11,1,13)            112.1348         estimate D2E/DX2                !
 ! A6    A(12,1,13)             88.0329         estimate D2E/DX2                !
 ! A7    A(1,2,3)              122.8982         estimate D2E/DX2                !
 ! A8    A(1,2,10)             118.7584         estimate D2E/DX2                !
 ! A9    A(3,2,10)             116.4911         estimate D2E/DX2                !
 ! A10   A(2,3,4)              119.893          estimate D2E/DX2                !
 ! A11   A(2,3,9)              118.5485         estimate D2E/DX2                !
 ! A12   A(4,3,9)              118.5485         estimate D2E/DX2                !
 ! A13   A(3,4,5)              122.8985         estimate D2E/DX2                !
 ! A14   A(3,4,8)              116.4909         estimate D2E/DX2                !
 ! A15   A(5,4,8)              118.7584         estimate D2E/DX2                !
 ! A16   A(4,5,6)              116.3283         estimate D2E/DX2                !
 ! A17   A(4,5,7)              119.0957         estimate D2E/DX2                !
 ! A18   A(4,5,12)              97.801          estimate D2E/DX2                !
 ! A19   A(6,5,7)              112.1349         estimate D2E/DX2                !
 ! A20   A(6,5,12)             119.7085         estimate D2E/DX2                !
 ! A21   A(7,5,12)              88.032          estimate D2E/DX2                !
 ! A22   A(1,12,5)             132.4725         estimate D2E/DX2                !
 ! D1    D(11,1,2,3)          -157.5701         estimate D2E/DX2                !
 ! D2    D(11,1,2,10)            6.3785         estimate D2E/DX2                !
 ! D3    D(12,1,2,3)           -28.8215         estimate D2E/DX2                !
 ! D4    D(12,1,2,10)          135.1272         estimate D2E/DX2                !
 ! D5    D(13,1,2,3)            63.2758         estimate D2E/DX2                !
 ! D6    D(13,1,2,10)         -132.7755         estimate D2E/DX2                !
 ! D7    D(2,1,12,5)            61.5015         estimate D2E/DX2                !
 ! D8    D(11,1,12,5)         -172.0882         estimate D2E/DX2                !
 ! D9    D(13,1,12,5)          -57.6025         estimate D2E/DX2                !
 ! D10   D(1,2,3,4)             16.1664         estimate D2E/DX2                !
 ! D11   D(1,2,3,9)            176.2677         estimate D2E/DX2                !
 ! D12   D(10,2,3,4)          -148.1199         estimate D2E/DX2                !
 ! D13   D(10,2,3,9)            11.9814         estimate D2E/DX2                !
 ! D14   D(2,3,4,5)            -16.1672         estimate D2E/DX2                !
 ! D15   D(2,3,4,8)            148.1195         estimate D2E/DX2                !
 ! D16   D(9,3,4,5)           -176.2685         estimate D2E/DX2                !
 ! D17   D(9,3,4,8)            -11.9818         estimate D2E/DX2                !
 ! D18   D(3,4,5,6)            157.571          estimate D2E/DX2                !
 ! D19   D(3,4,5,7)            -63.2736         estimate D2E/DX2                !
 ! D20   D(3,4,5,12)            28.8223         estimate D2E/DX2                !
 ! D21   D(8,4,5,6)             -6.378          estimate D2E/DX2                !
 ! D22   D(8,4,5,7)            132.7774         estimate D2E/DX2                !
 ! D23   D(8,4,5,12)          -135.1267         estimate D2E/DX2                !
 ! D24   D(4,5,12,1)           -61.502          estimate D2E/DX2                !
 ! D25   D(6,5,12,1)           172.087          estimate D2E/DX2                !
 ! D26   D(7,5,12,1)            57.6018         estimate D2E/DX2                !
 --------------------------------------------------------------------------------
 Maximum allowed force set to 1.00D+20.
 Trust Radius=1.00D-01 FncErr=1.00D-07 GrdErr=1.00D-06 EigMax=2.50D+02 EigMin=1.00D-04
 Number of steps in this run=     50 maximum allowed number of steps=    100.
 Search for a saddle point of order  1.
 GradGradGradGradGradGradGradGradGradGradGradGradGradGradGradGradGradGrad

 Leave Link  103 at Wed Oct  7 14:23:34 2020, MaxMem=  2684354560 cpu:               1.6 elap:               0.7
 (Enter /udrive/faculty/rpeverati/g16/g16/l202.exe)
                          Input orientation:                          
 ---------------------------------------------------------------------
 Center     Atomic      Atomic             Coordinates (Angstroms)
 Number     Number       Type             X           Y           Z
 ---------------------------------------------------------------------
      1          6           0       -1.299622   -0.904856   -0.020155
      2          6           0       -1.205947    0.505817   -0.013414
      3          6           0        0.000000    1.183362    0.153301
      4          6           0        1.205947    0.505814   -0.013422
      5          6           0        1.299627   -0.904851   -0.020147
      6          1           0        2.168796   -1.327552   -0.515697
      7          1           0        1.032044   -1.454385    0.873169
      8          1           0        2.037131    1.085586   -0.398504
      9          1           0        0.000001    2.262915    0.085905
     10          1           0       -2.037131    1.085586   -0.398481
     11          1           0       -2.168796   -1.327542   -0.515716
     12          1           0       -0.000011   -1.181944   -0.520808
     13          1           0       -1.032060   -1.454396    0.873158
 ---------------------------------------------------------------------
                    Distance matrix (angstroms):
                    1          2          3          4          5
     1  C    0.000000
     2  C    1.413796   0.000000
     3  C    2.465717   1.393259   0.000000
     4  C    2.875398   2.411894   1.393261   0.000000
     5  C    2.599250   2.875402   2.465714   1.413788   0.000000
     6  H    3.529045   3.873296   3.384660   2.130866   1.086140
     7  H    2.556692   3.104356   2.922505   2.158395   1.082406
     8  H    3.903707   3.316924   2.112807   1.084108   2.156132
     9  H    3.425645   2.133441   1.081655   2.133442   3.425641
    10  H    2.156133   1.084101   2.112801   3.316921   3.903708
    11  H    1.086143   2.130866   3.384656   3.873291   3.529053
    12  H    1.420007   2.135478   2.459491   2.135486   1.420036
    13  H    1.082401   2.158398   2.922517   3.104371   2.556709
                    6          7          8          9         10
     6  H    0.000000
     7  H    1.799233   0.000000
     8  H    2.419567   3.013106   0.000000
     9  H    4.237576   3.937413   2.402219   0.000000
    10  H    4.850443   4.181911   4.074262   2.402216   0.000000
    11  H    4.337592   3.491484   4.850438   4.237571   2.419559
    12  H    2.173695   1.755715   3.050672   3.497879   3.050658
    13  H    3.491487   2.064103   4.181933   3.937425   3.013095
                   11         12         13
    11  H    0.000000
    12  H    2.173672   0.000000
    13  H    1.799231   1.755704   0.000000
 Stoichiometry    C5H8
 Framework group  C1[X(C5H8)]
 Deg. of freedom    33
 Full point group                 C1      NOp   1
 Largest Abelian subgroup         C1      NOp   1
 Largest concise Abelian subgroup C1      NOp   1
                         Standard orientation:                         
 ---------------------------------------------------------------------
 Center     Atomic      Atomic             Coordinates (Angstroms)
 Number     Number       Type             X           Y           Z
 ---------------------------------------------------------------------
      1          6           0       -1.299623   -0.904855   -0.020155
      2          6           0       -1.205947    0.505819   -0.013414
      3          6           0        0.000001    1.183362    0.153301
      4          6           0        1.205947    0.505813   -0.013422
      5          6           0        1.299627   -0.904851   -0.020147
      6          1           0        2.168795   -1.327554   -0.515697
      7          1           0        1.032042   -1.454386    0.873169
      8          1           0        2.037132    1.085585   -0.398504
      9          1           0        0.000003    2.262916    0.085905
     10          1           0       -2.037130    1.085588   -0.398481
     11          1           0       -2.168797   -1.327539   -0.515716
     12          1           0       -0.000012   -1.181943   -0.520808
     13          1           0       -1.032061   -1.454395    0.873158
 ---------------------------------------------------------------------
 Rotational constants (GHZ):           8.1193781           5.1373721           3.2660768
 Leave Link  202 at Wed Oct  7 14:23:35 2020, MaxMem=  2684354560 cpu:               2.0 elap:               0.7
 (Enter /udrive/faculty/rpeverati/g16/g16/l301.exe)
 Standard basis: 6-31G(d) (5D, 7F)
 Ernie: Thresh=  0.10000D-02 Tol=  0.10000D-05 Strict=F.
 There are    91 symmetry adapted cartesian basis functions of A   symmetry.
 There are    86 symmetry adapted basis functions of A   symmetry.
    86 basis functions,   172 primitive gaussians,    91 cartesian basis functions
    19 alpha electrons       19 beta electrons
       nuclear repulsion energy       164.9366301686 Hartrees.
 IExCor= 4336 DFT=T Ex+Corr=M062X ExCW=0 ScaHFX=  0.540000
 ScaDFX=  1.000000  1.000000  1.000000  1.000000 ScalE2=  1.000000  1.000000
 IRadAn=      5 IRanWt=     -1 IRanGd=            0 ICorTp=0 IEmpDi=131
 NAtoms=   13 NActive=   13 NUniq=   13 SFac= 1.00D+00 NAtFMM=   60 NAOKFM=F Big=F
 Integral buffers will be    131072 words long.
 Raffenetti 2 integral format.
 Two-electron integral symmetry is turned on.
 R6Disp:  Grimme-D3 Dispersion energy=       -0.0001437999 Hartrees.
 Nuclear repulsion after empirical dispersion term =      164.9364863687 Hartrees.
 Leave Link  301 at Wed Oct  7 14:23:36 2020, MaxMem=  2684354560 cpu:               2.7 elap:               0.7
 (Enter /udrive/faculty/rpeverati/g16/g16/l302.exe)
 NPDir=0 NMtPBC=     1 NCelOv=     1 NCel=       1 NClECP=     1 NCelD=      1
         NCelK=      1 NCelE2=     1 NClLst=     1 CellRange=     0.0.
 One-electron integrals computed using PRISM.
 One-electron integral symmetry used in STVInt
 NBasis=    86 RedAO= T EigKep=  2.82D-03  NBF=    86
 NBsUse=    86 1.00D-06 EigRej= -1.00D+00 NBFU=    86
 Precomputing XC quadrature grid using
 IXCGrd= 4 IRadAn=           5 IRanWt=          -1 IRanGd=           0 AccXCQ= 0.00D+00.
 Generated NRdTot=       0 NPtTot=           0 NUsed=           0 NTot=          32
 NSgBfM=    91    91    91    91    91 MxSgAt=    13 MxSgA2=    13.
 Leave Link  302 at Wed Oct  7 14:23:38 2020, MaxMem=  2684354560 cpu:               5.9 elap:               1.0
 (Enter /udrive/faculty/rpeverati/g16/g16/l303.exe)
 DipDrv:  MaxL=1.
 Leave Link  303 at Wed Oct  7 14:23:39 2020, MaxMem=  2684354560 cpu:               2.7 elap:               0.7
 (Enter /udrive/faculty/rpeverati/g16/g16/l401.exe)
 SCF N**3 symmetry information disabled.
 ExpMin= 1.61D-01 ExpMax= 3.05D+03 ExpMxC= 4.57D+02 IAcc=3 IRadAn=         5 AccDes= 0.00D+00
 Harris functional with IExCor= 1009 and IRadAn=       5 diagonalized for initial guess.
 HarFok:  IExCor= 1009 AccDes= 0.00D+00 IRadAn=         5 IDoV= 1 UseB2=F ITyADJ=14
 ICtDFT=  3500011 ScaDFX=  1.000000  1.000000  1.000000  1.000000
 FoFCou: FMM=F IPFlag=           0 FMFlag=      100000 FMFlg1=           0
         NFxFlg=           0 DoJE=T BraDBF=F KetDBF=T FulRan=T
         wScrn=  0.000000 ICntrl=       500 IOpCl=  0 I1Cent=   200000004 NGrid=           0
         NMat0=    1 NMatS0=      1 NMatT0=    0 NMatD0=    1 NMtDS0=    0 NMtDT0=    0
 Petite list used in FoFCou.
 Harris En= -195.103118617764    
 JPrj=0 DoOrth=F DoCkMO=F.
 Leave Link  401 at Wed Oct  7 14:23:40 2020, MaxMem=  2684354560 cpu:              12.6 elap:               1.5
 (Enter /udrive/faculty/rpeverati/g16/g16/l502.exe)
 Integral symmetry usage will be decided dynamically.
 Closed shell SCF:
 Using DIIS extrapolation, IDIIS=  1040.
 NGot=  2684354560 LenX=  2684335663 LenY=  2684326941
 Requested convergence on RMS density matrix=1.00D-08 within 120 cycles.
 Requested convergence on MAX density matrix=1.00D-06.
 Requested convergence on             energy=1.00D-06.
 No special actions if energy rises.
 Fock matrices will be formed incrementally for  20 cycles.
 Integral accuracy reduced to 1.0D-05 until final iterations.

 Cycle   1  Pass 0  IDiag  1:
 FoFJK:  IHMeth= 1 ICntrl=       0 DoSepK=F KAlg= 0 I1Cent=           0 FoldK=F
 IRaf= 990000000 NMat=       1 IRICut=       1 DoRegI=T DoRafI=F ISym2E= 0 IDoP0=0 IntGTp=1.
 FoFCou: FMM=F IPFlag=           0 FMFlag=      100000 FMFlg1=           0
         NFxFlg=           0 DoJE=F BraDBF=F KetDBF=F FulRan=T
         wScrn=  0.000000 ICntrl=         0 IOpCl=  0 I1Cent=           0 NGrid=           0
         NMat0=    1 NMatS0=      1 NMatT0=    0 NMatD0=    1 NMtDS0=    0 NMtDT0=    0
 Symmetry not used in FoFCou.
 E= -194.970795341764    
 DIIS: error= 3.89D-02 at cycle   1 NSaved=   1.
 NSaved= 1 IEnMin= 1 EnMin= -194.970795341764     IErMin= 1 ErrMin= 3.89D-02
 ErrMax= 3.89D-02  0.00D+00 EMaxC= 1.00D-01 BMatC= 1.44D-01 BMatP= 1.44D-01
 IDIUse=3 WtCom= 6.11D-01 WtEn= 3.89D-01
 Coeff-Com:  0.100D+01
 Coeff-En:   0.100D+01
 Coeff:      0.100D+01
 Gap=     0.289 Goal=   None    Shift=    0.000
 GapD=    0.289 DampG=1.000 DampE=0.500 DampFc=0.5000 IDamp=-1.
 Damping current iteration by 5.00D-01
 RMSDP=7.80D-03 MaxDP=1.01D-01              OVMax= 1.30D-01

 Cycle   2  Pass 0  IDiag  1:
 RMSU=  3.81D-03    CP:  9.77D-01
 E= -195.058818277736     Delta-E=       -0.088022935971 Rises=F Damp=T
 DIIS: error= 6.05D-03 at cycle   2 NSaved=   2.
 NSaved= 2 IEnMin= 2 EnMin= -195.058818277736     IErMin= 2 ErrMin= 6.05D-03
 ErrMax= 6.05D-03  0.00D+00 EMaxC= 1.00D-01 BMatC= 6.63D-03 BMatP= 1.44D-01
 IDIUse=3 WtCom= 9.39D-01 WtEn= 6.05D-02
 Coeff-Com: -0.137D+00 0.114D+01
 Coeff-En:   0.000D+00 0.100D+01
 Coeff:     -0.129D+00 0.113D+01
 Gap=     0.289 Goal=   None    Shift=    0.000
 RMSDP=1.41D-03 MaxDP=1.23D-02 DE=-8.80D-02 OVMax= 5.82D-02

 Cycle   3  Pass 0  IDiag  1:
 RMSU=  1.29D-03    CP:  9.71D-01  1.14D+00
 E= -195.135022646904     Delta-E=       -0.076204369169 Rises=F Damp=F
 DIIS: error= 1.75D-03 at cycle   3 NSaved=   3.
 NSaved= 3 IEnMin= 3 EnMin= -195.135022646904     IErMin= 3 ErrMin= 1.75D-03
 ErrMax= 1.75D-03  0.00D+00 EMaxC= 1.00D-01 BMatC= 2.85D-04 BMatP= 6.63D-03
 IDIUse=3 WtCom= 9.83D-01 WtEn= 1.75D-02
 Coeff-Com: -0.301D-01 0.154D+00 0.876D+00
 Coeff-En:   0.000D+00 0.000D+00 0.100D+01
 Coeff:     -0.296D-01 0.152D+00 0.878D+00
 Gap=     0.286 Goal=   None    Shift=    0.000
 RMSDP=3.17D-04 MaxDP=4.02D-03 DE=-7.62D-02 OVMax= 6.62D-03

 Cycle   4  Pass 0  IDiag  1:
 RMSU=  2.81D-04    CP:  9.70D-01  1.16D+00  9.09D-01
 E= -195.135261363777     Delta-E=       -0.000238716873 Rises=F Damp=F
 DIIS: error= 5.96D-04 at cycle   4 NSaved=   4.
 NSaved= 4 IEnMin= 4 EnMin= -195.135261363777     IErMin= 4 ErrMin= 5.96D-04
 ErrMax= 5.96D-04  0.00D+00 EMaxC= 1.00D-01 BMatC= 3.17D-05 BMatP= 2.85D-04
 IDIUse=3 WtCom= 9.94D-01 WtEn= 5.96D-03
 Coeff-Com: -0.135D-02 0.250D-03 0.232D+00 0.769D+00
 Coeff-En:   0.000D+00 0.000D+00 0.000D+00 0.100D+01
 Coeff:     -0.135D-02 0.249D-03 0.230D+00 0.771D+00
 Gap=     0.286 Goal=   None    Shift=    0.000
 RMSDP=1.20D-04 MaxDP=1.01D-03 DE=-2.39D-04 OVMax= 3.08D-03

 Cycle   5  Pass 0  IDiag  1:
 RMSU=  6.87D-05    CP:  9.70D-01  1.16D+00  9.36D-01  6.73D-01
 E= -195.135288025699     Delta-E=       -0.000026661922 Rises=F Damp=F
 DIIS: error= 3.37D-04 at cycle   5 NSaved=   5.
 NSaved= 5 IEnMin= 5 EnMin= -195.135288025699     IErMin= 5 ErrMin= 3.37D-04
 ErrMax= 3.37D-04  0.00D+00 EMaxC= 1.00D-01 BMatC= 6.90D-06 BMatP= 3.17D-05
 IDIUse=3 WtCom= 9.97D-01 WtEn= 3.37D-03
 Coeff-Com:  0.326D-03-0.382D-02 0.876D-01 0.388D+00 0.528D+00
 Coeff-En:   0.000D+00 0.000D+00 0.000D+00 0.746D-01 0.925D+00
 Coeff:      0.324D-03-0.381D-02 0.873D-01 0.387D+00 0.529D+00
 Gap=     0.286 Goal=   None    Shift=    0.000
 RMSDP=3.94D-05 MaxDP=3.62D-04 DE=-2.67D-05 OVMax= 1.86D-03

 Cycle   6  Pass 0  IDiag  1:
 RMSU=  2.13D-05    CP:  9.70D-01  1.16D+00  9.44D-01  7.45D-01  6.53D-01
 E= -195.135296148401     Delta-E=       -0.000008122703 Rises=F Damp=F
 DIIS: error= 5.35D-05 at cycle   6 NSaved=   6.
 NSaved= 6 IEnMin= 6 EnMin= -195.135296148401     IErMin= 6 ErrMin= 5.35D-05
 ErrMax= 5.35D-05  0.00D+00 EMaxC= 1.00D-01 BMatC= 3.70D-07 BMatP= 6.90D-06
 IDIUse=1 WtCom= 1.00D+00 WtEn= 0.00D+00
 Coeff-Com:  0.634D-03-0.197D-02-0.578D-02 0.130D-01 0.183D+00 0.811D+00
 Coeff:      0.634D-03-0.197D-02-0.578D-02 0.130D-01 0.183D+00 0.811D+00
 Gap=     0.286 Goal=   None    Shift=    0.000
 RMSDP=7.09D-06 MaxDP=9.67D-05 DE=-8.12D-06 OVMax= 1.41D-04

 Initial convergence to 1.0D-05 achieved.  Increase integral accuracy.
 Cycle   7  Pass 1  IDiag  1:
 E= -195.135292434775     Delta-E=        0.000003713627 Rises=F Damp=F
 DIIS: error= 1.30D-05 at cycle   1 NSaved=   1.
 NSaved= 1 IEnMin= 1 EnMin= -195.135292434775     IErMin= 1 ErrMin= 1.30D-05
 ErrMax= 1.30D-05  0.00D+00 EMaxC= 1.00D-01 BMatC= 2.64D-08 BMatP= 2.64D-08
 IDIUse=1 WtCom= 1.00D+00 WtEn= 0.00D+00
 Coeff-Com:  0.100D+01
 Coeff:      0.100D+01
 Gap=     0.286 Goal=   None    Shift=    0.000
 RMSDP=7.09D-06 MaxDP=9.67D-05 DE= 3.71D-06 OVMax= 9.27D-05

 Cycle   8  Pass 1  IDiag  1:
 RMSU=  4.82D-06    CP:  1.00D+00
 E= -195.135292469593     Delta-E=       -0.000000034818 Rises=F Damp=F
 DIIS: error= 1.23D-05 at cycle   2 NSaved=   2.
 NSaved= 2 IEnMin= 2 EnMin= -195.135292469593     IErMin= 2 ErrMin= 1.23D-05
 ErrMax= 1.23D-05  0.00D+00 EMaxC= 1.00D-01 BMatC= 7.21D-09 BMatP= 2.64D-08
 IDIUse=1 WtCom= 1.00D+00 WtEn= 0.00D+00
 Coeff-Com:  0.276D+00 0.724D+00
 Coeff:      0.276D+00 0.724D+00
 Gap=     0.286 Goal=   None    Shift=    0.000
 RMSDP=2.06D-06 MaxDP=2.24D-05 DE=-3.48D-08 OVMax= 1.11D-04

 Cycle   9  Pass 1  IDiag  1:
 RMSU=  2.05D-06    CP:  1.00D+00  9.54D-01
 E= -195.135292476887     Delta-E=       -0.000000007293 Rises=F Damp=F
 DIIS: error= 6.71D-06 at cycle   3 NSaved=   3.
 NSaved= 3 IEnMin= 3 EnMin= -195.135292476887     IErMin= 3 ErrMin= 6.71D-06
 ErrMax= 6.71D-06  0.00D+00 EMaxC= 1.00D-01 BMatC= 4.69D-09 BMatP= 7.21D-09
 IDIUse=1 WtCom= 1.00D+00 WtEn= 0.00D+00
 Coeff-Com: -0.627D-01 0.438D+00 0.625D+00
 Coeff:     -0.627D-01 0.438D+00 0.625D+00
 Gap=     0.286 Goal=   None    Shift=    0.000
 RMSDP=7.71D-07 MaxDP=9.77D-06 DE=-7.29D-09 OVMax= 1.84D-05

 Cycle  10  Pass 1  IDiag  1:
 RMSU=  4.86D-07    CP:  1.00D+00  1.06D+00  8.30D-01
 E= -195.135292481851     Delta-E=       -0.000000004964 Rises=F Damp=F
 DIIS: error= 1.21D-06 at cycle   4 NSaved=   4.
 NSaved= 4 IEnMin= 4 EnMin= -195.135292481851     IErMin= 4 ErrMin= 1.21D-06
 ErrMax= 1.21D-06  0.00D+00 EMaxC= 1.00D-01 BMatC= 1.30D-10 BMatP= 4.69D-09
 IDIUse=1 WtCom= 1.00D+00 WtEn= 0.00D+00
 Coeff-Com: -0.333D-01 0.730D-01 0.203D-01 0.940D+00
 Coeff:     -0.333D-01 0.730D-01 0.203D-01 0.940D+00
 Gap=     0.286 Goal=   None    Shift=    0.000
 RMSDP=2.49D-07 MaxDP=3.20D-06 DE=-4.96D-09 OVMax= 7.95D-06

 Cycle  11  Pass 1  IDiag  1:
 RMSU=  1.74D-07    CP:  1.00D+00  1.08D+00  8.35D-01  1.21D+00
 E= -195.135292482056     Delta-E=       -0.000000000205 Rises=F Damp=F
 DIIS: error= 4.71D-07 at cycle   5 NSaved=   5.
 NSaved= 5 IEnMin= 5 EnMin= -195.135292482056     IErMin= 5 ErrMin= 4.71D-07
 ErrMax= 4.71D-07  0.00D+00 EMaxC= 1.00D-01 BMatC= 2.62D-11 BMatP= 1.30D-10
 IDIUse=1 WtCom= 1.00D+00 WtEn= 0.00D+00
 Coeff-Com:  0.241D-02-0.249D-01-0.113D+00 0.221D+00 0.915D+00
 Coeff:      0.241D-02-0.249D-01-0.113D+00 0.221D+00 0.915D+00
 Gap=     0.286 Goal=   None    Shift=    0.000
 RMSDP=1.14D-07 MaxDP=1.61D-06 DE=-2.05D-10 OVMax= 3.48D-06

 Cycle  12  Pass 1  IDiag  1:
 RMSU=  4.20D-08    CP:  1.00D+00  1.09D+00  8.36D-01  1.41D+00  1.07D+00
 E= -195.135292482093     Delta-E=       -0.000000000037 Rises=F Damp=F
 DIIS: error= 2.01D-07 at cycle   6 NSaved=   6.
 NSaved= 6 IEnMin= 6 EnMin= -195.135292482093     IErMin= 6 ErrMin= 2.01D-07
 ErrMax= 2.01D-07  0.00D+00 EMaxC= 1.00D-01 BMatC= 3.36D-12 BMatP= 2.62D-11
 IDIUse=1 WtCom= 1.00D+00 WtEn= 0.00D+00
 Coeff-Com:  0.412D-02-0.198D-01-0.633D-01 0.112D-01 0.432D+00 0.636D+00
 Coeff:      0.412D-02-0.198D-01-0.633D-01 0.112D-01 0.432D+00 0.636D+00
 Gap=     0.286 Goal=   None    Shift=    0.000
 RMSDP=2.47D-08 MaxDP=3.50D-07 DE=-3.73D-11 OVMax= 7.72D-07

 Cycle  13  Pass 1  IDiag  1:
 RMSU=  1.22D-08    CP:  1.00D+00  1.09D+00  8.39D-01  1.45D+00  1.12D+00
                    CP:  8.50D-01
 E= -195.135292482100     Delta-E=       -0.000000000007 Rises=F Damp=F
 DIIS: error= 1.89D-08 at cycle   7 NSaved=   7.
 NSaved= 7 IEnMin= 7 EnMin= -195.135292482100     IErMin= 7 ErrMin= 1.89D-08
 ErrMax= 1.89D-08  0.00D+00 EMaxC= 1.00D-01 BMatC= 4.71D-14 BMatP= 3.36D-12
 IDIUse=1 WtCom= 1.00D+00 WtEn= 0.00D+00
 Coeff-Com:  0.202D-03 0.793D-03 0.280D-03-0.138D-01-0.105D-01 0.583D-01
 Coeff-Com:  0.965D+00
 Coeff:      0.202D-03 0.793D-03 0.280D-03-0.138D-01-0.105D-01 0.583D-01
 Coeff:      0.965D+00
 Gap=     0.286 Goal=   None    Shift=    0.000
 RMSDP=4.82D-09 MaxDP=5.10D-08 DE=-6.71D-12 OVMax= 1.43D-07

 SCF Done:  E(RM062X) =  -195.135292482     A.U. after   13 cycles
            NFock= 13  Conv=0.48D-08     -V/T= 2.0059
 KE= 1.939853176967D+02 PE=-7.814795116763D+02 EE= 2.274224151289D+02
 Leave Link  502 at Wed Oct  7 14:23:55 2020, MaxMem=  2684354560 cpu:             158.0 elap:              13.7
 (Enter /udrive/faculty/rpeverati/g16/g16/l508.exe)
 QCSCF skips out because SCF is already converged.
 Leave Link  508 at Wed Oct  7 14:23:55 2020, MaxMem=  2684354560 cpu:               0.3 elap:               0.5
 (Enter /udrive/faculty/rpeverati/g16/g16/l601.exe)
 Copying SCF densities to generalized density rwf, IOpCl= 0 IROHF=0.

 **********************************************************************

            Population analysis using the SCF density.

 **********************************************************************

 Orbital symmetries:
       Occupied  (A) (A) (A) (A) (A) (A) (A) (A) (A) (A) (A) (A)
                 (A) (A) (A) (A) (A) (A) (A)
       Virtual   (A) (A) (A) (A) (A) (A) (A) (A) (A) (A) (A) (A)
                 (A) (A) (A) (A) (A) (A) (A) (A) (A) (A) (A) (A)
                 (A) (A) (A) (A) (A) (A) (A) (A) (A) (A) (A) (A)
                 (A) (A) (A) (A) (A) (A) (A) (A) (A) (A) (A) (A)
                 (A) (A) (A) (A) (A) (A) (A) (A) (A) (A) (A) (A)
                 (A) (A) (A) (A) (A) (A) (A)
 The electronic state is 1-A.
 Alpha  occ. eigenvalues --  -10.54627 -10.54626 -10.53659 -10.53616 -10.53616
 Alpha  occ. eigenvalues --   -0.92372  -0.83121  -0.77969  -0.66810  -0.60460
 Alpha  occ. eigenvalues --   -0.56649  -0.48967  -0.47522  -0.47492  -0.45046
 Alpha  occ. eigenvalues --   -0.42071  -0.40656  -0.30726  -0.26810
 Alpha virt. eigenvalues --    0.01791   0.07276   0.14230   0.17254   0.19348
 Alpha virt. eigenvalues --    0.22400   0.23602   0.23721   0.27026   0.28919
 Alpha virt. eigenvalues --    0.32173   0.34408   0.39520   0.46689   0.55370
 Alpha virt. eigenvalues --    0.56558   0.59348   0.62761   0.64517   0.67090
 Alpha virt. eigenvalues --    0.67288   0.68366   0.73939   0.75346   0.78413
 Alpha virt. eigenvalues --    0.78930   0.86877   0.91970   0.92849   0.93825
 Alpha virt. eigenvalues --    0.94334   0.98319   0.98776   0.99931   1.01618
 Alpha virt. eigenvalues --    1.07744   1.08784   1.13672   1.21074   1.26820
 Alpha virt. eigenvalues --    1.29891   1.35751   1.52768   1.59376   1.63168
 Alpha virt. eigenvalues --    1.67643   1.81292   1.88219   1.95420   1.96792
 Alpha virt. eigenvalues --    1.99497   2.01323   2.11200   2.11941   2.14020
 Alpha virt. eigenvalues --    2.21545   2.26194   2.29020   2.37250   2.44681
 Alpha virt. eigenvalues --    2.53536   2.59732   2.63945   2.66048   2.68470
 Alpha virt. eigenvalues --    2.89446   3.10335
          Condensed to atoms (all electrons):
               1          2          3          4          5          6
     1  C    5.304960   0.482674  -0.041508  -0.046957  -0.079742   0.002800
     2  C    0.482674   4.884942   0.564487  -0.029886  -0.046956   0.000830
     3  C   -0.041508   0.564487   4.840348   0.564478  -0.041508   0.003350
     4  C   -0.046957  -0.029886   0.564478   4.884938   0.482685  -0.026095
     5  C   -0.079742  -0.046956  -0.041508   0.482685   5.304961   0.364447
     6  H    0.002800   0.000830   0.003350  -0.026095   0.364447   0.526535
     7  H   -0.014548   0.001004  -0.003103  -0.036474   0.396023  -0.033451
     8  H   -0.000073   0.003347  -0.039205   0.384795  -0.048292  -0.005870
     9  H    0.005765  -0.044280   0.376802  -0.044280   0.005765  -0.000150
    10  H   -0.048292   0.384796  -0.039205   0.003347  -0.000073   0.000017
    11  H    0.364446  -0.026095   0.003350   0.000830   0.002800  -0.000102
    12  H    0.188208  -0.033186  -0.021358  -0.033184   0.188190   0.000352
    13  H    0.396022  -0.036473  -0.003103   0.001004  -0.014547   0.000491
               7          8          9         10         11         12
     1  C   -0.014548  -0.000073   0.005765  -0.048292   0.364446   0.188208
     2  C    0.001004   0.003347  -0.044280   0.384796  -0.026095  -0.033186
     3  C   -0.003103  -0.039205   0.376802  -0.039205   0.003350  -0.021358
     4  C   -0.036474   0.384795  -0.044280   0.003347   0.000830  -0.033184
     5  C    0.396023  -0.048292   0.005765  -0.000073   0.002800   0.188190
     6  H   -0.033451  -0.005870  -0.000150   0.000017  -0.000102   0.000352
     7  H    0.526124   0.002865  -0.000053  -0.000139   0.000491  -0.042007
     8  H    0.002865   0.540984  -0.006038  -0.000260   0.000017   0.002513
     9  H   -0.000053  -0.006038   0.559434  -0.006038  -0.000150  -0.000033
    10  H   -0.000139  -0.000260  -0.006038   0.540983  -0.005870   0.002513
    11  H    0.000491   0.000017  -0.000150  -0.005870   0.526537   0.000352
    12  H   -0.042007   0.002513  -0.000033   0.002513   0.000352   0.600753
    13  H    0.005702  -0.000139  -0.000053   0.002865  -0.033451  -0.042008
              13
     1  C    0.396022
     2  C   -0.036473
     3  C   -0.003103
     4  C    0.001004
     5  C   -0.014547
     6  H    0.000491
     7  H    0.005702
     8  H   -0.000139
     9  H   -0.000053
    10  H    0.002865
    11  H   -0.033451
    12  H   -0.042008
    13  H    0.526124
 Mulliken charges:
               1
     1  C   -0.513756
     2  C   -0.105204
     3  C   -0.163827
     4  C   -0.105202
     5  C   -0.513752
     6  H    0.166845
     7  H    0.197567
     8  H    0.165356
     9  H    0.153309
    10  H    0.165357
    11  H    0.166844
    12  H    0.188895
    13  H    0.197567
 Sum of Mulliken charges =  -0.00000
 Mulliken charges with hydrogens summed into heavy atoms:
               1
     1  C    0.039550
     2  C    0.060153
     3  C   -0.010518
     4  C    0.060155
     5  C   -0.149340
 Electronic spatial extent (au):  <R**2>=            420.7452
 Charge=             -0.0000 electrons
 Dipole moment (field-independent basis, Debye):
    X=              0.0000    Y=             -0.0335    Z=             -0.1732  Tot=              0.1764
 Quadrupole moment (field-independent basis, Debye-Ang):
   XX=            -30.1443   YY=            -29.8493   ZZ=            -33.8361
   XY=             -0.0000   XZ=             -0.0000   YZ=             -1.3883
 Traceless Quadrupole moment (field-independent basis, Debye-Ang):
   XX=              1.1323   YY=              1.4273   ZZ=             -2.5595
   XY=             -0.0000   XZ=             -0.0000   YZ=             -1.3883
 Octapole moment (field-independent basis, Debye-Ang**2):
  XXX=             -0.0001  YYY=              4.0664  ZZZ=              0.6762  XYY=              0.0001
  XXY=              0.5697  XXZ=             -5.1797  XZZ=             -0.0000  YZZ=             -1.7953
  YYZ=              0.9524  XYZ=              0.0000
 Hexadecapole moment (field-independent basis, Debye-Ang**3):
 XXXX=           -303.2751 YYYY=           -209.3612 ZZZZ=            -48.3608 XXXY=             -0.0003
 XXXZ=             -0.0001 YYYX=             -0.0002 YYYZ=             -4.4942 ZZZX=              0.0000
 ZZZY=             -3.2767 XXYY=            -82.3606 XXZZ=            -61.9347 YYZZ=            -44.8547
 XXYZ=             -0.1377 YYXZ=             -0.0001 ZZXY=              0.0000
 N-N= 1.649364863687D+02 E-N=-7.814795135223D+02  KE= 1.939853176967D+02
 No NMR shielding tensors so no spin-rotation constants.
 Leave Link  601 at Wed Oct  7 14:23:57 2020, MaxMem=  2684354560 cpu:               4.8 elap:               0.9
 (Enter /udrive/faculty/rpeverati/g16/g16/l701.exe)
 ... and contract with generalized density number  0.
 Compute integral first derivatives.
 R6Disp: Adding Grimme-D3 dispersion energy 1st derivatives to the gradient.
 Leave Link  701 at Wed Oct  7 14:23:58 2020, MaxMem=  2684354560 cpu:               4.9 elap:               0.9
 (Enter /udrive/faculty/rpeverati/g16/g16/l702.exe)
 L702 exits ... SP integral derivatives will be done elsewhere.
 Leave Link  702 at Wed Oct  7 14:23:59 2020, MaxMem=  2684354560 cpu:               1.7 elap:               0.6
 (Enter /udrive/faculty/rpeverati/g16/g16/l703.exe)
 Integral derivatives from FoFJK, PRISM(SPDF).
 Compute integral first derivatives, UseDBF=F ICtDFT=           0.
 Calling FoFJK, ICntrl=      2127 FMM=F ISym2X=0 I1Cent= 0 IOpClX= 0 NMat=1 NMatS=1 NMatT=0.
 FoFJK:  IHMeth= 1 ICntrl=    2127 DoSepK=F KAlg= 0 I1Cent=           0 FoldK=F
 IRaf=         0 NMat=       1 IRICut=       1 DoRegI=T DoRafI=F ISym2E= 0 IDoP0=0 IntGTp=1.
 FoFCou: FMM=F IPFlag=           0 FMFlag=      100000 FMFlg1=         800
         NFxFlg=           0 DoJE=F BraDBF=F KetDBF=F FulRan=T
         wScrn=  0.000000 ICntrl=      2127 IOpCl=  0 I1Cent=           0 NGrid=           0
         NMat0=    1 NMatS0=      1 NMatT0=    0 NMatD0=    1 NMtDS0=    0 NMtDT0=    0
 Symmetry not used in FoFCou.
 Leave Link  703 at Wed Oct  7 14:24:02 2020, MaxMem=  2684354560 cpu:              30.1 elap:               2.9
 (Enter /udrive/faculty/rpeverati/g16/g16/l716.exe)
 Dipole        = 2.67702003D-07-1.31930503D-02-6.81410562D-02
 ***** Axes restored to original set *****
 -------------------------------------------------------------------
 Center     Atomic                   Forces (Hartrees/Bohr)
 Number     Number              X              Y              Z
 -------------------------------------------------------------------
      1        6           0.000148486    0.004361289   -0.001848108
      2        6           0.001893438   -0.002922176    0.001121730
      3        6          -0.000001836   -0.001989265    0.000781992
      4        6          -0.001887157   -0.002919800    0.001119918
      5        6          -0.000147064    0.004360214   -0.001841836
      6        1           0.001722775   -0.001202553   -0.000951227
      7        1          -0.000294277   -0.001761150    0.003162874
      8        1           0.002340200    0.001532745   -0.001077495
      9        1          -0.000000034    0.003028576   -0.000266524
     10        1          -0.002344179    0.001535495   -0.001078347
     11        1          -0.001720859   -0.001202545   -0.000950330
     12        1          -0.000003627   -0.001058365   -0.001339155
     13        1           0.000294132   -0.001762465    0.003166508
 -------------------------------------------------------------------
 Cartesian Forces:  Max     0.004361289 RMS     0.001917372
 Leave Link  716 at Wed Oct  7 14:24:03 2020, MaxMem=  2684354560 cpu:               2.3 elap:               0.9
 (Enter /udrive/faculty/rpeverati/g16/g16/l103.exe)

 GradGradGradGradGradGradGradGradGradGradGradGradGradGradGradGradGradGrad
 Berny optimization.
 Optmz: redundant internal coordinate code flag= 1
 FormGI is forming the generalized inverse of G from B-inverse, IUseBI=4.
 Internal  Forces:  Max     0.003581036 RMS     0.001084443
 Search for a saddle point.
 Step number   1 out of a maximum of   50
 All quantities printed in internal units (Hartrees-Bohrs-Radians)
 Swapping is turned off.
 Second derivative matrix not updated -- first step.
 The second derivative matrix:
                          R1        R2        R3        R4        R5
           R1           0.43409
           R2           0.00000   0.35262
           R3           0.00000   0.00000   0.13683
           R4           0.00000   0.00000   0.00000   0.35706
           R5           0.00000   0.00000   0.00000   0.00000   0.46756
           R6           0.00000   0.00000   0.00000   0.00000   0.00000
           R7           0.00000   0.00000   0.00000   0.00000   0.00000
           R8           0.00000   0.00000   0.00000   0.00000   0.00000
           R9           0.00000   0.00000   0.00000   0.00000   0.00000
           R10          0.00000   0.00000   0.00000   0.00000   0.00000
           R11          0.00000   0.00000   0.00000   0.00000   0.00000
           R12          0.00000   0.00000   0.00000   0.00000   0.00000
           R13          0.00000   0.00000   0.00000   0.00000   0.00000
           A1           0.00000   0.00000   0.00000   0.00000   0.00000
           A2           0.00000   0.00000   0.00000   0.00000   0.00000
           A3           0.00000   0.00000   0.00000   0.00000   0.00000
           A4           0.00000   0.00000   0.00000   0.00000   0.00000
           A5           0.00000   0.00000   0.00000   0.00000   0.00000
           A6           0.00000   0.00000   0.00000   0.00000   0.00000
           A7           0.00000   0.00000   0.00000   0.00000   0.00000
           A8           0.00000   0.00000   0.00000   0.00000   0.00000
           A9           0.00000   0.00000   0.00000   0.00000   0.00000
           A10          0.00000   0.00000   0.00000   0.00000   0.00000
           A11          0.00000   0.00000   0.00000   0.00000   0.00000
           A12          0.00000   0.00000   0.00000   0.00000   0.00000
           A13          0.00000   0.00000   0.00000   0.00000   0.00000
           A14          0.00000   0.00000   0.00000   0.00000   0.00000
           A15          0.00000   0.00000   0.00000   0.00000   0.00000
           A16          0.00000   0.00000   0.00000   0.00000   0.00000
           A17          0.00000   0.00000   0.00000   0.00000   0.00000
           A18          0.00000   0.00000   0.00000   0.00000   0.00000
           A19          0.00000   0.00000   0.00000   0.00000   0.00000
           A20          0.00000   0.00000   0.00000   0.00000   0.00000
           A21          0.00000   0.00000   0.00000   0.00000   0.00000
           A22          0.00000   0.00000   0.00000   0.00000   0.00000
           D1           0.00000   0.00000   0.00000   0.00000   0.00000
           D2           0.00000   0.00000   0.00000   0.00000   0.00000
           D3           0.00000   0.00000   0.00000   0.00000   0.00000
           D4           0.00000   0.00000   0.00000   0.00000   0.00000
           D5           0.00000   0.00000   0.00000   0.00000   0.00000
           D6           0.00000   0.00000   0.00000   0.00000   0.00000
           D7           0.00000   0.00000   0.00000   0.00000   0.00000
           D8           0.00000   0.00000   0.00000   0.00000   0.00000
           D9           0.00000   0.00000   0.00000   0.00000   0.00000
           D10          0.00000   0.00000   0.00000   0.00000   0.00000
           D11          0.00000   0.00000   0.00000   0.00000   0.00000
           D12          0.00000   0.00000   0.00000   0.00000   0.00000
           D13          0.00000   0.00000   0.00000   0.00000   0.00000
           D14          0.00000   0.00000   0.00000   0.00000   0.00000
           D15          0.00000   0.00000   0.00000   0.00000   0.00000
           D16          0.00000   0.00000   0.00000   0.00000   0.00000
           D17          0.00000   0.00000   0.00000   0.00000   0.00000
           D18          0.00000   0.00000   0.00000   0.00000   0.00000
           D19          0.00000   0.00000   0.00000   0.00000   0.00000
           D20          0.00000   0.00000   0.00000   0.00000   0.00000
           D21          0.00000   0.00000   0.00000   0.00000   0.00000
           D22          0.00000   0.00000   0.00000   0.00000   0.00000
           D23          0.00000   0.00000   0.00000   0.00000   0.00000
           D24          0.00000   0.00000   0.00000   0.00000   0.00000
           D25          0.00000   0.00000   0.00000   0.00000   0.00000
           D26          0.00000   0.00000   0.00000   0.00000   0.00000
                          R6        R7        R8        R9        R10
           R6           0.35503
           R7           0.00000   0.46756
           R8           0.00000   0.00000   0.35795
           R9           0.00000   0.00000   0.00000   0.43410
           R10          0.00000   0.00000   0.00000   0.00000   0.35502
           R11          0.00000   0.00000   0.00000   0.00000   0.00000
           R12          0.00000   0.00000   0.00000   0.00000   0.00000
           R13          0.00000   0.00000   0.00000   0.00000   0.00000
           A1           0.00000   0.00000   0.00000   0.00000   0.00000
           A2           0.00000   0.00000   0.00000   0.00000   0.00000
           A3           0.00000   0.00000   0.00000   0.00000   0.00000
           A4           0.00000   0.00000   0.00000   0.00000   0.00000
           A5           0.00000   0.00000   0.00000   0.00000   0.00000
           A6           0.00000   0.00000   0.00000   0.00000   0.00000
           A7           0.00000   0.00000   0.00000   0.00000   0.00000
           A8           0.00000   0.00000   0.00000   0.00000   0.00000
           A9           0.00000   0.00000   0.00000   0.00000   0.00000
           A10          0.00000   0.00000   0.00000   0.00000   0.00000
           A11          0.00000   0.00000   0.00000   0.00000   0.00000
           A12          0.00000   0.00000   0.00000   0.00000   0.00000
           A13          0.00000   0.00000   0.00000   0.00000   0.00000
           A14          0.00000   0.00000   0.00000   0.00000   0.00000
           A15          0.00000   0.00000   0.00000   0.00000   0.00000
           A16          0.00000   0.00000   0.00000   0.00000   0.00000
           A17          0.00000   0.00000   0.00000   0.00000   0.00000
           A18          0.00000   0.00000   0.00000   0.00000   0.00000
           A19          0.00000   0.00000   0.00000   0.00000   0.00000
           A20          0.00000   0.00000   0.00000   0.00000   0.00000
           A21          0.00000   0.00000   0.00000   0.00000   0.00000
           A22          0.00000   0.00000   0.00000   0.00000   0.00000
           D1           0.00000   0.00000   0.00000   0.00000   0.00000
           D2           0.00000   0.00000   0.00000   0.00000   0.00000
           D3           0.00000   0.00000   0.00000   0.00000   0.00000
           D4           0.00000   0.00000   0.00000   0.00000   0.00000
           D5           0.00000   0.00000   0.00000   0.00000   0.00000
           D6           0.00000   0.00000   0.00000   0.00000   0.00000
           D7           0.00000   0.00000   0.00000   0.00000   0.00000
           D8           0.00000   0.00000   0.00000   0.00000   0.00000
           D9           0.00000   0.00000   0.00000   0.00000   0.00000
           D10          0.00000   0.00000   0.00000   0.00000   0.00000
           D11          0.00000   0.00000   0.00000   0.00000   0.00000
           D12          0.00000   0.00000   0.00000   0.00000   0.00000
           D13          0.00000   0.00000   0.00000   0.00000   0.00000
           D14          0.00000   0.00000   0.00000   0.00000   0.00000
           D15          0.00000   0.00000   0.00000   0.00000   0.00000
           D16          0.00000   0.00000   0.00000   0.00000   0.00000
           D17          0.00000   0.00000   0.00000   0.00000   0.00000
           D18          0.00000   0.00000   0.00000   0.00000   0.00000
           D19          0.00000   0.00000   0.00000   0.00000   0.00000
           D20          0.00000   0.00000   0.00000   0.00000   0.00000
           D21          0.00000   0.00000   0.00000   0.00000   0.00000
           D22          0.00000   0.00000   0.00000   0.00000   0.00000
           D23          0.00000   0.00000   0.00000   0.00000   0.00000
           D24          0.00000   0.00000   0.00000   0.00000   0.00000
           D25          0.00000   0.00000   0.00000   0.00000   0.00000
           D26          0.00000   0.00000   0.00000   0.00000   0.00000
                          R11       R12       R13       A1        A2
           R11          0.35263
           R12          0.00000   0.35705
           R13          0.00000   0.00000   0.13682
           A1           0.00000   0.00000   0.00000   0.16000
           A2           0.00000   0.00000   0.00000   0.00000   0.16000
           A3           0.00000   0.00000   0.00000   0.00000   0.00000
           A4           0.00000   0.00000   0.00000   0.00000   0.00000
           A5           0.00000   0.00000   0.00000   0.00000   0.00000
           A6           0.00000   0.00000   0.00000   0.00000   0.00000
           A7           0.00000   0.00000   0.00000   0.00000   0.00000
           A8           0.00000   0.00000   0.00000   0.00000   0.00000
           A9           0.00000   0.00000   0.00000   0.00000   0.00000
           A10          0.00000   0.00000   0.00000   0.00000   0.00000
           A11          0.00000   0.00000   0.00000   0.00000   0.00000
           A12          0.00000   0.00000   0.00000   0.00000   0.00000
           A13          0.00000   0.00000   0.00000   0.00000   0.00000
           A14          0.00000   0.00000   0.00000   0.00000   0.00000
           A15          0.00000   0.00000   0.00000   0.00000   0.00000
           A16          0.00000   0.00000   0.00000   0.00000   0.00000
           A17          0.00000   0.00000   0.00000   0.00000   0.00000
           A18          0.00000   0.00000   0.00000   0.00000   0.00000
           A19          0.00000   0.00000   0.00000   0.00000   0.00000
           A20          0.00000   0.00000   0.00000   0.00000   0.00000
           A21          0.00000   0.00000   0.00000   0.00000   0.00000
           A22          0.00000   0.00000   0.00000   0.00000   0.00000
           D1           0.00000   0.00000   0.00000   0.00000   0.00000
           D2           0.00000   0.00000   0.00000   0.00000   0.00000
           D3           0.00000   0.00000   0.00000   0.00000   0.00000
           D4           0.00000   0.00000   0.00000   0.00000   0.00000
           D5           0.00000   0.00000   0.00000   0.00000   0.00000
           D6           0.00000   0.00000   0.00000   0.00000   0.00000
           D7           0.00000   0.00000   0.00000   0.00000   0.00000
           D8           0.00000   0.00000   0.00000   0.00000   0.00000
           D9           0.00000   0.00000   0.00000   0.00000   0.00000
           D10          0.00000   0.00000   0.00000   0.00000   0.00000
           D11          0.00000   0.00000   0.00000   0.00000   0.00000
           D12          0.00000   0.00000   0.00000   0.00000   0.00000
           D13          0.00000   0.00000   0.00000   0.00000   0.00000
           D14          0.00000   0.00000   0.00000   0.00000   0.00000
           D15          0.00000   0.00000   0.00000   0.00000   0.00000
           D16          0.00000   0.00000   0.00000   0.00000   0.00000
           D17          0.00000   0.00000   0.00000   0.00000   0.00000
           D18          0.00000   0.00000   0.00000   0.00000   0.00000
           D19          0.00000   0.00000   0.00000   0.00000   0.00000
           D20          0.00000   0.00000   0.00000   0.00000   0.00000
           D21          0.00000   0.00000   0.00000   0.00000   0.00000
           D22          0.00000   0.00000   0.00000   0.00000   0.00000
           D23          0.00000   0.00000   0.00000   0.00000   0.00000
           D24          0.00000   0.00000   0.00000   0.00000   0.00000
           D25          0.00000   0.00000   0.00000   0.00000   0.00000
           D26          0.00000   0.00000   0.00000   0.00000   0.00000
                          A3        A4        A5        A6        A7
           A3           0.16000
           A4           0.00000   0.16000
           A5           0.00000   0.00000   0.16000
           A6           0.00000   0.00000   0.00000   0.16000
           A7           0.00000   0.00000   0.00000   0.00000   0.25000
           A8           0.00000   0.00000   0.00000   0.00000   0.00000
           A9           0.00000   0.00000   0.00000   0.00000   0.00000
           A10          0.00000   0.00000   0.00000   0.00000   0.00000
           A11          0.00000   0.00000   0.00000   0.00000   0.00000
           A12          0.00000   0.00000   0.00000   0.00000   0.00000
           A13          0.00000   0.00000   0.00000   0.00000   0.00000
           A14          0.00000   0.00000   0.00000   0.00000   0.00000
           A15          0.00000   0.00000   0.00000   0.00000   0.00000
           A16          0.00000   0.00000   0.00000   0.00000   0.00000
           A17          0.00000   0.00000   0.00000   0.00000   0.00000
           A18          0.00000   0.00000   0.00000   0.00000   0.00000
           A19          0.00000   0.00000   0.00000   0.00000   0.00000
           A20          0.00000   0.00000   0.00000   0.00000   0.00000
           A21          0.00000   0.00000   0.00000   0.00000   0.00000
           A22          0.00000   0.00000   0.00000   0.00000   0.00000
           D1           0.00000   0.00000   0.00000   0.00000   0.00000
           D2           0.00000   0.00000   0.00000   0.00000   0.00000
           D3           0.00000   0.00000   0.00000   0.00000   0.00000
           D4           0.00000   0.00000   0.00000   0.00000   0.00000
           D5           0.00000   0.00000   0.00000   0.00000   0.00000
           D6           0.00000   0.00000   0.00000   0.00000   0.00000
           D7           0.00000   0.00000   0.00000   0.00000   0.00000
           D8           0.00000   0.00000   0.00000   0.00000   0.00000
           D9           0.00000   0.00000   0.00000   0.00000   0.00000
           D10          0.00000   0.00000   0.00000   0.00000   0.00000
           D11          0.00000   0.00000   0.00000   0.00000   0.00000
           D12          0.00000   0.00000   0.00000   0.00000   0.00000
           D13          0.00000   0.00000   0.00000   0.00000   0.00000
           D14          0.00000   0.00000   0.00000   0.00000   0.00000
           D15          0.00000   0.00000   0.00000   0.00000   0.00000
           D16          0.00000   0.00000   0.00000   0.00000   0.00000
           D17          0.00000   0.00000   0.00000   0.00000   0.00000
           D18          0.00000   0.00000   0.00000   0.00000   0.00000
           D19          0.00000   0.00000   0.00000   0.00000   0.00000
           D20          0.00000   0.00000   0.00000   0.00000   0.00000
           D21          0.00000   0.00000   0.00000   0.00000   0.00000
           D22          0.00000   0.00000   0.00000   0.00000   0.00000
           D23          0.00000   0.00000   0.00000   0.00000   0.00000
           D24          0.00000   0.00000   0.00000   0.00000   0.00000
           D25          0.00000   0.00000   0.00000   0.00000   0.00000
           D26          0.00000   0.00000   0.00000   0.00000   0.00000
                          A8        A9        A10       A11       A12
           A8           0.16000
           A9           0.00000   0.16000
           A10          0.00000   0.00000   0.25000
           A11          0.00000   0.00000   0.00000   0.16000
           A12          0.00000   0.00000   0.00000   0.00000   0.16000
           A13          0.00000   0.00000   0.00000   0.00000   0.00000
           A14          0.00000   0.00000   0.00000   0.00000   0.00000
           A15          0.00000   0.00000   0.00000   0.00000   0.00000
           A16          0.00000   0.00000   0.00000   0.00000   0.00000
           A17          0.00000   0.00000   0.00000   0.00000   0.00000
           A18          0.00000   0.00000   0.00000   0.00000   0.00000
           A19          0.00000   0.00000   0.00000   0.00000   0.00000
           A20          0.00000   0.00000   0.00000   0.00000   0.00000
           A21          0.00000   0.00000   0.00000   0.00000   0.00000
           A22          0.00000   0.00000   0.00000   0.00000   0.00000
           D1           0.00000   0.00000   0.00000   0.00000   0.00000
           D2           0.00000   0.00000   0.00000   0.00000   0.00000
           D3           0.00000   0.00000   0.00000   0.00000   0.00000
           D4           0.00000   0.00000   0.00000   0.00000   0.00000
           D5           0.00000   0.00000   0.00000   0.00000   0.00000
           D6           0.00000   0.00000   0.00000   0.00000   0.00000
           D7           0.00000   0.00000   0.00000   0.00000   0.00000
           D8           0.00000   0.00000   0.00000   0.00000   0.00000
           D9           0.00000   0.00000   0.00000   0.00000   0.00000
           D10          0.00000   0.00000   0.00000   0.00000   0.00000
           D11          0.00000   0.00000   0.00000   0.00000   0.00000
           D12          0.00000   0.00000   0.00000   0.00000   0.00000
           D13          0.00000   0.00000   0.00000   0.00000   0.00000
           D14          0.00000   0.00000   0.00000   0.00000   0.00000
           D15          0.00000   0.00000   0.00000   0.00000   0.00000
           D16          0.00000   0.00000   0.00000   0.00000   0.00000
           D17          0.00000   0.00000   0.00000   0.00000   0.00000
           D18          0.00000   0.00000   0.00000   0.00000   0.00000
           D19          0.00000   0.00000   0.00000   0.00000   0.00000
           D20          0.00000   0.00000   0.00000   0.00000   0.00000
           D21          0.00000   0.00000   0.00000   0.00000   0.00000
           D22          0.00000   0.00000   0.00000   0.00000   0.00000
           D23          0.00000   0.00000   0.00000   0.00000   0.00000
           D24          0.00000   0.00000   0.00000   0.00000   0.00000
           D25          0.00000   0.00000   0.00000   0.00000   0.00000
           D26          0.00000   0.00000   0.00000   0.00000   0.00000
                          A13       A14       A15       A16       A17
           A13          0.25000
           A14          0.00000   0.16000
           A15          0.00000   0.00000   0.16000
           A16          0.00000   0.00000   0.00000   0.16000
           A17          0.00000   0.00000   0.00000   0.00000   0.16000
           A18          0.00000   0.00000   0.00000   0.00000   0.00000
           A19          0.00000   0.00000   0.00000   0.00000   0.00000
           A20          0.00000   0.00000   0.00000   0.00000   0.00000
           A21          0.00000   0.00000   0.00000   0.00000   0.00000
           A22          0.00000   0.00000   0.00000   0.00000   0.00000
           D1           0.00000   0.00000   0.00000   0.00000   0.00000
           D2           0.00000   0.00000   0.00000   0.00000   0.00000
           D3           0.00000   0.00000   0.00000   0.00000   0.00000
           D4           0.00000   0.00000   0.00000   0.00000   0.00000
           D5           0.00000   0.00000   0.00000   0.00000   0.00000
           D6           0.00000   0.00000   0.00000   0.00000   0.00000
           D7           0.00000   0.00000   0.00000   0.00000   0.00000
           D8           0.00000   0.00000   0.00000   0.00000   0.00000
           D9           0.00000   0.00000   0.00000   0.00000   0.00000
           D10          0.00000   0.00000   0.00000   0.00000   0.00000
           D11          0.00000   0.00000   0.00000   0.00000   0.00000
           D12          0.00000   0.00000   0.00000   0.00000   0.00000
           D13          0.00000   0.00000   0.00000   0.00000   0.00000
           D14          0.00000   0.00000   0.00000   0.00000   0.00000
           D15          0.00000   0.00000   0.00000   0.00000   0.00000
           D16          0.00000   0.00000   0.00000   0.00000   0.00000
           D17          0.00000   0.00000   0.00000   0.00000   0.00000
           D18          0.00000   0.00000   0.00000   0.00000   0.00000
           D19          0.00000   0.00000   0.00000   0.00000   0.00000
           D20          0.00000   0.00000   0.00000   0.00000   0.00000
           D21          0.00000   0.00000   0.00000   0.00000   0.00000
           D22          0.00000   0.00000   0.00000   0.00000   0.00000
           D23          0.00000   0.00000   0.00000   0.00000   0.00000
           D24          0.00000   0.00000   0.00000   0.00000   0.00000
           D25          0.00000   0.00000   0.00000   0.00000   0.00000
           D26          0.00000   0.00000   0.00000   0.00000   0.00000
                          A18       A19       A20       A21       A22
           A18          0.16000
           A19          0.00000   0.16000
           A20          0.00000   0.00000   0.16000
           A21          0.00000   0.00000   0.00000   0.16000
           A22          0.00000   0.00000   0.00000   0.00000   0.25000
           D1           0.00000   0.00000   0.00000   0.00000   0.00000
           D2           0.00000   0.00000   0.00000   0.00000   0.00000
           D3           0.00000   0.00000   0.00000   0.00000   0.00000
           D4           0.00000   0.00000   0.00000   0.00000   0.00000
           D5           0.00000   0.00000   0.00000   0.00000   0.00000
           D6           0.00000   0.00000   0.00000   0.00000   0.00000
           D7           0.00000   0.00000   0.00000   0.00000   0.00000
           D8           0.00000   0.00000   0.00000   0.00000   0.00000
           D9           0.00000   0.00000   0.00000   0.00000   0.00000
           D10          0.00000   0.00000   0.00000   0.00000   0.00000
           D11          0.00000   0.00000   0.00000   0.00000   0.00000
           D12          0.00000   0.00000   0.00000   0.00000   0.00000
           D13          0.00000   0.00000   0.00000   0.00000   0.00000
           D14          0.00000   0.00000   0.00000   0.00000   0.00000
           D15          0.00000   0.00000   0.00000   0.00000   0.00000
           D16          0.00000   0.00000   0.00000   0.00000   0.00000
           D17          0.00000   0.00000   0.00000   0.00000   0.00000
           D18          0.00000   0.00000   0.00000   0.00000   0.00000
           D19          0.00000   0.00000   0.00000   0.00000   0.00000
           D20          0.00000   0.00000   0.00000   0.00000   0.00000
           D21          0.00000   0.00000   0.00000   0.00000   0.00000
           D22          0.00000   0.00000   0.00000   0.00000   0.00000
           D23          0.00000   0.00000   0.00000   0.00000   0.00000
           D24          0.00000   0.00000   0.00000   0.00000   0.00000
           D25          0.00000   0.00000   0.00000   0.00000   0.00000
           D26          0.00000   0.00000   0.00000   0.00000   0.00000
                          D1        D2        D3        D4        D5
           D1           0.01906
           D2           0.00000   0.01906
           D3           0.00000   0.00000   0.01906
           D4           0.00000   0.00000   0.00000   0.01906
           D5           0.00000   0.00000   0.00000   0.00000   0.01906
           D6           0.00000   0.00000   0.00000   0.00000   0.00000
           D7           0.00000   0.00000   0.00000   0.00000   0.00000
           D8           0.00000   0.00000   0.00000   0.00000   0.00000
           D9           0.00000   0.00000   0.00000   0.00000   0.00000
           D10          0.00000   0.00000   0.00000   0.00000   0.00000
           D11          0.00000   0.00000   0.00000   0.00000   0.00000
           D12          0.00000   0.00000   0.00000   0.00000   0.00000
           D13          0.00000   0.00000   0.00000   0.00000   0.00000
           D14          0.00000   0.00000   0.00000   0.00000   0.00000
           D15          0.00000   0.00000   0.00000   0.00000   0.00000
           D16          0.00000   0.00000   0.00000   0.00000   0.00000
           D17          0.00000   0.00000   0.00000   0.00000   0.00000
           D18          0.00000   0.00000   0.00000   0.00000   0.00000
           D19          0.00000   0.00000   0.00000   0.00000   0.00000
           D20          0.00000   0.00000   0.00000   0.00000   0.00000
           D21          0.00000   0.00000   0.00000   0.00000   0.00000
           D22          0.00000   0.00000   0.00000   0.00000   0.00000
           D23          0.00000   0.00000   0.00000   0.00000   0.00000
           D24          0.00000   0.00000   0.00000   0.00000   0.00000
           D25          0.00000   0.00000   0.00000   0.00000   0.00000
           D26          0.00000   0.00000   0.00000   0.00000   0.00000
                          D6        D7        D8        D9        D10
           D6           0.01906
           D7           0.00000   0.00230
           D8           0.00000   0.00000   0.00230
           D9           0.00000   0.00000   0.00000   0.00230
           D10          0.00000   0.00000   0.00000   0.00000   0.02178
           D11          0.00000   0.00000   0.00000   0.00000   0.00000
           D12          0.00000   0.00000   0.00000   0.00000   0.00000
           D13          0.00000   0.00000   0.00000   0.00000   0.00000
           D14          0.00000   0.00000   0.00000   0.00000   0.00000
           D15          0.00000   0.00000   0.00000   0.00000   0.00000
           D16          0.00000   0.00000   0.00000   0.00000   0.00000
           D17          0.00000   0.00000   0.00000   0.00000   0.00000
           D18          0.00000   0.00000   0.00000   0.00000   0.00000
           D19          0.00000   0.00000   0.00000   0.00000   0.00000
           D20          0.00000   0.00000   0.00000   0.00000   0.00000
           D21          0.00000   0.00000   0.00000   0.00000   0.00000
           D22          0.00000   0.00000   0.00000   0.00000   0.00000
           D23          0.00000   0.00000   0.00000   0.00000   0.00000
           D24          0.00000   0.00000   0.00000   0.00000   0.00000
           D25          0.00000   0.00000   0.00000   0.00000   0.00000
           D26          0.00000   0.00000   0.00000   0.00000   0.00000
                          D11       D12       D13       D14       D15
           D11          0.02178
           D12          0.00000   0.02178
           D13          0.00000   0.00000   0.02178
           D14          0.00000   0.00000   0.00000   0.02178
           D15          0.00000   0.00000   0.00000   0.00000   0.02178
           D16          0.00000   0.00000   0.00000   0.00000   0.00000
           D17          0.00000   0.00000   0.00000   0.00000   0.00000
           D18          0.00000   0.00000   0.00000   0.00000   0.00000
           D19          0.00000   0.00000   0.00000   0.00000   0.00000
           D20          0.00000   0.00000   0.00000   0.00000   0.00000
           D21          0.00000   0.00000   0.00000   0.00000   0.00000
           D22          0.00000   0.00000   0.00000   0.00000   0.00000
           D23          0.00000   0.00000   0.00000   0.00000   0.00000
           D24          0.00000   0.00000   0.00000   0.00000   0.00000
           D25          0.00000   0.00000   0.00000   0.00000   0.00000
           D26          0.00000   0.00000   0.00000   0.00000   0.00000
                          D16       D17       D18       D19       D20
           D16          0.02178
           D17          0.00000   0.02178
           D18          0.00000   0.00000   0.01906
           D19          0.00000   0.00000   0.00000   0.01906
           D20          0.00000   0.00000   0.00000   0.00000   0.01906
           D21          0.00000   0.00000   0.00000   0.00000   0.00000
           D22          0.00000   0.00000   0.00000   0.00000   0.00000
           D23          0.00000   0.00000   0.00000   0.00000   0.00000
           D24          0.00000   0.00000   0.00000   0.00000   0.00000
           D25          0.00000   0.00000   0.00000   0.00000   0.00000
           D26          0.00000   0.00000   0.00000   0.00000   0.00000
                          D21       D22       D23       D24       D25
           D21          0.01906
           D22          0.00000   0.01906
           D23          0.00000   0.00000   0.01906
           D24          0.00000   0.00000   0.00000   0.00230
           D25          0.00000   0.00000   0.00000   0.00000   0.00230
           D26          0.00000   0.00000   0.00000   0.00000   0.00000
                          D26
           D26          0.00230
 ITU=  0
 Eigenvectors of the second derivative matrix:
                           1         2         3         4         5
     Eigenvalues --     0.00928   0.01888   0.02060   0.02145   0.02263
   1         R1         0.00081   0.00921   0.00002  -0.00740   0.00029
   2         R2         0.00000  -0.00000  -0.00000   0.00000   0.00000
   3         R3        -0.03729   0.00576  -0.00098  -0.00437  -0.01431
   4         R4         0.00000  -0.00000   0.00000  -0.00000  -0.00000
   5         R5         0.00982   0.00410   0.00024  -0.00327   0.00347
   6         R6        -0.00000  -0.00000   0.00000   0.00000  -0.00000
   7         R7         0.00982  -0.00410   0.00024   0.00327   0.00347
   8         R8         0.00000   0.00000  -0.00000   0.00000   0.00000
   9         R9         0.00081  -0.00921   0.00002   0.00740   0.00029
  10         R10        0.00000  -0.00000   0.00000  -0.00000   0.00000
  11         R11       -0.00000  -0.00000   0.00000  -0.00000  -0.00000
  12         R12        0.00000   0.00000  -0.00000   0.00000  -0.00000
  13         R13       -0.03729  -0.00576  -0.00097   0.00438  -0.01431
  14         A1         0.03575  -0.02483   0.00058   0.01797  -0.00887
  15         A2        -0.10205   0.03746  -0.00429  -0.03497   0.02422
  16         A3        -0.00457   0.01424   0.00016  -0.00736   0.00046
  17         A4         0.01619  -0.01142  -0.00363   0.00747  -0.00601
  18         A5         0.01407  -0.00357   0.00139   0.00496  -0.00417
  19         A6         0.02020  -0.00067   0.00541   0.00254   0.00037
  20         A7        -0.02257   0.02677   0.01048  -0.00179   0.01181
  21         A8         0.00989  -0.02140   0.02025   0.04804  -0.04537
  22         A9         0.01275  -0.02090   0.02251   0.05017  -0.04714
  23         A10        0.00808   0.00000   0.00879  -0.00001   0.03962
  24         A11        0.00866  -0.00109   0.01438  -0.00009  -0.01697
  25         A12        0.00866   0.00110   0.01438   0.00009  -0.01697
  26         A13       -0.02257  -0.02677   0.01049   0.00178   0.01182
  27         A14        0.01275   0.02091   0.02249  -0.05016  -0.04716
  28         A15        0.00989   0.02140   0.02023  -0.04803  -0.04538
  29         A16        0.03575   0.02483   0.00057  -0.01796  -0.00888
  30         A17       -0.00457  -0.01424   0.00016   0.00736   0.00046
  31         A18       -0.10204  -0.03746  -0.00427   0.03496   0.02423
  32         A19        0.01407   0.00357   0.00138  -0.00496  -0.00417
  33         A20        0.01619   0.01142  -0.00364  -0.00747  -0.00601
  34         A21        0.02020   0.00067   0.00541  -0.00255   0.00037
  35         A22       -0.05386   0.00000   0.00419  -0.00000   0.00317
  36         D1        -0.02302   0.26962   0.07554  -0.15967   0.19761
  37         D2        -0.02049   0.20016   0.30491   0.25741  -0.15234
  38         D3        -0.05820   0.26896   0.06812  -0.16604   0.20302
  39         D4        -0.05568   0.19950   0.29749   0.25105  -0.14693
  40         D5        -0.09293   0.29148   0.07198  -0.18391   0.21713
  41         D6        -0.09041   0.22202   0.30136   0.23318  -0.13282
  42         D7         0.39099  -0.13109   0.01344   0.07590  -0.02337
  43         D8         0.36416  -0.13963   0.00857   0.07524  -0.01878
  44         D9         0.39660  -0.14676   0.01270   0.08427  -0.02478
  45         D10       -0.08959  -0.17026  -0.13965   0.10707  -0.39336
  46         D11       -0.00683  -0.17000  -0.01699   0.10706  -0.37878
  47         D12       -0.09180  -0.10196  -0.36392  -0.30117  -0.05076
  48         D13       -0.00904  -0.10170  -0.24126  -0.30118  -0.03618
  49         D14        0.08960  -0.17018   0.13973   0.10688   0.39340
  50         D15        0.09180  -0.10184   0.36386  -0.30129   0.05065
  51         D16        0.00684  -0.17000   0.01707   0.10692   0.37883
  52         D17        0.00904  -0.10166   0.24120  -0.30125   0.03608
  53         D18        0.02301   0.26958  -0.07566  -0.15958  -0.19768
  54         D19        0.09292   0.29144  -0.07212  -0.18381  -0.21721
  55         D20        0.05820   0.26892  -0.06825  -0.16594  -0.20309
  56         D21        0.02049   0.20007  -0.30490   0.25745   0.15242
  57         D22        0.09040   0.22193  -0.30135   0.23322   0.13289
  58         D23        0.05567   0.19942  -0.29748   0.25108   0.14701
  59         D24       -0.39099  -0.13110  -0.01338   0.07589   0.02340
  60         D25       -0.36416  -0.13964  -0.00851   0.07523   0.01882
  61         D26       -0.39660  -0.14678  -0.01263   0.08426   0.02481
                           6         7         8         9        10
     Eigenvalues --     0.02347   0.05397   0.05595   0.06969   0.07365
   1         R1        -0.00002   0.01658  -0.00011   0.00085   0.01372
   2         R2        -0.00000  -0.00000  -0.00000   0.00000  -0.00000
   3         R3         0.00121   0.01165   0.00695  -0.06379  -0.01217
   4         R4        -0.00000   0.00000   0.00000   0.00000  -0.00000
   5         R5        -0.00029   0.00721  -0.00129   0.01018   0.00465
   6         R6        -0.00000   0.00000   0.00000   0.00000   0.00000
   7         R7        -0.00029  -0.00721  -0.00129   0.01018  -0.00465
   8         R8        -0.00000  -0.00000  -0.00000  -0.00000   0.00000
   9         R9        -0.00002  -0.01658  -0.00011   0.00085  -0.01372
  10         R10        0.00000   0.00000  -0.00000  -0.00000  -0.00000
  11         R11        0.00000   0.00000   0.00000   0.00000   0.00000
  12         R12        0.00000  -0.00000  -0.00000   0.00000   0.00000
  13         R13        0.00121  -0.01165   0.00695  -0.06380   0.01217
  14         A1        -0.00307  -0.11182  -0.06525  -0.06643   0.14387
  15         A2         0.00547  -0.10607  -0.10989  -0.00108   0.00370
  16         A3         0.00040   0.20065   0.11958  -0.11189   0.04058
  17         A4        -0.00612  -0.19160  -0.24857   0.03676   0.03681
  18         A5        -0.00023   0.16120   0.16411  -0.09862   0.03807
  19         A6         0.00558  -0.00174   0.08873   0.38136  -0.40705
  20         A7        -0.00382   0.06935   0.00152  -0.03868   0.04013
  21         A8        -0.01048  -0.03148  -0.01718   0.00204  -0.00814
  22         A9        -0.00951  -0.02279   0.00165   0.02687  -0.03853
  23         A10        0.04451  -0.00000   0.01092   0.00660   0.00000
  24         A11        0.07074  -0.00994  -0.02796  -0.02177   0.02376
  25         A12        0.07074   0.00994  -0.02796  -0.02177  -0.02376
  26         A13       -0.00381  -0.06936   0.00151  -0.03868  -0.04013
  27         A14       -0.00951   0.02279   0.00165   0.02687   0.03853
  28         A15       -0.01048   0.03148  -0.01717   0.00203   0.00814
  29         A16       -0.00308   0.11183  -0.06523  -0.06643  -0.14387
  30         A17        0.00041  -0.20067   0.11954  -0.11189  -0.04059
  31         A18        0.00548   0.10609  -0.10987  -0.00108  -0.00370
  32         A19       -0.00023  -0.16123   0.16408  -0.09860  -0.03806
  33         A20       -0.00612   0.19165  -0.24854   0.03674  -0.03681
  34         A21        0.00558   0.00174   0.08872   0.38135   0.40706
  35         A22        0.01004  -0.00001   0.09801   0.01690   0.00000
  36         D1         0.12408   0.23192   0.38466  -0.05862   0.04583
  37         D2         0.02162   0.29160   0.32537  -0.09555   0.01172
  38         D3         0.11872  -0.15139  -0.04628  -0.05138   0.17715
  39         D4         0.01626  -0.09171  -0.10556  -0.08830   0.14305
  40         D5         0.12831  -0.18141   0.01330   0.37094  -0.28461
  41         D6         0.02584  -0.12173  -0.04598   0.33402  -0.31871
  42         D7         0.00254   0.04101   0.16725   0.05778  -0.09622
  43         D8        -0.00062  -0.30288  -0.15314  -0.00734   0.11473
  44         D9         0.00116  -0.15749   0.03832   0.11833  -0.08130
  45         D10       -0.22431   0.10954   0.11234   0.09936  -0.11035
  46         D11        0.38310   0.11150  -0.03689  -0.02290  -0.11503
  47         D12       -0.12383   0.05284   0.17319   0.13891  -0.08114
  48         D13        0.48358   0.05481   0.02397   0.01666  -0.08582
  49         D14        0.22433   0.10955  -0.11232  -0.09936  -0.11035
  50         D15        0.12383   0.05286  -0.17318  -0.13891  -0.08115
  51         D16       -0.38308   0.11150   0.03691   0.02290  -0.11503
  52         D17       -0.48358   0.05481  -0.02396  -0.01666  -0.08582
[...]
 ! A6    A(12,1,13)             88.2683         -DE/DX =    0.0                 !
 ! A7    A(1,2,3)              123.0375         -DE/DX =    0.0                 !
 ! A8    A(1,2,10)             118.6997         -DE/DX =    0.0                 !
 ! A9    A(3,2,10)             116.4247         -DE/DX =    0.0                 !
 ! A10   A(2,3,4)              119.8298         -DE/DX =    0.0                 !
 ! A11   A(2,3,9)              118.5276         -DE/DX =    0.0                 !
 ! A12   A(4,3,9)              118.5312         -DE/DX =    0.0                 !
 ! A13   A(3,4,5)              123.0287         -DE/DX =    0.0                 !
 ! A14   A(3,4,8)              116.4262         -DE/DX =    0.0                 !
 ! A15   A(5,4,8)              118.7046         -DE/DX =    0.0                 !
 ! A16   A(4,5,6)              116.5106         -DE/DX =    0.0                 !
 ! A17   A(4,5,7)              119.0151         -DE/DX =    0.0                 !
 ! A18   A(4,5,12)              98.0424         -DE/DX =    0.0                 !
 ! A19   A(6,5,7)              111.891          -DE/DX =    0.0                 !
 ! A20   A(6,5,12)             119.4092         -DE/DX =    0.0                 !
 ! A21   A(7,5,12)              88.2589         -DE/DX =    0.0                 !
 ! A22   A(1,12,5)             132.0746         -DE/DX =    0.0                 !
 ! D1    D(11,1,2,3)          -157.6662         -DE/DX =    0.0                 !
 ! D2    D(11,1,2,10)            6.3309         -DE/DX =    0.0                 !
 ! D3    D(12,1,2,3)           -28.9785         -DE/DX =    0.0                 !
 ! D4    D(12,1,2,10)          135.0186         -DE/DX =    0.0                 !
 ! D5    D(13,1,2,3)            63.5127         -DE/DX =    0.0                 !
 ! D6    D(13,1,2,10)         -132.4901         -DE/DX =    0.0                 !
 ! D7    D(2,1,12,5)            60.7459         -DE/DX =    0.0                 !
 ! D8    D(11,1,12,5)         -172.593          -DE/DX =    0.0                 !
 ! D9    D(13,1,12,5)          -58.3215         -DE/DX =    0.0                 !
 ! D10   D(1,2,3,4)             16.447          -DE/DX =    0.0                 !
 ! D11   D(1,2,3,9)            176.2249         -DE/DX =    0.0                 !
 ! D12   D(10,2,3,4)          -147.887          -DE/DX =    0.0                 !
 ! D13   D(10,2,3,9)            11.8909         -DE/DX =    0.0                 !
 ! D14   D(2,3,4,5)            -16.4615         -DE/DX =    0.0                 !
 ! D15   D(2,3,4,8)            147.8634         -DE/DX =    0.0                 !
 ! D16   D(9,3,4,5)           -176.2387         -DE/DX =    0.0                 !
 ! D17   D(9,3,4,8)            -11.9138         -DE/DX =    0.0                 !
 ! D18   D(3,4,5,6)            157.6565         -DE/DX =    0.0                 !
 ! D19   D(3,4,5,7)            -63.4823         -DE/DX =    0.0                 !
 ! D20   D(3,4,5,12)            28.9983         -DE/DX =    0.0                 !
 ! D21   D(8,4,5,6)             -6.3308         -DE/DX =    0.0                 !
 ! D22   D(8,4,5,7)            132.5303         -DE/DX =    0.0                 !
 ! D23   D(8,4,5,12)          -134.9891         -DE/DX =    0.0                 !
 ! D24   D(4,5,12,1)           -60.7599         -DE/DX =    0.0                 !
 ! D25   D(6,5,12,1)           172.5757         -DE/DX =    0.0                 !
 ! D26   D(7,5,12,1)            58.3043         -DE/DX =    0.0                 !
 --------------------------------------------------------------------------------
 GradGradGradGradGradGradGradGradGradGradGradGradGradGradGradGradGradGrad

 Leave Link  103 at Wed Oct  7 14:30:50 2020, MaxMem=  2684354560 cpu:               5.1 elap:               0.9
 (Enter /udrive/faculty/rpeverati/g16/g16/l9999.exe)

 ----------------------------------------------------------------------

 Electric dipole moment (input orientation):
 (Debye = 10**-18 statcoulomb cm , SI units = C m)
                  (au)            (Debye)         (10**-30 SI)
   Tot        0.674774D-01      0.171510D+00      0.572097D+00
   x         -0.295374D-04     -0.750766D-04     -0.250429D-03
   y         -0.105762D-01     -0.268819D-01     -0.896684D-01
   z         -0.666434D-01     -0.169391D+00     -0.565026D+00

 Dipole polarizability, Alpha (input orientation).
 (esu units = cm**3 , SI units = C**2 m**2 J**-1)
 Alpha(0;0):
               (au)            (10**-24 esu)      (10**-40 SI)
   iso        0.547438D+02      0.811219D+01      0.902603D+01
   aniso      0.390541D+02      0.578722D+01      0.643915D+01
   xx         0.725412D+02      0.107495D+02      0.119604D+02
   yx         0.219311D-02      0.324986D-03      0.361595D-03
   yy         0.622877D+02      0.923009D+01      0.102699D+02
   zx         0.780617D-03      0.115676D-03      0.128706D-03
   zy        -0.699305D+00     -0.103626D+00     -0.115300D+00
   zz         0.294025D+02      0.435700D+01      0.484782D+01

 ----------------------------------------------------------------------

 Dipole orientation:
     6         -2.46237418          1.68016668          0.30856599
     6         -2.27928683         -0.94710693         -0.12363958
     6         -0.00017717         -2.16178066         -0.64282375
     6          2.27955028         -0.94719416         -0.12566501
     6          2.46284054          1.68007235          0.30574794
     1          4.10953862          2.32565135          1.35944705
     1          1.96651659          2.97646468         -1.21038552
     1          3.85382454         -2.15108155          0.42537458
     1         -0.00038918         -4.20469525         -0.83680032
     1         -3.85330722         -2.15101901          0.42807938
     1         -4.10866546          2.32489647          1.36345083
     1          0.00054108          2.06648812          1.33119705
     1         -1.96816846          2.97699621         -1.20790400

 Electric dipole moment (dipole orientation):
 (Debye = 10**-18 statcoulomb cm , SI units = C m)
                  (au)            (Debye)         (10**-30 SI)
   Tot        0.674774D-01      0.171510D+00      0.572097D+00
   x          0.000000D+00      0.000000D+00      0.000000D+00
   y          0.000000D+00      0.000000D+00      0.000000D+00
   z          0.674774D-01      0.171510D+00      0.572097D+00

 Dipole polarizability, Alpha (dipole orientation).
 (esu units = cm**3 , SI units = C**2 m**2 J**-1)
 Alpha(0;0):
               (au)            (10**-24 esu)      (10**-40 SI)
   iso        0.547438D+02      0.811219D+01      0.902603D+01
   aniso      0.390541D+02      0.578722D+01      0.643915D+01
   xx         0.725411D+02      0.107495D+02      0.119604D+02
   yx         0.267965D-03      0.397084D-04      0.441815D-04
   yy         0.616963D+02      0.914246D+01      0.101724D+02
   zx        -0.198920D-01     -0.294770D-02     -0.327976D-02
   zy         0.442565D+01      0.655814D+00      0.729692D+00
   zz         0.299939D+02      0.444464D+01      0.494532D+01

 ----------------------------------------------------------------------

 Test job not archived.
 1\1\GINC-NODE20\Freq\RM062X\6-31G(d)\C5H8\RPEVERATI\07-Oct-2020\0\\#P 
 Freq M062X/6-31G* 5D 7F Integral=UltraFineGrid SCF=(NoSymm,XQC,MaxCyc=
 120) EmpiricalDispersion=GD3 IOp(1/33=1) Geom=Check Guess=Read\\TS sea
 rch on BH76.\\0,1\C,-1.3030729609,-0.90366488,-0.0213423572\C,-1.20613
 51902,0.5052894302,-0.0134077016\C,0.0000156601,1.1831428402,0.1566625
 002\C,1.2062977491,0.505419738,-0.0134123835\C,1.3032388263,-0.9034718
 15,-0.0210182491\H,2.17440155,-1.3283004198,-0.5185564513\H,1.04097040
 9,-1.4552550689,0.8790082906\H,2.0392180967,1.0888829457,-0.4016225875
 \H,-0.0000889124,2.266933926,0.0885998725\H,-2.0392206215,1.0887666979
 ,-0.4012457363\H,-2.1744852857,-1.3280878545,-0.518807911\H,0.00001571
 42,-1.1904340216,-0.5243354803\H,-1.0411756183,-1.455666812,0.87866687
 78\\Version=ES64L-G16RevA.03\State=1-A\HF=-195.135416\RMSD=3.160e-09\R
 MSF=1.477e-05\ZeroPoint=0.111936\Thermal=0.1165234\Dipole=-0.0000295,-
 0.0105762,-0.0666434\DipoleDeriv=0.1055389,0.0705431,0.072828,-0.06542
 85,-0.183903,0.015204,0.0504814,-0.1217053,-0.0212392,0.0398505,0.0625
 644,0.0930096,0.1995954,0.076039,-0.0595966,0.1471696,-0.096396,-0.124
 3605,-0.2305301,-0.0000181,0.0000009,-0.0001218,0.1640944,-0.0063861,-
 0.0000204,0.0482828,-0.1773745,0.0398868,-0.0626543,-0.0930532,-0.1995
 159,0.0759085,-0.0597273,-0.1472376,-0.0966146,-0.1242453,0.1053712,-0
 .070591,-0.0728843,0.065324,-0.1838129,0.0152706,-0.0505747,-0.1215498
 ,-0.0212997,-0.0815848,0.1401543,0.0919322,0.0545421,0.0542466,-0.0056
 802,0.0428482,0.0292623,0.0660574,-0.0180666,0.0213172,0.071451,0.0299
 672,0.0233864,0.0419334,0.0145845,0.0995053,-0.0169095,-0.030349,-0.06
 07627,0.053565,-0.0690893,0.0061326,0.0254308,0.0654642,0.0402637,0.10
 78354,0.046463,0.0000217,0.0000036,0.0000162,-0.1139083,-0.0080082,-0.
 0000081,0.0571133,0.1261928,-0.0303915,0.060816,-0.0535345,0.0691065,0
 .0061053,0.0253741,-0.0653647,0.0401605,0.1078886,-0.0817792,-0.140187
 6,-0.0919818,-0.0544662,0.0542905,-0.0056709,-0.0428008,0.0292852,0.06
 60496,0.153673,0.0001289,0.0000784,0.0000558,-0.0019489,-0.0201054,-0.
 0000057,-0.007186,0.028376,-0.0180821,-0.0213319,-0.0714149,-0.0299855
 ,0.0233697,0.0419618,-0.0145361,0.0995785,-0.016971\Polar=72.5411588,0
 .0021931,62.2877107,0.0007806,-0.6993054,29.4025125\Quadrupole=0.84066
 19,1.0573923,-1.8980542,-0.0003816,-0.0006891,-1.0371586\PG=C01 [X(C5H
 8)]\NImag=1\\0.38642922,0.13804243,0.61130902,0.22056081,-0.10904154,0
 .42888415,-0.10741769,0.00879474,-0.01086891,0.65906411,-0.07225758,-0
 .33334165,0.02528739,0.00934357,0.68214864,-0.02412042,0.01524215,-0.0
 7362007,0.14467609,-0.04727123,0.20168443,0.04118648,-0.06483854,-0.01
 761748,-0.28678606,-0.06364309,-0.05480113,0.67968958,-0.02492409,-0.0
 2057497,-0.00819246,-0.13401409,-0.18029407,-0.01926995,0.00002969,0.7
 4199704,0.00366556,-0.00805362,0.00534341,-0.03640060,-0.00115953,-0.0
 6669856,0.00000174,0.01577144,0.14865535,-0.02299118,0.02693090,0.0099
 7048,-0.06624060,-0.03104303,0.00266400,-0.28671738,0.13394876,0.03639
 910,0.65891689,0.03670077,-0.04546427,-0.01988662,0.03103394,0.0629083
 1,-0.00328197,0.06358830,-0.18022397,-0.00113806,-0.00931418,0.6821694
 3,0.00365066,-0.00312321,-0.00285585,-0.00266716,-0.00329018,0.0052238
 0,0.05481457,-0.01925031,-0.06670222,-0.14475413,-0.04742761,0.2017721
 8,-0.07624287,0.04184213,0.02824784,-0.02297991,-0.03669266,-0.0036584
 5,0.04117694,0.02493463,-0.00367073,-0.10742716,0.07226228,0.02412258,
 0.38636763,-0.04186987,0.03490452,0.02354455,-0.02693233,-0.04547167,-
 0.00312733,0.06485174,-0.02058189,-0.00805099,-0.00878427,-0.33344905,
 0.01531288,-0.13810525,0.61142860,-0.02827278,0.02354580,0.00653240,-0
 .00997118,-0.01988869,-0.00285342,0.01761680,-0.00819954,0.00534589,0.
 01088045,0.02537737,-0.07363468,-0.22067382,-0.10905536,0.42889007,-0.
 00397371,0.00083148,0.00209342,-0.00125797,-0.00124498,0.00003403,0.00
 349969,-0.00016655,0.00382133,0.00199585,0.00117466,-0.00104850,-0.234
 22113,0.09074279,0.11578127,0.23881078,-0.00129909,0.00036644,0.001481
 44,-0.00125561,-0.00043796,0.00013712,-0.00081961,-0.00599360,0.000120
 11,0.03046807,-0.00811994,-0.01397069,0.08355232,-0.09377121,-0.044335
 38,-0.09832955,0.09886845,-0.00040083,0.00156582,0.00179303,-0.0017167
 1,0.00029298,0.00022698,0.00058173,-0.00032026,0.00380807,-0.00059487,
 0.00392719,0.00143282,0.10691530,-0.04758756,-0.10717606,-0.12352956,0
 .04885378,0.10769927,0.00702779,-0.00593204,-0.01185837,0.00420922,0.0
 0986583,0.00128392,-0.01202895,0.00052627,-0.00243081,0.00572788,-0.01
 480713,-0.00190983,-0.04607004,-0.01676910,0.07432385,-0.00497564,-0.0
 1356862,0.02050204,0.07115691,0.00338158,-0.00106515,-0.00265866,0.000
 65741,0.00301551,0.00149127,-0.00543599,-0.00026453,-0.00210697,-0.007
 11792,-0.01935778,0.02481188,-0.02661363,-0.11503039,0.12308646,0.0031
 5360,0.00776442,-0.01024832,0.03654805,0.12606725,0.00923703,-0.003899
 50,-0.00374556,0.00299437,0.00599936,0.00045917,-0.00699941,-0.0002247
 4,-0.00060657,-0.00018501,-0.01187976,0.00538594,0.08134058,0.13386063
 ,-0.23963372,0.00205430,0.00616293,-0.00928399,-0.07188429,-0.13223357
 ,0.25406185,0.00206377,-0.00219003,-0.00071486,0.00003417,0.00538949,0
 .00298601,-0.02399960,-0.01424641,0.00992040,-0.21483819,-0.11861220,0
 .08486524,0.00658638,0.00700915,-0.00004190,-0.00029519,-0.00050124,-0
 .00145505,0.00122495,0.00151805,0.00005999,0.23274987,0.00197675,-0.00
 136123,0.00002998,0.00323446,0.00035561,0.00147691,0.01240609,0.010858
 16,-0.00521959,-0.11664246,-0.13919480,0.05086447,-0.01999332,-0.01244
 623,0.01512130,0.00018090,0.00109064,0.00005468,-0.00105026,-0.0044106
 9,-0.00167305,0.12181343,0.14534000,0.00502196,-0.00753294,-0.00377305
 ,0.00657693,0.00301543,0.00661874,-0.00726985,0.00832894,0.00192993,0.
 09624921,0.04374580,-0.07820491,0.00730140,0.01049879,0.00987304,-0.00
 334870,-0.00085396,-0.00258849,0.00186173,0.00112085,0.00143754,-0.093
 31825,-0.06001303,0.06604503,-0.00388610,-0.00145509,-0.00255149,0.002
 99566,-0.03021082,0.00305904,-0.05851480,0.00003006,-0.00000077,0.0029
 9487,0.03020896,-0.00306219,-0.00388784,0.00145707,0.00255378,0.000061
 38,0.00146617,0.00023008,-0.00005908,-0.00017056,-0.00020819,0.0005968
 3,-0.00032747,-0.00081916,0.06068595,-0.00280044,0.00084845,-0.0006855
 9,0.00256563,-0.01153995,0.00158844,0.00002763,-0.34475685,0.01830552,
 -0.00256505,-0.01153141,0.00158861,0.00279993,0.00084667,-0.00068785,-
 0.00003812,-0.00071106,0.00008705,-0.00008362,-0.00003446,-0.00000412,
 0.00013847,0.00078037,-0.00033402,-0.00002833,0.36533254,-0.00059387,-
 0.00077364,0.00678395,0.00099932,-0.00013325,0.00158298,0.00000418,0.0
 2478798,-0.03822793,-0.00100713,-0.00012679,0.00158175,0.00059032,-0.0
 0077717,0.00677635,0.00022528,0.00052224,0.00042917,0.00015931,-0.0013
 1240,-0.00012632,-0.00175616,-0.00123618,-0.00385856,0.00000277,-0.019
 83487,0.02862111,0.00658375,-0.00700756,0.00003918,-0.21490761,0.11863
 680,-0.08480139,-0.02399991,0.01424619,-0.00991080,0.00003277,-0.00538
 689,-0.00298557,0.00206227,0.00218943,0.00071652,0.00031793,0.00020298
 ,0.00032277,-0.00081304,-0.00018872,-0.00048874,-0.00042723,0.00052841
 ,0.00062779,0.00059677,-0.00013821,0.00175646,0.23282398,0.01999806,-0
 .01245461,0.01510580,0.11667648,-0.13919444,0.05080880,-0.01241651,0.0
 1085537,-0.00521489,-0.00323293,0.00035414,0.00147558,-0.00197617,-0.0
 0135934,0.00003020,-0.00016526,-0.00000502,-0.00024155,0.00053008,0.00
 029669,-0.00005758,-0.00052852,0.00049269,0.00086764,0.00032571,0.0007
 8129,-0.00123600,-0.12184046,0.14535214,-0.00730176,0.01049111,0.00987
 743,-0.09618074,0.04369219,-0.07813392,0.00726340,0.00832827,0.0019340
 3,-0.00657707,0.00301237,0.00662412,-0.00501936,-0.00753639,-0.0037753
 7,-0.00062650,-0.00008048,-0.00038897,0.00222244,0.00085388,0.00115672
 ,-0.00062875,0.00086885,0.00203628,0.00081931,-0.00033455,-0.00386398,
 0.09324811,-0.05994581,0.06596514,-0.23431078,-0.09067233,-0.11577820,
 0.00198597,-0.00117882,0.00104663,0.00350258,0.00016852,-0.00381790,-0
 .00126287,0.00124910,-0.00003506,-0.00398083,-0.00083899,-0.00209730,-
 0.00058138,-0.00008601,0.00008180,-0.00070370,0.00012887,0.00115821,0.
 00031861,0.00016549,0.00062776,0.00006151,0.00003828,-0.00022508,-0.00
 029200,-0.00018091,0.00334569,0.23889589,-0.08347468,-0.09368255,-0.04
 428106,-0.03047362,-0.00812214,-0.01397622,0.00081633,-0.00599331,0.00
 011783,0.00125807,-0.00043977,0.00013735,0.00130324,0.00036996,0.00148
 370,0.00008610,0.00003666,-0.00046714,0.00073470,0.00027986,-0.0006688
 8,-0.00020333,-0.00000506,-0.00008115,-0.00146577,-0.00071137,0.000523
 00,0.00049969,0.00108980,-0.00085306,0.09825617,0.09878761,-0.10689659
 ,-0.04753927,-0.10715991,0.00058695,0.00392852,0.00142716,-0.00058445,
 -0.00032500,0.00380536,0.00172147,0.00028909,0.00022869,0.00040698,0.0
 0157255,0.00179681,-0.00008233,-0.00046737,-0.00012044,0.00106992,-0.0
 0053434,0.00026015,-0.00032351,-0.00024208,-0.00039016,-0.00023113,0.0
 0008639,0.00042928,0.00145370,0.00005663,-0.00258604,0.12353459,0.0487
 9539,0.10768608,0.05154305,-0.06108417,-0.02729239,0.02558247,0.078231
 36,0.00971836,-0.06498014,-0.00000429,-0.00000272,0.02559838,-0.078231
 81,-0.00970760,0.05158433,0.06111629,0.02732602,0.00132399,0.00090468,
 0.00013340,-0.02242907,-0.00635500,-0.01585885,-0.00320075,-0.00176104
 ,-0.01128835,-0.00158601,0.00000042,0.00000328,-0.00320016,0.00175865,
 0.01129184,0.00133842,-0.00091066,-0.00014472,-0.03913900,-0.00005238,
 -0.02441509,-0.00382979,0.01326898,-0.01066192,-0.00862843,-0.00000557
 ,-0.00476268,-0.00126407,-0.01324703,-0.01066843,-0.00862090,0.0000710
 7,-0.02437138,-0.00381782,0.00390357,0.00063234,0.00461770,0.00450201,
 0.00202905,0.00415926,0.00022418,-0.00179668,0.00038302,-0.00000028,0.
 00073057,0.00091153,-0.00022508,-0.00179961,0.00038503,-0.00390228,0.0
 0062983,0.00462055,-0.00002355,0.07242154,0.00669878,-0.00477719,-0.02
 844267,0.00178406,0.00141043,-0.00131139,-0.00001044,-0.00121090,0.002
 01884,-0.00176772,0.00138898,-0.00131149,-0.00666616,-0.00475077,-0.02
 839491,0.00578350,0.00309846,0.00390882,-0.01455851,-0.00272921,-0.012
 54797,-0.00008209,0.00002526,-0.00028276,-0.00000022,0.00022920,0.,0.0
 0008074,0.00002521,-0.00027856,-0.00578654,0.00310299,0.00391407,-0.00
 003892,0.00691733,0.07527634,-0.04601173,0.01673810,-0.07423003,0.0057
 1824,0.01480394,0.00191330,-0.01202844,-0.00052868,0.00242621,0.004210
 73,-0.00986581,-0.00128302,0.00703223,0.00593332,0.01185828,-0.0007046
 0,-0.00073449,-0.00107011,-0.00226723,0.00049426,-0.00122000,-0.000813
 61,-0.00053098,-0.00222246,-0.00005913,0.00008341,-0.00015869,0.001222
 48,0.00105180,-0.00185661,-0.00497142,0.01357377,-0.02051089,-0.022435
 52,-0.00451363,0.01456353,0.07110799,0.02657854,-0.11506892,0.12312657
 ,0.00710046,-0.01936427,0.02481044,0.00543953,-0.00026471,-0.00210717,
 -0.00065893,0.00301753,0.00149213,-0.00338457,-0.00106859,-0.00266020,
 -0.00012863,0.00027984,-0.00053438,-0.00049618,0.00071022,0.00045901,0
 .00018896,0.00029720,0.00085463,0.00017034,-0.00003478,-0.00131446,-0.
 00151657,-0.00440909,0.00111858,-0.00314710,0.00776048,-0.01024105,0.0
 0635913,0.00203245,-0.00272978,-0.03650499,0.12611265,-0.08124856,0.13
 389602,-0.23961726,0.00018760,-0.01188342,0.00539412,0.00700033,-0.000
 22347,-0.00060559,-0.00299879,0.00600001,0.00045985,-0.00923647,-0.003
 90381,-0.00374639,-0.00115757,-0.00066821,0.00025979,0.00121860,0.0004
 5911,0.00318276,0.00048895,-0.00005751,0.00115738,0.00020817,-0.000004
 19,-0.00012779,-0.00005878,-0.00167402,0.00143311,-0.00205461,0.006167
 23,-0.00929105,0.01586065,0.00416659,-0.01254831,0.07179049,-0.1322743
 4,0.25404938\\-0.00001181,0.00000352,-0.00001899,0.00001220,-0.0000182
 1,-0.00001442,0.00000634,0.00000852,-0.00002285,-0.00001031,0.00001307
 ,0.00000334,-0.00001766,-0.00000955,-0.00001834,-0.00001135,-0.0000056
 8,-0.00001676,0.00000861,0.00000006,0.00000795,0.00000843,0.00000519,0
 .00002423,-0.00000289,0.00000140,-0.00001051,-0.00000904,0.00000441,0.
 00002221,-0.00000785,0.00000836,0.00000305,0.00004161,-0.00000307,0.00
 004098,-0.00000628,-0.00000801,0.00000012\\\@


 PENOTUS DIED A HUNDRED YEARS OLD WANTING BUT TWO...
 AND HE USED TO SAY BEFORE HE DIED, HAVING SPENT HIS
 WHOLE LIFE IN VAINLY SEARCHING AFTER THE PHILOSOPHER'S
 STONE, THAT IF HE HAD A MORTAL ENEMY HE DID NOT DARE
 TO ENCOUNTER OPENLY, HE WOULD ADVISE HIM ABOVE ALL
 THINGS TO GIVE HIMSELF UP TO THE STUDY AND PRACTICE
 OF ALCHEMY.  --  NICOLAS LEMERY, M.D.
 "A COURSE OF CHYMISTRY", WALTER KETTILBY, LONDON, 1686
 Job cpu time:       0 days  0 hours 21 minutes  0.8 seconds.
 Elapsed time:       0 days  0 hours  1 minutes 52.4 seconds.
 File lengths (MBytes):  RWF=     17 Int=      0 D2E=      0 Chk=      2 Scr=      1
 Normal termination of Gaussian 16 at Wed Oct  7 14:30:51 2020.
