 Entering Gaussian System, Link 0=g16
 Input=MN_27_clch3clcomp_BH76_BP86DBJ_631Gs.in
 Output=MN_27_clch3clcomp_BH76_BP86DBJ_631Gs.log
 Initial command:
 /udrive/faculty/rpeverati/g16/g16/l1.exe "/udrive/scratch-directories/gaussian09/rpeverati/Gau-12021.inp" -scrdir="/udrive/scratch-directories/gaussian09/rpeverati/"
 Entering Link 1 = /udrive/faculty/rpeverati/g16/g16/l1.exe PID=     12038.
  
 Copyright (c) 1988,1990,1992,1993,1995,1998,2003,2009,2016,
            Gaussian, Inc.  All Rights Reserved.
  
 This is part of the Gaussian(R) 16 program.  It is based on
 the Gaussian(R) 09 system (copyright 2009, Gaussian, Inc.),
 the Gaussian(R) 03 system (copyright 2003, Gaussian, Inc.),
 the Gaussian(R) 98 system (copyright 1998, Gaussian, Inc.),
 the Gaussian(R) 94 system (copyright 1995, Gaussian, Inc.),
 the Gaussian 92(TM) system (copyright 1992, Gaussian, Inc.),
 the Gaussian 90(TM) system (copyright 1990, Gaussian, Inc.),
 the Gaussian 88(TM) system (copyright 1988, Gaussian, Inc.),
 the Gaussian 86(TM) system (copyright 1986, Carnegie Mellon
 University), and the Gaussian 82(TM) system (copyright 1983,
 Carnegie Mellon University). Gaussian is a federally registered
 trademark of Gaussian, Inc.
  
 This software contains proprietary and confidential information,
 including trade secrets, belonging to Gaussian, Inc.
  
 This software is provided under written license and may be
 used, copied, transmitted, or stored only in accord with that
 written license.
  
 The following legend is applicable only to US Government
 contracts under FAR:
  
                    RESTRICTED RIGHTS LEGEND
  
 Use, reproduction and disclosure by the US Government is
 subject to restrictions as set forth in subparagraphs (a)
 and (c) of the Commercial Computer Software - Restricted
 Rights clause in FAR 52.227-19.
  
 Gaussian, Inc.
 340 Quinnipiac St., Bldg. 40, Wallingford CT 06492
  
  
 ---------------------------------------------------------------
 Warning -- This program may not be used in any manner that
 competes with the business of Gaussian, Inc. or will provide
 assistance to any competitor of Gaussian, Inc.  The licensee
 of this program is prohibited from giving any competitor of
 Gaussian, Inc. access to this program.  By using this program,
 the user acknowledges that Gaussian, Inc. is engaged in the
 business of creating and licensing software in the field of
 computational chemistry and represents and warrants to the
 licensee that it is not a competitor of Gaussian, Inc. and that
 it will not use this program in any manner prohibited above.
 ---------------------------------------------------------------
  

 Cite this work as:
 Gaussian 16, Revision A.03,
 M. J. Frisch, G. W. Trucks, H. B. Schlegel, G. E. Scuseria, 
 M. A. Robb, J. R. Cheeseman, G. Scalmani, V. Barone, 
 G. A. Petersson, H. Nakatsuji, X. Li, M. Caricato, A. V. Marenich, 
 J. Bloino, B. G. Janesko, R. Gomperts, B. Mennucci, H. P. Hratchian, 
 J. V. Ortiz, A. F. Izmaylov, J. L. Sonnenberg, D. Williams-Young, 
 F. Ding, F. Lipparini, F. Egidi, J. Goings, B. Peng, A. Petrone, 
 T. Henderson, D. Ranasinghe, V. G. Zakrzewski, J. Gao, N. Rega, 
 G. Zheng, W. Liang, M. Hada, M. Ehara, K. Toyota, R. Fukuda, 
 J. Hasegawa, M. Ishida, T. Nakajima, Y. Honda, O. Kitao, H. Nakai, 
 T. Vreven, K. Throssell, J. A. Montgomery, Jr., J. E. Peralta, 
 F. Ogliaro, M. J. Bearpark, J. J. Heyd, E. N. Brothers, K. N. Kudin, 
 V. N. Staroverov, T. A. Keith, R. Kobayashi, J. Normand, 
 K. Raghavachari, A. P. Rendell, J. C. Burant, S. S. Iyengar, 
 J. Tomasi, M. Cossi, J. M. Millam, M. Klene, C. Adamo, R. Cammi, 
 J. W. Ochterski, R. L. Martin, K. Morokuma, O. Farkas, 
 J. B. Foresman, and D. J. Fox, Gaussian, Inc., Wallingford CT, 2016.
 
 ******************************************
 Gaussian 16:  ES64L-G16RevA.03 25-Dec-2016
                 7-Oct-2020 
 ******************************************
 %NoSave
 %nproc=12
 Will use up to   12 processors via shared memory.
 %mem=20GB
 %chk=MN_27_clch3clcomp_BH76_BP86DBJ_631Gs
 ----------------------------------------------------------------------
 #P Opt(MaxCyc=100) BP86/6-31G* 5D 7F Integral=UltraFineGrid SCF=(NoSym
 m,XQC,MaxCyc=120) EmpiricalDispersion=GD3BJ IOp(1/33=1)
 ----------------------------------------------------------------------
 1/6=100,18=20,19=15,26=4,33=1,38=1/1,3;
 2/9=110,12=2,17=6,18=5,40=1/2;
 3/5=1,6=6,7=1,8=11,11=2,25=1,30=1,71=1,74=404,75=-5,124=41/1,2,3;
 4/9=2/1;
 5/5=2,7=120,8=3,13=1,38=5/2,8;
 6/7=2,8=2,9=2,10=2,28=1/1;
 7//1,2,3,16;
 1/6=100,18=20,19=15,26=4,33=1/3(2);
 2/9=110/2;
 99//99;
 2/9=110/2;
 3/5=1,6=6,7=1,8=11,11=2,25=1,30=1,71=1,74=404,75=-5,124=41/1,2,3;
 4/5=5,9=2,16=3,69=1/1;
 5/5=2,7=120,8=3,13=1,38=5/2,8;
 7//1,2,3,16;
 1/6=100,18=20,19=15,26=4,33=1/3(-5);
 2/9=110/2;
 6/7=2,8=2,9=2,10=2,19=2,28=1/1;
 99/9=1/99;
 Leave Link    1 at Wed Oct  7 14:07:00 2020, MaxMem=  2684354560 cpu:               5.2 elap:               0.5
 (Enter /udrive/faculty/rpeverati/g16/g16/l101.exe)
 ONIOM data not found on unit 2.
 ------------------
 TS search on BH76.
 ------------------
 TstMul:  ICh=    -1
 TstMul:  Mul=     1
 TstMul:  ICh=    -1
 TstMul:  Mul=     1
 Symbolic Z-matrix:
 Charge = -1 Multiplicity = 1
 Cl                    0.        0.       -2.21807 
 C                     0.        0.       -0.39967 
 H                    -0.51253   0.88773  -0.05771 
 H                    -0.51253  -0.88773  -0.05771 
 H                     1.02506   0.       -0.05771 
 Cl                    0.        0.        2.79088 
 
 RdStrC is calling ZToCFu for IStruc=1 NZ=     6.
 PrtBox:  NBox=     2 Levels=  1 BoxLen=    8.00 SMaxX=        9.47
          Shift=            0.968545            1.677569            4.191549
 Box      1 Number                   0 centers from      1 to      5:
 Box      2 Number                   1 centers from      6 to      6:
 After GenITR:
 ITRead=  0  0  0  0  0  0
 MicOpt= -1 -1 -1 -1 -1 -1
 Add virtual bond connecting atoms Cl6        and H3         Dist= 5.72D+00.
 Add virtual bond connecting atoms Cl6        and H4         Dist= 5.72D+00.
 Add virtual bond connecting atoms Cl6        and H5         Dist= 5.72D+00.
 ITRead=  0  0  0  0  0  0
 MicOpt= -1 -1 -1 -1 -1 -1
 NAtoms=      6 NQM=        6 NQMF=       0 NMMI=      0 NMMIF=      0
                NMic=       0 NMicF=      0.
                    Isotopes and Nuclear Properties:
 (Nuclear quadrupole moments (NQMom) in fm**2, nuclear magnetic moments (NMagM)
  in nuclear magnetons)

  Atom         1           2           3           4           5           6
 IAtWgt=          35          12           1           1           1          35
 AtmWgt=  34.9688527  12.0000000   1.0078250   1.0078250   1.0078250  34.9688527
 NucSpn=           3           0           1           1           1           3
 AtZEff=   0.0000000   0.0000000   0.0000000   0.0000000   0.0000000   0.0000000
 NQMom=   -8.1650000   0.0000000   0.0000000   0.0000000   0.0000000  -8.1650000
 NMagM=    0.8218740   0.0000000   2.7928460   2.7928460   2.7928460   0.8218740
 AtZNuc=  17.0000000   6.0000000   1.0000000   1.0000000   1.0000000  17.0000000
 No MM parameters found.
 Leave Link  101 at Wed Oct  7 14:07:02 2020, MaxMem=  2684354560 cpu:              13.7 elap:               1.3
 (Enter /udrive/faculty/rpeverati/g16/g16/l103.exe)

 GradGradGradGradGradGradGradGradGradGradGradGradGradGradGradGradGradGrad
 Berny optimization.
 Optmz: redundant internal coordinate code flag= 1
 Initialization pass.
                           ----------------------------
                           !    Initial Parameters    !
                           ! (Angstroms and Degrees)  !
 --------------------------                            --------------------------
 ! Name  Definition              Value          Derivative Info.                !
 --------------------------------------------------------------------------------
 ! R1    R(1,2)                  1.8184         estimate D2E/DX2                !
 ! R2    R(2,3)                  1.0806         estimate D2E/DX2                !
 ! R3    R(2,4)                  1.0806         estimate D2E/DX2                !
 ! R4    R(2,5)                  1.0806         estimate D2E/DX2                !
 ! R5    R(3,6)                  3.0274         estimate D2E/DX2                !
 ! R6    R(4,6)                  3.0274         estimate D2E/DX2                !
 ! R7    R(5,6)                  3.0274         estimate D2E/DX2                !
 ! A1    A(1,2,3)              108.4482         estimate D2E/DX2                !
 ! A2    A(1,2,4)              108.4482         estimate D2E/DX2                !
 ! A3    A(1,2,5)              108.4482         estimate D2E/DX2                !
 ! A4    A(3,2,4)              110.4746         estimate D2E/DX2                !
 ! A5    A(3,2,5)              110.4746         estimate D2E/DX2                !
 ! A6    A(4,2,5)              110.4746         estimate D2E/DX2                !
 ! A7    A(2,3,6)               88.657          estimate D2E/DX2                !
 ! A8    A(2,4,6)               88.657          estimate D2E/DX2                !
 ! A9    A(2,5,6)               88.657          estimate D2E/DX2                !
 ! A10   A(3,6,4)               34.1029         estimate D2E/DX2                !
 ! A11   A(3,6,5)               34.1029         estimate D2E/DX2                !
 ! A12   A(4,6,5)               34.1029         estimate D2E/DX2                !
 ! D1    D(1,2,3,6)            180.0            estimate D2E/DX2                !
 ! D2    D(4,2,3,6)             61.2727         estimate D2E/DX2                !
 ! D3    D(5,2,3,6)            -61.2727         estimate D2E/DX2                !
 ! D4    D(1,2,4,6)            180.0            estimate D2E/DX2                !
 ! D5    D(3,2,4,6)            -61.2727         estimate D2E/DX2                !
 ! D6    D(5,2,4,6)             61.2727         estimate D2E/DX2                !
 ! D7    D(1,2,5,6)            180.0            estimate D2E/DX2                !
 ! D8    D(3,2,5,6)             61.2727         estimate D2E/DX2                !
 ! D9    D(4,2,5,6)            -61.2727         estimate D2E/DX2                !
 ! D10   D(2,3,6,4)            -31.533          estimate D2E/DX2                !
 ! D11   D(2,3,6,5)             31.533          estimate D2E/DX2                !
 ! D12   D(2,4,6,3)             31.533          estimate D2E/DX2                !
 ! D13   D(2,4,6,5)            -31.533          estimate D2E/DX2                !
 ! D14   D(2,5,6,3)            -31.533          estimate D2E/DX2                !
 ! D15   D(2,5,6,4)             31.533          estimate D2E/DX2                !
 --------------------------------------------------------------------------------
 Maximum allowed force set to 1.00D+20.
 Trust Radius=3.00D-01 FncErr=1.00D-07 GrdErr=1.00D-06 EigMax=2.50D+02 EigMin=1.00D-04
 Number of steps in this run=    100 maximum allowed number of steps=    100.
 GradGradGradGradGradGradGradGradGradGradGradGradGradGradGradGradGradGrad

 Leave Link  103 at Wed Oct  7 14:07:02 2020, MaxMem=  2684354560 cpu:               1.7 elap:               0.5
 (Enter /udrive/faculty/rpeverati/g16/g16/l202.exe)
                          Input orientation:                          
 ---------------------------------------------------------------------
 Center     Atomic      Atomic             Coordinates (Angstroms)
 Number     Number       Type             X           Y           Z
 ---------------------------------------------------------------------
      1         17           0        0.000000    0.000000   -2.218072
      2          6           0        0.000000    0.000000   -0.399666
      3          1           0       -0.512532    0.887731   -0.057714
      4          1           0       -0.512532   -0.887731   -0.057714
      5          1           0        1.025064    0.000000   -0.057714
      6         17           0        0.000000    0.000000    2.790881
 ---------------------------------------------------------------------
                    Distance matrix (angstroms):
                    1          2          3          4          5
     1  Cl   0.000000
     2  C    1.818406   0.000000
     3  H    2.391214   1.080596   0.000000
     4  H    2.391214   1.080596   1.775463   0.000000
     5  H    2.391214   1.080596   1.775463   1.775463   0.000000
     6  Cl   5.008953   3.190547   3.027417   3.027417   3.027417
                    6
     6  Cl   0.000000
 Stoichiometry    CH3Cl2(1-)
 Framework group  C3V[C3(ClCCl),3SGV(H)]
 Deg. of freedom     4
 Full point group                 C3V     NOp   6
 Largest Abelian subgroup         CS      NOp   2
 Largest concise Abelian subgroup CS      NOp   2
                         Standard orientation:                         
 ---------------------------------------------------------------------
 Center     Atomic      Atomic             Coordinates (Angstroms)
 Number     Number       Type             X           Y           Z
 ---------------------------------------------------------------------
      1         17           0        0.000000    0.000000   -2.384738
      2          6           0        0.000000    0.000000   -0.566331
      3          1           0       -0.000000    1.025064   -0.224380
      4          1           0       -0.887731   -0.512532   -0.224380
      5          1           0        0.887731   -0.512532   -0.224380
      6         17           0        0.000000    0.000000    2.624216
 ---------------------------------------------------------------------
 Rotational constants (GHZ):         159.0775662           1.1350196           1.1350196
 Leave Link  202 at Wed Oct  7 14:07:03 2020, MaxMem=  2684354560 cpu:               1.1 elap:               0.4
 (Enter /udrive/faculty/rpeverati/g16/g16/l301.exe)
 Standard basis: 6-31G(d) (5D, 7F)
 Ernie: Thresh=  0.10000D-02 Tol=  0.10000D-05 Strict=F.
 There are    43 symmetry adapted cartesian basis functions of A'  symmetry.
 There are    16 symmetry adapted cartesian basis functions of A"  symmetry.
 There are    40 symmetry adapted basis functions of A'  symmetry.
 There are    16 symmetry adapted basis functions of A"  symmetry.
    56 basis functions,   144 primitive gaussians,    59 cartesian basis functions
    22 alpha electrons       22 beta electrons
       nuclear repulsion energy       107.0422334332 Hartrees.
 IExCor=  404 DFT=T Ex=B Corr=P86 ExCW=0 ScaHFX=  0.000000
 ScaDFX=  1.000000  1.000000  1.000000  1.000000 ScalE2=  1.000000  1.000000
 IRadAn=      5 IRanWt=     -1 IRanGd=            0 ICorTp=0 IEmpDi=141
 NAtoms=    6 NActive=    6 NUniq=    4 SFac= 2.25D+00 NAtFMM=   60 NAOKFM=F Big=F
 Integral buffers will be    131072 words long.
 Raffenetti 2 integral format.
 Two-electron integral symmetry is turned on.
 R6Disp:  Grimme-D3(BJ) Dispersion energy=       -0.0054235782 Hartrees.
 Nuclear repulsion after empirical dispersion term =      107.0368098550 Hartrees.
 Leave Link  301 at Wed Oct  7 14:07:04 2020, MaxMem=  2684354560 cpu:               2.4 elap:               0.5
 (Enter /udrive/faculty/rpeverati/g16/g16/l302.exe)
 NPDir=0 NMtPBC=     1 NCelOv=     1 NCel=       1 NClECP=     1 NCelD=      1
         NCelK=      1 NCelE2=     1 NClLst=     1 CellRange=     0.0.
 One-electron integrals computed using PRISM.
 One-electron integral symmetry used in STVInt
 NBasis=    56 RedAO= T EigKep=  1.81D-02  NBF=    40    16
 NBsUse=    56 1.00D-06 EigRej= -1.00D+00 NBFU=    40    16
 Precomputing XC quadrature grid using
 IXCGrd= 4 IRadAn=           5 IRanWt=          -1 IRanGd=           0 AccXCQ= 0.00D+00.
 Generated NRdTot=       0 NPtTot=           0 NUsed=           0 NTot=          32
 NSgBfM=    59    59    59    59    59 MxSgAt=     6 MxSgA2=     6.
 Leave Link  302 at Wed Oct  7 14:07:05 2020, MaxMem=  2684354560 cpu:               4.3 elap:               0.7
 (Enter /udrive/faculty/rpeverati/g16/g16/l303.exe)
 DipDrv:  MaxL=1.
 Leave Link  303 at Wed Oct  7 14:07:05 2020, MaxMem=  2684354560 cpu:               1.3 elap:               0.4
 (Enter /udrive/faculty/rpeverati/g16/g16/l401.exe)
 SCF N**3 symmetry information disabled.
 ExpMin= 1.43D-01 ExpMax= 2.52D+04 ExpMxC= 3.78D+03 IAcc=3 IRadAn=         5 AccDes= 0.00D+00
 Harris functional with IExCor=  404 and IRadAn=       5 diagonalized for initial guess.
 HarFok:  IExCor=  404 AccDes= 0.00D+00 IRadAn=         5 IDoV= 1 UseB2=F ITyADJ=14
 ICtDFT=  3500011 ScaDFX=  1.000000  1.000000  1.000000  1.000000
 FoFCou: FMM=F IPFlag=           0 FMFlag=      100000 FMFlg1=           0
         NFxFlg=           0 DoJE=T BraDBF=F KetDBF=T FulRan=T
         wScrn=  0.000000 ICntrl=       500 IOpCl=  0 I1Cent=   200000004 NGrid=           0
         NMat0=    1 NMatS0=      1 NMatT0=    0 NMatD0=    1 NMtDS0=    0 NMtDT0=    0
 Petite list used in FoFCou.
 Harris En= -960.453538649201    
 JPrj=0 DoOrth=F DoCkMO=F.
 Initial guess orbital symmetries:
       Occupied  (A1) (A1) (A1) (A1) (A1) (A1) (E) (E) (A1) (E)
                 (E) (A1) (A1) (A1) (E) (E) (A1) (E) (E) (A1) (E)
                 (E)
       Virtual   (A1) (A1) (E) (E) (A1) (A1) (A1) (E) (E) (E) (E)
                 (A1) (E) (E) (A1) (E) (E) (A1) (E) (E) (E) (E)
                 (E) (E) (E) (E) (A1) (A1) (A1) (E) (E) (A1) (E)
                 (E)
 The electronic state of the initial guess is 1-A1.
 Leave Link  401 at Wed Oct  7 14:07:06 2020, MaxMem=  2684354560 cpu:               6.0 elap:               0.8
 (Enter /udrive/faculty/rpeverati/g16/g16/l502.exe)
 Keep J ints in memory in symmetry-blocked form, NReq=11835881.
 FoFCou: FMM=F IPFlag=           0 FMFlag=           0 FMFlg1=           0
         NFxFlg=           0 DoJE=F BraDBF=F KetDBF=F FulRan=T
         wScrn=  0.000000 ICntrl=       600 IOpCl=  0 I1Cent=           0 NGrid=           0
         NMat0=    1 NMatS0=   1596 NMatT0=    0 NMatD0=    1 NMtDS0=    0 NMtDT0=    0
 Petite list used in FoFCou.
 Closed shell SCF:
 Using DIIS extrapolation, IDIIS=  1040.
 NGot=  2684354560 LenX=  2683679425 LenY=  2683675503
 Requested convergence on RMS density matrix=1.00D-08 within 120 cycles.
 Requested convergence on MAX density matrix=1.00D-06.
 Requested convergence on             energy=1.00D-06.
 No special actions if energy rises.
 Integral accuracy reduced to 1.0D-05 until final iterations.

 Cycle   1  Pass 0  IDiag  1:
 E= -960.348843426218    
 DIIS: error= 4.08D-02 at cycle   1 NSaved=   1.
 NSaved= 1 IEnMin= 1 EnMin= -960.348843426218     IErMin= 1 ErrMin= 4.08D-02
 ErrMax= 4.08D-02  0.00D+00 EMaxC= 1.00D-01 BMatC= 6.40D-02 BMatP= 6.40D-02
 IDIUse=3 WtCom= 5.92D-01 WtEn= 4.08D-01
 Coeff-Com:  0.100D+01
 Coeff-En:   0.100D+01
 Coeff:      0.100D+01
 Gap=     0.106 Goal=   None    Shift=    0.000
 GapD=    0.106 DampG=1.000 DampE=0.500 DampFc=0.5000 IDamp=-1.
 Damping current iteration by 5.00D-01
 RMSDP=1.64D-02 MaxDP=2.04D-01              OVMax= 2.75D-01

 Cycle   2  Pass 0  IDiag  1:
 E= -960.375579797734     Delta-E=       -0.026736371516 Rises=F Damp=T
 DIIS: error= 9.05D-03 at cycle   2 NSaved=   2.
 NSaved= 2 IEnMin= 2 EnMin= -960.375579797734     IErMin= 2 ErrMin= 9.05D-03
 ErrMax= 9.05D-03  0.00D+00 EMaxC= 1.00D-01 BMatC= 6.27D-03 BMatP= 6.40D-02
 IDIUse=3 WtCom= 9.09D-01 WtEn= 9.05D-02
 Coeff-Com:  0.192D+00 0.808D+00
 Coeff-En:   0.307D+00 0.693D+00
 Coeff:      0.203D+00 0.797D+00
 Gap=     0.121 Goal=   None    Shift=    0.000
 RMSDP=3.16D-03 MaxDP=4.38D-02 DE=-2.67D-02 OVMax= 1.64D-01

 Cycle   3  Pass 0  IDiag  1:
 E= -960.428247191287     Delta-E=       -0.052667393553 Rises=F Damp=F
 DIIS: error= 2.26D-03 at cycle   3 NSaved=   3.
 NSaved= 3 IEnMin= 3 EnMin= -960.428247191287     IErMin= 3 ErrMin= 2.26D-03
 ErrMax= 2.26D-03  0.00D+00 EMaxC= 1.00D-01 BMatC= 6.20D-04 BMatP= 6.27D-03
 IDIUse=3 WtCom= 9.77D-01 WtEn= 2.26D-02
 Coeff-Com:  0.529D-01 0.235D+00 0.712D+00
 Coeff-En:   0.000D+00 0.000D+00 0.100D+01
 Coeff:      0.517D-01 0.230D+00 0.719D+00
 Gap=     0.119 Goal=   None    Shift=    0.000
 RMSDP=9.92D-04 MaxDP=1.44D-02 DE=-5.27D-02 OVMax= 1.38D-02

 Cycle   4  Pass 0  IDiag  1:
 E= -960.428889334410     Delta-E=       -0.000642143123 Rises=F Damp=F
 DIIS: error= 9.39D-04 at cycle   4 NSaved=   4.
 NSaved= 4 IEnMin= 4 EnMin= -960.428889334410     IErMin= 4 ErrMin= 9.39D-04
 ErrMax= 9.39D-04  0.00D+00 EMaxC= 1.00D-01 BMatC= 8.31D-05 BMatP= 6.20D-04
 IDIUse=3 WtCom= 9.91D-01 WtEn= 9.39D-03
 Coeff-Com:  0.133D-01 0.373D-01 0.284D+00 0.666D+00
 Coeff-En:   0.000D+00 0.000D+00 0.000D+00 0.100D+01
 Coeff:      0.132D-01 0.369D-01 0.281D+00 0.669D+00
 Gap=     0.123 Goal=   None    Shift=    0.000
 RMSDP=3.52D-04 MaxDP=5.25D-03 DE=-6.42D-04 OVMax= 5.62D-03

 Cycle   5  Pass 0  IDiag  1:
 E= -960.428992788377     Delta-E=       -0.000103453968 Rises=F Damp=F
 DIIS: error= 3.23D-04 at cycle   5 NSaved=   5.
 NSaved= 5 IEnMin= 5 EnMin= -960.428992788377     IErMin= 5 ErrMin= 3.23D-04
 ErrMax= 3.23D-04  0.00D+00 EMaxC= 1.00D-01 BMatC= 6.23D-06 BMatP= 8.31D-05
 IDIUse=3 WtCom= 9.97D-01 WtEn= 3.23D-03
 Coeff-Com:  0.328D-02 0.339D-02 0.961D-01 0.321D+00 0.576D+00
 Coeff-En:   0.000D+00 0.000D+00 0.000D+00 0.000D+00 0.100D+01
 Coeff:      0.327D-02 0.338D-02 0.958D-01 0.320D+00 0.578D+00
 Gap=     0.122 Goal=   None    Shift=    0.000
 RMSDP=8.38D-05 MaxDP=9.60D-04 DE=-1.03D-04 OVMax= 1.64D-03

 Cycle   6  Pass 0  IDiag  1:
 E= -960.428999988704     Delta-E=       -0.000007200326 Rises=F Damp=F
 DIIS: error= 6.93D-05 at cycle   6 NSaved=   6.
 NSaved= 6 IEnMin= 6 EnMin= -960.428999988704     IErMin= 6 ErrMin= 6.93D-05
 ErrMax= 6.93D-05  0.00D+00 EMaxC= 1.00D-01 BMatC= 3.70D-07 BMatP= 6.23D-06
 IDIUse=1 WtCom= 1.00D+00 WtEn= 0.00D+00
 Coeff-Com:  0.942D-03 0.631D-03 0.341D-01 0.128D+00 0.297D+00 0.540D+00
 Coeff:      0.942D-03 0.631D-03 0.341D-01 0.128D+00 0.297D+00 0.540D+00
 Gap=     0.122 Goal=   None    Shift=    0.000
 RMSDP=2.30D-05 MaxDP=2.98D-04 DE=-7.20D-06 OVMax= 4.28D-04

 Cycle   7  Pass 0  IDiag  1:
 E= -960.429000449033     Delta-E=       -0.000000460329 Rises=F Damp=F
 DIIS: error= 2.03D-05 at cycle   7 NSaved=   7.
 NSaved= 7 IEnMin= 7 EnMin= -960.429000449033     IErMin= 7 ErrMin= 2.03D-05
 ErrMax= 2.03D-05  0.00D+00 EMaxC= 1.00D-01 BMatC= 2.39D-08 BMatP= 3.70D-07
 IDIUse=1 WtCom= 1.00D+00 WtEn= 0.00D+00
 Coeff-Com:  0.337D-03 0.225D-03 0.120D-01 0.457D-01 0.114D+00 0.270D+00
 Coeff-Com:  0.558D+00
 Coeff:      0.337D-03 0.225D-03 0.120D-01 0.457D-01 0.114D+00 0.270D+00
 Coeff:      0.558D+00
 Gap=     0.122 Goal=   None    Shift=    0.000
 RMSDP=5.12D-06 MaxDP=8.26D-05 DE=-4.60D-07 OVMax= 8.45D-05

 Initial convergence to 1.0D-05 achieved.  Increase integral accuracy.
 Cycle   8  Pass 1  IDiag  1:
 E= -960.429001074911     Delta-E=       -0.000000625878 Rises=F Damp=F
 DIIS: error= 1.13D-05 at cycle   1 NSaved=   1.
 NSaved= 1 IEnMin= 1 EnMin= -960.429001074911     IErMin= 1 ErrMin= 1.13D-05
 ErrMax= 1.13D-05  0.00D+00 EMaxC= 1.00D-01 BMatC= 3.78D-09 BMatP= 3.78D-09
 IDIUse=1 WtCom= 1.00D+00 WtEn= 0.00D+00
 Coeff-Com:  0.100D+01
 Coeff:      0.100D+01
 Gap=     0.122 Goal=   None    Shift=    0.000
 RMSDP=5.12D-06 MaxDP=8.26D-05 DE=-6.26D-07 OVMax= 3.50D-05

 Cycle   9  Pass 1  IDiag  1:
 E= -960.429001079000     Delta-E=       -0.000000004088 Rises=F Damp=F
 DIIS: error= 5.16D-06 at cycle   2 NSaved=   2.
 NSaved= 2 IEnMin= 2 EnMin= -960.429001079000     IErMin= 2 ErrMin= 5.16D-06
 ErrMax= 5.16D-06  0.00D+00 EMaxC= 1.00D-01 BMatC= 1.35D-09 BMatP= 3.78D-09
 IDIUse=1 WtCom= 1.00D+00 WtEn= 0.00D+00
 Coeff-Com:  0.340D+00 0.660D+00
 Coeff:      0.340D+00 0.660D+00
 Gap=     0.122 Goal=   None    Shift=    0.000
 RMSDP=2.00D-06 MaxDP=3.08D-05 DE=-4.09D-09 OVMax= 3.90D-05

 Cycle  10  Pass 1  IDiag  1:
 E= -960.429001080159     Delta-E=       -0.000000001159 Rises=F Damp=F
 DIIS: error= 2.91D-06 at cycle   3 NSaved=   3.
 NSaved= 3 IEnMin= 3 EnMin= -960.429001080159     IErMin= 3 ErrMin= 2.91D-06
 ErrMax= 2.91D-06  0.00D+00 EMaxC= 1.00D-01 BMatC= 4.39D-10 BMatP= 1.35D-09
 IDIUse=1 WtCom= 1.00D+00 WtEn= 0.00D+00
 Coeff-Com:  0.399D-01 0.367D+00 0.593D+00
 Coeff:      0.399D-01 0.367D+00 0.593D+00
 Gap=     0.122 Goal=   None    Shift=    0.000
 RMSDP=8.49D-07 MaxDP=1.23D-05 DE=-1.16D-09 OVMax= 1.75D-05

 Cycle  11  Pass 1  IDiag  1:
 E= -960.429001080727     Delta-E=       -0.000000000568 Rises=F Damp=F
 DIIS: error= 7.62D-07 at cycle   4 NSaved=   4.
 NSaved= 4 IEnMin= 4 EnMin= -960.429001080727     IErMin= 4 ErrMin= 7.62D-07
 ErrMax= 7.62D-07  0.00D+00 EMaxC= 1.00D-01 BMatC= 2.85D-11 BMatP= 4.39D-10
 IDIUse=1 WtCom= 1.00D+00 WtEn= 0.00D+00
 Coeff-Com:  0.729D-02 0.178D+00 0.334D+00 0.481D+00
 Coeff:      0.729D-02 0.178D+00 0.334D+00 0.481D+00
 Gap=     0.122 Goal=   None    Shift=    0.000
 RMSDP=1.20D-07 MaxDP=1.10D-06 DE=-5.68D-10 OVMax= 2.06D-06

 Cycle  12  Pass 1  IDiag  1:
 E= -960.429001080756     Delta-E=       -0.000000000029 Rises=F Damp=F
 DIIS: error= 1.56D-07 at cycle   5 NSaved=   5.
 NSaved= 5 IEnMin= 5 EnMin= -960.429001080756     IErMin= 5 ErrMin= 1.56D-07
 ErrMax= 1.56D-07  0.00D+00 EMaxC= 1.00D-01 BMatC= 9.61D-13 BMatP= 2.85D-11
 IDIUse=1 WtCom= 1.00D+00 WtEn= 0.00D+00
 Coeff-Com:  0.298D-02 0.863D-01 0.166D+00 0.266D+00 0.479D+00
 Coeff:      0.298D-02 0.863D-01 0.166D+00 0.266D+00 0.479D+00
 Gap=     0.122 Goal=   None    Shift=    0.000
 RMSDP=2.39D-08 MaxDP=3.75D-07 DE=-2.93D-11 OVMax= 4.07D-07

 Cycle  13  Pass 1  IDiag  1:
 E= -960.429001080757     Delta-E=       -0.000000000001 Rises=F Damp=F
 DIIS: error= 2.09D-08 at cycle   6 NSaved=   6.
 NSaved= 6 IEnMin= 6 EnMin= -960.429001080757     IErMin= 6 ErrMin= 2.09D-08
 ErrMax= 2.09D-08  0.00D+00 EMaxC= 1.00D-01 BMatC= 3.20D-14 BMatP= 9.61D-13
 IDIUse=1 WtCom= 1.00D+00 WtEn= 0.00D+00
 Coeff-Com:  0.831D-03 0.271D-01 0.532D-01 0.895D-01 0.217D+00 0.612D+00
 Coeff:      0.831D-03 0.271D-01 0.532D-01 0.895D-01 0.217D+00 0.612D+00
 Gap=     0.122 Goal=   None    Shift=    0.000
 RMSDP=5.50D-09 MaxDP=1.08D-07 DE=-6.82D-13 OVMax= 1.01D-07

 SCF Done:  E(RB-P86) =  -960.429001081     A.U. after   13 cycles
            NFock= 13  Conv=0.55D-08     -V/T= 2.0023
 KE= 9.582725639842D+02 PE=-2.504856061118D+03 EE= 4.791176861979D+02
 Leave Link  502 at Wed Oct  7 14:07:09 2020, MaxMem=  2684354560 cpu:              20.7 elap:               2.2
 (Enter /udrive/faculty/rpeverati/g16/g16/l508.exe)
 QCSCF skips out because SCF is already converged.
 Leave Link  508 at Wed Oct  7 14:07:10 2020, MaxMem=  2684354560 cpu:               0.7 elap:               0.5
 (Enter /udrive/faculty/rpeverati/g16/g16/l601.exe)
 Copying SCF densities to generalized density rwf, IOpCl= 0 IROHF=0.

 **********************************************************************

            Population analysis using the SCF density.

 **********************************************************************

 Orbital symmetries:
       Occupied  (A1) (A1) (A1) (A1) (A1) (A1) (E) (E) (A1) (E)
                 (E) (A1) (A1) (A1) (E) (E) (A1) (E) (E) (A1) (E)
                 (E)
       Virtual   (A1) (A1) (E) (E) (A1) (A1) (E) (E) (A1) (E) (E)
                 (A1) (E) (E) (A1) (E) (E) (E) (E) (A1) (E) (E)
                 (E) (E) (E) (E) (A1) (A1) (A1) (E) (E) (A1) (E)
                 (E)
 The electronic state is 1-A1.
 Alpha  occ. eigenvalues -- -100.57196-100.40111  -9.79943  -9.03580  -8.85898
 Alpha  occ. eigenvalues --   -6.85999  -6.84981  -6.84981  -6.67769  -6.67670
 Alpha  occ. eigenvalues --   -6.67670  -0.63315  -0.46323  -0.40262  -0.24760
 Alpha  occ. eigenvalues --   -0.24760  -0.22869  -0.12347  -0.12347   0.01358
 Alpha  occ. eigenvalues --    0.01753   0.01753
 Alpha virt. eigenvalues --    0.13930   0.24361   0.27937   0.27937   0.49038
 Alpha virt. eigenvalues --    0.52222   0.54849   0.54849   0.58328   0.62331
 Alpha virt. eigenvalues --    0.62331   0.65936   0.68164   0.68164   0.89685
 Alpha virt. eigenvalues --    0.93415   0.93415   0.98552   0.98552   0.99014
 Alpha virt. eigenvalues --    1.01613   1.01613   1.12182   1.12182   1.12577
 Alpha virt. eigenvalues --    1.12577   1.12814   1.15928   1.35393   1.76291
 Alpha virt. eigenvalues --    1.76291   2.23837   2.30278   2.30278
          Condensed to atoms (all electrons):
               1          2          3          4          5          6
     1  Cl  17.222448   0.108845  -0.041631  -0.041631  -0.041631   0.002859
     2  C    0.108845   5.304608   0.373675   0.373675   0.373675  -0.001678
     3  H   -0.041631   0.373675   0.487657  -0.023452  -0.023452   0.008053
     4  H   -0.041631   0.373675  -0.023452   0.487657  -0.023452   0.008053
     5  H   -0.041631   0.373675  -0.023452  -0.023452   0.487657   0.008053
     6  Cl   0.002859  -0.001678   0.008053   0.008053   0.008053  17.890052
 Mulliken charges:
               1
     1  Cl  -0.209259
     2  C   -0.532801
     3  H    0.219151
     4  H    0.219151
     5  H    0.219151
     6  Cl  -0.915392
 Sum of Mulliken charges =  -1.00000
 Mulliken charges with hydrogens summed into heavy atoms:
               1
     1  Cl  -0.209259
     2  C    0.124651
     6  Cl  -0.915392
 Electronic spatial extent (au):  <R**2>=            890.3592
 Charge=             -1.0000 electrons
 Dipole moment (field-independent basis, Debye):
    X=             -0.0000    Y=             -0.0000    Z=             -7.9800  Tot=              7.9800
 Quadrupole moment (field-independent basis, Debye-Ang):
   XX=            -35.4848   YY=            -35.4848   ZZ=            -74.8034
   XY=             -0.0000   XZ=              0.0000   YZ=             -0.0000
 Traceless Quadrupole moment (field-independent basis, Debye-Ang):
   XX=             13.1062   YY=             13.1062   ZZ=            -26.2124
   XY=             -0.0000   XZ=              0.0000   YZ=             -0.0000
 Octapole moment (field-independent basis, Debye-Ang**2):
  XXX=             -0.0000  YYY=              0.8158  ZZZ=            -75.1600  XYY=              0.0000
  XXY=             -0.8158  XXZ=             -4.7645  XZZ=              0.0000  YZZ=              0.0000
  YYZ=             -4.7645  XYZ=              0.0000
 Hexadecapole moment (field-independent basis, Debye-Ang**3):
 XXXX=            -46.8060 YYYY=            -46.8060 ZZZZ=          -1364.0255 XXXY=              0.0000
 XXXZ=              0.0000 YYYX=              0.0000 YYYZ=             -0.2075 ZZZX=              0.0000
 ZZZY=             -0.0000 XXYY=            -15.6020 XXZZ=           -200.3661 YYZZ=           -200.3661
 XXYZ=              0.2075 YYXZ=             -0.0000 ZZXY=              0.0000
 N-N= 1.070368098550D+02 E-N=-2.504856059167D+03  KE= 9.582725639842D+02
 No NMR shielding tensors so no spin-rotation constants.
 Leave Link  601 at Wed Oct  7 14:07:11 2020, MaxMem=  2684354560 cpu:               5.1 elap:               0.9
 (Enter /udrive/faculty/rpeverati/g16/g16/l701.exe)
 ... and contract with generalized density number  0.
 Compute integral first derivatives.
 R6Disp: Adding Grimme-D3(BJ) dispersion energy 1st derivatives to the gradient.
 Leave Link  701 at Wed Oct  7 14:07:12 2020, MaxMem=  2684354560 cpu:               4.0 elap:               0.7
 (Enter /udrive/faculty/rpeverati/g16/g16/l702.exe)
 L702 exits ... SP integral derivatives will be done elsewhere.
 Leave Link  702 at Wed Oct  7 14:07:13 2020, MaxMem=  2684354560 cpu:               2.0 elap:               0.6
 (Enter /udrive/faculty/rpeverati/g16/g16/l703.exe)
 Integral derivatives from FoFJK, PRISM(SPDF).
 Compute integral first derivatives, UseDBF=F ICtDFT=           0.
 Calling FoFJK, ICntrl=      2527 FMM=F ISym2X=1 I1Cent= 0 IOpClX= 0 NMat=1 NMatS=1 NMatT=0.
 FoFJK:  IHMeth= 1 ICntrl=    2527 DoSepK=F KAlg= 0 I1Cent=           0 FoldK=F
 IRaf=         0 NMat=       1 IRICut=       1 DoRegI=T DoRafI=F ISym2E= 1 IDoP0=0 IntGTp=1.
 FoFCou: FMM=F IPFlag=           0 FMFlag=      100000 FMFlg1=         800
         NFxFlg=           0 DoJE=F BraDBF=F KetDBF=F FulRan=T
         wScrn=  0.000000 ICntrl=      2527 IOpCl=  0 I1Cent=           0 NGrid=           0
         NMat0=    1 NMatS0=      1 NMatT0=    0 NMatD0=    1 NMtDS0=    0 NMtDT0=    0
 Petite list used in FoFCou.
 Leave Link  703 at Wed Oct  7 14:07:14 2020, MaxMem=  2684354560 cpu:               9.3 elap:               1.3
 (Enter /udrive/faculty/rpeverati/g16/g16/l716.exe)
 Dipole        =-2.22044605D-16 0.00000000D+00-3.13955564D+00
 ***** Axes restored to original set *****
 -------------------------------------------------------------------
 Center     Atomic                   Forces (Hartrees/Bohr)
 Number     Number              X              Y              Z
 -------------------------------------------------------------------
      1       17           0.000000000   -0.000000000   -0.016735748
      2        6          -0.000000000   -0.000000000    0.004154117
      3        1          -0.004504511    0.007802042    0.005066047
      4        1          -0.004504511   -0.007802042    0.005066047
      5        1           0.009009022    0.000000000    0.005066047
      6       17           0.000000000   -0.000000000   -0.002616511
 -------------------------------------------------------------------
 Cartesian Forces:  Max     0.016735748 RMS     0.005891001
 Leave Link  716 at Wed Oct  7 14:07:15 2020, MaxMem=  2684354560 cpu:               2.1 elap:               0.7
 (Enter /udrive/faculty/rpeverati/g16/g16/l103.exe)

 GradGradGradGradGradGradGradGradGradGradGradGradGradGradGradGradGradGrad
 Berny optimization.
 Optmz: redundant internal coordinate code flag= 1
 FormGI is forming the generalized inverse of G from B-inverse, IUseBI=4.
 Internal  Forces:  Max     0.016735748 RMS     0.004083150
 Search for a local minimum.
 Step number   1 out of a maximum of  100
 All quantities printed in internal units (Hartrees-Bohrs-Radians)
 RMS Force = .40832D-02 SwitMx=.10000D-02 MixMth= 1
 Mixed Optimization -- RFO/linear search
 Second derivative matrix not updated -- first step.
 The second derivative matrix:
                          R1        R2        R3        R4        R5
           R1           0.24719
           R2           0.00000   0.35922
           R3           0.00000   0.00000   0.35922
           R4           0.00000   0.00000   0.00000   0.35922
           R5           0.00000   0.00000   0.00000   0.00000   0.01338
           R6           0.00000   0.00000   0.00000   0.00000   0.00000
           R7           0.00000   0.00000   0.00000   0.00000   0.00000
           A1           0.00000   0.00000   0.00000   0.00000   0.00000
           A2           0.00000   0.00000   0.00000   0.00000   0.00000
           A3           0.00000   0.00000   0.00000   0.00000   0.00000
           A4           0.00000   0.00000   0.00000   0.00000   0.00000
           A5           0.00000   0.00000   0.00000   0.00000   0.00000
           A6           0.00000   0.00000   0.00000   0.00000   0.00000
           A7           0.00000   0.00000   0.00000   0.00000   0.00000
           A8           0.00000   0.00000   0.00000   0.00000   0.00000
           A9           0.00000   0.00000   0.00000   0.00000   0.00000
           A10          0.00000   0.00000   0.00000   0.00000   0.00000
           A11          0.00000   0.00000   0.00000   0.00000   0.00000
           A12          0.00000   0.00000   0.00000   0.00000   0.00000
           D1           0.00000   0.00000   0.00000   0.00000   0.00000
           D2           0.00000   0.00000   0.00000   0.00000   0.00000
           D3           0.00000   0.00000   0.00000   0.00000   0.00000
           D4           0.00000   0.00000   0.00000   0.00000   0.00000
           D5           0.00000   0.00000   0.00000   0.00000   0.00000
           D6           0.00000   0.00000   0.00000   0.00000   0.00000
           D7           0.00000   0.00000   0.00000   0.00000   0.00000
           D8           0.00000   0.00000   0.00000   0.00000   0.00000
           D9           0.00000   0.00000   0.00000   0.00000   0.00000
           D10          0.00000   0.00000   0.00000   0.00000   0.00000
           D11          0.00000   0.00000   0.00000   0.00000   0.00000
           D12          0.00000   0.00000   0.00000   0.00000   0.00000
           D13          0.00000   0.00000   0.00000   0.00000   0.00000
           D14          0.00000   0.00000   0.00000   0.00000   0.00000
           D15          0.00000   0.00000   0.00000   0.00000   0.00000
                          R6        R7        A1        A2        A3
           R6           0.01338
           R7           0.00000   0.01338
           A1           0.00000   0.00000   0.16000
           A2           0.00000   0.00000   0.00000   0.16000
           A3           0.00000   0.00000   0.00000   0.00000   0.16000
           A4           0.00000   0.00000   0.00000   0.00000   0.00000
           A5           0.00000   0.00000   0.00000   0.00000   0.00000
           A6           0.00000   0.00000   0.00000   0.00000   0.00000
           A7           0.00000   0.00000   0.00000   0.00000   0.00000
           A8           0.00000   0.00000   0.00000   0.00000   0.00000
           A9           0.00000   0.00000   0.00000   0.00000   0.00000
           A10          0.00000   0.00000   0.00000   0.00000   0.00000
           A11          0.00000   0.00000   0.00000   0.00000   0.00000
           A12          0.00000   0.00000   0.00000   0.00000   0.00000
           D1           0.00000   0.00000   0.00000   0.00000   0.00000
           D2           0.00000   0.00000   0.00000   0.00000   0.00000
           D3           0.00000   0.00000   0.00000   0.00000   0.00000
           D4           0.00000   0.00000   0.00000   0.00000   0.00000
           D5           0.00000   0.00000   0.00000   0.00000   0.00000
           D6           0.00000   0.00000   0.00000   0.00000   0.00000
           D7           0.00000   0.00000   0.00000   0.00000   0.00000
           D8           0.00000   0.00000   0.00000   0.00000   0.00000
           D9           0.00000   0.00000   0.00000   0.00000   0.00000
           D10          0.00000   0.00000   0.00000   0.00000   0.00000
           D11          0.00000   0.00000   0.00000   0.00000   0.00000
           D12          0.00000   0.00000   0.00000   0.00000   0.00000
           D13          0.00000   0.00000   0.00000   0.00000   0.00000
           D14          0.00000   0.00000   0.00000   0.00000   0.00000
           D15          0.00000   0.00000   0.00000   0.00000   0.00000
                          A4        A5        A6        A7        A8
           A4           0.16000
           A5           0.00000   0.16000
           A6           0.00000   0.00000   0.16000
           A7           0.00000   0.00000   0.00000   0.25000
           A8           0.00000   0.00000   0.00000   0.00000   0.25000
           A9           0.00000   0.00000   0.00000   0.00000   0.00000
           A10          0.00000   0.00000   0.00000   0.00000   0.00000
           A11          0.00000   0.00000   0.00000   0.00000   0.00000
           A12          0.00000   0.00000   0.00000   0.00000   0.00000
           D1           0.00000   0.00000   0.00000   0.00000   0.00000
           D2           0.00000   0.00000   0.00000   0.00000   0.00000
           D3           0.00000   0.00000   0.00000   0.00000   0.00000
           D4           0.00000   0.00000   0.00000   0.00000   0.00000
           D5           0.00000   0.00000   0.00000   0.00000   0.00000
           D6           0.00000   0.00000   0.00000   0.00000   0.00000
           D7           0.00000   0.00000   0.00000   0.00000   0.00000
           D8           0.00000   0.00000   0.00000   0.00000   0.00000
           D9           0.00000   0.00000   0.00000   0.00000   0.00000
           D10          0.00000   0.00000   0.00000   0.00000   0.00000
           D11          0.00000   0.00000   0.00000   0.00000   0.00000
           D12          0.00000   0.00000   0.00000   0.00000   0.00000
           D13          0.00000   0.00000   0.00000   0.00000   0.00000
           D14          0.00000   0.00000   0.00000   0.00000   0.00000
           D15          0.00000   0.00000   0.00000   0.00000   0.00000
                          A9        A10       A11       A12       D1
           A9           0.25000
           A10          0.00000   0.16000
           A11          0.00000   0.00000   0.16000
           A12          0.00000   0.00000   0.00000   0.16000
           D1           0.00000   0.00000   0.00000   0.00000   0.00359
           D2           0.00000   0.00000   0.00000   0.00000   0.00000
           D3           0.00000   0.00000   0.00000   0.00000   0.00000
           D4           0.00000   0.00000   0.00000   0.00000   0.00000
           D5           0.00000   0.00000   0.00000   0.00000   0.00000
           D6           0.00000   0.00000   0.00000   0.00000   0.00000
           D7           0.00000   0.00000   0.00000   0.00000   0.00000
           D8           0.00000   0.00000   0.00000   0.00000   0.00000
           D9           0.00000   0.00000   0.00000   0.00000   0.00000
           D10          0.00000   0.00000   0.00000   0.00000   0.00000
           D11          0.00000   0.00000   0.00000   0.00000   0.00000
           D12          0.00000   0.00000   0.00000   0.00000   0.00000
           D13          0.00000   0.00000   0.00000   0.00000   0.00000
           D14          0.00000   0.00000   0.00000   0.00000   0.00000
           D15          0.00000   0.00000   0.00000   0.00000   0.00000
                          D2        D3        D4        D5        D6
           D2           0.00359
           D3           0.00000   0.00359
           D4           0.00000   0.00000   0.00359
           D5           0.00000   0.00000   0.00000   0.00359
           D6           0.00000   0.00000   0.00000   0.00000   0.00359
           D7           0.00000   0.00000   0.00000   0.00000   0.00000
           D8           0.00000   0.00000   0.00000   0.00000   0.00000
           D9           0.00000   0.00000   0.00000   0.00000   0.00000
           D10          0.00000   0.00000   0.00000   0.00000   0.00000
           D11          0.00000   0.00000   0.00000   0.00000   0.00000
           D12          0.00000   0.00000   0.00000   0.00000   0.00000
           D13          0.00000   0.00000   0.00000   0.00000   0.00000
           D14          0.00000   0.00000   0.00000   0.00000   0.00000
           D15          0.00000   0.00000   0.00000   0.00000   0.00000
                          D7        D8        D9        D10       D11
           D7           0.00359
           D8           0.00000   0.00359
           D9           0.00000   0.00000   0.00359
           D10          0.00000   0.00000   0.00000   0.00230
           D11          0.00000   0.00000   0.00000   0.00000   0.00230
           D12          0.00000   0.00000   0.00000   0.00000   0.00000
           D13          0.00000   0.00000   0.00000   0.00000   0.00000
           D14          0.00000   0.00000   0.00000   0.00000   0.00000
           D15          0.00000   0.00000   0.00000   0.00000   0.00000
                          D12       D13       D14       D15
           D12          0.00230
           D13          0.00000   0.00230
           D14          0.00000   0.00000   0.00230
           D15          0.00000   0.00000   0.00000   0.00230
 ITU=  0
 Eigenvectors of the second derivative matrix:
                           1         2         3         4         5
     Eigenvalues --     0.01517   0.03278   0.03278   0.07289   0.07289
   1         R1        -0.00000   0.00000  -0.00000  -0.00000  -0.00000
   2         R2        -0.00838   0.02339   0.00419   0.00941   0.00312
   3         R3        -0.00838  -0.00807  -0.02236  -0.00201  -0.00971
   4         R4        -0.00838  -0.01533   0.01816  -0.00740   0.00659
   5         R5        -0.57273  -0.48558  -0.08699  -0.08601  -0.02848
   6         R6        -0.57273   0.16746   0.46402   0.01835   0.08873
   7         R7        -0.57273   0.31813  -0.37703   0.06767  -0.06025
   8         A1         0.01997  -0.08147  -0.01459  -0.32227  -0.10669
   9         A2         0.01997   0.02810   0.07785   0.06874   0.33244
  10         A3         0.01997   0.05337  -0.06326   0.25353  -0.22575
  11         A4        -0.01919   0.06777  -0.08032  -0.30873   0.27490
  12         A5        -0.01919   0.03567   0.09885  -0.08370  -0.40482
  13         A6        -0.01919  -0.10344  -0.01853   0.39243   0.12992
  14         A7        -0.01218   0.23205   0.04157   0.04024   0.01332
  15         A8        -0.01218  -0.08002  -0.22175  -0.00858  -0.04151
  16         A9        -0.01218  -0.15203   0.18018  -0.03166   0.02819
  17         A10        0.05481   0.03378  -0.04004  -0.06098   0.05430
  18         A11        0.05481   0.01778   0.04928  -0.01653  -0.07996
  19         A12        0.05481  -0.05157  -0.00924   0.07751   0.02566
  20         D1         0.00000  -0.06036   0.33691  -0.12721   0.38426
  21         D2        -0.02523  -0.08462   0.29802   0.16588  -0.11630
  22         D3         0.02523  -0.02410   0.30886  -0.06371  -0.19231
  23         D4         0.00000   0.32195  -0.11619   0.39639  -0.08196
  24         D5         0.02523   0.27953  -0.13356  -0.13469   0.15133
  25         D6        -0.02523   0.30040  -0.07573  -0.18366  -0.08551
  26         D7        -0.00000  -0.26160  -0.22073  -0.26917  -0.30230
  27         D8        -0.02523  -0.21578  -0.22229   0.01778   0.20181
  28         D9         0.02523  -0.25543  -0.17530   0.19840   0.04098
  29         D10       -0.00516   0.09498  -0.09843  -0.17921   0.16373
  30         D11        0.00516  -0.05491  -0.12528   0.04610   0.23832
  31         D12        0.00516  -0.08104   0.11019   0.18334  -0.15909
  32         D13       -0.00516  -0.13273  -0.03304   0.23140   0.07333
  33         D14       -0.00516   0.03775   0.13147  -0.05219  -0.23706
  34         D15        0.00516   0.13595   0.01509  -0.22944  -0.07923
                           6         7         8         9        10
     Eigenvalues --     0.09633   0.09633   0.09933   0.24719   0.31260
   1         R1         0.00000  -0.00000   0.00000   1.00000   0.00000
   2         R2         0.01102  -0.01649   0.02860  -0.00000  -0.72371
   3         R3        -0.01979  -0.00129   0.02860  -0.00000   0.53503
   4         R4         0.00878   0.01779   0.02860  -0.00000   0.18867
   5         R5        -0.20272   0.30350   0.03087  -0.00000   0.00153
   6         R6         0.36420   0.02381   0.03087  -0.00000  -0.00113
   7         R7        -0.16148  -0.32731   0.03087  -0.00000  -0.00040
   8         A1         0.26010  -0.38941   0.22806  -0.00000  -0.00627
   9         A2        -0.46729  -0.03055   0.22806  -0.00000   0.00464
  10         A3         0.20719   0.41996   0.22806   0.00000   0.00163
  11         A4         0.15130   0.30668  -0.21923   0.00000   0.00157
  12         A5        -0.34125  -0.02231  -0.21923   0.00000   0.00445
  13         A6         0.18994  -0.28438  -0.21923   0.00000  -0.00601
  14         A7         0.09667  -0.14473   0.25234  -0.00000   0.11749
  15         A8        -0.17367  -0.01135   0.25234   0.00000  -0.08686
  16         A9         0.07700   0.15608   0.25234   0.00000  -0.03063
  17         A10        0.02223   0.04507  -0.04139  -0.00000  -0.02803
  18         A11       -0.05015  -0.00328  -0.04139  -0.00000  -0.07948
  19         A12        0.02791  -0.04179  -0.04139  -0.00000   0.10750
  20         D1        -0.25359  -0.16938   0.00000  -0.00000  -0.00081
  21         D2         0.06840  -0.07462  -0.28815   0.00000  -0.00356
  22         D3        -0.04273   0.09176   0.28815  -0.00000  -0.00004
  23         D4        -0.01989   0.30430  -0.00000   0.00000  -0.00214
  24         D5         0.10083  -0.00887   0.28815  -0.00000  -0.00603
  25         D6        -0.09882  -0.02193  -0.28815  -0.00000  -0.00343
  26         D7         0.27348  -0.13492  -0.00000  -0.00000   0.00295
  27         D8         0.03042   0.09654  -0.28815   0.00000   0.00699
  28         D9        -0.05810  -0.08289   0.28815  -0.00000   0.00607
  29         D10        0.07682   0.13914   0.00389   0.00000  -0.18473
  30         D11        0.15795   0.01767  -0.00389  -0.00000   0.12775
  31         D12       -0.06367  -0.14562  -0.00389   0.00000  -0.19056
  32         D13        0.08209  -0.13609   0.00389  -0.00000   0.04046
  33         D14       -0.15890  -0.00304   0.00389  -0.00000   0.14427
  34         D15       -0.09428   0.12795  -0.00389  -0.00000   0.06281
                          11        12
     Eigenvalues --     0.31260   0.34031
   1         R1         0.00000  -0.00000
   2         R2         0.19997  -0.54699
   3         R3         0.52676  -0.54699
   4         R4        -0.72674  -0.54699
   5         R5        -0.00042  -0.01130
   6         R6        -0.00111  -0.01130
   7         R7         0.00153  -0.01130
   8         A1         0.00173  -0.01030
   9         A2         0.00456  -0.01030
  10         A3        -0.00630  -0.01030
  11         A4        -0.00604   0.00990
  12         A5         0.00438   0.00990
  13         A6         0.00166   0.00990
  14         A7        -0.03246   0.08414
  15         A8        -0.08551   0.08414
  16         A9         0.11798   0.08414
  17         A10        0.10795  -0.16100
  18         A11       -0.07825  -0.16100
  19         A12       -0.02970  -0.16100
  20         D1        -0.00294  -0.00000
  21         D2        -0.00601   0.01302
  22         D3        -0.00699  -0.01302
  23         D4         0.00217  -0.00000
  24         D5         0.00352  -0.01302
  25         D6         0.00609   0.01302
  26         D7         0.00077   0.00000
  27         D8        -0.00007   0.01302
  28         D9         0.00346  -0.01302
  29         D10       -0.05994   0.01515
  30         D11       -0.14628  -0.01515
  31         D12       -0.03749  -0.01515
  32         D13        0.18995   0.01515
  33         D14       -0.13001   0.01515
  34         D15        0.18378  -0.01515
 Iter=   1 RLamda= 0.00000000D+00 Sum=-2.14568608D-03.
 Iter=   2 RLamda=-2.14568608D-03 Sum=-2.11226959D-03.
 Iter=   3 RLamda=-2.11226959D-03 Sum=-2.11275466D-03.
 Iter=   4 RLamda=-2.11275466D-03 Sum=-2.11274761D-03.
 RFO step:  Lambda=-2.11275466D-03 EMin= 1.51743270D-02
 Linear search not attempted -- first point.
 Iteration  1 RMS(Cart)=  0.01563964 RMS(Int)=  0.00010332
 Iteration  2 RMS(Cart)=  0.00005778 RMS(Int)=  0.00003418
 Iteration  3 RMS(Cart)=  0.00000000 RMS(Int)=  0.00003418
 ITry= 1 IFail=0 DXMaxC= 6.14D-02 DCOld= 1.00D+10 DXMaxT= 3.00D-01 DXLimC= 3.00D+00 Rises=F
 ClnCor:  largest displacement from symmetrization is 4.87D-09 for atom     1.
 Variable       Old X    -DE/DX   Delta X   Delta X   Delta X     New X
                                 (Linear)    (Quad)   (Total)
    R1        3.43629   0.01674   0.00000   0.06713   0.06713   3.50342
    R2        2.04203   0.00920   0.00000   0.02663   0.02661   2.06864
    R3        2.04203   0.00920   0.00000   0.02663   0.02661   2.06864
    R4        2.04203   0.00920   0.00000   0.02663   0.02661   2.06864
    R5        5.72099  -0.00058   0.00000  -0.04723  -0.04722   5.67377
    R6        5.72099  -0.00058   0.00000  -0.04723  -0.04722   5.67377
    R7        5.72099  -0.00058   0.00000  -0.04723  -0.04722   5.67377
    A1        1.89278   0.00071   0.00000   0.00719   0.00721   1.89999
    A2        1.89278   0.00071   0.00000   0.00719   0.00721   1.89999
    A3        1.89278   0.00071   0.00000   0.00719   0.00721   1.89999
    A4        1.92814  -0.00068   0.00000  -0.00691  -0.00699   1.92115
    A5        1.92814  -0.00068   0.00000  -0.00691  -0.00699   1.92115
    A6        1.92814  -0.00068   0.00000  -0.00691  -0.00699   1.92115
    A7        1.54736  -0.00086   0.00000   0.00039   0.00038   1.54773
    A8        1.54736  -0.00086   0.00000   0.00039   0.00038   1.54773
    A9        1.54736  -0.00086   0.00000   0.00039   0.00038   1.54773
   A10        0.59521   0.00268   0.00000   0.01159   0.01165   0.60686
   A11        0.59521   0.00268   0.00000   0.01159   0.01165   0.60686
   A12        0.59521   0.00268   0.00000   0.01159   0.01165   0.60686
    D1        3.14159   0.00000   0.00000   0.00000   0.00000  -3.14159
    D2        1.06941  -0.00090   0.00000  -0.00909  -0.00906   1.06035
    D3       -1.06941   0.00090   0.00000   0.00909   0.00906  -1.06035
    D4        3.14159  -0.00000   0.00000  -0.00000   0.00000   3.14159
    D5       -1.06941   0.00090   0.00000   0.00909   0.00906  -1.06035
    D6        1.06941  -0.00090   0.00000  -0.00909  -0.00906   1.06035
    D7        3.14159   0.00000   0.00000   0.00000   0.00000   3.14159
    D8        1.06941  -0.00090   0.00000  -0.00909  -0.00906   1.06035
    D9       -1.06941   0.00090   0.00000   0.00909   0.00906  -1.06035
   D10       -0.55035  -0.00025   0.00000  -0.00109  -0.00111  -0.55146
   D11        0.55035   0.00025   0.00000   0.00109   0.00111   0.55146
   D12        0.55035   0.00025   0.00000   0.00109   0.00111   0.55146
   D13       -0.55035  -0.00025   0.00000  -0.00109  -0.00111  -0.55146
   D14       -0.55035  -0.00025   0.00000  -0.00109  -0.00111  -0.55146
   D15        0.55035   0.00025   0.00000   0.00109   0.00111   0.55146
         Item               Value     Threshold  Converged?
 Maximum Force            0.016736     0.000450     NO 
 RMS     Force            0.004083     0.000300     NO 
 Maximum Displacement     0.061367     0.001800     NO 
 RMS     Displacement     0.015648     0.001200     NO 
 Predicted change in Energy=-1.071686D-03
 Lowest energy point so far.  Saving SCF results.
 Largest change from initial coordinates is atom    1       0.016 Angstoms.
 GradGradGradGradGradGradGradGradGradGradGradGradGradGradGradGradGradGrad

 Leave Link  103 at Wed Oct  7 14:07:16 2020, MaxMem=  2684354560 cpu:               4.4 elap:               0.8
 (Enter /udrive/faculty/rpeverati/g16/g16/l202.exe)
                          Input orientation:                          
 ---------------------------------------------------------------------
 Center     Atomic      Atomic             Coordinates (Angstroms)
 Number     Number       Type             X           Y           Z
 ---------------------------------------------------------------------
      1         17           0        0.000000    0.000000   -2.250546
      2          6           0        0.000000   -0.000000   -0.396616
      3          1           0       -0.517948    0.897113   -0.042726
      4          1           0       -0.517948   -0.897113   -0.042726
      5          1           0        1.035896   -0.000000   -0.042726
      6         17           0        0.000000    0.000000    2.775341
 ---------------------------------------------------------------------
                    Distance matrix (angstroms):
                    1          2          3          4          5
     1  Cl   0.000000
     2  C    1.853931   0.000000
     3  H    2.438760   1.094678   0.000000
     4  H    2.438760   1.094678   1.794225   0.000000
     5  H    2.438760   1.094678   1.794225   1.794225   0.000000
     6  Cl   5.025887   3.171957   3.002429   3.002429   3.002429
                    6
     6  Cl   0.000000
 Stoichiometry    CH3Cl2(1-)
 Framework group  C3V[C3(ClCCl),3SGV(H)]
 Deg. of freedom     4
 Full point group                 C3V     NOp   6
 RotChk:  IX=0 Diff= 0.00D+00
 Largest Abelian subgroup         CS      NOp   2
 Largest concise Abelian subgroup CS      NOp   2
                         Standard orientation:                         
 ---------------------------------------------------------------------
 Center     Atomic      Atomic             Coordinates (Angstroms)
 Number     Number       Type             X           Y           Z
 ---------------------------------------------------------------------
      1         17           0        0.000000    0.000000   -2.399701
      2          6           0        0.000000    0.000000   -0.545770
      3          1           0       -0.000000    1.035896   -0.191880
      4          1           0       -0.897113   -0.517948   -0.191880
      5          1           0        0.897113   -0.517948   -0.191880
      6         17           0        0.000000    0.000000    2.626187
 ---------------------------------------------------------------------
 Rotational constants (GHZ):         155.7679652           1.1284660           1.1284660
 Leave Link  202 at Wed Oct  7 14:07:17 2020, MaxMem=  2684354560 cpu:               1.4 elap:               0.5
 (Enter /udrive/faculty/rpeverati/g16/g16/l301.exe)
 Standard basis: 6-31G(d) (5D, 7F)
 Ernie: Thresh=  0.10000D-02 Tol=  0.10000D-05 Strict=F.
 There are    43 symmetry adapted cartesian basis functions of A'  symmetry.
 There are    16 symmetry adapted cartesian basis functions of A"  symmetry.
 There are    40 symmetry adapted basis functions of A'  symmetry.
 There are    16 symmetry adapted basis functions of A"  symmetry.
    56 basis functions,   144 primitive gaussians,    59 cartesian basis functions
    22 alpha electrons       22 beta electrons
       nuclear repulsion energy       106.2011420864 Hartrees.
 IExCor=  404 DFT=T Ex=B Corr=P86 ExCW=0 ScaHFX=  0.000000
 ScaDFX=  1.000000  1.000000  1.000000  1.000000 ScalE2=  1.000000  1.000000
 IRadAn=      5 IRanWt=     -1 IRanGd=            0 ICorTp=0 IEmpDi=141
 NAtoms=    6 NActive=    6 NUniq=    4 SFac= 2.25D+00 NAtFMM=   60 NAOKFM=F Big=F
 Integral buffers will be    131072 words long.
 Raffenetti 2 integral format.
 Two-electron integral symmetry is turned on.
 R6Disp:  Grimme-D3(BJ) Dispersion energy=       -0.0054299123 Hartrees.
 Nuclear repulsion after empirical dispersion term =      106.1957121741 Hartrees.
 Leave Link  301 at Wed Oct  7 14:07:18 2020, MaxMem=  2684354560 cpu:               2.0 elap:               0.6
 (Enter /udrive/faculty/rpeverati/g16/g16/l302.exe)
 NPDir=0 NMtPBC=     1 NCelOv=     1 NCel=       1 NClECP=     1 NCelD=      1
         NCelK=      1 NCelE2=     1 NClLst=     1 CellRange=     0.0.
 One-electron integrals computed using PRISM.
 One-electron integral symmetry used in STVInt
 NBasis=    56 RedAO= T EigKep=  1.93D-02  NBF=    40    16
 NBsUse=    56 1.00D-06 EigRej= -1.00D+00 NBFU=    40    16
 Precomputing XC quadrature grid using
 IXCGrd= 4 IRadAn=           5 IRanWt=          -1 IRanGd=           0 AccXCQ= 0.00D+00.
 Generated NRdTot=       0 NPtTot=           0 NUsed=           0 NTot=          32
 NSgBfM=    59    59    59    59    59 MxSgAt=     6 MxSgA2=     6.
 Leave Link  302 at Wed Oct  7 14:07:19 2020, MaxMem=  2684354560 cpu:               4.1 elap:               0.7
 (Enter /udrive/faculty/rpeverati/g16/g16/l303.exe)
 DipDrv:  MaxL=1.
 Leave Link  303 at Wed Oct  7 14:07:19 2020, MaxMem=  2684354560 cpu:               2.3 elap:               0.6
 (Enter /udrive/faculty/rpeverati/g16/g16/l401.exe)
 Initial guess from the checkpoint file:  "MN_27_clch3clcomp_BH76_BP86DBJ_631Gs.chk"
 SCF N**3 symmetry information disabled.
 B after Tr=    -0.000000    0.000000    0.000000
         Rot=    1.000000   -0.000000    0.000000    0.000000 Ang=   0.00 deg.
 Guess basis will be translated and rotated to current coordinates.
 JPrj=2 DoOrth=T DoCkMO=T.
 Initial guess orbital symmetries:
       Occupied  (A1) (A1) (A1) (A1) (A1) (A1) (E) (E) (A1) (E)
                 (E) (A1) (A1) (A1) (E) (E) (A1) (E) (E) (A1) (E)
                 (E)
       Virtual   (A1) (A1) (E) (E) (A1) (A1) (E) (E) (A1) (E) (E)
                 (A1) (E) (E) (A1) (E) (E) (E) (E) (A1) (E) (E)
                 (E) (E) (E) (E) (A1) (A1) (A1) (E) (E) (A1) (E)
                 (E)
 The electronic state of the initial guess is 1-A1.
 Generating alternative initial guess.
 ExpMin= 1.43D-01 ExpMax= 2.52D+04 ExpMxC= 3.78D+03 IAcc=2 IRadAn=         4 AccDes= 0.00D+00
 Harris functional with IExCor=  404 and IRadAn=       4 diagonalized for initial guess.
 HarFok:  IExCor=  404 AccDes= 0.00D+00 IRadAn=         4 IDoV= 1 UseB2=F ITyADJ=14
 ICtDFT=  3500011 ScaDFX=  1.000000  1.000000  1.000000  1.000000
 FoFCou: FMM=F IPFlag=           0 FMFlag=      100000 FMFlg1=           0
         NFxFlg=           0 DoJE=T BraDBF=F KetDBF=T FulRan=T
         wScrn=  0.000000 ICntrl=       500 IOpCl=  0 I1Cent=   200000004 NGrid=           0
         NMat0=    1 NMatS0=      1 NMatT0=    0 NMatD0=    1 NMtDS0=    0 NMtDT0=    0
 Petite list used in FoFCou.
 Harris En= -960.453038961605    
 Leave Link  401 at Wed Oct  7 14:07:21 2020, MaxMem=  2684354560 cpu:               6.7 elap:               0.9
 (Enter /udrive/faculty/rpeverati/g16/g16/l502.exe)
 Keep J ints in memory in symmetry-blocked form, NReq=11835881.
 FoFCou: FMM=F IPFlag=           0 FMFlag=           0 FMFlg1=           0
         NFxFlg=           0 DoJE=F BraDBF=F KetDBF=F FulRan=T
         wScrn=  0.000000 ICntrl=       600 IOpCl=  0 I1Cent=           0 NGrid=           0
         NMat0=    1 NMatS0=   1596 NMatT0=    0 NMatD0=    1 NMtDS0=    0 NMtDT0=    0
 Petite list used in FoFCou.
 Closed shell SCF:
 Using DIIS extrapolation, IDIIS=  1040.
 NGot=  2684354560 LenX=  2683679425 LenY=  2683675503
 Requested convergence on RMS density matrix=1.00D-08 within 120 cycles.
 Requested convergence on MAX density matrix=1.00D-06.
 Requested convergence on             energy=1.00D-06.
 No special actions if energy rises.
 Integral accuracy reduced to 1.0D-05 until final iterations.

 Cycle   1  Pass 0  IDiag  1:
 E= -960.429922682049    
 DIIS: error= 2.37D-03 at cycle   1 NSaved=   1.
 NSaved= 1 IEnMin= 1 EnMin= -960.429922682049     IErMin= 1 ErrMin= 2.37D-03
 ErrMax= 2.37D-03  0.00D+00 EMaxC= 1.00D-01 BMatC= 2.37D-04 BMatP= 2.37D-04
 IDIUse=3 WtCom= 9.76D-01 WtEn= 2.37D-02
 Coeff-Com:  0.100D+01
 Coeff-En:   0.100D+01
 Coeff:      0.100D+01
 Gap=     0.117 Goal=   None    Shift=    0.000
 GapD=    0.117 DampG=1.000 DampE=1.000 DampFc=1.0000 IDamp=-1.
 RMSDP=6.28D-04 MaxDP=7.73D-03              OVMax= 1.14D-02

 Cycle   2  Pass 0  IDiag  1:
 E= -960.429994855971     Delta-E=       -0.000072173922 Rises=F Damp=F
 DIIS: error= 3.00D-03 at cycle   2 NSaved=   2.
 NSaved= 2 IEnMin= 2 EnMin= -960.429994855971     IErMin= 1 ErrMin= 2.37D-03
 ErrMax= 3.00D-03  0.00D+00 EMaxC= 1.00D-01 BMatC= 2.48D-04 BMatP= 2.37D-04
 IDIUse=3 WtCom= 9.70D-01 WtEn= 3.00D-02
 Coeff-Com:  0.507D+00 0.493D+00
 Coeff-En:   0.417D+00 0.583D+00
 Coeff:      0.505D+00 0.495D+00
 Gap=     0.113 Goal=   None    Shift=    0.000
 RMSDP=3.62D-04 MaxDP=6.20D-03 DE=-7.22D-05 OVMax= 1.00D-02

 Cycle   3  Pass 0  IDiag  1:
 E= -960.430221119935     Delta-E=       -0.000226263965 Rises=F Damp=F
 DIIS: error= 1.12D-03 at cycle   3 NSaved=   3.
 NSaved= 3 IEnMin= 3 EnMin= -960.430221119935     IErMin= 3 ErrMin= 1.12D-03
 ErrMax= 1.12D-03  0.00D+00 EMaxC= 1.00D-01 BMatC= 4.04D-05 BMatP= 2.37D-04
 IDIUse=3 WtCom= 9.89D-01 WtEn= 1.12D-02
 Coeff-Com:  0.238D-01 0.289D+00 0.687D+00
 Coeff-En:   0.000D+00 0.172D+00 0.828D+00
 Coeff:      0.235D-01 0.288D+00 0.689D+00
 Gap=     0.115 Goal=   None    Shift=    0.000
 RMSDP=1.45D-04 MaxDP=2.19D-03 DE=-2.26D-04 OVMax= 3.14D-03

 Cycle   4  Pass 0  IDiag  1:
 E= -960.430265799694     Delta-E=       -0.000044679759 Rises=F Damp=F
 DIIS: error= 1.14D-04 at cycle   4 NSaved=   4.
 NSaved= 4 IEnMin= 4 EnMin= -960.430265799694     IErMin= 4 ErrMin= 1.14D-04
 ErrMax= 1.14D-04  0.00D+00 EMaxC= 1.00D-01 BMatC= 7.45D-07 BMatP= 4.04D-05
 IDIUse=3 WtCom= 9.99D-01 WtEn= 1.14D-03
 Coeff-Com:  0.710D-02 0.138D+00 0.350D+00 0.505D+00
 Coeff-En:   0.000D+00 0.000D+00 0.000D+00 0.100D+01
 Coeff:      0.709D-02 0.138D+00 0.350D+00 0.505D+00
 Gap=     0.115 Goal=   None    Shift=    0.000
 RMSDP=3.24D-05 MaxDP=4.92D-04 DE=-4.47D-05 OVMax= 5.81D-04

 Cycle   5  Pass 0  IDiag  1:
 E= -960.430266777105     Delta-E=       -0.000000977411 Rises=F Damp=F
 DIIS: error= 2.24D-05 at cycle   5 NSaved=   5.
 NSaved= 5 IEnMin= 5 EnMin= -960.430266777105     IErMin= 5 ErrMin= 2.24D-05
 ErrMax= 2.24D-05  0.00D+00 EMaxC= 1.00D-01 BMatC= 1.82D-08 BMatP= 7.45D-07
 IDIUse=1 WtCom= 1.00D+00 WtEn= 0.00D+00
 Coeff-Com:  0.738D-03 0.366D-01 0.977D-01 0.185D+00 0.680D+00
 Coeff:      0.738D-03 0.366D-01 0.977D-01 0.185D+00 0.680D+00
 Gap=     0.115 Goal=   None    Shift=    0.000
 RMSDP=5.49D-06 MaxDP=9.50D-05 DE=-9.77D-07 OVMax= 9.92D-05

 Initial convergence to 1.0D-05 achieved.  Increase integral accuracy.
 Cycle   6  Pass 1  IDiag  1:
 E= -960.430266862282     Delta-E=       -0.000000085177 Rises=F Damp=F
 DIIS: error= 1.15D-05 at cycle   1 NSaved=   1.
 NSaved= 1 IEnMin= 1 EnMin= -960.430266862282     IErMin= 1 ErrMin= 1.15D-05
 ErrMax= 1.15D-05  0.00D+00 EMaxC= 1.00D-01 BMatC= 5.10D-09 BMatP= 5.10D-09
 IDIUse=1 WtCom= 1.00D+00 WtEn= 0.00D+00
 Coeff-Com:  0.100D+01
 Coeff:      0.100D+01
 Gap=     0.115 Goal=   None    Shift=    0.000
 RMSDP=5.49D-06 MaxDP=9.50D-05 DE=-8.52D-08 OVMax= 1.43D-04

 Cycle   7  Pass 1  IDiag  1:
 E= -960.430266815367     Delta-E=        0.000000046915 Rises=F Damp=F
 DIIS: error= 8.98D-06 at cycle   2 NSaved=   2.
 NSaved= 2 IEnMin= 1 EnMin= -960.430266862282     IErMin= 2 ErrMin= 8.98D-06
 ErrMax= 8.98D-06  0.00D+00 EMaxC= 1.00D-01 BMatC= 7.04D-09 BMatP= 5.10D-09
 IDIUse=1 WtCom= 1.00D+00 WtEn= 0.00D+00
 Coeff-Com:  0.547D+00 0.453D+00
 Coeff:      0.547D+00 0.453D+00
 Gap=     0.115 Goal=   None    Shift=    0.000
 RMSDP=4.06D-06 MaxDP=5.07D-05 DE= 4.69D-08 OVMax= 9.17D-05

 Cycle   8  Pass 1  IDiag  1:
 E= -960.430266825576     Delta-E=       -0.000000010209 Rises=F Damp=F
 DIIS: error= 2.01D-06 at cycle   3 NSaved=   3.
 NSaved= 3 IEnMin= 1 EnMin= -960.430266862282     IErMin= 3 ErrMin= 2.01D-06
 ErrMax= 2.01D-06  0.00D+00 EMaxC= 1.00D-01 BMatC= 2.41D-10 BMatP= 5.10D-09
 IDIUse=1 WtCom= 1.00D+00 WtEn= 0.00D+00
 Coeff-Com:  0.305D-01 0.162D+00 0.807D+00
 Coeff:      0.305D-01 0.162D+00 0.807D+00
 Gap=     0.115 Goal=   None    Shift=    0.000
 RMSDP=5.64D-07 MaxDP=8.25D-06 DE=-1.02D-08 OVMax= 1.17D-05

 Cycle   9  Pass 1  IDiag  1:
 E= -960.430266825869     Delta-E=       -0.000000000293 Rises=F Damp=F
 DIIS: error= 5.91D-07 at cycle   4 NSaved=   4.
 NSaved= 4 IEnMin= 1 EnMin= -960.430266862282     IErMin= 4 ErrMin= 5.91D-07
 ErrMax= 5.91D-07  0.00D+00 EMaxC= 1.00D-01 BMatC= 2.57D-11 BMatP= 2.41D-10
 IDIUse=1 WtCom= 1.00D+00 WtEn= 0.00D+00
 Coeff-Com:  0.104D-01 0.926D-01 0.480D+00 0.417D+00
 Coeff:      0.104D-01 0.926D-01 0.480D+00 0.417D+00
 Gap=     0.115 Goal=   None    Shift=    0.000
 RMSDP=1.21D-07 MaxDP=2.58D-06 DE=-2.93D-10 OVMax= 3.07D-06

 Cycle  10  Pass 1  IDiag  1:
 E= -960.430266825898     Delta-E=       -0.000000000029 Rises=F Damp=F
 DIIS: error= 2.00D-07 at cycle   5 NSaved=   5.
 NSaved= 5 IEnMin= 1 EnMin= -960.430266862282     IErMin= 5 ErrMin= 2.00D-07
 ErrMax= 2.00D-07  0.00D+00 EMaxC= 1.00D-01 BMatC= 9.23D-13 BMatP= 2.57D-11
 IDIUse=1 WtCom= 1.00D+00 WtEn= 0.00D+00
 Coeff-Com:  0.344D-02 0.413D-01 0.207D+00 0.215D+00 0.532D+00
 Coeff:      0.344D-02 0.413D-01 0.207D+00 0.215D+00 0.532D+00
 Gap=     0.115 Goal=   None    Shift=    0.000
 RMSDP=1.93D-08 MaxDP=2.74D-07 DE=-2.91D-11 OVMax= 2.89D-07

 Cycle  11  Pass 1  IDiag  1:
 E= -960.430266825899     Delta-E=       -0.000000000000 Rises=F Damp=F
 DIIS: error= 2.92D-08 at cycle   6 NSaved=   6.
 NSaved= 6 IEnMin= 1 EnMin= -960.430266862282     IErMin= 6 ErrMin= 2.92D-08
 ErrMax= 2.92D-08  0.00D+00 EMaxC= 1.00D-01 BMatC= 5.10D-14 BMatP= 9.23D-13
 IDIUse=1 WtCom= 1.00D+00 WtEn= 0.00D+00
 Coeff-Com:  0.579D-03 0.945D-02 0.415D-01 0.505D-01 0.234D+00 0.664D+00
 Coeff:      0.579D-03 0.945D-02 0.415D-01 0.505D-01 0.234D+00 0.664D+00
 Gap=     0.115 Goal=   None    Shift=    0.000
 RMSDP=1.02D-08 MaxDP=1.39D-07 DE=-4.55D-13 OVMax= 2.14D-07

 Cycle  12  Pass 1  IDiag  1:
 E= -960.430266825902     Delta-E=       -0.000000000004 Rises=F Damp=F
 DIIS: error= 4.31D-09 at cycle   7 NSaved=   7.
 NSaved= 7 IEnMin= 1 EnMin= -960.430266862282     IErMin= 7 ErrMin= 4.31D-09
 ErrMax= 4.31D-09  0.00D+00 EMaxC= 1.00D-01 BMatC= 1.03D-15 BMatP= 5.10D-14
 IDIUse=1 WtCom= 1.00D+00 WtEn= 0.00D+00
 Coeff-Com:  0.159D-03 0.295D-02 0.127D-01 0.162D-01 0.828D-01 0.275D+00
 Coeff-Com:  0.611D+00
 Coeff:      0.159D-03 0.295D-02 0.127D-01 0.162D-01 0.828D-01 0.275D+00
 Coeff:      0.611D+00
 Gap=     0.115 Goal=   None    Shift=    0.000
 RMSDP=7.50D-10 MaxDP=7.89D-09 DE=-3.64D-12 OVMax= 7.44D-09

 SCF Done:  E(RB-P86) =  -960.430266826     A.U. after   12 cycles
            NFock= 12  Conv=0.75D-09     -V/T= 2.0024
 KE= 9.581748014935D+02 PE=-2.503107931684D+03 EE= 4.783071511901D+02
 Leave Link  502 at Wed Oct  7 14:07:23 2020, MaxMem=  2684354560 cpu:              20.7 elap:               2.2
 (Enter /udrive/faculty/rpeverati/g16/g16/l508.exe)
 QCSCF skips out because SCF is already converged.
 Leave Link  508 at Wed Oct  7 14:07:24 2020, MaxMem=  2684354560 cpu:               0.5 elap:               0.6
 (Enter /udrive/faculty/rpeverati/g16/g16/l701.exe)
 ... and contract with generalized density number  0.
 Compute integral first derivatives.
 R6Disp: Adding Grimme-D3(BJ) dispersion energy 1st derivatives to the gradient.
 Leave Link  701 at Wed Oct  7 14:07:25 2020, MaxMem=  2684354560 cpu:               3.9 elap:               0.7
 (Enter /udrive/faculty/rpeverati/g16/g16/l702.exe)
 L702 exits ... SP integral derivatives will be done elsewhere.
 Leave Link  702 at Wed Oct  7 14:07:26 2020, MaxMem=  2684354560 cpu:               1.6 elap:               0.4
 (Enter /udrive/faculty/rpeverati/g16/g16/l703.exe)
 Integral derivatives from FoFJK, PRISM(SPDF).
 Compute integral first derivatives, UseDBF=F ICtDFT=           0.
 Calling FoFJK, ICntrl=      2527 FMM=F ISym2X=1 I1Cent= 0 IOpClX= 0 NMat=1 NMatS=1 NMatT=0.
 FoFJK:  IHMeth= 1 ICntrl=    2527 DoSepK=F KAlg= 0 I1Cent=           0 FoldK=F
 IRaf=         0 NMat=       1 IRICut=       1 DoRegI=T DoRafI=F ISym2E= 1 IDoP0=0 IntGTp=1.
 FoFCou: FMM=F IPFlag=           0 FMFlag=      100000 FMFlg1=         800
         NFxFlg=           0 DoJE=F BraDBF=F KetDBF=F FulRan=T
         wScrn=  0.000000 ICntrl=      2527 IOpCl=  0 I1Cent=           0 NGrid=           0
         NMat0=    1 NMatS0=      1 NMatT0=    0 NMatD0=    1 NMtDS0=    0 NMtDT0=    0
 Petite list used in FoFCou.
 Leave Link  703 at Wed Oct  7 14:07:27 2020, MaxMem=  2684354560 cpu:               9.5 elap:               1.3
 (Enter /udrive/faculty/rpeverati/g16/g16/l716.exe)
 Dipole        = 0.00000000D+00-3.33066907D-16-3.02905071D+00
 ***** Axes restored to original set *****
 -------------------------------------------------------------------
 Center     Atomic                   Forces (Hartrees/Bohr)
 Number     Number              X              Y              Z
 -------------------------------------------------------------------
      1       17          -0.000000000    0.000000000   -0.004716173
      2        6          -0.000000000   -0.000000000    0.007541174
      3        1          -0.000271553    0.000470343    0.000019367
      4        1          -0.000271553   -0.000470343    0.000019367
      5        1           0.000543105   -0.000000000    0.000019367
      6       17           0.000000000   -0.000000000   -0.002883101
 -------------------------------------------------------------------
 Cartesian Forces:  Max     0.007541174 RMS     0.002214973
 Leave Link  716 at Wed Oct  7 14:07:28 2020, MaxMem=  2684354560 cpu:               1.9 elap:               0.7
 (Enter /udrive/faculty/rpeverati/g16/g16/l103.exe)

 GradGradGradGradGradGradGradGradGradGradGradGradGradGradGradGradGradGrad
 Berny optimization.
 Optmz: redundant internal coordinate code flag= 1
 Using GEDIIS/GDIIS optimizer.
 Red2BG:  D1=  4.69D-01 OD1=  5.71D-02 B2RMS=  0.00D+00 IAprox=0
 FormGI is forming the generalized inverse of G from B-inverse, IUseBI=4.
 Internal  Forces:  Max     0.004716173 RMS     0.000913303
 Search for a local minimum.
 Step number   2 out of a maximum of  100
 All quantities printed in internal units (Hartrees-Bohrs-Radians)
 RMS Force = .91330D-03 SwitMx=.10000D-02 MixMth= 2
 Mixed Optimization -- En-DIIS/RFO-DIIS
 Update second derivatives using D2CorX and points    1    2
 DE= -1.27D-03 DEPred=-1.07D-03 R= 1.18D+00
 TightC=F SS=  1.41D+00  RLast= 1.21D-01 DXNew= 5.0454D-01 3.6162D-01
 Trust test= 1.18D+00 RLast= 1.21D-01 DXMaxT set to 3.62D-01
 The second derivative matrix:
                          R1        R2        R3        R4        R5
           R1           0.20193
           R2          -0.01222   0.36237
           R3          -0.01222   0.00314   0.36237
           R4          -0.01222   0.00314   0.00314   0.36237
           R5           0.00776   0.00491   0.00491   0.00491   0.01327
           R6           0.00776   0.00491   0.00491   0.00491  -0.00011
           R7           0.00776   0.00491   0.00491   0.00491  -0.00011
           A1          -0.00151   0.00035   0.00035   0.00035   0.00059
           A2          -0.00151   0.00035   0.00035   0.00035   0.00059
           A3          -0.00151   0.00035   0.00035   0.00035   0.00059
           A4           0.00149  -0.00032  -0.00032  -0.00032  -0.00057
           A5           0.00149  -0.00032  -0.00032  -0.00032  -0.00057
           A6           0.00149  -0.00032  -0.00032  -0.00032  -0.00057
           A7          -0.00321  -0.00224  -0.00224  -0.00224  -0.00005
           A8          -0.00321  -0.00224  -0.00224  -0.00224  -0.00005
           A9          -0.00321  -0.00224  -0.00224  -0.00224  -0.00005
           A10          0.00244   0.00416   0.00416   0.00416   0.00111
           A11          0.00244   0.00416   0.00416   0.00416   0.00111
           A12          0.00244   0.00416   0.00416   0.00416   0.00111
           D1          -0.00000  -0.00000  -0.00000  -0.00000  -0.00000
           D2          -0.00941  -0.00696  -0.00696  -0.00696  -0.00031
           D3           0.00941   0.00696   0.00696   0.00696   0.00031
           D4          -0.00000  -0.00000  -0.00000  -0.00000  -0.00000
           D5           0.00941   0.00696   0.00696   0.00696   0.00031
           D6          -0.00941  -0.00696  -0.00696  -0.00696  -0.00031
           D7           0.00000   0.00000   0.00000   0.00000   0.00000
           D8          -0.00941  -0.00696  -0.00696  -0.00696  -0.00031
           D9           0.00941   0.00696   0.00696   0.00696   0.00031
           D10         -0.00160  -0.00118  -0.00118  -0.00118  -0.00005
           D11          0.00160   0.00118   0.00118   0.00118   0.00005
           D12          0.00160   0.00118   0.00118   0.00118   0.00005
           D13         -0.00160  -0.00118  -0.00118  -0.00118  -0.00005
           D14         -0.00160  -0.00118  -0.00118  -0.00118  -0.00005
           D15          0.00160   0.00118   0.00118   0.00118   0.00005
                          R6        R7        A1        A2        A3
           R6           0.01327
           R7          -0.00011   0.01327
           A1           0.00059   0.00059   0.16004
           A2           0.00059   0.00059   0.00004   0.16004
           A3           0.00059   0.00059   0.00004   0.00004   0.16004
           A4          -0.00057  -0.00057  -0.00004  -0.00004  -0.00004
           A5          -0.00057  -0.00057  -0.00004  -0.00004  -0.00004
           A6          -0.00057  -0.00057  -0.00004  -0.00004  -0.00004
           A7          -0.00005  -0.00005  -0.00027  -0.00027  -0.00027
           A8          -0.00005  -0.00005  -0.00027  -0.00027  -0.00027
           A9          -0.00005  -0.00005  -0.00027  -0.00027  -0.00027
           A10          0.00111   0.00111   0.00049   0.00049   0.00049
           A11          0.00111   0.00111   0.00049   0.00049   0.00049
           A12          0.00111   0.00111   0.00049   0.00049   0.00049
           D1          -0.00000  -0.00000  -0.00000  -0.00000  -0.00000
           D2          -0.00031  -0.00031  -0.00084  -0.00084  -0.00084
           D3           0.00031   0.00031   0.00084   0.00084   0.00084
           D4          -0.00000  -0.00000  -0.00000  -0.00000  -0.00000
           D5           0.00031   0.00031   0.00084   0.00084   0.00084
           D6          -0.00031  -0.00031  -0.00084  -0.00084  -0.00084
           D7           0.00000   0.00000   0.00000   0.00000   0.00000
           D8          -0.00031  -0.00031  -0.00084  -0.00084  -0.00084
           D9           0.00031   0.00031   0.00084   0.00084   0.00084
           D10         -0.00005  -0.00005  -0.00014  -0.00014  -0.00014
           D11          0.00005   0.00005   0.00014   0.00014   0.00014
           D12          0.00005   0.00005   0.00014   0.00014   0.00014
           D13         -0.00005  -0.00005  -0.00014  -0.00014  -0.00014
           D14         -0.00005  -0.00005  -0.00014  -0.00014  -0.00014
           D15          0.00005   0.00005   0.00014   0.00014   0.00014
                          A4        A5        A6        A7        A8
           A4           0.16003
           A5           0.00003   0.16003
           A6           0.00003   0.00003   0.16003
           A7           0.00026   0.00026   0.00026   0.25007
           A8           0.00026   0.00026   0.00026   0.00007   0.25007
           A9           0.00026   0.00026   0.00026   0.00007   0.00007
           A10         -0.00048  -0.00048  -0.00048  -0.00057  -0.00057
           A11         -0.00048  -0.00048  -0.00048  -0.00057  -0.00057
           A12         -0.00048  -0.00048  -0.00048  -0.00057  -0.00057
           D1           0.00000   0.00000   0.00000   0.00000   0.00000
           D2           0.00081   0.00081   0.00081   0.00028   0.00028
           D3          -0.00081  -0.00081  -0.00081  -0.00028  -0.00028
           D4           0.00000   0.00000   0.00000   0.00000   0.00000
           D5          -0.00081  -0.00081  -0.00081  -0.00028  -0.00028
           D6           0.00081   0.00081   0.00081   0.00028   0.00028
           D7          -0.00000  -0.00000  -0.00000  -0.00000  -0.00000
           D8           0.00081   0.00081   0.00081   0.00028   0.00028
           D9          -0.00081  -0.00081  -0.00081  -0.00028  -0.00028
           D10          0.00014   0.00014   0.00014   0.00005   0.00005
           D11         -0.00014  -0.00014  -0.00014  -0.00005  -0.00005
           D12         -0.00014  -0.00014  -0.00014  -0.00005  -0.00005
           D13          0.00014   0.00014   0.00014   0.00005   0.00005
           D14          0.00014   0.00014   0.00014   0.00005   0.00005
           D15         -0.00014  -0.00014  -0.00014  -0.00005  -0.00005
                          A9        A10       A11       A12       D1
           A9           0.25007
           A10         -0.00057   0.16177
           A11         -0.00057   0.00177   0.16177
           A12         -0.00057   0.00177   0.00177   0.16177
           D1           0.00000  -0.00000  -0.00000  -0.00000   0.00359
           D2           0.00028  -0.00189  -0.00189  -0.00189   0.00000
           D3          -0.00028   0.00189   0.00189   0.00189  -0.00000
           D4           0.00000  -0.00000  -0.00000  -0.00000   0.00000
           D5          -0.00028   0.00189   0.00189   0.00189  -0.00000
           D6           0.00028  -0.00189  -0.00189  -0.00189   0.00000
           D7          -0.00000   0.00000   0.00000   0.00000  -0.00000
           D8           0.00028  -0.00189  -0.00189  -0.00189   0.00000
           D9          -0.00028   0.00189   0.00189   0.00189  -0.00000
           D10          0.00005  -0.00032  -0.00032  -0.00032   0.00000
           D11         -0.00005   0.00032   0.00032   0.00032  -0.00000
           D12         -0.00005   0.00032   0.00032   0.00032  -0.00000
           D13          0.00005  -0.00032  -0.00032  -0.00032   0.00000
           D14          0.00005  -0.00032  -0.00032  -0.00032   0.00000
           D15         -0.00005   0.00032   0.00032   0.00032  -0.00000
                          D2        D3        D4        D5        D6
           D2           0.00467
[...]
  18         A11       -0.08004  -0.05271  -0.01883  -0.01185  -0.11494
  19         A12        0.07370   0.04266  -0.03623  -0.01185   0.08069
  20         D1         0.22425  -0.19797  -0.23309   0.00000  -0.00469
  21         D2         0.00396   0.08189  -0.05559  -0.11066  -0.01293
  22         D3        -0.18772  -0.06811   0.07181   0.11066  -0.00784
  23         D4         0.17486  -0.10288   0.28799  -0.00000  -0.00146
  24         D5         0.03245   0.09625   0.02308   0.11066  -0.00686
  25         D6        -0.17573  -0.08909  -0.04313  -0.11066   0.00039
  26         D7        -0.39911   0.30085  -0.05490   0.00000   0.00614
  27         D8         0.17177   0.00719   0.09872  -0.11066   0.01254
  28         D9         0.15527  -0.02814  -0.09490   0.11066   0.01470
  29         D10        0.02105   0.04047   0.16315   0.00123  -0.18688
  30         D11        0.21796   0.15445   0.06635  -0.00123   0.02872
  31         D12       -0.01374  -0.01977  -0.16693  -0.00123  -0.17817
  32         D13        0.20011   0.12106  -0.11662   0.00123   0.12894
  33         D14       -0.22116  -0.16153  -0.04653   0.00123   0.05793
  34         D15       -0.20422  -0.13468   0.10058  -0.00123   0.14945
                          11        12
     Eigenvalues --     0.31304   0.36200
   1         R1        -0.00000  -0.03543
   2         R2         0.54811   0.54202
   3         R3         0.17059   0.54202
   4         R4        -0.71870   0.54202
   5         R5         0.00959   0.02411
   6         R6         0.00298   0.02411
   7         R7        -0.01257   0.02411
   8         A1         0.00993   0.00997
   9         A2         0.00309   0.00997
  10         A3        -0.01302   0.00997
  11         A4        -0.01279  -0.00918
  12         A5         0.00304  -0.00918
  13         A6         0.00975  -0.00918
  14         A7        -0.08782  -0.09057
  15         A8        -0.02733  -0.09057
  16         A9         0.11516  -0.09057
  17         A10        0.11295   0.17085
  18         A11       -0.02681   0.17085
  19         A12       -0.08614   0.17085
  20         D1        -0.00439   0.00000
  21         D2        -0.00701  -0.01298
  22         D3        -0.01245   0.01298
  23         D4         0.00625  -0.00000
  24         D5         0.01302   0.01298
  25         D6         0.01471  -0.01298
  26         D7        -0.00186   0.00000
  27         D8        -0.00770  -0.01298
  28         D9        -0.00057   0.01298
  29         D10        0.04100  -0.01778
  30         D11       -0.18915   0.01778
  31         D12        0.06971   0.01778
  32         D13        0.14134  -0.01778
  33         D14       -0.18234  -0.01778
  34         D15        0.11945   0.01778
 DoSqrt=T IScMMF=    -3 MM Scaling Factor =       0.00000
 En-DIIS/RFO-DIIS/Sim-DIIS IScMMF=       -3 using points:     8    7    6    5    4    3    2
 Iter=   1 RLamda=-4.50493533D-02 Sum=-7.53828651D-09.
 Iter=   2 RLamda=-7.53828651D-09 Sum=-1.03958224D-08.
 RFO step:  Lambda=-7.53828651D-09.
 NNeg= 0 NGDIIS= 7 SimSw=  2.50D-01 Rises=F DC= -6.76D-07 SmlDif=  1.00D-05
 NRisDI= 0 DoIntr=F SqrtH=F CThrHd= 10.0 CDAdj=  3.0
 RMS Error=  0.8189554081D-04 NUsed= 7 OKEnD=F EnDIS=F
 Total RFO-DIIS matrix:
                 1             2             3             4             5 
      1   0.000000D+00 -0.100000D+01 -0.100000D+01 -0.100000D+01 -0.100000D+01
      2  -0.100000D+01  0.228034D-06 -0.511874D-05 -0.199376D-05 -0.154415D-04
      3  -0.100000D+01 -0.511874D-05  0.171799D-03 -0.169792D-05  0.274237D-03
      4  -0.100000D+01 -0.199376D-05 -0.169792D-05  0.229159D-03  0.454349D-03
      5  -0.100000D+01 -0.154415D-04  0.274237D-03  0.454349D-03  0.166121D-02
      6  -0.100000D+01  0.265992D-05 -0.684735D-03  0.126048D-02  0.212499D-02
      7  -0.100000D+01  0.772013D-04 -0.369706D-02  0.323484D-02  0.106230D-02
      8  -0.100000D+01  0.110713D-03 -0.501389D-02  0.431443D-02  0.724950D-03
                 6             7             8 
      1  -0.100000D+01 -0.100000D+01 -0.100000D+01
      2   0.265992D-05  0.772013D-04  0.110713D-03
      3  -0.684735D-03 -0.369706D-02 -0.501389D-02
      4   0.126048D-02  0.323484D-02  0.431443D-02
      5   0.212499D-02  0.106230D-02  0.724950D-03
      6   0.112642D-01  0.336288D-01  0.438807D-01
      7   0.336288D-01  0.125395D+00  0.167945D+00
      8   0.438807D-01  0.167945D+00  0.225975D+00
 InvSVX:  RCond= 2.85D-20 Info=           9 Equed=N FErr=  0.00D+00 BErr=  0.00D+00
 DIIS inversion failure, remove point   7.
 InvSVX:  RCond= 2.64D-20 Info=           8 Equed=N FErr=  0.00D+00 BErr=  0.00D+00
 DIIS inversion failure, remove point   6.
 InvSVX:  RCond= 2.68D-08 Info=           0 Equed=N FErr=  7.43D-13 BErr=  7.96D-17
 DIIS inversion failure, remove point   5.
 InvSVX:  RCond= 3.13D-06 Info=           0 Equed=N FErr=  2.01D-15 BErr=  8.39D-17
 RFO-DIIS uses    4 points instead of    7
 DidBck=F Rises=F RFO-DIIS coefs:    0.98731    0.01363   -0.01085    0.00991    0.00000
                  RFO-DIIS coefs:    0.00000    0.00000
 Iteration  1 RMS(Cart)=  0.00004527 RMS(Int)=  0.00000037
 Iteration  2 RMS(Cart)=  0.00000000 RMS(Int)=  0.00000037
 ITry= 1 IFail=0 DXMaxC= 1.14D-04 DCOld= 1.00D+10 DXMaxT= 8.07D-01 DXLimC= 3.00D+00 Rises=F
 ClnCor:  largest displacement from symmetrization is 5.29D-12 for atom     1.
 Variable       Old X    -DE/DX   Delta X   Delta X   Delta X     New X
                                 (Linear)    (Quad)   (Total)
    R1        3.59700   0.00001   0.00001   0.00003   0.00004   3.59704
    R2        2.06631  -0.00003   0.00002  -0.00008  -0.00006   2.06625
    R3        2.06631  -0.00003   0.00002  -0.00008  -0.00006   2.06625
    R4        2.06631  -0.00003   0.00002  -0.00008  -0.00006   2.06625
    R5        5.36888  -0.00000  -0.00021  -0.00000  -0.00021   5.36866
    R6        5.36888  -0.00000  -0.00021  -0.00000  -0.00021   5.36866
    R7        5.36888  -0.00000  -0.00021  -0.00000  -0.00021   5.36866
    A1        1.87507   0.00000   0.00007   0.00000   0.00007   1.87513
    A2        1.87507   0.00000   0.00007   0.00000   0.00007   1.87513
    A3        1.87507   0.00000   0.00007   0.00000   0.00007   1.87513
    A4        1.94482  -0.00000  -0.00006  -0.00000  -0.00006   1.94476
    A5        1.94482  -0.00000  -0.00006  -0.00000  -0.00006   1.94476
    A6        1.94482  -0.00000  -0.00006  -0.00000  -0.00006   1.94476
    A7        1.49908   0.00001   0.00006   0.00002   0.00007   1.49915
    A8        1.49908   0.00001   0.00006   0.00002   0.00007   1.49915
    A9        1.49908   0.00001   0.00006   0.00002   0.00007   1.49915
   A10        0.64723  -0.00001   0.00002  -0.00003  -0.00001   0.64722
   A11        0.64723  -0.00001   0.00002  -0.00003  -0.00001   0.64722
   A12        0.64723  -0.00001   0.00002  -0.00003  -0.00001   0.64722
    D1        3.14159   0.00000  -0.00000   0.00000   0.00000   3.14159
    D2        1.09213  -0.00000  -0.00009  -0.00000  -0.00009   1.09204
    D3       -1.09213   0.00000   0.00009   0.00000   0.00009  -1.09204
    D4        3.14159  -0.00000  -0.00000  -0.00000   0.00000   3.14159
    D5       -1.09213   0.00000   0.00009   0.00000   0.00009  -1.09204
    D6        1.09213  -0.00000  -0.00009  -0.00000  -0.00009   1.09204
    D7        3.14159   0.00000  -0.00000   0.00000   0.00000   3.14159
    D8        1.09213  -0.00000  -0.00009  -0.00000  -0.00009   1.09204
    D9       -1.09213   0.00000   0.00009   0.00000   0.00009  -1.09204
   D10       -0.55551   0.00000  -0.00000   0.00000   0.00000  -0.55551
   D11        0.55551  -0.00000   0.00000  -0.00000  -0.00000   0.55551
   D12        0.55551  -0.00000   0.00000  -0.00000  -0.00000   0.55551
   D13       -0.55551   0.00000  -0.00000   0.00000   0.00000  -0.55551
   D14       -0.55551   0.00000  -0.00000   0.00000   0.00000  -0.55551
   D15        0.55551  -0.00000   0.00000  -0.00000  -0.00000   0.55551
         Item               Value     Threshold  Converged?
 Maximum Force            0.000025     0.000450     YES
 RMS     Force            0.000009     0.000300     YES
 Maximum Displacement     0.000114     0.001800     YES
 RMS     Displacement     0.000045     0.001200     YES
 Predicted change in Energy=-5.192756D-09
 Optimization completed.
    -- Stationary point found.
                           ----------------------------
                           !   Optimized Parameters   !
                           ! (Angstroms and Degrees)  !
 --------------------------                            --------------------------
 ! Name  Definition              Value          Derivative Info.                !
 --------------------------------------------------------------------------------
 ! R1    R(1,2)                  1.9035         -DE/DX =    0.0                 !
 ! R2    R(2,3)                  1.0934         -DE/DX =    0.0                 !
 ! R3    R(2,4)                  1.0934         -DE/DX =    0.0                 !
 ! R4    R(2,5)                  1.0934         -DE/DX =    0.0                 !
 ! R5    R(3,6)                  2.8411         -DE/DX =    0.0                 !
 ! R6    R(4,6)                  2.8411         -DE/DX =    0.0                 !
 ! R7    R(5,6)                  2.8411         -DE/DX =    0.0                 !
 ! A1    A(1,2,3)              107.4334         -DE/DX =    0.0                 !
 ! A2    A(1,2,4)              107.4334         -DE/DX =    0.0                 !
 ! A3    A(1,2,5)              107.4334         -DE/DX =    0.0                 !
 ! A4    A(3,2,4)              111.4299         -DE/DX =    0.0                 !
 ! A5    A(3,2,5)              111.4299         -DE/DX =    0.0                 !
 ! A6    A(4,2,5)              111.4299         -DE/DX =    0.0                 !
 ! A7    A(2,3,6)               85.8909         -DE/DX =    0.0                 !
 ! A8    A(2,4,6)               85.8909         -DE/DX =    0.0                 !
 ! A9    A(2,5,6)               85.8909         -DE/DX =    0.0                 !
 ! A10   A(3,6,4)               37.0836         -DE/DX =    0.0                 !
 ! A11   A(3,6,5)               37.0836         -DE/DX =    0.0                 !
 ! A12   A(4,6,5)               37.0836         -DE/DX =    0.0                 !
 ! D1    D(1,2,3,6)            180.0            -DE/DX =    0.0                 !
 ! D2    D(4,2,3,6)             62.5744         -DE/DX =    0.0                 !
 ! D3    D(5,2,3,6)            -62.5744         -DE/DX =    0.0                 !
 ! D4    D(1,2,4,6)            180.0            -DE/DX =    0.0                 !
 ! D5    D(3,2,4,6)            -62.5744         -DE/DX =    0.0                 !
 ! D6    D(5,2,4,6)             62.5744         -DE/DX =    0.0                 !
 ! D7    D(1,2,5,6)            180.0            -DE/DX =    0.0                 !
 ! D8    D(3,2,5,6)             62.5744         -DE/DX =    0.0                 !
 ! D9    D(4,2,5,6)            -62.5744         -DE/DX =    0.0                 !
 ! D10   D(2,3,6,4)            -31.8283         -DE/DX =    0.0                 !
 ! D11   D(2,3,6,5)             31.8283         -DE/DX =    0.0                 !
 ! D12   D(2,4,6,3)             31.8283         -DE/DX =    0.0                 !
 ! D13   D(2,4,6,5)            -31.8283         -DE/DX =    0.0                 !
 ! D14   D(2,5,6,3)            -31.8283         -DE/DX =    0.0                 !
 ! D15   D(2,5,6,4)             31.8283         -DE/DX =    0.0                 !
 --------------------------------------------------------------------------------
 Lowest energy point so far.  Saving SCF results.
 Largest change from initial coordinates is atom    2       0.099 Angstoms.
 GradGradGradGradGradGradGradGradGradGradGradGradGradGradGradGradGradGrad

 Leave Link  103 at Wed Oct  7 14:08:51 2020, MaxMem=  2684354560 cpu:               3.0 elap:               0.6
 (Enter /udrive/faculty/rpeverati/g16/g16/l202.exe)
                          Input orientation:                          
 ---------------------------------------------------------------------
 Center     Atomic      Atomic             Coordinates (Angstroms)
 Number     Number       Type             X           Y           Z
 ---------------------------------------------------------------------
      1         17           0        0.000000   -0.000000   -2.245043
      2          6           0        0.000000   -0.000000   -0.341591
      3          1           0       -0.521610    0.903455   -0.013998
      4          1           0       -0.521610   -0.903455   -0.013998
      5          1           0        1.043220   -0.000000   -0.013998
      6         17           0        0.000000   -0.000000    2.628627
 ---------------------------------------------------------------------
                    Distance matrix (angstroms):
                    1          2          3          4          5
     1  Cl   0.000000
     2  C    1.903452   0.000000
     3  H    2.462899   1.093447   0.000000
     4  H    2.462899   1.093447   1.806910   0.000000
     5  H    2.462899   1.093447   1.806910   1.806910   0.000000
     6  Cl   4.873670   2.970218   2.841086   2.841086   2.841086
                    6
     6  Cl   0.000000
 Stoichiometry    CH3Cl2(1-)
 Framework group  C3V[C3(ClCCl),3SGV(H)]
 Deg. of freedom     4
 Full point group                 C3V     NOp   6
 RotChk:  IX=0 Diff= 0.00D+00
 Largest Abelian subgroup         CS      NOp   2
 Largest concise Abelian subgroup CS      NOp   2
                         Standard orientation:                         
 ---------------------------------------------------------------------
 Center     Atomic      Atomic             Coordinates (Angstroms)
 Number     Number       Type             X           Y           Z
 ---------------------------------------------------------------------
      1         17           0        0.000000    0.000000   -2.348052
      2          6           0        0.000000    0.000000   -0.444600
      3          1           0       -0.000000    1.043220   -0.117007
      4          1           0       -0.903455   -0.521610   -0.117007
      5          1           0        0.903455   -0.521610   -0.117007
      6         17           0        0.000000    0.000000    2.525618
 ---------------------------------------------------------------------
 Rotational constants (GHZ):         153.5885266           1.2035461           1.2035461
 Leave Link  202 at Wed Oct  7 14:08:52 2020, MaxMem=  2684354560 cpu:               1.7 elap:               0.6
 (Enter /udrive/faculty/rpeverati/g16/g16/l601.exe)
 Copying SCF densities to generalized density rwf, IOpCl= 0 IROHF=0.

 **********************************************************************

            Population analysis using the SCF density.

 **********************************************************************

 Orbital symmetries:
       Occupied  (A1) (A1) (A1) (A1) (A1) (A1) (E) (E) (A1) (E)
                 (E) (A1) (A1) (A1) (E) (E) (A1) (E) (E) (A1) (E)
                 (E)
       Virtual   (A1) (A1) (E) (E) (A1) (A1) (E) (E) (A1) (E) (E)
                 (A1) (E) (E) (A1) (E) (E) (A1) (E) (E) (E) (E)
                 (A1) (E) (E) (E) (E) (A1) (A1) (E) (E) (A1) (E)
                 (E)
 The electronic state is 1-A1.
 Alpha  occ. eigenvalues -- -100.55774-100.41159  -9.79932  -9.02061  -8.86980
 Alpha  occ. eigenvalues --   -6.84457  -6.83492  -6.83492  -6.68876  -6.68735
 Alpha  occ. eigenvalues --   -6.68735  -0.60518  -0.45680  -0.41259  -0.23374
 Alpha  occ. eigenvalues --   -0.23374  -0.20737  -0.11368  -0.11368   0.00272
 Alpha  occ. eigenvalues --    0.00747   0.00747
 Alpha virt. eigenvalues --    0.12825   0.24405   0.28394   0.28394   0.49740
 Alpha virt. eigenvalues --    0.54599   0.55703   0.55703   0.58211   0.62995
 Alpha virt. eigenvalues --    0.62995   0.67777   0.68172   0.68172   0.88288
 Alpha virt. eigenvalues --    0.94995   0.94995   0.97720   0.99432   0.99432
 Alpha virt. eigenvalues --    1.01859   1.01859   1.10464   1.11122   1.11122
 Alpha virt. eigenvalues --    1.11989   1.11989   1.19786   1.37228   1.75849
 Alpha virt. eigenvalues --    1.75849   2.19115   2.29324   2.29324
          Condensed to atoms (all electrons):
               1          2          3          4          5          6
     1  Cl  17.278684   0.096326  -0.037138  -0.037138  -0.037138   0.004282
     2  C    0.096326   5.291423   0.373257   0.373257   0.373257  -0.000849
     3  H   -0.037138   0.373257   0.489311  -0.024266  -0.024266   0.006791
     4  H   -0.037138   0.373257  -0.024266   0.489311  -0.024266   0.006791
     5  H   -0.037138   0.373257  -0.024266  -0.024266   0.489311   0.006791
     6  Cl   0.004282  -0.000849   0.006791   0.006791   0.006791  17.850576
 Mulliken charges:
               1
     1  Cl  -0.267878
     2  C   -0.506671
     3  H    0.216311
     4  H    0.216311
     5  H    0.216311
     6  Cl  -0.874382
 Sum of Mulliken charges =  -1.00000
 Mulliken charges with hydrogens summed into heavy atoms:
               1
     1  Cl  -0.267878
     2  C    0.142261
     6  Cl  -0.874382
 Electronic spatial extent (au):  <R**2>=            844.8338
 Charge=             -1.0000 electrons
 Dipole moment (field-independent basis, Debye):
    X=              0.0000    Y=             -0.0000    Z=             -6.5512  Tot=              6.5512
 Quadrupole moment (field-independent basis, Debye-Ang):
   XX=            -35.5649   YY=            -35.5649   ZZ=            -72.5820
   XY=             -0.0000   XZ=             -0.0000   YZ=              0.0000
 Traceless Quadrupole moment (field-independent basis, Debye-Ang):
   XX=             12.3390   YY=             12.3390   ZZ=            -24.6781
   XY=             -0.0000   XZ=             -0.0000   YZ=              0.0000
 Octapole moment (field-independent basis, Debye-Ang**2):
  XXX=              0.0000  YYY=              0.8559  ZZZ=            -59.4587  XYY=              0.0000
  XXY=             -0.8559  XXZ=             -3.8209  XZZ=              0.0000  YZZ=              0.0000
  YYZ=             -3.8209  XYZ=              0.0000
 Hexadecapole moment (field-independent basis, Debye-Ang**3):
 XXXX=            -47.2327 YYYY=            -47.2327 ZZZZ=          -1267.4803 XXXY=              0.0000
 XXXZ=             -0.0000 YYYX=              0.0000 YYYZ=             -0.1136 ZZZX=             -0.0000
 ZZZY=              0.0000 XXYY=            -15.7442 XXZZ=           -189.8087 YYZZ=           -189.8087
 XXYZ=              0.1136 YYXZ=             -0.0000 ZZXY=             -0.0000
 N-N= 1.079497925276D+02 E-N=-2.506765022426D+03  KE= 9.581628489471D+02
 No NMR shielding tensors so no spin-rotation constants.
 Leave Link  601 at Wed Oct  7 14:08:53 2020, MaxMem=  2684354560 cpu:               4.8 elap:               0.8
 (Enter /udrive/faculty/rpeverati/g16/g16/l9999.exe)

 Test job not archived.
 1\1\GINC-NODE20\FOpt\RBP86\6-31G(d)\C1H3Cl2(1-)\RPEVERATI\07-Oct-2020\
 0\\#P Opt(MaxCyc=100) BP86/6-31G* 5D 7F Integral=UltraFineGrid SCF=(No
 Symm,XQC,MaxCyc=120) EmpiricalDispersion=GD3BJ IOp(1/33=1)\\TS search 
 on BH76.\\-1,1\Cl,0.,0.,-2.2450428694\C,0.,0.,-0.3415908427\H,-0.52161
 01313,0.9034552491,-0.013997679\H,-0.5216101313,-0.9034552491,-0.01399
 7679\H,1.0432202626,0.,-0.013997679\Cl,0.,0.,2.6286267477\\Version=ES6
 4L-G16RevA.03\State=1-A1\HF=-960.4310722\RMSD=6.406e-09\RMSF=1.341e-05
 \Dipole=0.,0.,-2.5774582\Quadrupole=9.1737646,9.1737646,-18.3475292,0.
 ,0.,0.\PG=C03V [C3(Cl1C1Cl1),3SGV(H1)]\\@


 IMAGINATION WILL OFTEN CARRY US TO WORLDS THAT NEVER WERE.
 BUT WITHOUT IT, WE GO NOWHERE. -- CARL SAGAN (COSMOS)
 Job cpu time:       0 days  0 hours  8 minutes  3.2 seconds.
 Elapsed time:       0 days  0 hours  1 minutes 28.1 seconds.
 File lengths (MBytes):  RWF=      5 Int=      0 D2E=      0 Chk=      1 Scr=      1
 Normal termination of Gaussian 16 at Wed Oct  7 14:08:55 2020.
