 Entering Gaussian System, Link 0=g16
 Input=MN_24_CH3_upper_BH76_BP86DBJ_631Gs.in
 Output=MN_24_CH3_upper_BH76_BP86DBJ_631Gs.log
 Initial command:
 /udrive/faculty/rpeverati/g16/g16/l1.exe "/udrive/scratch-directories/gaussian09/rpeverati/Gau-10789.inp" -scrdir="/udrive/scratch-directories/gaussian09/rpeverati/"
 Entering Link 1 = /udrive/faculty/rpeverati/g16/g16/l1.exe PID=     10808.
  
 Copyright (c) 1988,1990,1992,1993,1995,1998,2003,2009,2016,
            Gaussian, Inc.  All Rights Reserved.
  
 This is part of the Gaussian(R) 16 program.  It is based on
 the Gaussian(R) 09 system (copyright 2009, Gaussian, Inc.),
 the Gaussian(R) 03 system (copyright 2003, Gaussian, Inc.),
 the Gaussian(R) 98 system (copyright 1998, Gaussian, Inc.),
 the Gaussian(R) 94 system (copyright 1995, Gaussian, Inc.),
 the Gaussian 92(TM) system (copyright 1992, Gaussian, Inc.),
 the Gaussian 90(TM) system (copyright 1990, Gaussian, Inc.),
 the Gaussian 88(TM) system (copyright 1988, Gaussian, Inc.),
 the Gaussian 86(TM) system (copyright 1986, Carnegie Mellon
 University), and the Gaussian 82(TM) system (copyright 1983,
 Carnegie Mellon University). Gaussian is a federally registered
 trademark of Gaussian, Inc.
  
 This software contains proprietary and confidential information,
 including trade secrets, belonging to Gaussian, Inc.
  
 This software is provided under written license and may be
 used, copied, transmitted, or stored only in accord with that
 written license.
  
 The following legend is applicable only to US Government
 contracts under FAR:
  
                    RESTRICTED RIGHTS LEGEND
  
 Use, reproduction and disclosure by the US Government is
 subject to restrictions as set forth in subparagraphs (a)
 and (c) of the Commercial Computer Software - Restricted
 Rights clause in FAR 52.227-19.
  
 Gaussian, Inc.
 340 Quinnipiac St., Bldg. 40, Wallingford CT 06492
  
  
 ---------------------------------------------------------------
 Warning -- This program may not be used in any manner that
 competes with the business of Gaussian, Inc. or will provide
 assistance to any competitor of Gaussian, Inc.  The licensee
 of this program is prohibited from giving any competitor of
 Gaussian, Inc. access to this program.  By using this program,
 the user acknowledges that Gaussian, Inc. is engaged in the
 business of creating and licensing software in the field of
 computational chemistry and represents and warrants to the
 licensee that it is not a competitor of Gaussian, Inc. and that
 it will not use this program in any manner prohibited above.
 ---------------------------------------------------------------
  

 Cite this work as:
 Gaussian 16, Revision A.03,
 M. J. Frisch, G. W. Trucks, H. B. Schlegel, G. E. Scuseria, 
 M. A. Robb, J. R. Cheeseman, G. Scalmani, V. Barone, 
 G. A. Petersson, H. Nakatsuji, X. Li, M. Caricato, A. V. Marenich, 
 J. Bloino, B. G. Janesko, R. Gomperts, B. Mennucci, H. P. Hratchian, 
 J. V. Ortiz, A. F. Izmaylov, J. L. Sonnenberg, D. Williams-Young, 
 F. Ding, F. Lipparini, F. Egidi, J. Goings, B. Peng, A. Petrone, 
 T. Henderson, D. Ranasinghe, V. G. Zakrzewski, J. Gao, N. Rega, 
 G. Zheng, W. Liang, M. Hada, M. Ehara, K. Toyota, R. Fukuda, 
 J. Hasegawa, M. Ishida, T. Nakajima, Y. Honda, O. Kitao, H. Nakai, 
 T. Vreven, K. Throssell, J. A. Montgomery, Jr., J. E. Peralta, 
 F. Ogliaro, M. J. Bearpark, J. J. Heyd, E. N. Brothers, K. N. Kudin, 
 V. N. Staroverov, T. A. Keith, R. Kobayashi, J. Normand, 
 K. Raghavachari, A. P. Rendell, J. C. Burant, S. S. Iyengar, 
 J. Tomasi, M. Cossi, J. M. Millam, M. Klene, C. Adamo, R. Cammi, 
 J. W. Ochterski, R. L. Martin, K. Morokuma, O. Farkas, 
 J. B. Foresman, and D. J. Fox, Gaussian, Inc., Wallingford CT, 2016.
 
 ******************************************
 Gaussian 16:  ES64L-G16RevA.03 25-Dec-2016
                 7-Oct-2020 
 ******************************************
 %NoSave
 %nproc=12
 Will use up to   12 processors via shared memory.
 %mem=20GB
 %chk=MN_24_CH3_upper_BH76_BP86DBJ_631Gs
 ----------------------------------------------------------------------
 #P Opt(MaxCyc=100) BP86/6-31G* 5D 7F Integral=UltraFineGrid SCF=(NoSym
 m,XQC,MaxCyc=120) EmpiricalDispersion=GD3BJ IOp(1/33=1)
 ----------------------------------------------------------------------
 1/6=100,18=20,19=15,26=4,33=1,38=1/1,3;
 2/9=110,12=2,17=6,18=5,40=1/2;
 3/5=1,6=6,7=1,8=11,11=2,25=1,30=1,71=1,74=404,75=-5,124=41/1,2,3;
 4/9=2/1;
 5/5=2,7=120,8=3,13=1,38=5/2,8;
 6/7=2,8=2,9=2,10=2,28=1/1;
 7//1,2,3,16;
 1/6=100,18=20,19=15,26=4,33=1/3(2);
 2/9=110/2;
 99//99;
 2/9=110/2;
 3/5=1,6=6,7=1,8=11,11=2,25=1,30=1,71=1,74=404,75=-5,124=41/1,2,3;
 4/5=5,9=2,16=3,69=1/1;
 5/5=2,7=120,8=3,13=1,38=5/2,8;
 7//1,2,3,16;
 1/6=100,18=20,19=15,26=4,33=1/3(-5);
 2/9=110/2;
 6/7=2,8=2,9=2,10=2,19=2,28=1/1;
 99/9=1/99;
 Leave Link    1 at Wed Oct  7 14:06:40 2020, MaxMem=  2684354560 cpu:               5.0 elap:               0.5
 (Enter /udrive/faculty/rpeverati/g16/g16/l101.exe)
 ONIOM data not found on unit 2.
 ------------------
 TS search on BH76.
 ------------------
 TstMul:  ICh=     0
 TstMul:  Mul=     2
 TstMul:  ICh=     0
 TstMul:  Mul=     2
 Symbolic Z-matrix:
 Charge =  0 Multiplicity = 2
 C                     0.        0.        0. 
 H                     0.53866   0.93298   0. 
 H                     0.53866  -0.93298   0. 
 H                    -1.07732   0.        0. 
 
 RdStrC is calling ZToCFu for IStruc=1 NZ=     4.
 PrtBox:  NBox=     1 Levels=  1 BoxLen=    8.00 SMaxX=        3.53
          Shift=            2.035833            1.763083            0.000000
 Box      1 Number                   0 centers from      1 to      4:
 After GenITR:
 ITRead=  0  0  0  0
 MicOpt= -1 -1 -1 -1
 ITRead=  0  0  0  0
 MicOpt= -1 -1 -1 -1
 NAtoms=      4 NQM=        4 NQMF=       0 NMMI=      0 NMMIF=      0
                NMic=       0 NMicF=      0.
                    Isotopes and Nuclear Properties:
 (Nuclear quadrupole moments (NQMom) in fm**2, nuclear magnetic moments (NMagM)
  in nuclear magnetons)

  Atom         1           2           3           4
 IAtWgt=          12           1           1           1
 AtmWgt=  12.0000000   1.0078250   1.0078250   1.0078250
 NucSpn=           0           1           1           1
 AtZEff=   0.0000000   0.0000000   0.0000000   0.0000000
 NQMom=    0.0000000   0.0000000   0.0000000   0.0000000
 NMagM=    0.0000000   2.7928460   2.7928460   2.7928460
 AtZNuc=   6.0000000   1.0000000   1.0000000   1.0000000
 No MM parameters found.
 Leave Link  101 at Wed Oct  7 14:06:42 2020, MaxMem=  2684354560 cpu:               7.9 elap:               0.8
 (Enter /udrive/faculty/rpeverati/g16/g16/l103.exe)

 GradGradGradGradGradGradGradGradGradGradGradGradGradGradGradGradGradGrad
 Berny optimization.
 Optmz: redundant internal coordinate code flag= 1
 Initialization pass.
                           ----------------------------
                           !    Initial Parameters    !
                           ! (Angstroms and Degrees)  !
 --------------------------                            --------------------------
 ! Name  Definition              Value          Derivative Info.                !
 --------------------------------------------------------------------------------
 ! R1    R(1,2)                  1.0773         estimate D2E/DX2                !
 ! R2    R(1,3)                  1.0773         estimate D2E/DX2                !
 ! R3    R(1,4)                  1.0773         estimate D2E/DX2                !
 ! A1    A(2,1,3)              120.0            estimate D2E/DX2                !
 ! A2    A(2,1,4)              120.0            estimate D2E/DX2                !
 ! A3    A(3,1,4)              120.0            estimate D2E/DX2                !
 ! D1    D(2,1,4,3)            180.0            estimate D2E/DX2                !
 --------------------------------------------------------------------------------
 Maximum allowed force set to 1.00D+20.
 Trust Radius=3.00D-01 FncErr=1.00D-07 GrdErr=1.00D-06 EigMax=2.50D+02 EigMin=1.00D-04
 Number of steps in this run=    100 maximum allowed number of steps=    100.
 GradGradGradGradGradGradGradGradGradGradGradGradGradGradGradGradGradGrad

 Leave Link  103 at Wed Oct  7 14:06:42 2020, MaxMem=  2684354560 cpu:               1.4 elap:               0.6
 (Enter /udrive/faculty/rpeverati/g16/g16/l202.exe)
                          Input orientation:                          
 ---------------------------------------------------------------------
 Center     Atomic      Atomic             Coordinates (Angstroms)
 Number     Number       Type             X           Y           Z
 ---------------------------------------------------------------------
      1          6           0        0.000000    0.000000    0.000000
      2          1           0        0.538658    0.932983    0.000000
      3          1           0        0.538658   -0.932983    0.000000
      4          1           0       -1.077316    0.000000    0.000000
 ---------------------------------------------------------------------
                    Distance matrix (angstroms):
                    1          2          3          4
     1  C    0.000000
     2  H    1.077316   0.000000
     3  H    1.077316   1.865966   0.000000
     4  H    1.077316   1.865966   1.865966   0.000000
 Stoichiometry    CH3(2)
 Framework group  D3H[O(C),3C2(H)]
 Deg. of freedom     1
 Full point group                 D3H     NOp  12
 Largest Abelian subgroup         C2V     NOp   4
 Largest concise Abelian subgroup C2      NOp   2
                         Standard orientation:                         
 ---------------------------------------------------------------------
 Center     Atomic      Atomic             Coordinates (Angstroms)
 Number     Number       Type             X           Y           Z
 ---------------------------------------------------------------------
      1          6           0        0.000000    0.000000    0.000000
      2          1           0        0.000000    1.077316    0.000000
      3          1           0        0.932983   -0.538658    0.000000
      4          1           0       -0.932983   -0.538658    0.000000
 ---------------------------------------------------------------------
 Rotational constants (GHZ):         288.0410898         288.0410898         144.0205449
 Leave Link  202 at Wed Oct  7 14:06:43 2020, MaxMem=  2684354560 cpu:               2.2 elap:               0.7
 (Enter /udrive/faculty/rpeverati/g16/g16/l301.exe)
 Standard basis: 6-31G(d) (5D, 7F)
 Ernie: Thresh=  0.10000D-02 Tol=  0.10000D-05 Strict=F.
 There are    12 symmetry adapted cartesian basis functions of A1  symmetry.
 There are     1 symmetry adapted cartesian basis functions of A2  symmetry.
 There are     5 symmetry adapted cartesian basis functions of B1  symmetry.
 There are     3 symmetry adapted cartesian basis functions of B2  symmetry.
 There are    11 symmetry adapted basis functions of A1  symmetry.
 There are     1 symmetry adapted basis functions of A2  symmetry.
 There are     5 symmetry adapted basis functions of B1  symmetry.
 There are     3 symmetry adapted basis functions of B2  symmetry.
    20 basis functions,    40 primitive gaussians,    21 cartesian basis functions
     5 alpha electrons        4 beta electrons
       nuclear repulsion energy         9.6923744034 Hartrees.
 IExCor=  404 DFT=T Ex=B Corr=P86 ExCW=0 ScaHFX=  0.000000
 ScaDFX=  1.000000  1.000000  1.000000  1.000000 ScalE2=  1.000000  1.000000
 IRadAn=      5 IRanWt=     -1 IRanGd=            0 ICorTp=0 IEmpDi=141
 NAtoms=    4 NActive=    4 NUniq=    2 SFac= 4.00D+00 NAtFMM=   60 NAOKFM=F Big=F
 Integral buffers will be    131072 words long.
 Raffenetti 2 integral format.
 Two-electron integral symmetry is turned on.
 R6Disp:  Grimme-D3(BJ) Dispersion energy=       -0.0011310727 Hartrees.
 Nuclear repulsion after empirical dispersion term =        9.6912433307 Hartrees.
 Leave Link  301 at Wed Oct  7 14:06:44 2020, MaxMem=  2684354560 cpu:               2.6 elap:               0.8
 (Enter /udrive/faculty/rpeverati/g16/g16/l302.exe)
 NPDir=0 NMtPBC=     1 NCelOv=     1 NCel=       1 NClECP=     1 NCelD=      1
         NCelK=      1 NCelE2=     1 NClLst=     1 CellRange=     0.0.
 One-electron integrals computed using PRISM.
 One-electron integral symmetry used in STVInt
 NBasis=    20 RedAO= T EigKep=  3.12D-02  NBF=    11     1     5     3
 NBsUse=    20 1.00D-06 EigRej= -1.00D+00 NBFU=    11     1     5     3
 Precomputing XC quadrature grid using
 IXCGrd= 4 IRadAn=           5 IRanWt=          -1 IRanGd=           0 AccXCQ= 0.00D+00.
 Generated NRdTot=       0 NPtTot=           0 NUsed=           0 NTot=          32
 NSgBfM=    21    21    21    21    21 MxSgAt=     4 MxSgA2=     4.
 Leave Link  302 at Wed Oct  7 14:06:45 2020, MaxMem=  2684354560 cpu:               3.3 elap:               0.6
 (Enter /udrive/faculty/rpeverati/g16/g16/l303.exe)
 DipDrv:  MaxL=1.
 Leave Link  303 at Wed Oct  7 14:06:46 2020, MaxMem=  2684354560 cpu:               1.0 elap:               0.4
 (Enter /udrive/faculty/rpeverati/g16/g16/l401.exe)
 SCF N**3 symmetry information disabled.
 ExpMin= 1.61D-01 ExpMax= 3.05D+03 ExpMxC= 4.57D+02 IAcc=3 IRadAn=         5 AccDes= 0.00D+00
 Harris functional with IExCor=  404 and IRadAn=       5 diagonalized for initial guess.
 HarFok:  IExCor=  404 AccDes= 0.00D+00 IRadAn=         5 IDoV= 1 UseB2=F ITyADJ=14
 ICtDFT=  3500011 ScaDFX=  1.000000  1.000000  1.000000  1.000000
 FoFCou: FMM=F IPFlag=           0 FMFlag=      100000 FMFlg1=           0
         NFxFlg=           0 DoJE=T BraDBF=F KetDBF=T FulRan=T
         wScrn=  0.000000 ICntrl=       500 IOpCl=  0 I1Cent=   200000004 NGrid=           0
         NMat0=    1 NMatS0=      1 NMatT0=    0 NMatD0=    1 NMtDS0=    0 NMtDT0=    0
 Petite list used in FoFCou.
 Harris En= -39.8485148368264    
 JPrj=0 DoOrth=F DoCkMO=F.
 Initial guess orbital symmetries:
 Alpha Orbitals:
       Occupied  (A1') (A1') (E') (E') (A2")
       Virtual   (A1') (E') (E') (E') (E') (A2") (A1') (E') (E')
                 (A1') (E") (E") (A1') (E') (E')
 Beta  Orbitals:
       Occupied  (A1') (A1') (E') (E')
       Virtual   (A2") (A1') (E') (E') (E') (E') (A2") (A1') (E')
                 (E') (A1') (E") (E") (A1') (E') (E')
 The electronic state of the initial guess is 2-A2".
 Initial guess <Sx>= 0.0000 <Sy>= 0.0000 <Sz>= 0.5000 <S**2>= 0.7500 S= 0.5000
 Leave Link  401 at Wed Oct  7 14:06:47 2020, MaxMem=  2684354560 cpu:               5.5 elap:               0.9
 (Enter /udrive/faculty/rpeverati/g16/g16/l502.exe)
 Keep J ints in memory in symmetry-blocked form, NReq=10365324.
 FoFCou: FMM=F IPFlag=           0 FMFlag=           0 FMFlg1=           0
         NFxFlg=           0 DoJE=F BraDBF=F KetDBF=F FulRan=T
         wScrn=  0.000000 ICntrl=       600 IOpCl=  0 I1Cent=           0 NGrid=           0
         NMat0=    1 NMatS0=    210 NMatT0=    0 NMatD0=    1 NMtDS0=    0 NMtDT0=    0
 Petite list used in FoFCou.
 UHF open shell SCF:
 Using DIIS extrapolation, IDIIS=  1040.
 NGot=  2684354560 LenX=  2684344974 LenY=  2684344092
 Requested convergence on RMS density matrix=1.00D-08 within 120 cycles.
 Requested convergence on MAX density matrix=1.00D-06.
 Requested convergence on             energy=1.00D-06.
 No special actions if energy rises.
 Integral accuracy reduced to 1.0D-05 until final iterations.

 Cycle   1  Pass 0  IDiag  1:
 E= -39.7902076816012    
 DIIS: error= 5.26D-02 at cycle   1 NSaved=   1.
 NSaved= 1 IEnMin= 1 EnMin= -39.7902076816012     IErMin= 1 ErrMin= 5.26D-02
 ErrMax= 5.26D-02  0.00D+00 EMaxC= 1.00D-01 BMatC= 1.37D-01 BMatP= 1.37D-01
 IDIUse=3 WtCom= 4.74D-01 WtEn= 5.26D-01
 Coeff-Com:  0.100D+01
 Coeff-En:   0.100D+01
 Coeff:      0.100D+01
 Gap=     0.217 Goal=   None    Shift=    0.000
 Gap=     0.293 Goal=   None    Shift=    0.000
 GapD=    0.217 DampG=1.000 DampE=0.500 DampFc=0.5000 IDamp=-1.
 Damping current iteration by 5.00D-01
 RMSDP=1.85D-02 MaxDP=1.61D-01              OVMax= 1.53D-01

 Cycle   2  Pass 0  IDiag  1:
 E= -39.8081853184637     Delta-E=       -0.017977636862 Rises=F Damp=T
 DIIS: error= 1.00D-02 at cycle   2 NSaved=   2.
 NSaved= 2 IEnMin= 2 EnMin= -39.8081853184637     IErMin= 2 ErrMin= 1.00D-02
 ErrMax= 1.00D-02  0.00D+00 EMaxC= 1.00D-01 BMatC= 4.28D-03 BMatP= 1.37D-01
 IDIUse=3 WtCom= 9.00D-01 WtEn= 1.00D-01
 Coeff-Com:  0.959D-01 0.904D+00
 Coeff-En:   0.148D+00 0.852D+00
 Coeff:      0.101D+00 0.899D+00
 Gap=     0.273 Goal=   None    Shift=    0.000
 Gap=     0.274 Goal=   None    Shift=    0.000
 RMSDP=2.02D-03 MaxDP=1.81D-02 DE=-1.80D-02 OVMax= 7.75D-02

 Cycle   3  Pass 0  IDiag  1:
 E= -39.8311233954032     Delta-E=       -0.022938076939 Rises=F Damp=F
 DIIS: error= 1.47D-03 at cycle   3 NSaved=   3.
 NSaved= 3 IEnMin= 3 EnMin= -39.8311233954032     IErMin= 3 ErrMin= 1.47D-03
 ErrMax= 1.47D-03  0.00D+00 EMaxC= 1.00D-01 BMatC= 6.15D-05 BMatP= 4.28D-03
 IDIUse=3 WtCom= 9.85D-01 WtEn= 1.47D-02
 Coeff-Com:  0.175D-02 0.180D-01 0.980D+00
 Coeff-En:   0.000D+00 0.000D+00 0.100D+01
 Coeff:      0.173D-02 0.178D-01 0.980D+00
 Gap=     0.278 Goal=   None    Shift=    0.000
 Gap=     0.278 Goal=   None    Shift=    0.000
 RMSDP=2.96D-04 MaxDP=2.74D-03 DE=-2.29D-02 OVMax= 2.91D-03

 Cycle   4  Pass 0  IDiag  1:
 E= -39.8311549432490     Delta-E=       -0.000031547846 Rises=F Damp=F
 DIIS: error= 2.31D-04 at cycle   4 NSaved=   4.
 NSaved= 4 IEnMin= 4 EnMin= -39.8311549432490     IErMin= 4 ErrMin= 2.31D-04
 ErrMax= 2.31D-04  0.00D+00 EMaxC= 1.00D-01 BMatC= 3.31D-06 BMatP= 6.15D-05
 IDIUse=3 WtCom= 9.98D-01 WtEn= 2.31D-03
 Coeff-Com: -0.304D-02-0.193D-01-0.605D-01 0.108D+01
 Coeff-En:   0.000D+00 0.000D+00 0.000D+00 0.100D+01
 Coeff:     -0.303D-02-0.193D-01-0.603D-01 0.108D+01
 Gap=     0.279 Goal=   None    Shift=    0.000
 Gap=     0.278 Goal=   None    Shift=    0.000
 RMSDP=8.62D-05 MaxDP=5.89D-04 DE=-3.15D-05 OVMax= 7.26D-04

 Cycle   5  Pass 0  IDiag  1:
 E= -39.8311571757066     Delta-E=       -0.000002232458 Rises=F Damp=F
 DIIS: error= 4.25D-05 at cycle   5 NSaved=   5.
 NSaved= 5 IEnMin= 5 EnMin= -39.8311571757066     IErMin= 5 ErrMin= 4.25D-05
 ErrMax= 4.25D-05  0.00D+00 EMaxC= 1.00D-01 BMatC= 1.04D-07 BMatP= 3.31D-06
 IDIUse=1 WtCom= 1.00D+00 WtEn= 0.00D+00
 Coeff-Com:  0.535D-03 0.401D-02-0.208D-01-0.189D+00 0.121D+01
 Coeff:      0.535D-03 0.401D-02-0.208D-01-0.189D+00 0.121D+01
 Gap=     0.279 Goal=   None    Shift=    0.000
 Gap=     0.278 Goal=   None    Shift=    0.000
 RMSDP=1.85D-05 MaxDP=1.32D-04 DE=-2.23D-06 OVMax= 1.72D-04

 Cycle   6  Pass 0  IDiag  1:
 E= -39.8311572491894     Delta-E=       -0.000000073483 Rises=F Damp=F
 DIIS: error= 1.84D-06 at cycle   6 NSaved=   6.
 NSaved= 6 IEnMin= 6 EnMin= -39.8311572491894     IErMin= 6 ErrMin= 1.84D-06
 ErrMax= 1.84D-06  0.00D+00 EMaxC= 1.00D-01 BMatC= 1.89D-10 BMatP= 1.04D-07
 IDIUse=1 WtCom= 1.00D+00 WtEn= 0.00D+00
 Coeff-Com:  0.219D-05-0.129D-03 0.190D-02 0.126D-02-0.640D-01 0.106D+01
 Coeff:      0.219D-05-0.129D-03 0.190D-02 0.126D-02-0.640D-01 0.106D+01
 Gap=     0.279 Goal=   None    Shift=    0.000
 Gap=     0.278 Goal=   None    Shift=    0.000
 RMSDP=8.10D-07 MaxDP=5.43D-06 DE=-7.35D-08 OVMax= 6.87D-06

 Initial convergence to 1.0D-05 achieved.  Increase integral accuracy.
 Cycle   7  Pass 1  IDiag  1:
 E= -39.8311568075289     Delta-E=        0.000000441660 Rises=F Damp=F
 DIIS: error= 9.82D-07 at cycle   1 NSaved=   1.
 NSaved= 1 IEnMin= 1 EnMin= -39.8311568075289     IErMin= 1 ErrMin= 9.82D-07
 ErrMax= 9.82D-07  0.00D+00 EMaxC= 1.00D-01 BMatC= 2.18D-11 BMatP= 2.18D-11
 IDIUse=1 WtCom= 1.00D+00 WtEn= 0.00D+00
 Coeff-Com:  0.100D+01
 Coeff:      0.100D+01
 Gap=     0.279 Goal=   None    Shift=    0.000
 Gap=     0.278 Goal=   None    Shift=    0.000
 RMSDP=8.10D-07 MaxDP=5.43D-06 DE= 4.42D-07 OVMax= 1.03D-06

 Cycle   8  Pass 1  IDiag  1:
 E= -39.8311568075338     Delta-E=       -0.000000000005 Rises=F Damp=F
 DIIS: error= 5.65D-08 at cycle   2 NSaved=   2.
 NSaved= 2 IEnMin= 2 EnMin= -39.8311568075338     IErMin= 2 ErrMin= 5.65D-08
 ErrMax= 5.65D-08  0.00D+00 EMaxC= 1.00D-01 BMatC= 1.56D-13 BMatP= 2.18D-11
 IDIUse=1 WtCom= 1.00D+00 WtEn= 0.00D+00
 Coeff-Com: -0.453D-01 0.105D+01
 Coeff:     -0.453D-01 0.105D+01
 Gap=     0.279 Goal=   None    Shift=    0.000
 Gap=     0.278 Goal=   None    Shift=    0.000
 RMSDP=1.65D-08 MaxDP=1.55D-07 DE=-4.89D-12 OVMax= 1.81D-07

 Cycle   9  Pass 1  IDiag  1:
 E= -39.8311568075339     Delta-E=       -0.000000000000 Rises=F Damp=F
 DIIS: error= 3.43D-08 at cycle   3 NSaved=   3.
 NSaved= 3 IEnMin= 3 EnMin= -39.8311568075339     IErMin= 3 ErrMin= 3.43D-08
 ErrMax= 3.43D-08  0.00D+00 EMaxC= 1.00D-01 BMatC= 4.85D-14 BMatP= 1.56D-13
 IDIUse=1 WtCom= 1.00D+00 WtEn= 0.00D+00
 Coeff-Com: -0.182D-01 0.356D+00 0.662D+00
 Coeff:     -0.182D-01 0.356D+00 0.662D+00
 Gap=     0.279 Goal=   None    Shift=    0.000
 Gap=     0.278 Goal=   None    Shift=    0.000
 RMSDP=7.08D-09 MaxDP=6.63D-08 DE=-6.39D-14 OVMax= 6.93D-08

 SCF Done:  E(UB-P86) =  -39.8311568075     A.U. after    9 cycles
            NFock=  9  Conv=0.71D-08     -V/T= 2.0060
 <Sx>= 0.0000 <Sy>= 0.0000 <Sz>= 0.5000 <S**2>= 0.7534 S= 0.5017
 <L.S>= 0.000000000000E+00
 KE= 3.959407102268D+01 PE=-1.113037866654D+02 EE= 2.218731550447D+01
 Annihilation of the first spin contaminant:
 S**2 before annihilation     0.7534,   after     0.7500
 Leave Link  502 at Wed Oct  7 14:06:49 2020, MaxMem=  2684354560 cpu:               9.0 elap:               1.3
 (Enter /udrive/faculty/rpeverati/g16/g16/l508.exe)
 QCSCF skips out because SCF is already converged.
 Leave Link  508 at Wed Oct  7 14:06:49 2020, MaxMem=  2684354560 cpu:               0.4 elap:               0.4
 (Enter /udrive/faculty/rpeverati/g16/g16/l601.exe)
 Copying SCF densities to generalized density rwf, IOpCl= 1 IROHF=0.

 **********************************************************************

            Population analysis using the SCF density.

 **********************************************************************

 Orbital symmetries:
 Alpha Orbitals:
       Occupied  (A1') (A1') (E') (E') (A2")
       Virtual   (A1') (E') (E') (A2") (E') (E') (A1') (E') (E')
                 (A1') (E") (E") (A1') (E') (E')
 Beta  Orbitals:
       Occupied  (A1') (A1') (E') (E')
       Virtual   (A2") (A1') (E') (E') (E') (E') (A2") (A1') (E')
                 (E') (A1') (E") (E") (A1') (E') (E')
 The electronic state is 2-A2".
 Alpha  occ. eigenvalues --   -9.91058  -0.61596  -0.37185  -0.37185  -0.18581
 Alpha virt. eigenvalues --    0.09297   0.15665   0.15665   0.49166   0.50287
 Alpha virt. eigenvalues --    0.50287   0.64102   0.86612   0.86612   0.92047
 Alpha virt. eigenvalues --    1.57595   1.57595   1.93742   2.11375   2.11375
  Beta  occ. eigenvalues --   -9.89718  -0.58243  -0.36226  -0.36226
  Beta virt. eigenvalues --   -0.08412   0.10950   0.16254   0.16254   0.51587
  Beta virt. eigenvalues --    0.51587   0.57717   0.67376   0.87152   0.87152
  Beta virt. eigenvalues --    0.95727   1.64992   1.64992   2.03894   2.12519
  Beta virt. eigenvalues --    2.12519
          Condensed to atoms (all electrons):
               1          2          3          4
     1  C    5.372833   0.381471   0.381471   0.381471
     2  H    0.381471   0.504388  -0.029137  -0.029137
     3  H    0.381471  -0.029137   0.504388  -0.029137
     4  H    0.381471  -0.029137  -0.029137   0.504388
          Atomic-Atomic Spin Densities.
               1          2          3          4
     1  C    1.175814  -0.008516  -0.008516  -0.008516
     2  H   -0.008516  -0.043876   0.001152   0.001152
     3  H   -0.008516   0.001152  -0.043876   0.001152
     4  H   -0.008516   0.001152   0.001152  -0.043876
 Mulliken charges and spin densities:
               1          2
     1  C   -0.517248   1.150266
     2  H    0.172416  -0.050089
     3  H    0.172416  -0.050089
     4  H    0.172416  -0.050089
 Sum of Mulliken charges =   0.00000   1.00000
 Mulliken charges and spin densities with hydrogens summed into heavy atoms:
               1          2
     1  C    0.000000   1.000000
 Electronic spatial extent (au):  <R**2>=             29.2577
 Charge=              0.0000 electrons
 Dipole moment (field-independent basis, Debye):
    X=             -0.0000    Y=              0.0000    Z=             -0.0000  Tot=              0.0000
 Quadrupole moment (field-independent basis, Debye-Ang):
   XX=             -6.9844   YY=             -6.9844   ZZ=             -8.6600
   XY=             -0.0000   XZ=             -0.0000   YZ=             -0.0000
 Traceless Quadrupole moment (field-independent basis, Debye-Ang):
   XX=              0.5585   YY=              0.5585   ZZ=             -1.1171
   XY=             -0.0000   XZ=             -0.0000   YZ=             -0.0000
 Octapole moment (field-independent basis, Debye-Ang**2):
  XXX=             -0.0000  YYY=              0.8245  ZZZ=             -0.0000  XYY=              0.0000
  XXY=             -0.8245  XXZ=             -0.0000  XZZ=              0.0000  YZZ=              0.0000
  YYZ=             -0.0000  XYZ=              0.0000
 Hexadecapole moment (field-independent basis, Debye-Ang**3):
 XXXX=            -13.7476 YYYY=            -13.7476 ZZZZ=             -9.0247 XXXY=              0.0000
 XXXZ=             -0.0000 YYYX=              0.0000 YYYZ=             -0.0000 ZZZX=             -0.0000
 ZZZY=             -0.0000 XXYY=             -4.5825 XXZZ=             -4.1300 YYZZ=             -4.1300
 XXYZ=             -0.0000 YYXZ=             -0.0000 ZZXY=              0.0000
 N-N= 9.691243330735D+00 E-N=-1.113037858512D+02  KE= 3.959407102268D+01
                          Isotropic Fermi Contact Couplings
        Atom                 a.u.       MegaHertz       Gauss      10(-4) cm-1
     1  C(13)              0.13033     146.51465      52.28007      48.87203
     2  H(1)              -0.01561     -69.79174     -24.90343     -23.28002
     3  H(1)              -0.01561     -69.79174     -24.90343     -23.28002
     4  H(1)              -0.01561     -69.79174     -24.90343     -23.28002
 --------------------------------------------------------
       Center         ----  Spin Dipole Couplings  ----
                      3XX-RR        3YY-RR        3ZZ-RR
 --------------------------------------------------------
     1   Atom       -0.544128     -0.544128      1.088256
     2   Atom       -0.072721      0.076661     -0.003941
     3   Atom        0.039316     -0.035375     -0.003941
     4   Atom        0.039316     -0.035375     -0.003941
 --------------------------------------------------------
                        XY            XZ            YZ
 --------------------------------------------------------
     1   Atom       -0.000000      0.000000      0.000000
     2   Atom       -0.000000      0.000000      0.000000
     3   Atom       -0.064684      0.000000      0.000000
     4   Atom        0.064684      0.000000      0.000000
 --------------------------------------------------------


 ---------------------------------------------------------------------------------
              Anisotropic Spin Dipole Couplings in Principal Axis System
 ---------------------------------------------------------------------------------

       Atom             a.u.   MegaHertz   Gauss  10(-4) cm-1        Axes

              Baa    -0.5441   -73.017   -26.054   -24.356  0.9749  0.2227  0.0000
     1 C(13)  Bbb    -0.5441   -73.017   -26.054   -24.356 -0.2227  0.9749  0.0000
              Bcc     1.0883   146.033    52.108    48.712  0.0000  0.0000  1.0000
 
              Baa    -0.0727   -38.800   -13.845   -12.942  1.0000  0.0000  0.0000
     2 H(1)   Bbb    -0.0039    -2.103    -0.750    -0.701  0.0000  0.0000  1.0000
              Bcc     0.0767    40.903    14.595    13.644 -0.0000  1.0000  0.0000
 
              Baa    -0.0727   -38.800   -13.845   -12.942  0.5000  0.8660  0.0000
     3 H(1)   Bbb    -0.0039    -2.103    -0.750    -0.701  0.0000  0.0000  1.0000
              Bcc     0.0767    40.903    14.595    13.644  0.8660 -0.5000  0.0000
 
              Baa    -0.0727   -38.800   -13.845   -12.942 -0.5000  0.8660  0.0000
     4 H(1)   Bbb    -0.0039    -2.103    -0.750    -0.701  0.0000  0.0000  1.0000
              Bcc     0.0767    40.903    14.595    13.644  0.8660  0.5000  0.0000
 

 ---------------------------------------------------------------------------------

 No NMR shielding tensors so no spin-rotation constants.
 Leave Link  601 at Wed Oct  7 14:06:51 2020, MaxMem=  2684354560 cpu:               5.3 elap:               1.0
 (Enter /udrive/faculty/rpeverati/g16/g16/l701.exe)
 ... and contract with generalized density number  0.
 Compute integral first derivatives.
 R6Disp: Adding Grimme-D3(BJ) dispersion energy 1st derivatives to the gradient.
 Leave Link  701 at Wed Oct  7 14:06:52 2020, MaxMem=  2684354560 cpu:               4.2 elap:               0.8
 (Enter /udrive/faculty/rpeverati/g16/g16/l702.exe)
 L702 exits ... SP integral derivatives will be done elsewhere.
 Leave Link  702 at Wed Oct  7 14:06:52 2020, MaxMem=  2684354560 cpu:               1.3 elap:               0.5
 (Enter /udrive/faculty/rpeverati/g16/g16/l703.exe)
 Integral derivatives from FoFJK, PRISM(SPDF).
 Compute integral first derivatives, UseDBF=F ICtDFT=           0.
 Calling FoFJK, ICntrl=      2527 FMM=F ISym2X=1 I1Cent= 0 IOpClX= 0 NMat=1 NMatS=1 NMatT=0.
 FoFJK:  IHMeth= 1 ICntrl=    2527 DoSepK=F KAlg= 0 I1Cent=           0 FoldK=F
 IRaf=         0 NMat=       1 IRICut=       1 DoRegI=T DoRafI=F ISym2E= 1 IDoP0=0 IntGTp=1.
 FoFCou: FMM=F IPFlag=           0 FMFlag=      100000 FMFlg1=         800
         NFxFlg=           0 DoJE=F BraDBF=F KetDBF=F FulRan=T
         wScrn=  0.000000 ICntrl=      2527 IOpCl=  0 I1Cent=           0 NGrid=           0
         NMat0=    1 NMatS0=      1 NMatT0=    0 NMatD0=    1 NMtDS0=    0 NMtDT0=    0
 Petite list used in FoFCou.
 Leave Link  703 at Wed Oct  7 14:06:53 2020, MaxMem=  2684354560 cpu:               5.5 elap:               0.9
 (Enter /udrive/faculty/rpeverati/g16/g16/l716.exe)
 Dipole        = 0.00000000D+00 2.22044605D-16-6.69794387D-32
 ***** Axes restored to original set *****
 -------------------------------------------------------------------
 Center     Atomic                   Forces (Hartrees/Bohr)
 Number     Number              X              Y              Z
 -------------------------------------------------------------------
      1        6          -0.000000000   -0.000000000   -0.000000000
      2        1           0.004902485    0.008491354   -0.000000000
      3        1           0.004902485   -0.008491354    0.000000000
      4        1          -0.009804970   -0.000000000    0.000000000
 -------------------------------------------------------------------
 Cartesian Forces:  Max     0.009804970 RMS     0.004902485
 Leave Link  716 at Wed Oct  7 14:06:54 2020, MaxMem=  2684354560 cpu:               1.5 elap:               0.6
 (Enter /udrive/faculty/rpeverati/g16/g16/l103.exe)

 GradGradGradGradGradGradGradGradGradGradGradGradGradGradGradGradGradGrad
 Berny optimization.
 Optmz: redundant internal coordinate code flag= 1
 FormGI is forming the generalized inverse of G from B-inverse, IUseBI=4.
 Internal  Forces:  Max     0.009804970 RMS     0.006418860
 Search for a local minimum.
 Step number   1 out of a maximum of  100
 All quantities printed in internal units (Hartrees-Bohrs-Radians)
 RMS Force = .64189D-02 SwitMx=.10000D-02 MixMth= 1
 Mixed Optimization -- RFO/linear search
 Second derivative matrix not updated -- first step.
 The second derivative matrix:
                          R1        R2        R3        A1        A2
           R1           0.36321
           R2           0.00000   0.36321
           R3           0.00000   0.00000   0.36321
           A1           0.00000   0.00000   0.00000   0.16000
           A2           0.00000   0.00000   0.00000   0.00000   0.16000
           A3           0.00000   0.00000   0.00000   0.00000   0.00000
           D1           0.00000   0.00000   0.00000   0.00000   0.00000
                          A3        D1
           A3           0.16000
           D1           0.00000   0.00403
 ITU=  0
 Eigenvectors of the second derivative matrix:
                           1         2         3         4         5
     Eigenvalues --     0.00403   0.16000   0.16000   0.36321   0.36321
   1         R1         0.00000   0.00000  -0.00000  -0.34012   0.93698
   2         R2         0.00000   0.00000   0.00000  -0.69550  -0.19341
   3         R3        -0.00000  -0.00000   0.00000   0.63293   0.29097
   4         A1         0.00000  -0.81568   0.03658  -0.00000   0.00000
   5         A2        -0.00000   0.43952   0.68810   0.00000   0.00000
   6         A3        -0.00000   0.37616  -0.72469   0.00000   0.00000
   7         D1         1.00000   0.00000   0.00000   0.00000   0.00000
                           6
     Eigenvalues --     0.36321
   1         R1        -0.07995
   2         R2         0.69201
   3         R3         0.71745
   4         A1        -0.00000
   5         A2         0.00000
   6         A3         0.00000
   7         D1        -0.00000
 Iter=   1 RLamda= 0.00000000D+00 Sum=-7.94074787D-04.
 Iter=   2 RLamda=-7.94074787D-04 Sum=-7.92342491D-04.
 Iter=   3 RLamda=-7.92342491D-04 Sum=-7.92346262D-04.
 RFO step:  Lambda=-7.92342491D-04 EMin= 4.02612957D-03
 Linear search not attempted -- first point.
 Iteration  1 RMS(Cart)=  0.01763433 RMS(Int)=  0.00000000
 Iteration  2 RMS(Cart)=  0.00000000 RMS(Int)=  0.00000000
 ITry= 1 IFail=0 DXMaxC= 2.69D-02 DCOld= 1.00D+10 DXMaxT= 3.00D-01 DXLimC= 3.00D+00 Rises=F
 ClnCor:  largest displacement from symmetrization is 4.26D-13 for atom     1.
 Variable       Old X    -DE/DX   Delta X   Delta X   Delta X     New X
                                 (Linear)    (Quad)   (Total)
    R1        2.03583   0.00980   0.00000   0.02694   0.02694   2.06277
    R2        2.03583   0.00980   0.00000   0.02694   0.02694   2.06277
    R3        2.03583   0.00980   0.00000   0.02694   0.02694   2.06277
    A1        2.09440  -0.00000   0.00000  -0.00000   0.00000   2.09440
    A2        2.09440   0.00000   0.00000   0.00000   0.00000   2.09440
    A3        2.09440   0.00000   0.00000   0.00000   0.00000   2.09440
    D1        3.14159   0.00000   0.00000   0.00000   0.00000   3.14159
         Item               Value     Threshold  Converged?
 Maximum Force            0.009805     0.000450     NO 
 RMS     Force            0.006419     0.000300     NO 
 Maximum Displacement     0.026937     0.001800     NO 
 RMS     Displacement     0.017634     0.001200     NO 
 Predicted change in Energy=-3.970355D-04
 Lowest energy point so far.  Saving SCF results.
 Largest change from initial coordinates is atom    4       0.014 Angstoms.
 GradGradGradGradGradGradGradGradGradGradGradGradGradGradGradGradGradGrad

 Leave Link  103 at Wed Oct  7 14:06:55 2020, MaxMem=  2684354560 cpu:               2.9 elap:               0.7
 (Enter /udrive/faculty/rpeverati/g16/g16/l202.exe)
                          Input orientation:                          
 ---------------------------------------------------------------------
 Center     Atomic      Atomic             Coordinates (Angstroms)
 Number     Number       Type             X           Y           Z
 ---------------------------------------------------------------------
      1          6           0        0.000000   -0.000000    0.000000
      2          1           0        0.545785    0.945328    0.000000
      3          1           0        0.545785   -0.945328    0.000000
      4          1           0       -1.091571    0.000000    0.000000
 ---------------------------------------------------------------------
                    Distance matrix (angstroms):
                    1          2          3          4
     1  C    0.000000
     2  H    1.091571   0.000000
     3  H    1.091571   1.890656   0.000000
     4  H    1.091571   1.890656   1.890656   0.000000
 Stoichiometry    CH3(2)
 Framework group  D3H[O(C),3C2(H)]
 Deg. of freedom     1
 Full point group                 D3H     NOp  12
 RotChk:  IX=0 Diff= 1.57D-16
 Largest Abelian subgroup         C2V     NOp   4
 Largest concise Abelian subgroup C2      NOp   2
                         Standard orientation:                         
 ---------------------------------------------------------------------
 Center     Atomic      Atomic             Coordinates (Angstroms)
 Number     Number       Type             X           Y           Z
 ---------------------------------------------------------------------
      1          6           0        0.000000    0.000000    0.000000
      2          1           0        0.000000    1.091571    0.000000
      3          1           0        0.945328   -0.545785    0.000000
      4          1           0       -0.945328   -0.545785    0.000000
 ---------------------------------------------------------------------
 Rotational constants (GHZ):         280.5673789         280.5673789         140.2836895
 Leave Link  202 at Wed Oct  7 14:06:56 2020, MaxMem=  2684354560 cpu:               1.4 elap:               0.4
 (Enter /udrive/faculty/rpeverati/g16/g16/l301.exe)
 Standard basis: 6-31G(d) (5D, 7F)
 Ernie: Thresh=  0.10000D-02 Tol=  0.10000D-05 Strict=F.
 There are    12 symmetry adapted cartesian basis functions of A1  symmetry.
 There are     1 symmetry adapted cartesian basis functions of A2  symmetry.
 There are     5 symmetry adapted cartesian basis functions of B1  symmetry.
 There are     3 symmetry adapted cartesian basis functions of B2  symmetry.
 There are    11 symmetry adapted basis functions of A1  symmetry.
 There are     1 symmetry adapted basis functions of A2  symmetry.
 There are     5 symmetry adapted basis functions of B1  symmetry.
 There are     3 symmetry adapted basis functions of B2  symmetry.
    20 basis functions,    40 primitive gaussians,    21 cartesian basis functions
     5 alpha electrons        4 beta electrons
       nuclear repulsion energy         9.5658055134 Hartrees.
 IExCor=  404 DFT=T Ex=B Corr=P86 ExCW=0 ScaHFX=  0.000000
 ScaDFX=  1.000000  1.000000  1.000000  1.000000 ScalE2=  1.000000  1.000000
 IRadAn=      5 IRanWt=     -1 IRanGd=            0 ICorTp=0 IEmpDi=141
 NAtoms=    4 NActive=    4 NUniq=    2 SFac= 4.00D+00 NAtFMM=   60 NAOKFM=F Big=F
 Integral buffers will be    131072 words long.
 Raffenetti 2 integral format.
 Two-electron integral symmetry is turned on.
 R6Disp:  Grimme-D3(BJ) Dispersion energy=       -0.0011307940 Hartrees.
 Nuclear repulsion after empirical dispersion term =        9.5646747194 Hartrees.
 Leave Link  301 at Wed Oct  7 14:06:57 2020, MaxMem=  2684354560 cpu:               2.1 elap:               0.6
 (Enter /udrive/faculty/rpeverati/g16/g16/l302.exe)
 NPDir=0 NMtPBC=     1 NCelOv=     1 NCel=       1 NClECP=     1 NCelD=      1
         NCelK=      1 NCelE2=     1 NClLst=     1 CellRange=     0.0.
 One-electron integrals computed using PRISM.
 One-electron integral symmetry used in STVInt
 NBasis=    20 RedAO= T EigKep=  3.25D-02  NBF=    11     1     5     3
 NBsUse=    20 1.00D-06 EigRej= -1.00D+00 NBFU=    11     1     5     3
 Precomputing XC quadrature grid using
 IXCGrd= 4 IRadAn=           5 IRanWt=          -1 IRanGd=           0 AccXCQ= 0.00D+00.
 Generated NRdTot=       0 NPtTot=           0 NUsed=           0 NTot=          32
 NSgBfM=    21    21    21    21    21 MxSgAt=     4 MxSgA2=     4.
 Leave Link  302 at Wed Oct  7 14:06:58 2020, MaxMem=  2684354560 cpu:               3.3 elap:               0.6
 (Enter /udrive/faculty/rpeverati/g16/g16/l303.exe)
 DipDrv:  MaxL=1.
 Leave Link  303 at Wed Oct  7 14:06:58 2020, MaxMem=  2684354560 cpu:               1.7 elap:               0.5
 (Enter /udrive/faculty/rpeverati/g16/g16/l401.exe)
 Initial guess from the checkpoint file:  "MN_24_CH3_upper_BH76_BP86DBJ_631Gs.chk"
 SCF N**3 symmetry information disabled.
 B after Tr=     0.000000    0.000000    0.000000
         Rot=    1.000000   -0.000000    0.000000    0.000000 Ang=   0.00 deg.
 Guess basis will be translated and rotated to current coordinates.
 JPrj=2 DoOrth=T DoCkMO=T.
 Initial guess orbital symmetries:
 Alpha Orbitals:
       Occupied  (A1') (A1') (E') (E') (A2")
       Virtual   (A1') (E') (E') (A2") (E') (E') (A1') (E') (E')
                 (A1') (E") (E") (A1') (E') (E')
 Beta  Orbitals:
       Occupied  (A1') (A1') (E') (E')
       Virtual   (A2") (A1') (E') (E') (E') (E') (A2") (A1') (E')
                 (E') (A1') (E") (E") (A1') (E') (E')
 The electronic state of the initial guess is 2-A2".
 Initial guess <Sx>= 0.0000 <Sy>= 0.0000 <Sz>= 0.5000 <S**2>= 0.7535 S= 0.5018
 Generating alternative initial guess.
 ExpMin= 1.61D-01 ExpMax= 3.05D+03 ExpMxC= 4.57D+02 IAcc=2 IRadAn=         4 AccDes= 0.00D+00
 Harris functional with IExCor=  404 and IRadAn=       4 diagonalized for initial guess.
 HarFok:  IExCor=  404 AccDes= 0.00D+00 IRadAn=         4 IDoV= 1 UseB2=F ITyADJ=14
 ICtDFT=  3500011 ScaDFX=  1.000000  1.000000  1.000000  1.000000
 FoFCou: FMM=F IPFlag=           0 FMFlag=      100000 FMFlg1=           0
         NFxFlg=           0 DoJE=T BraDBF=F KetDBF=T FulRan=T
         wScrn=  0.000000 ICntrl=       500 IOpCl=  0 I1Cent=   200000004 NGrid=           0
         NMat0=    1 NMatS0=      1 NMatT0=    0 NMatD0=    1 NMtDS0=    0 NMtDT0=    0
 Petite list used in FoFCou.
 Harris En= -39.8457743064682    
 Leave Link  401 at Wed Oct  7 14:06:59 2020, MaxMem=  2684354560 cpu:               5.1 elap:               0.7
 (Enter /udrive/faculty/rpeverati/g16/g16/l502.exe)
 Keep J ints in memory in symmetry-blocked form, NReq=10365324.
 FoFCou: FMM=F IPFlag=           0 FMFlag=           0 FMFlg1=           0
         NFxFlg=           0 DoJE=F BraDBF=F KetDBF=F FulRan=T
         wScrn=  0.000000 ICntrl=       600 IOpCl=  0 I1Cent=           0 NGrid=           0
         NMat0=    1 NMatS0=    210 NMatT0=    0 NMatD0=    1 NMtDS0=    0 NMtDT0=    0
 Petite list used in FoFCou.
 UHF open shell SCF:
 Using DIIS extrapolation, IDIIS=  1040.
 NGot=  2684354560 LenX=  2684344974 LenY=  2684344092
 Requested convergence on RMS density matrix=1.00D-08 within 120 cycles.
 Requested convergence on MAX density matrix=1.00D-06.
 Requested convergence on             energy=1.00D-06.
 No special actions if energy rises.
 Integral accuracy reduced to 1.0D-05 until final iterations.

 Cycle   1  Pass 0  IDiag  1:
 E= -39.8314559430707    
 DIIS: error= 2.06D-03 at cycle   1 NSaved=   1.
 NSaved= 1 IEnMin= 1 EnMin= -39.8314559430707     IErMin= 1 ErrMin= 2.06D-03
 ErrMax= 2.06D-03  0.00D+00 EMaxC= 1.00D-01 BMatC= 2.33D-04 BMatP= 2.33D-04
 IDIUse=3 WtCom= 9.79D-01 WtEn= 2.06D-02
 Coeff-Com:  0.100D+01
 Coeff-En:   0.100D+01
 Coeff:      0.100D+01
 Gap=     0.272 Goal=   None    Shift=    0.000
 Gap=     0.276 Goal=   None    Shift=    0.000
 GapD=    0.272 DampG=1.000 DampE=1.000 DampFc=1.0000 IDamp=-1.
 RMSDP=6.61D-04 MaxDP=5.01D-03              OVMax= 6.10D-03

 Cycle   2  Pass 0  IDiag  1:
 E= -39.8314777061029     Delta-E=       -0.000021763032 Rises=F Damp=F
 DIIS: error= 1.98D-03 at cycle   2 NSaved=   2.
 NSaved= 2 IEnMin= 2 EnMin= -39.8314777061029     IErMin= 2 ErrMin= 1.98D-03
 ErrMax= 1.98D-03  0.00D+00 EMaxC= 1.00D-01 BMatC= 2.18D-04 BMatP= 2.33D-04
 IDIUse=3 WtCom= 9.80D-01 WtEn= 1.98D-02
 Coeff-Com:  0.490D+00 0.510D+00
 Coeff-En:   0.405D+00 0.595D+00
 Coeff:      0.489D+00 0.511D+00
 Gap=     0.273 Goal=   None    Shift=    0.000
 Gap=     0.276 Goal=   None    Shift=    0.000
 RMSDP=3.74D-04 MaxDP=3.78D-03 DE=-2.18D-05 OVMax= 2.99D-03

 Cycle   3  Pass 0  IDiag  1:
 E= -39.8315379871568     Delta-E=       -0.000060281054 Rises=F Damp=F
 DIIS: error= 3.05D-04 at cycle   3 NSaved=   3.
 NSaved= 3 IEnMin= 3 EnMin= -39.8315379871568     IErMin= 3 ErrMin= 3.05D-04
 ErrMax= 3.05D-04  0.00D+00 EMaxC= 1.00D-01 BMatC= 6.05D-06 BMatP= 2.18D-04
 IDIUse=3 WtCom= 9.97D-01 WtEn= 3.05D-03
 Coeff-Com:  0.507D-01 0.163D+00 0.786D+00
 Coeff-En:   0.000D+00 0.000D+00 0.100D+01
 Coeff:      0.505D-01 0.163D+00 0.787D+00
 Gap=     0.273 Goal=   None    Shift=    0.000
 Gap=     0.276 Goal=   None    Shift=    0.000
 RMSDP=5.08D-05 MaxDP=3.74D-04 DE=-6.03D-05 OVMax= 4.51D-04

 Cycle   4  Pass 0  IDiag  1:
 E= -39.8315396437620     Delta-E=       -0.000001656605 Rises=F Damp=F
 DIIS: error= 9.24D-06 at cycle   4 NSaved=   4.
 NSaved= 4 IEnMin= 4 EnMin= -39.8315396437620     IErMin= 4 ErrMin= 9.24D-06
 ErrMax= 9.24D-06  0.00D+00 EMaxC= 1.00D-01 BMatC= 5.62D-09 BMatP= 6.05D-06
 IDIUse=1 WtCom= 1.00D+00 WtEn= 0.00D+00
 Coeff-Com: -0.321D-02 0.101D-02 0.282D-01 0.974D+00
 Coeff:     -0.321D-02 0.101D-02 0.282D-01 0.974D+00
 Gap=     0.273 Goal=   None    Shift=    0.000
 Gap=     0.276 Goal=   None    Shift=    0.000
 RMSDP=2.57D-06 MaxDP=2.74D-05 DE=-1.66D-06 OVMax= 2.17D-05

 Initial convergence to 1.0D-05 achieved.  Increase integral accuracy.
 Cycle   5  Pass 1  IDiag  1:
 E= -39.8315386201351     Delta-E=        0.000001023627 Rises=F Damp=F
 DIIS: error= 2.11D-06 at cycle   1 NSaved=   1.
 NSaved= 1 IEnMin= 1 EnMin= -39.8315386201351     IErMin= 1 ErrMin= 2.11D-06
 ErrMax= 2.11D-06  0.00D+00 EMaxC= 1.00D-01 BMatC= 1.47D-10 BMatP= 1.47D-10
 IDIUse=1 WtCom= 1.00D+00 WtEn= 0.00D+00
 Coeff-Com:  0.100D+01
 Coeff:      0.100D+01
 Gap=     0.273 Goal=   None    Shift=    0.000
 Gap=     0.276 Goal=   None    Shift=    0.000
 RMSDP=2.57D-06 MaxDP=2.74D-05 DE= 1.02D-06 OVMax= 6.61D-06

 Cycle   6  Pass 1  IDiag  1:
 E= -39.8315386202248     Delta-E=       -0.000000000090 Rises=F Damp=F
 DIIS: error= 1.03D-06 at cycle   2 NSaved=   2.
 NSaved= 2 IEnMin= 2 EnMin= -39.8315386202248     IErMin= 2 ErrMin= 1.03D-06
 ErrMax= 1.03D-06  0.00D+00 EMaxC= 1.00D-01 BMatC= 3.73D-11 BMatP= 1.47D-10
 IDIUse=1 WtCom= 1.00D+00 WtEn= 0.00D+00
 Coeff-Com:  0.150D+00 0.850D+00
 Coeff:      0.150D+00 0.850D+00
 Gap=     0.273 Goal=   None    Shift=    0.000
 Gap=     0.276 Goal=   None    Shift=    0.000
 RMSDP=2.50D-07 MaxDP=2.59D-06 DE=-8.97D-11 OVMax= 2.72D-06

 Cycle   7  Pass 1  IDiag  1:
 E= -39.8315386202331     Delta-E=       -0.000000000008 Rises=F Damp=F
 DIIS: error= 7.87D-07 at cycle   3 NSaved=   3.
 NSaved= 3 IEnMin= 3 EnMin= -39.8315386202331     IErMin= 3 ErrMin= 7.87D-07
 ErrMax= 7.87D-07  0.00D+00 EMaxC= 1.00D-01 BMatC= 2.47D-11 BMatP= 3.73D-11
 IDIUse=1 WtCom= 1.00D+00 WtEn= 0.00D+00
 Coeff-Com: -0.205D+00 0.490D+00 0.715D+00
 Coeff:     -0.205D+00 0.490D+00 0.715D+00
 Gap=     0.273 Goal=   None    Shift=    0.000
 Gap=     0.276 Goal=   None    Shift=    0.000
 RMSDP=1.28D-07 MaxDP=1.27D-06 DE=-8.30D-12 OVMax= 1.54D-06

 Cycle   8  Pass 1  IDiag  1:
 E= -39.8315386202408     Delta-E=       -0.000000000008 Rises=F Damp=F
 DIIS: error= 1.66D-08 at cycle   4 NSaved=   4.
 NSaved= 4 IEnMin= 4 EnMin= -39.8315386202408     IErMin= 4 ErrMin= 1.66D-08
 ErrMax= 1.66D-08  0.00D+00 EMaxC= 1.00D-01 BMatC= 1.55D-14 BMatP= 2.47D-11
 IDIUse=1 WtCom= 1.00D+00 WtEn= 0.00D+00
 Coeff-Com: -0.150D-02-0.181D-01-0.748D-02 0.103D+01
 Coeff:     -0.150D-02-0.181D-01-0.748D-02 0.103D+01
 Gap=     0.273 Goal=   None    Shift=    0.000
 Gap=     0.276 Goal=   None    Shift=    0.000
 RMSDP=7.28D-09 MaxDP=4.33D-08 DE=-7.68D-12 OVMax= 5.97D-08

 SCF Done:  E(UB-P86) =  -39.8315386202     A.U. after    8 cycles
            NFock=  8  Conv=0.73D-08     -V/T= 2.0075
 <Sx>= 0.0000 <Sy>= 0.0000 <Sz>= 0.5000 <S**2>= 0.7536 S= 0.5018
 <L.S>= 0.000000000000E+00
 KE= 3.953673310853D+01 PE=-1.110129879475D+02 EE= 2.208004149929D+01
 Annihilation of the first spin contaminant:
 S**2 before annihilation     0.7536,   after     0.7500
 Leave Link  502 at Wed Oct  7 14:07:01 2020, MaxMem=  2684354560 cpu:               8.1 elap:               1.1
 (Enter /udrive/faculty/rpeverati/g16/g16/l508.exe)
 QCSCF skips out because SCF is already converged.
 Leave Link  508 at Wed Oct  7 14:07:01 2020, MaxMem=  2684354560 cpu:               0.2 elap:               0.4
 (Enter /udrive/faculty/rpeverati/g16/g16/l701.exe)
 ... and contract with generalized density number  0.
 Compute integral first derivatives.
 R6Disp: Adding Grimme-D3(BJ) dispersion energy 1st derivatives to the gradient.
 Leave Link  701 at Wed Oct  7 14:07:02 2020, MaxMem=  2684354560 cpu:               3.5 elap:               0.7
 (Enter /udrive/faculty/rpeverati/g16/g16/l702.exe)
 L702 exits ... SP integral derivatives will be done elsewhere.
 Leave Link  702 at Wed Oct  7 14:07:03 2020, MaxMem=  2684354560 cpu:               1.2 elap:               0.5
 (Enter /udrive/faculty/rpeverati/g16/g16/l703.exe)
 Integral derivatives from FoFJK, PRISM(SPDF).
 Compute integral first derivatives, UseDBF=F ICtDFT=           0.
 Calling FoFJK, ICntrl=      2527 FMM=F ISym2X=1 I1Cent= 0 IOpClX= 0 NMat=1 NMatS=1 NMatT=0.
 FoFJK:  IHMeth= 1 ICntrl=    2527 DoSepK=F KAlg= 0 I1Cent=           0 FoldK=F
 IRaf=         0 NMat=       1 IRICut=       1 DoRegI=T DoRafI=F ISym2E= 1 IDoP0=0 IntGTp=1.
 FoFCou: FMM=F IPFlag=           0 FMFlag=      100000 FMFlg1=         800
         NFxFlg=           0 DoJE=F BraDBF=F KetDBF=F FulRan=T
         wScrn=  0.000000 ICntrl=      2527 IOpCl=  0 I1Cent=           0 NGrid=           0
         NMat0=    1 NMatS0=      1 NMatT0=    0 NMatD0=    1 NMtDS0=    0 NMtDT0=    0
 Petite list used in FoFCou.
 Leave Link  703 at Wed Oct  7 14:07:04 2020, MaxMem=  2684354560 cpu:               4.7 elap:               0.7
 (Enter /udrive/faculty/rpeverati/g16/g16/l716.exe)
 Dipole        = 2.22044605D-16 2.22044605D-16 1.27321732D-31
 ***** Axes restored to original set *****
 -------------------------------------------------------------------
 Center     Atomic                   Forces (Hartrees/Bohr)
 Number     Number              X              Y              Z
 -------------------------------------------------------------------
      1        6          -0.000000000   -0.000000000    0.000000000
      2        1          -0.000132486   -0.000229473   -0.000000000
      3        1          -0.000132486    0.000229473    0.000000000
      4        1           0.000264972    0.000000000    0.000000000
 -------------------------------------------------------------------
 Cartesian Forces:  Max     0.000264972 RMS     0.000132486
 Leave Link  716 at Wed Oct  7 14:07:05 2020, MaxMem=  2684354560 cpu:               1.7 elap:               0.5
 (Enter /udrive/faculty/rpeverati/g16/g16/l103.exe)

 GradGradGradGradGradGradGradGradGradGradGradGradGradGradGradGradGradGrad
 Berny optimization.
 Optmz: redundant internal coordinate code flag= 1
 Using GEDIIS/GDIIS optimizer.
 Red2BG:  D1=  8.19D-01 OD1=  2.45D-02 B2RMS=  0.00D+00 IAprox=0
 FormGI is forming the generalized inverse of G from B-inverse, IUseBI=4.
 Internal  Forces:  Max     0.000264972 RMS     0.000173465
 Search for a local minimum.
 Step number   2 out of a maximum of  100
 All quantities printed in internal units (Hartrees-Bohrs-Radians)
 RMS Force = .17347D-03 SwitMx=.10000D-02 MixMth= 2
 Mixed Optimization -- En-DIIS/RFO-DIIS
 Update second derivatives using D2CorX and points    1    2
 DE= -3.82D-04 DEPred=-3.97D-04 R= 9.62D-01
 TightC=F SS=  1.41D+00  RLast= 4.67D-02 DXNew= 5.0454D-01 1.3997D-01
 Trust test= 9.62D-01 RLast= 4.67D-02 DXMaxT set to 3.00D-01
 The second derivative matrix:
                          R1        R2        R3        A1        A2
           R1           0.36675
           R2           0.00354   0.36675
           R3           0.00354   0.00354   0.36675
           A1           0.00000   0.00000   0.00000   0.16000
           A2           0.00000   0.00000   0.00000   0.00000   0.16000
           A3          -0.00000  -0.00000  -0.00000  -0.00000  -0.00000
           D1           0.00000   0.00000   0.00000   0.00000   0.00000
                          A3        D1
           A3           0.16000
           D1          -0.00000   0.00403
 ITU=  1  0
 Use linear search instead of GDIIS.
 Eigenvectors of the second derivative matrix:
                           1         2         3         4         5
     Eigenvalues --     0.00403   0.16000   0.16000   0.36321   0.36321
   1         R1        -0.00000   0.00000  -0.00000  -0.35294   0.73627
   2         R2         0.00000   0.00000  -0.00000  -0.46116  -0.67379
   3         R3         0.00000   0.00000  -0.00000   0.81410  -0.06248
   4         A1         0.00000   0.56530   0.58915   0.00000   0.00000
   5         A2         0.00000  -0.79287   0.19499  -0.00000   0.00000
   6         A3        -0.00000   0.22757  -0.78414  -0.00000  -0.00000
   7         D1        -1.00000  -0.00000   0.00000   0.00000  -0.00000
                           6
     Eigenvalues --     0.37383
   1         R1        -0.57735
   2         R2        -0.57735
   3         R3        -0.57735
   4         A1        -0.00000
   5         A2        -0.00000
   6         A3         0.00000
   7         D1        -0.00000
 Iter=   1 RLamda= 0.00000000D+00 Sum=-1.38403912D-28.
 RFO step:  Lambda= 0.00000000D+00 EMin= 4.02612957D-03
 Quartic linear search produced a step of -0.02702.
 Iteration  1 RMS(Cart)=  0.00047645 RMS(Int)=  0.00000000
 Iteration  2 RMS(Cart)=  0.00000000 RMS(Int)=  0.00000000
 ITry= 1 IFail=0 DXMaxC= 7.28D-04 DCOld= 1.00D+10 DXMaxT= 3.00D-01 DXLimC= 3.00D+00 Rises=F
 ClnCor:  largest displacement from symmetrization is 2.38D-14 for atom     4.
 Variable       Old X    -DE/DX   Delta X   Delta X   Delta X     New X
                                 (Linear)    (Quad)   (Total)
    R1        2.06277  -0.00026  -0.00073  -0.00000  -0.00073   2.06204
    R2        2.06277  -0.00026  -0.00073   0.00000  -0.00073   2.06204
    R3        2.06277  -0.00026  -0.00073   0.00000  -0.00073   2.06204
    A1        2.09440  -0.00000   0.00000  -0.00000   0.00000   2.09440
    A2        2.09440   0.00000   0.00000   0.00000   0.00000   2.09440
    A3        2.09440   0.00000   0.00000   0.00000   0.00000   2.09440
    D1        3.14159  -0.00000   0.00000  -0.00000   0.00000   3.14159
         Item               Value     Threshold  Converged?
 Maximum Force            0.000265     0.000450     YES
 RMS     Force            0.000173     0.000300     YES
 Maximum Displacement     0.000728     0.001800     YES
 RMS     Displacement     0.000476     0.001200     YES
 Predicted change in Energy=-2.815143D-07
 Optimization completed.
    -- Stationary point found.
                           ----------------------------
                           !   Optimized Parameters   !
                           ! (Angstroms and Degrees)  !
 --------------------------                            --------------------------
 ! Name  Definition              Value          Derivative Info.                !
 --------------------------------------------------------------------------------
 ! R1    R(1,2)                  1.0916         -DE/DX =   -0.0003              !
 ! R2    R(1,3)                  1.0916         -DE/DX =   -0.0003              !
 ! R3    R(1,4)                  1.0916         -DE/DX =   -0.0003              !
 ! A1    A(2,1,3)              120.0            -DE/DX =    0.0                 !
 ! A2    A(2,1,4)              120.0            -DE/DX =    0.0                 !
 ! A3    A(3,1,4)              120.0            -DE/DX =    0.0                 !
 ! D1    D(2,1,4,3)            180.0            -DE/DX =    0.0                 !
 --------------------------------------------------------------------------------
 Lowest energy point so far.  Saving SCF results.
 Largest change from initial coordinates is atom    4       0.014 Angstoms.
 GradGradGradGradGradGradGradGradGradGradGradGradGradGradGradGradGradGrad

 Leave Link  103 at Wed Oct  7 14:07:05 2020, MaxMem=  2684354560 cpu:               2.0 elap:               0.5
 (Enter /udrive/faculty/rpeverati/g16/g16/l202.exe)
                          Input orientation:                          
 ---------------------------------------------------------------------
 Center     Atomic      Atomic             Coordinates (Angstroms)
 Number     Number       Type             X           Y           Z
 ---------------------------------------------------------------------
      1          6           0        0.000000    0.000000    0.000000
      2          1           0        0.545785    0.945328    0.000000
      3          1           0        0.545785   -0.945328    0.000000
      4          1           0       -1.091571    0.000000    0.000000
 ---------------------------------------------------------------------
                    Distance matrix (angstroms):
                    1          2          3          4
     1  C    0.000000
     2  H    1.091571   0.000000
     3  H    1.091571   1.890656   0.000000
     4  H    1.091571   1.890656   1.890656   0.000000
 Stoichiometry    CH3(2)
 Framework group  D3H[O(C),3C2(H)]
 Deg. of freedom     1
 Full point group                 D3H     NOp  12
 RotChk:  IX=0 Diff= 1.57D-16
 Largest Abelian subgroup         C2V     NOp   4
 Largest concise Abelian subgroup C2      NOp   2
                         Standard orientation:                         
 ---------------------------------------------------------------------
 Center     Atomic      Atomic             Coordinates (Angstroms)
 Number     Number       Type             X           Y           Z
 ---------------------------------------------------------------------
      1          6           0        0.000000    0.000000    0.000000
      2          1           0        0.000000    1.091571    0.000000
      3          1           0        0.945328   -0.545785    0.000000
      4          1           0       -0.945328   -0.545785    0.000000
 ---------------------------------------------------------------------
 Rotational constants (GHZ):         280.5673789         280.5673789         140.2836895
 Leave Link  202 at Wed Oct  7 14:07:06 2020, MaxMem=  2684354560 cpu:               1.0 elap:               0.3
 (Enter /udrive/faculty/rpeverati/g16/g16/l601.exe)
 Copying SCF densities to generalized density rwf, IOpCl= 1 IROHF=0.

 **********************************************************************

            Population analysis using the SCF density.

 **********************************************************************

 Orbital symmetries:
 Alpha Orbitals:
       Occupied  (A1') (A1') (E') (E') (A2")
       Virtual   (A1') (E') (E') (A2") (E') (E') (A1') (E') (E')
                 (A1') (E") (E") (A1') (E') (E')
 Beta  Orbitals:
       Occupied  (A1') (A1') (E') (E')
       Virtual   (A2") (A1') (E') (E') (E') (E') (A2") (A1') (E')
                 (E') (A1') (E") (E") (A1') (E') (E')
 The electronic state is 2-A2".
 Alpha  occ. eigenvalues --   -9.91484  -0.61253  -0.36932  -0.36932  -0.18580
 Alpha virt. eigenvalues --    0.08729   0.15205   0.15205   0.49086   0.50725
 Alpha virt. eigenvalues --    0.50725   0.63987   0.85466   0.85466   0.90995
 Alpha virt. eigenvalues --    1.57762   1.57762   1.92508   2.09708   2.09708
  Beta  occ. eigenvalues --   -9.90140  -0.57885  -0.35986  -0.35986
  Beta virt. eigenvalues --   -0.08395   0.10408   0.15810   0.15810   0.52035
  Beta virt. eigenvalues --    0.52035   0.57642   0.67093   0.85973   0.85973
  Beta virt. eigenvalues --    0.94668   1.65199   1.65199   2.02751   2.10854
  Beta virt. eigenvalues --    2.10854
          Condensed to atoms (all electrons):
               1          2          3          4
     1  C    5.376276   0.378816   0.378816   0.378816
     2  H    0.378816   0.507664  -0.028694  -0.028694
     3  H    0.378816  -0.028694   0.507664  -0.028694
     4  H    0.378816  -0.028694  -0.028694   0.507664
          Atomic-Atomic Spin Densities.
               1          2          3          4
     1  C    1.177150  -0.008513  -0.008513  -0.008513
     2  H   -0.008513  -0.044344   0.001160   0.001160
     3  H   -0.008513   0.001160  -0.044344   0.001160
     4  H   -0.008513   0.001160   0.001160  -0.044344
 Mulliken charges and spin densities:
               1          2
     1  C   -0.512724   1.151611
     2  H    0.170908  -0.050537
     3  H    0.170908  -0.050537
     4  H    0.170908  -0.050537
 Sum of Mulliken charges =  -0.00000   1.00000
 Mulliken charges and spin densities with hydrogens summed into heavy atoms:
               1          2
     1  C   -0.000000   1.000000
 Electronic spatial extent (au):  <R**2>=             29.6438
 Charge=             -0.0000 electrons
 Dipole moment (field-independent basis, Debye):
    X=              0.0000    Y=              0.0000    Z=              0.0000  Tot=              0.0000
 Quadrupole moment (field-independent basis, Debye-Ang):
   XX=             -6.9968   YY=             -6.9968   ZZ=             -8.7089
   XY=             -0.0000   XZ=             -0.0000   YZ=             -0.0000
 Traceless Quadrupole moment (field-independent basis, Debye-Ang):
   XX=              0.5707   YY=              0.5707   ZZ=             -1.1414
   XY=             -0.0000   XZ=             -0.0000   YZ=             -0.0000
 Octapole moment (field-independent basis, Debye-Ang**2):
  XXX=             -0.0000  YYY=              0.8641  ZZZ=              0.0000  XYY=              0.0000
  XXY=             -0.8641  XXZ=              0.0000  XZZ=              0.0000  YZZ=              0.0000
  YYZ=              0.0000  XYZ=              0.0000
 Hexadecapole moment (field-independent basis, Debye-Ang**3):
 XXXX=            -14.0160 YYYY=            -14.0160 ZZZZ=             -9.0940 XXXY=              0.0000
 XXXZ=             -0.0000 YYYX=              0.0000 YYYZ=             -0.0000 ZZZX=             -0.0000
 ZZZY=             -0.0000 XXYY=             -4.6720 XXZZ=             -4.2045 YYZZ=             -4.2045
 XXYZ=             -0.0000 YYXZ=             -0.0000 ZZXY=              0.0000
 N-N= 9.564674719436D+00 E-N=-1.110129881428D+02  KE= 3.953673310853D+01
                          Isotropic Fermi Contact Couplings
        Atom                 a.u.       MegaHertz       Gauss      10(-4) cm-1
     1  C(13)              0.13325     149.79491      53.45055      49.96620
     2  H(1)              -0.01571     -70.22275     -25.05722     -23.42379
     3  H(1)              -0.01571     -70.22275     -25.05722     -23.42379
     4  H(1)              -0.01571     -70.22275     -25.05722     -23.42379
 --------------------------------------------------------
       Center         ----  Spin Dipole Couplings  ----
                      3XX-RR        3YY-RR        3ZZ-RR
 --------------------------------------------------------
     1   Atom       -0.544287     -0.544287      1.088575
     2   Atom       -0.070937      0.076019     -0.005082
     3   Atom        0.039280     -0.034198     -0.005082
     4   Atom        0.039280     -0.034198     -0.005082
 --------------------------------------------------------
                        XY            XZ            YZ
 --------------------------------------------------------
     1   Atom       -0.000000      0.000000      0.000000
     2   Atom       -0.000000      0.000000      0.000000
     3   Atom       -0.063634      0.000000      0.000000
     4   Atom        0.063634      0.000000      0.000000
 --------------------------------------------------------


 ---------------------------------------------------------------------------------
              Anisotropic Spin Dipole Couplings in Principal Axis System
 ---------------------------------------------------------------------------------

       Atom             a.u.   MegaHertz   Gauss  10(-4) cm-1        Axes

              Baa    -0.5443   -73.038   -26.062   -24.363  0.9260  0.3776  0.0000
     1 C(13)  Bbb    -0.5443   -73.038   -26.062   -24.363 -0.3776  0.9260  0.0000
              Bcc     1.0886   146.076    52.124    48.726  0.0000  0.0000  1.0000
 
              Baa    -0.0709   -37.849   -13.505   -12.625  1.0000  0.0000  0.0000
     2 H(1)   Bbb    -0.0051    -2.711    -0.968    -0.904  0.0000  0.0000  1.0000
              Bcc     0.0760    40.560    14.473    13.529  0.0000  1.0000  0.0000
 
              Baa    -0.0709   -37.849   -13.505   -12.625  0.5000  0.8660  0.0000
     3 H(1)   Bbb    -0.0051    -2.711    -0.968    -0.904  0.0000  0.0000  1.0000
              Bcc     0.0760    40.560    14.473    13.529  0.8660 -0.5000  0.0000
 
              Baa    -0.0709   -37.849   -13.505   -12.625 -0.5000  0.8660  0.0000
     4 H(1)   Bbb    -0.0051    -2.711    -0.968    -0.904  0.0000  0.0000  1.0000
              Bcc     0.0760    40.560    14.473    13.529  0.8660  0.5000  0.0000
 

 ---------------------------------------------------------------------------------

 No NMR shielding tensors so no spin-rotation constants.
 Leave Link  601 at Wed Oct  7 14:07:07 2020, MaxMem=  2684354560 cpu:               5.9 elap:               0.8
 (Enter /udrive/faculty/rpeverati/g16/g16/l9999.exe)

 Test job not archived.
 1\1\GINC-NODE23\FOpt\UBP86\6-31G(d)\C1H3(2)\RPEVERATI\07-Oct-2020\0\\#
 P Opt(MaxCyc=100) BP86/6-31G* 5D 7F Integral=UltraFineGrid SCF=(NoSymm
 ,XQC,MaxCyc=120) EmpiricalDispersion=GD3BJ IOp(1/33=1)\\TS search on B
 H76.\\0,2\C,0.,0.,0.\H,0.5457852764,0.9453278287,0.\H,0.5457852764,-0.
 9453278287,0.\H,-1.0915705528,0.,0.\\Version=ES64L-G16RevA.03\State=2-
 A2"\HF=-39.8315386\S2=0.753575\S2-1=0.\S2A=0.750007\RMSD=7.283e-09\RMS
 F=1.325e-04\Dipole=0.,0.,0.\Quadrupole=0.4243188,0.4243188,-0.8486376,
 0.,0.,0.\PG=D03H [O(C1),3C2(H1)]\\@


 FROM THE ASHES OF OUR DESPAIR GROW THE FLOWERS OF TOMORROW.
 Job cpu time:       0 days  0 hours  1 minutes 43.2 seconds.
 Elapsed time:       0 days  0 hours  0 minutes 20.5 seconds.
 File lengths (MBytes):  RWF=      5 Int=      0 D2E=      0 Chk=      1 Scr=      1
 Normal termination of Gaussian 16 at Wed Oct  7 14:07:08 2020.
