 Entering Gaussian System, Link 0=g16
 Input=MN_32_co_BH76_BP86DBJ_631Gs.in
 Output=MN_32_co_BH76_BP86DBJ_631Gs.log
 Initial command:
 /udrive/faculty/rpeverati/g16/g16/l1.exe "/udrive/scratch-directories/gaussian09/rpeverati/Gau-25290.inp" -scrdir="/udrive/scratch-directories/gaussian09/rpeverati/"
 Entering Link 1 = /udrive/faculty/rpeverati/g16/g16/l1.exe PID=     25291.
  
 Copyright (c) 1988,1990,1992,1993,1995,1998,2003,2009,2016,
            Gaussian, Inc.  All Rights Reserved.
  
 This is part of the Gaussian(R) 16 program.  It is based on
 the Gaussian(R) 09 system (copyright 2009, Gaussian, Inc.),
 the Gaussian(R) 03 system (copyright 2003, Gaussian, Inc.),
 the Gaussian(R) 98 system (copyright 1998, Gaussian, Inc.),
 the Gaussian(R) 94 system (copyright 1995, Gaussian, Inc.),
 the Gaussian 92(TM) system (copyright 1992, Gaussian, Inc.),
 the Gaussian 90(TM) system (copyright 1990, Gaussian, Inc.),
 the Gaussian 88(TM) system (copyright 1988, Gaussian, Inc.),
 the Gaussian 86(TM) system (copyright 1986, Carnegie Mellon
 University), and the Gaussian 82(TM) system (copyright 1983,
 Carnegie Mellon University). Gaussian is a federally registered
 trademark of Gaussian, Inc.
  
 This software contains proprietary and confidential information,
 including trade secrets, belonging to Gaussian, Inc.
  
 This software is provided under written license and may be
 used, copied, transmitted, or stored only in accord with that
 written license.
  
 The following legend is applicable only to US Government
 contracts under FAR:
  
                    RESTRICTED RIGHTS LEGEND
  
 Use, reproduction and disclosure by the US Government is
 subject to restrictions as set forth in subparagraphs (a)
 and (c) of the Commercial Computer Software - Restricted
 Rights clause in FAR 52.227-19.
  
 Gaussian, Inc.
 340 Quinnipiac St., Bldg. 40, Wallingford CT 06492
  
  
 ---------------------------------------------------------------
 Warning -- This program may not be used in any manner that
 competes with the business of Gaussian, Inc. or will provide
 assistance to any competitor of Gaussian, Inc.  The licensee
 of this program is prohibited from giving any competitor of
 Gaussian, Inc. access to this program.  By using this program,
 the user acknowledges that Gaussian, Inc. is engaged in the
 business of creating and licensing software in the field of
 computational chemistry and represents and warrants to the
 licensee that it is not a competitor of Gaussian, Inc. and that
 it will not use this program in any manner prohibited above.
 ---------------------------------------------------------------
  

 Cite this work as:
 Gaussian 16, Revision A.03,
 M. J. Frisch, G. W. Trucks, H. B. Schlegel, G. E. Scuseria, 
 M. A. Robb, J. R. Cheeseman, G. Scalmani, V. Barone, 
 G. A. Petersson, H. Nakatsuji, X. Li, M. Caricato, A. V. Marenich, 
 J. Bloino, B. G. Janesko, R. Gomperts, B. Mennucci, H. P. Hratchian, 
 J. V. Ortiz, A. F. Izmaylov, J. L. Sonnenberg, D. Williams-Young, 
 F. Ding, F. Lipparini, F. Egidi, J. Goings, B. Peng, A. Petrone, 
 T. Henderson, D. Ranasinghe, V. G. Zakrzewski, J. Gao, N. Rega, 
 G. Zheng, W. Liang, M. Hada, M. Ehara, K. Toyota, R. Fukuda, 
 J. Hasegawa, M. Ishida, T. Nakajima, Y. Honda, O. Kitao, H. Nakai, 
 T. Vreven, K. Throssell, J. A. Montgomery, Jr., J. E. Peralta, 
 F. Ogliaro, M. J. Bearpark, J. J. Heyd, E. N. Brothers, K. N. Kudin, 
 V. N. Staroverov, T. A. Keith, R. Kobayashi, J. Normand, 
 K. Raghavachari, A. P. Rendell, J. C. Burant, S. S. Iyengar, 
 J. Tomasi, M. Cossi, J. M. Millam, M. Klene, C. Adamo, R. Cammi, 
 J. W. Ochterski, R. L. Martin, K. Morokuma, O. Farkas, 
 J. B. Foresman, and D. J. Fox, Gaussian, Inc., Wallingford CT, 2016.
 
 ******************************************
 Gaussian 16:  ES64L-G16RevA.03 25-Dec-2016
                 7-Oct-2020 
 ******************************************
 %NoSave
 %nproc=12
 Will use up to   12 processors via shared memory.
 %mem=20GB
 %chk=MN_32_co_BH76_BP86DBJ_631Gs
 ----------------------------------------------------------------------
 #P Opt(MaxCyc=100) BP86/6-31G* 5D 7F Integral=UltraFineGrid SCF=(NoSym
 m,XQC,MaxCyc=120) EmpiricalDispersion=GD3BJ IOp(1/33=1)
 ----------------------------------------------------------------------
 1/6=100,18=20,19=15,26=4,33=1,38=1/1,3;
 2/9=110,12=2,17=6,18=5,40=1/2;
 3/5=1,6=6,7=1,8=11,11=2,25=1,30=1,71=1,74=404,75=-5,124=41/1,2,3;
 4/9=2/1;
 5/5=2,7=120,8=3,13=1,38=5/2,8;
 6/7=2,8=2,9=2,10=2,28=1/1;
 7//1,2,3,16;
 1/6=100,18=20,19=15,26=4,33=1/3(2);
 2/9=110/2;
 99//99;
 2/9=110/2;
 3/5=1,6=6,7=1,8=11,11=2,25=1,30=1,71=1,74=404,75=-5,124=41/1,2,3;
 4/5=5,9=2,16=3,69=1/1;
 5/5=2,7=120,8=3,13=1,38=5/2,8;
 7//1,2,3,16;
 1/6=100,18=20,19=15,26=4,33=1/3(-5);
 2/9=110/2;
 6/7=2,8=2,9=2,10=2,19=2,28=1/1;
 99/9=1/99;
 Leave Link    1 at Wed Oct  7 14:07:09 2020, MaxMem=  2684354560 cpu:               8.6 elap:               0.9
 (Enter /udrive/faculty/rpeverati/g16/g16/l101.exe)
 ONIOM data not found on unit 2.
 ------------------
 TS search on BH76.
 ------------------
 TstMul:  ICh=     0
 TstMul:  Mul=     1
 TstMul:  ICh=     0
 TstMul:  Mul=     1
 Symbolic Z-matrix:
 Charge =  0 Multiplicity = 1
 O                     0.        0.        0.48412 
 C                     0.        0.       -0.64549 
 
 RdStrC is calling ZToCFu for IStruc=1 NZ=     2.
 PrtBox:  NBox=     1 Levels=  1 BoxLen=    8.00 SMaxX=        2.13
          Shift=            0.000000            0.000000            1.219800
 Box      1 Number                   0 centers from      1 to      2:
 After GenITR:
 ITRead=  0  0
 MicOpt= -1 -1
 ITRead=  0  0
 MicOpt= -1 -1
 NAtoms=      2 NQM=        2 NQMF=       0 NMMI=      0 NMMIF=      0
                NMic=       0 NMicF=      0.
                    Isotopes and Nuclear Properties:
 (Nuclear quadrupole moments (NQMom) in fm**2, nuclear magnetic moments (NMagM)
  in nuclear magnetons)

  Atom         1           2
 IAtWgt=          16          12
 AtmWgt=  15.9949146  12.0000000
 NucSpn=           0           0
 AtZEff=   0.0000000   0.0000000
 NQMom=    0.0000000   0.0000000
 NMagM=    0.0000000   0.0000000
 AtZNuc=   8.0000000   6.0000000
 No MM parameters found.
 Leave Link  101 at Wed Oct  7 14:07:10 2020, MaxMem=  2684354560 cpu:               3.6 elap:               0.5
 (Enter /udrive/faculty/rpeverati/g16/g16/l103.exe)

 GradGradGradGradGradGradGradGradGradGradGradGradGradGradGradGradGradGrad
 Berny optimization.
 Optmz: redundant internal coordinate code flag= 1
 Initialization pass.
                           ----------------------------
                           !    Initial Parameters    !
                           ! (Angstroms and Degrees)  !
 --------------------------                            --------------------------
 ! Name  Definition              Value          Derivative Info.                !
 --------------------------------------------------------------------------------
 ! R1    R(1,2)                  1.1296         estimate D2E/DX2                !
 --------------------------------------------------------------------------------
 Maximum allowed force set to 1.00D+20.
 Trust Radius=3.00D-01 FncErr=1.00D-07 GrdErr=1.00D-06 EigMax=2.50D+02 EigMin=1.00D-04
 Number of steps in this run=    100 maximum allowed number of steps=    100.
 GradGradGradGradGradGradGradGradGradGradGradGradGradGradGradGradGradGrad

 Leave Link  103 at Wed Oct  7 14:07:11 2020, MaxMem=  2684354560 cpu:               1.5 elap:               0.5
 (Enter /udrive/faculty/rpeverati/g16/g16/l202.exe)
                          Input orientation:                          
 ---------------------------------------------------------------------
 Center     Atomic      Atomic             Coordinates (Angstroms)
 Number     Number       Type             X           Y           Z
 ---------------------------------------------------------------------
      1          8           0        0.000000    0.000000    0.484118
      2          6           0        0.000000    0.000000   -0.645490
 ---------------------------------------------------------------------
 Stoichiometry    CO
 Framework group  C*V[C*(CO)]
 Deg. of freedom     1
 Full point group                 C*V     NOp   4
 Largest Abelian subgroup         C2V     NOp   4
 Largest concise Abelian subgroup C1      NOp   1
                         Standard orientation:                         
 ---------------------------------------------------------------------
 Center     Atomic      Atomic             Coordinates (Angstroms)
 Number     Number       Type             X           Y           Z
 ---------------------------------------------------------------------
      1          8           0        0.000000    0.000000    0.484118
      2          6           0        0.000000    0.000000   -0.645491
 ---------------------------------------------------------------------
 Rotational constants (GHZ):           0.0000000          57.7666452          57.7666452
 Leave Link  202 at Wed Oct  7 14:07:11 2020, MaxMem=  2684354560 cpu:               1.0 elap:               0.4
 (Enter /udrive/faculty/rpeverati/g16/g16/l301.exe)
 Standard basis: 6-31G(d) (5D, 7F)
 Ernie: Thresh=  0.10000D-02 Tol=  0.10000D-05 Strict=F.
 There are    16 symmetry adapted cartesian basis functions of A1  symmetry.
 There are     2 symmetry adapted cartesian basis functions of A2  symmetry.
 There are     6 symmetry adapted cartesian basis functions of B1  symmetry.
 There are     6 symmetry adapted cartesian basis functions of B2  symmetry.
 There are    14 symmetry adapted basis functions of A1  symmetry.
 There are     2 symmetry adapted basis functions of A2  symmetry.
 There are     6 symmetry adapted basis functions of B1  symmetry.
 There are     6 symmetry adapted basis functions of B2  symmetry.
    28 basis functions,    56 primitive gaussians,    30 cartesian basis functions
     7 alpha electrons        7 beta electrons
       nuclear repulsion energy        22.4861113181 Hartrees.
 IExCor=  404 DFT=T Ex=B Corr=P86 ExCW=0 ScaHFX=  0.000000
 ScaDFX=  1.000000  1.000000  1.000000  1.000000 ScalE2=  1.000000  1.000000
 IRadAn=      5 IRanWt=     -1 IRanGd=            0 ICorTp=0 IEmpDi=141
 NAtoms=    2 NActive=    2 NUniq=    2 SFac= 1.00D+00 NAtFMM=   60 NAOKFM=F Big=F
 Integral buffers will be    131072 words long.
 Raffenetti 2 integral format.
 Two-electron integral symmetry is turned on.
 R6Disp:  Grimme-D3(BJ) Dispersion energy=       -0.0006226756 Hartrees.
 Nuclear repulsion after empirical dispersion term =       22.4854886425 Hartrees.
 Leave Link  301 at Wed Oct  7 14:07:12 2020, MaxMem=  2684354560 cpu:               1.6 elap:               0.4
 (Enter /udrive/faculty/rpeverati/g16/g16/l302.exe)
 NPDir=0 NMtPBC=     1 NCelOv=     1 NCel=       1 NClECP=     1 NCelD=      1
         NCelK=      1 NCelE2=     1 NClLst=     1 CellRange=     0.0.
 One-electron integrals computed using PRISM.
 One-electron integral symmetry used in STVInt
 NBasis=    28 RedAO= T EigKep=  1.52D-02  NBF=    14     2     6     6
 NBsUse=    28 1.00D-06 EigRej= -1.00D+00 NBFU=    14     2     6     6
 Precomputing XC quadrature grid using
 IXCGrd= 4 IRadAn=           5 IRanWt=          -1 IRanGd=           0 AccXCQ= 0.00D+00.
 Generated NRdTot=       0 NPtTot=           0 NUsed=           0 NTot=          32
 NSgBfM=    30    30    30    30    30 MxSgAt=     2 MxSgA2=     2.
 Leave Link  302 at Wed Oct  7 14:07:13 2020, MaxMem=  2684354560 cpu:               2.6 elap:               0.5
 (Enter /udrive/faculty/rpeverati/g16/g16/l303.exe)
 DipDrv:  MaxL=1.
 Leave Link  303 at Wed Oct  7 14:07:14 2020, MaxMem=  2684354560 cpu:               2.5 elap:               0.7
 (Enter /udrive/faculty/rpeverati/g16/g16/l401.exe)
 SCF N**3 symmetry information disabled.
 ExpMin= 1.69D-01 ExpMax= 5.48D+03 ExpMxC= 8.25D+02 IAcc=3 IRadAn=         5 AccDes= 0.00D+00
 Harris functional with IExCor=  404 and IRadAn=       5 diagonalized for initial guess.
 HarFok:  IExCor=  404 AccDes= 0.00D+00 IRadAn=         5 IDoV= 1 UseB2=F ITyADJ=14
 ICtDFT=  3500011 ScaDFX=  1.000000  1.000000  1.000000  1.000000
 FoFCou: FMM=F IPFlag=           0 FMFlag=      100000 FMFlg1=           0
         NFxFlg=           0 DoJE=T BraDBF=F KetDBF=T FulRan=T
         wScrn=  0.000000 ICntrl=       500 IOpCl=  0 I1Cent=   200000004 NGrid=           0
         NMat0=    1 NMatS0=      1 NMatT0=    0 NMatD0=    1 NMtDS0=    0 NMtDT0=    0
 Petite list used in FoFCou.
 Harris En= -113.301538547837    
 JPrj=0 DoOrth=F DoCkMO=F.
 Initial guess orbital symmetries:
       Occupied  (SG) (SG) (SG) (SG) (PI) (PI) (SG)
       Virtual   (PI) (PI) (SG) (PI) (PI) (SG) (SG) (SG) (PI) (PI)
                 (DLTA) (DLTA) (SG) (PI) (PI) (DLTA) (DLTA) (SG)
                 (PI) (PI) (SG)
 The electronic state of the initial guess is 1-SG.
 Leave Link  401 at Wed Oct  7 14:07:15 2020, MaxMem=  2684354560 cpu:               3.5 elap:               0.7
 (Enter /udrive/faculty/rpeverati/g16/g16/l502.exe)
 Keep J ints in memory in symmetry-blocked form, NReq=10432253.
 FoFCou: FMM=F IPFlag=           0 FMFlag=           0 FMFlg1=           0
         NFxFlg=           0 DoJE=F BraDBF=F KetDBF=F FulRan=T
         wScrn=  0.000000 ICntrl=       600 IOpCl=  0 I1Cent=           0 NGrid=           0
         NMat0=    1 NMatS0=    406 NMatT0=    0 NMatD0=    1 NMtDS0=    0 NMtDT0=    0
 Petite list used in FoFCou.
 Closed shell SCF:
 Using DIIS extrapolation, IDIIS=  1040.
 NGot=  2684354560 LenX=  2684327255 LenY=  2684325914
 Requested convergence on RMS density matrix=1.00D-08 within 120 cycles.
 Requested convergence on MAX density matrix=1.00D-06.
 Requested convergence on             energy=1.00D-06.
 No special actions if energy rises.
 Integral accuracy reduced to 1.0D-05 until final iterations.

 Cycle   1  Pass 0  IDiag  1:
 E= -113.289385337946    
 DIIS: error= 2.53D-02 at cycle   1 NSaved=   1.
 NSaved= 1 IEnMin= 1 EnMin= -113.289385337946     IErMin= 1 ErrMin= 2.53D-02
 ErrMax= 2.53D-02  0.00D+00 EMaxC= 1.00D-01 BMatC= 2.10D-02 BMatP= 2.10D-02
 IDIUse=3 WtCom= 7.47D-01 WtEn= 2.53D-01
 Coeff-Com:  0.100D+01
 Coeff-En:   0.100D+01
 Coeff:      0.100D+01
 Gap=     0.282 Goal=   None    Shift=    0.000
 GapD=    0.282 DampG=1.000 DampE=0.500 DampFc=0.5000 IDamp=-1.
 Damping current iteration by 5.00D-01
 RMSDP=9.43D-03 MaxDP=1.16D-01              OVMax= 1.62D-01

 Cycle   2  Pass 0  IDiag  1:
 E= -113.274895644315     Delta-E=        0.014489693630 Rises=F Damp=T
 DIIS: error= 3.24D-02 at cycle   2 NSaved=   2.
 NSaved= 2 IEnMin= 1 EnMin= -113.289385337946     IErMin= 1 ErrMin= 2.53D-02
 ErrMax= 3.24D-02  0.00D+00 EMaxC= 1.00D-01 BMatC= 1.97D-02 BMatP= 2.10D-02
 IDIUse=3 WtCom= 6.76D-01 WtEn= 3.24D-01
 Coeff-Com:  0.491D+00 0.509D+00
 Coeff-En:   0.673D+00 0.327D+00
 Coeff:      0.550D+00 0.450D+00
 Gap=     0.263 Goal=   None    Shift=    0.000
 RMSDP=3.79D-03 MaxDP=5.36D-02 DE= 1.45D-02 OVMax= 1.23D-01

 Cycle   3  Pass 0  IDiag  1:
 E= -113.304258023351     Delta-E=       -0.029362379035 Rises=F Damp=F
 DIIS: error= 5.71D-03 at cycle   3 NSaved=   3.
 NSaved= 3 IEnMin= 3 EnMin= -113.304258023351     IErMin= 3 ErrMin= 5.71D-03
 ErrMax= 5.71D-03  0.00D+00 EMaxC= 1.00D-01 BMatC= 7.61D-04 BMatP= 1.97D-02
 IDIUse=3 WtCom= 9.43D-01 WtEn= 5.71D-02
 Coeff-Com:  0.207D+00 0.128D+00 0.665D+00
 Coeff-En:   0.000D+00 0.000D+00 0.100D+01
 Coeff:      0.195D+00 0.121D+00 0.684D+00
 Gap=     0.262 Goal=   None    Shift=    0.000
 RMSDP=1.22D-03 MaxDP=2.03D-02 DE=-2.94D-02 OVMax= 7.95D-03

 Cycle   4  Pass 0  IDiag  1:
 E= -113.304912434144     Delta-E=       -0.000654410794 Rises=F Damp=F
 DIIS: error= 4.76D-04 at cycle   4 NSaved=   4.
 NSaved= 4 IEnMin= 4 EnMin= -113.304912434144     IErMin= 4 ErrMin= 4.76D-04
 ErrMax= 4.76D-04  0.00D+00 EMaxC= 1.00D-01 BMatC= 1.00D-05 BMatP= 7.61D-04
 IDIUse=3 WtCom= 9.95D-01 WtEn= 4.76D-03
 Coeff-Com:  0.212D-01 0.215D-02 0.149D+00 0.827D+00
 Coeff-En:   0.000D+00 0.000D+00 0.000D+00 0.100D+01
 Coeff:      0.211D-01 0.214D-02 0.148D+00 0.828D+00
 Gap=     0.262 Goal=   None    Shift=    0.000
 RMSDP=1.16D-04 MaxDP=9.53D-04 DE=-6.54D-04 OVMax= 1.06D-03

 Cycle   5  Pass 0  IDiag  1:
 E= -113.304922748091     Delta-E=       -0.000010313946 Rises=F Damp=F
 DIIS: error= 1.47D-04 at cycle   5 NSaved=   5.
 NSaved= 5 IEnMin= 5 EnMin= -113.304922748091     IErMin= 5 ErrMin= 1.47D-04
 ErrMax= 1.47D-04  0.00D+00 EMaxC= 1.00D-01 BMatC= 6.21D-07 BMatP= 1.00D-05
 IDIUse=3 WtCom= 9.99D-01 WtEn= 1.47D-03
 Coeff-Com:  0.490D-02-0.309D-02 0.328D-01 0.219D+00 0.746D+00
 Coeff-En:   0.000D+00 0.000D+00 0.000D+00 0.000D+00 0.100D+01
 Coeff:      0.489D-02-0.309D-02 0.328D-01 0.219D+00 0.746D+00
 Gap=     0.262 Goal=   None    Shift=    0.000
 RMSDP=2.49D-05 MaxDP=3.60D-04 DE=-1.03D-05 OVMax= 2.09D-04

 Cycle   6  Pass 0  IDiag  1:
 E= -113.304923280236     Delta-E=       -0.000000532146 Rises=F Damp=F
 DIIS: error= 2.12D-05 at cycle   6 NSaved=   6.
 NSaved= 6 IEnMin= 6 EnMin= -113.304923280236     IErMin= 6 ErrMin= 2.12D-05
 ErrMax= 2.12D-05  0.00D+00 EMaxC= 1.00D-01 BMatC= 8.26D-09 BMatP= 6.21D-07
 IDIUse=1 WtCom= 1.00D+00 WtEn= 0.00D+00
 Coeff-Com:  0.760D-03-0.836D-03 0.394D-02 0.282D-01 0.104D+00 0.864D+00
 Coeff:      0.760D-03-0.836D-03 0.394D-02 0.282D-01 0.104D+00 0.864D+00
 Gap=     0.262 Goal=   None    Shift=    0.000
 RMSDP=1.76D-06 MaxDP=1.83D-05 DE=-5.32D-07 OVMax= 2.83D-05

 Initial convergence to 1.0D-05 achieved.  Increase integral accuracy.
 Cycle   7  Pass 1  IDiag  1:
 E= -113.304920250000     Delta-E=        0.000003030237 Rises=F Damp=F
 DIIS: error= 1.23D-06 at cycle   1 NSaved=   1.
 NSaved= 1 IEnMin= 1 EnMin= -113.304920250000     IErMin= 1 ErrMin= 1.23D-06
 ErrMax= 1.23D-06  0.00D+00 EMaxC= 1.00D-01 BMatC= 4.83D-11 BMatP= 4.83D-11
 IDIUse=1 WtCom= 1.00D+00 WtEn= 0.00D+00
 Coeff-Com:  0.100D+01
 Coeff:      0.100D+01
 Gap=     0.262 Goal=   None    Shift=    0.000
 RMSDP=1.76D-06 MaxDP=1.83D-05 DE= 3.03D-06 OVMax= 6.40D-06

 Cycle   8  Pass 1  IDiag  1:
 E= -113.304920249869     Delta-E=        0.000000000131 Rises=F Damp=F
 DIIS: error= 3.37D-06 at cycle   2 NSaved=   2.
 NSaved= 2 IEnMin= 1 EnMin= -113.304920250000     IErMin= 1 ErrMin= 1.23D-06
 ErrMax= 3.37D-06  0.00D+00 EMaxC= 1.00D-01 BMatC= 2.29D-10 BMatP= 4.83D-11
 IDIUse=1 WtCom= 1.00D+00 WtEn= 0.00D+00
 Coeff-Com:  0.715D+00 0.285D+00
 Coeff:      0.715D+00 0.285D+00
 Gap=     0.262 Goal=   None    Shift=    0.000
 RMSDP=3.39D-07 MaxDP=3.54D-06 DE= 1.31D-10 OVMax= 5.55D-06

 Cycle   9  Pass 1  IDiag  1:
 E= -113.304920250042     Delta-E=       -0.000000000173 Rises=F Damp=F
 DIIS: error= 6.07D-07 at cycle   3 NSaved=   3.
 NSaved= 3 IEnMin= 3 EnMin= -113.304920250042     IErMin= 3 ErrMin= 6.07D-07
 ErrMax= 6.07D-07  0.00D+00 EMaxC= 1.00D-01 BMatC= 7.31D-12 BMatP= 4.83D-11
 IDIUse=1 WtCom= 1.00D+00 WtEn= 0.00D+00
 Coeff-Com:  0.214D-01 0.152D+00 0.826D+00
 Coeff:      0.214D-01 0.152D+00 0.826D+00
 Gap=     0.262 Goal=   None    Shift=    0.000
 RMSDP=4.91D-08 MaxDP=5.53D-07 DE=-1.73D-10 OVMax= 7.55D-07

 Cycle  10  Pass 1  IDiag  1:
 E= -113.304920250047     Delta-E=       -0.000000000005 Rises=F Damp=F
 DIIS: error= 2.68D-08 at cycle   4 NSaved=   4.
 NSaved= 4 IEnMin= 4 EnMin= -113.304920250047     IErMin= 4 ErrMin= 2.68D-08
 ErrMax= 2.68D-08  0.00D+00 EMaxC= 1.00D-01 BMatC= 3.39D-14 BMatP= 7.31D-12
 IDIUse=1 WtCom= 1.00D+00 WtEn= 0.00D+00
 Coeff-Com: -0.377D-02 0.379D-01 0.193D+00 0.773D+00
 Coeff:     -0.377D-02 0.379D-01 0.193D+00 0.773D+00
 Gap=     0.262 Goal=   None    Shift=    0.000
 RMSDP=1.15D-08 MaxDP=2.10D-07 DE=-5.40D-12 OVMax= 7.64D-08

 Cycle  11  Pass 1  IDiag  1:
 E= -113.304920250047     Delta-E=        0.000000000000 Rises=F Damp=F
 DIIS: error= 4.34D-09 at cycle   5 NSaved=   5.
 NSaved= 5 IEnMin= 4 EnMin= -113.304920250047     IErMin= 5 ErrMin= 4.34D-09
 ErrMax= 4.34D-09  0.00D+00 EMaxC= 1.00D-01 BMatC= 5.59D-16 BMatP= 3.39D-14
 IDIUse=1 WtCom= 1.00D+00 WtEn= 0.00D+00
 Coeff-Com: -0.151D-02 0.924D-02 0.499D-01 0.230D+00 0.712D+00
 Coeff:     -0.151D-02 0.924D-02 0.499D-01 0.230D+00 0.712D+00
 Gap=     0.262 Goal=   None    Shift=    0.000
 RMSDP=1.15D-09 MaxDP=1.92D-08 DE= 2.84D-14 OVMax= 9.04D-09

 SCF Done:  E(RB-P86) =  -113.304920250     A.U. after   11 cycles
            NFock= 11  Conv=0.12D-08     -V/T= 2.0064
 KE= 1.125866515134D+02 PE=-3.108734178242D+02 EE= 6.249635741833D+01
 Leave Link  502 at Wed Oct  7 14:07:16 2020, MaxMem=  2684354560 cpu:               8.6 elap:               1.1
 (Enter /udrive/faculty/rpeverati/g16/g16/l508.exe)
 QCSCF skips out because SCF is already converged.
 Leave Link  508 at Wed Oct  7 14:07:17 2020, MaxMem=  2684354560 cpu:               0.6 elap:               0.4
 (Enter /udrive/faculty/rpeverati/g16/g16/l601.exe)
 Copying SCF densities to generalized density rwf, IOpCl= 0 IROHF=0.

 **********************************************************************

            Population analysis using the SCF density.

 **********************************************************************

 Orbital symmetries:
       Occupied  (SG) (SG) (SG) (SG) (PI) (PI) (SG)
       Virtual   (PI) (PI) (SG) (PI) (PI) (SG) (SG) (SG) (PI) (PI)
                 (DLTA) (DLTA) (SG) (PI) (PI) (DLTA) (DLTA) (SG)
                 (PI) (PI) (SG)
 The electronic state is 1-SG.
 Alpha  occ. eigenvalues --  -18.89502 -10.01804  -1.07059  -0.50773  -0.42413
 Alpha  occ. eigenvalues --   -0.42413  -0.31941
 Alpha virt. eigenvalues --   -0.05731  -0.05731   0.23910   0.47668   0.47668
 Alpha virt. eigenvalues --    0.55126   0.70495   0.77908   0.85898   0.85898
 Alpha virt. eigenvalues --    1.40727   1.40727   1.45137   1.47482   1.47482
 Alpha virt. eigenvalues --    1.86845   1.86845   2.35250   2.52488   2.52488
 Alpha virt. eigenvalues --    2.88148
          Condensed to atoms (all electrons):
               1          2
     1  O    7.540490   0.579273
     2  C    0.579273   5.300964
 Mulliken charges:
               1
     1  O   -0.119763
     2  C    0.119763
 Sum of Mulliken charges =   0.00000
 Mulliken charges with hydrogens summed into heavy atoms:
               1
     1  O   -0.119763
     2  C    0.119763
 Electronic spatial extent (au):  <R**2>=             39.1149
 Charge=              0.0000 electrons
 Dipole moment (field-independent basis, Debye):
    X=              0.0000    Y=             -0.0000    Z=              0.2089  Tot=              0.2089
 Quadrupole moment (field-independent basis, Debye-Ang):
   XX=             -9.8513   YY=             -9.8513   ZZ=            -11.8946
   XY=              0.0000   XZ=              0.0000   YZ=             -0.0000
 Traceless Quadrupole moment (field-independent basis, Debye-Ang):
   XX=              0.6811   YY=              0.6811   ZZ=             -1.3622
   XY=              0.0000   XZ=              0.0000   YZ=             -0.0000
 Octapole moment (field-independent basis, Debye-Ang**2):
  XXX=              0.0000  YYY=             -0.0000  ZZZ=              5.7579  XYY=              0.0000
  XXY=              0.0000  XXZ=              1.1318  XZZ=              0.0000  YZZ=              0.0000
  YYZ=              1.1318  XYZ=              0.0000
 Hexadecapole moment (field-independent basis, Debye-Ang**3):
 XXXX=             -7.7899 YYYY=             -7.7899 ZZZZ=            -33.8230 XXXY=              0.0000
 XXXZ=              0.0000 YYYX=              0.0000 YYYZ=             -0.0000 ZZZX=              0.0000
 ZZZY=             -0.0000 XXYY=             -2.5966 XXZZ=             -6.4289 YYZZ=             -6.4289
 XXYZ=             -0.0000 YYXZ=              0.0000 ZZXY=              0.0000
 N-N= 2.248548864250D+01 E-N=-3.108734179180D+02  KE= 1.125866515134D+02
 No NMR shielding tensors so no spin-rotation constants.
 Leave Link  601 at Wed Oct  7 14:07:18 2020, MaxMem=  2684354560 cpu:               2.7 elap:               0.5
 (Enter /udrive/faculty/rpeverati/g16/g16/l701.exe)
 ... and contract with generalized density number  0.
 Compute integral first derivatives.
 R6Disp: Adding Grimme-D3(BJ) dispersion energy 1st derivatives to the gradient.
 Leave Link  701 at Wed Oct  7 14:07:19 2020, MaxMem=  2684354560 cpu:               7.0 elap:               0.9
 (Enter /udrive/faculty/rpeverati/g16/g16/l702.exe)
 L702 exits ... SP integral derivatives will be done elsewhere.
 Leave Link  702 at Wed Oct  7 14:07:20 2020, MaxMem=  2684354560 cpu:               1.0 elap:               0.5
 (Enter /udrive/faculty/rpeverati/g16/g16/l703.exe)
 Integral derivatives from FoFJK, PRISM(SPDF).
 Compute integral first derivatives, UseDBF=F ICtDFT=           0.
 Calling FoFJK, ICntrl=      2527 FMM=F ISym2X=1 I1Cent= 0 IOpClX= 0 NMat=1 NMatS=1 NMatT=0.
 FoFJK:  IHMeth= 1 ICntrl=    2527 DoSepK=F KAlg= 0 I1Cent=           0 FoldK=F
 IRaf=         0 NMat=       1 IRICut=       1 DoRegI=T DoRafI=F ISym2E= 1 IDoP0=0 IntGTp=1.
 FoFCou: FMM=F IPFlag=           0 FMFlag=      100000 FMFlg1=         800
         NFxFlg=           0 DoJE=F BraDBF=F KetDBF=F FulRan=T
         wScrn=  0.000000 ICntrl=      2527 IOpCl=  0 I1Cent=           0 NGrid=           0
         NMat0=    1 NMatS0=      1 NMatT0=    0 NMatD0=    1 NMtDS0=    0 NMtDT0=    0
 Petite list used in FoFCou.
 Leave Link  703 at Wed Oct  7 14:07:21 2020, MaxMem=  2684354560 cpu:               3.7 elap:               0.6
 (Enter /udrive/faculty/rpeverati/g16/g16/l716.exe)
 Dipole        = 0.00000000D+00-6.94384763D-33 8.22030905D-02
 ***** Axes restored to original set *****
 -------------------------------------------------------------------
 Center     Atomic                   Forces (Hartrees/Bohr)
 Number     Number              X              Y              Z
 -------------------------------------------------------------------
      1        8          -0.000000000   -0.000000000    0.047845228
      2        6           0.000000000    0.000000000   -0.047845228
 -------------------------------------------------------------------
 Cartesian Forces:  Max     0.047845228 RMS     0.027623455
 Leave Link  716 at Wed Oct  7 14:07:21 2020, MaxMem=  2684354560 cpu:               2.2 elap:               0.5
 (Enter /udrive/faculty/rpeverati/g16/g16/l103.exe)

 GradGradGradGradGradGradGradGradGradGradGradGradGradGradGradGradGradGrad
 Berny optimization.
 Optmz: redundant internal coordinate code flag= 1
 FormGI is forming the generalized inverse of G from B-inverse, IUseBI=4.
 Internal  Forces:  Max     0.047845228 RMS     0.047845228
 Search for a local minimum.
 Step number   1 out of a maximum of  100
 All quantities printed in internal units (Hartrees-Bohrs-Radians)
 RMS Force = .47845D-01 SwitMx=.10000D-02 MixMth= 1
 Mixed Optimization -- RFO/linear search
 Second derivative matrix not updated -- first step.
 The second derivative matrix:
                          R1
           R1           1.49939
 ITU=  0
 Eigenvectors of the second derivative matrix:
                           1
     Eigenvalues --     1.49939
   1         R1         1.00000
 RFO step:  Lambda=-1.52518102D-03 EMin= 1.49938901D+00
 Linear search not attempted -- first point.
 Iteration  1 RMS(Cart)=  0.02254072 RMS(Int)=  0.00000000
 Iteration  2 RMS(Cart)=  0.00000000 RMS(Int)=  0.00000000
 ITry= 1 IFail=0 DXMaxC= 1.59D-02 DCOld= 1.00D+10 DXMaxT= 3.00D-01 DXLimC= 3.00D+00 Rises=F
 ClnCor:  largest displacement from symmetrization is 0.00D+00 for atom     0.
 Variable       Old X    -DE/DX   Delta X   Delta X   Delta X     New X
                                 (Linear)    (Quad)   (Total)
    R1        2.13465   0.04785   0.00000   0.03188   0.03188   2.16653
         Item               Value     Threshold  Converged?
 Maximum Force            0.047845     0.000450     NO 
 RMS     Force            0.047845     0.000300     NO 
 Maximum Displacement     0.015939     0.001800     NO 
 RMS     Displacement     0.022541     0.001200     NO 
 Predicted change in Energy=-7.633654D-04
 Lowest energy point so far.  Saving SCF results.
 Largest change from initial coordinates is atom    1       0.008 Angstoms.
 GradGradGradGradGradGradGradGradGradGradGradGradGradGradGradGradGradGrad

 Leave Link  103 at Wed Oct  7 14:07:22 2020, MaxMem=  2684354560 cpu:               2.2 elap:               0.5
 (Enter /udrive/faculty/rpeverati/g16/g16/l202.exe)
                          Input orientation:                          
 ---------------------------------------------------------------------
 Center     Atomic      Atomic             Coordinates (Angstroms)
 Number     Number       Type             X           Y           Z
 ---------------------------------------------------------------------
      1          8           0        0.000000    0.000000    0.492553
      2          6           0        0.000000    0.000000   -0.653925
 ---------------------------------------------------------------------
 Stoichiometry    CO
 Framework group  C*V[C*(CO)]
 Deg. of freedom     1
 Full point group                 C*V     NOp   4
 RotChk:  IX=0 Diff= 0.00D+00
 Largest Abelian subgroup         C2V     NOp   4
 Largest concise Abelian subgroup C1      NOp   1
                         Standard orientation:                         
 ---------------------------------------------------------------------
 Center     Atomic      Atomic             Coordinates (Angstroms)
 Number     Number       Type             X           Y           Z
 ---------------------------------------------------------------------
      1          8           0        0.000000    0.000000    0.491347
      2          6           0        0.000000    0.000000   -0.655130
 ---------------------------------------------------------------------
 Rotational constants (GHZ):           0.0000000          56.0792426          56.0792426
 Leave Link  202 at Wed Oct  7 14:07:23 2020, MaxMem=  2684354560 cpu:               1.1 elap:               0.4
 (Enter /udrive/faculty/rpeverati/g16/g16/l301.exe)
 Standard basis: 6-31G(d) (5D, 7F)
 Ernie: Thresh=  0.10000D-02 Tol=  0.10000D-05 Strict=F.
 There are    16 symmetry adapted cartesian basis functions of A1  symmetry.
 There are     2 symmetry adapted cartesian basis functions of A2  symmetry.
 There are     6 symmetry adapted cartesian basis functions of B1  symmetry.
 There are     6 symmetry adapted cartesian basis functions of B2  symmetry.
 There are    14 symmetry adapted basis functions of A1  symmetry.
 There are     2 symmetry adapted basis functions of A2  symmetry.
 There are     6 symmetry adapted basis functions of B1  symmetry.
 There are     6 symmetry adapted basis functions of B2  symmetry.
    28 basis functions,    56 primitive gaussians,    30 cartesian basis functions
     7 alpha electrons        7 beta electrons
       nuclear repulsion energy        22.1552601006 Hartrees.
 IExCor=  404 DFT=T Ex=B Corr=P86 ExCW=0 ScaHFX=  0.000000
 ScaDFX=  1.000000  1.000000  1.000000  1.000000 ScalE2=  1.000000  1.000000
 IRadAn=      5 IRanWt=     -1 IRanGd=            0 ICorTp=0 IEmpDi=141
 NAtoms=    2 NActive=    2 NUniq=    2 SFac= 1.00D+00 NAtFMM=   60 NAOKFM=F Big=F
 Integral buffers will be    131072 words long.
 Raffenetti 2 integral format.
 Two-electron integral symmetry is turned on.
 R6Disp:  Grimme-D3(BJ) Dispersion energy=       -0.0006226512 Hartrees.
 Nuclear repulsion after empirical dispersion term =       22.1546374494 Hartrees.
 Leave Link  301 at Wed Oct  7 14:07:23 2020, MaxMem=  2684354560 cpu:               1.7 elap:               0.4
 (Enter /udrive/faculty/rpeverati/g16/g16/l302.exe)
 NPDir=0 NMtPBC=     1 NCelOv=     1 NCel=       1 NClECP=     1 NCelD=      1
         NCelK=      1 NCelE2=     1 NClLst=     1 CellRange=     0.0.
 One-electron integrals computed using PRISM.
 One-electron integral symmetry used in STVInt
 NBasis=    28 RedAO= T EigKep=  1.58D-02  NBF=    14     2     6     6
 NBsUse=    28 1.00D-06 EigRej= -1.00D+00 NBFU=    14     2     6     6
 Precomputing XC quadrature grid using
 IXCGrd= 4 IRadAn=           5 IRanWt=          -1 IRanGd=           0 AccXCQ= 0.00D+00.
 Generated NRdTot=       0 NPtTot=           0 NUsed=           0 NTot=          32
 NSgBfM=    30    30    30    30    30 MxSgAt=     2 MxSgA2=     2.
 Leave Link  302 at Wed Oct  7 14:07:24 2020, MaxMem=  2684354560 cpu:               2.6 elap:               0.6
 (Enter /udrive/faculty/rpeverati/g16/g16/l303.exe)
 DipDrv:  MaxL=1.
 Leave Link  303 at Wed Oct  7 14:07:25 2020, MaxMem=  2684354560 cpu:               1.3 elap:               0.4
 (Enter /udrive/faculty/rpeverati/g16/g16/l401.exe)
 Initial guess from the checkpoint file:  "MN_32_co_BH76_BP86DBJ_631Gs.chk"
 SCF N**3 symmetry information disabled.
 B after Tr=     0.000000    0.000000    0.000000
         Rot=    1.000000    0.000000    0.000000    0.000000 Ang=   0.00 deg.
 Guess basis will be translated and rotated to current coordinates.
 JPrj=2 DoOrth=T DoCkMO=T.
 Initial guess orbital symmetries:
       Occupied  (SG) (SG) (SG) (SG) (PI) (PI) (SG)
       Virtual   (PI) (PI) (SG) (PI) (PI) (SG) (SG) (SG) (PI) (PI)
                 (DLTA) (DLTA) (SG) (PI) (PI) (DLTA) (DLTA) (SG)
                 (PI) (PI) (SG)
 The electronic state of the initial guess is 1-SG.
 Leave Link  401 at Wed Oct  7 14:07:26 2020, MaxMem=  2684354560 cpu:               4.7 elap:               0.7
 (Enter /udrive/faculty/rpeverati/g16/g16/l502.exe)
 Keep J ints in memory in symmetry-blocked form, NReq=10432253.
 FoFCou: FMM=F IPFlag=           0 FMFlag=           0 FMFlg1=           0
         NFxFlg=           0 DoJE=F BraDBF=F KetDBF=F FulRan=T
         wScrn=  0.000000 ICntrl=       600 IOpCl=  0 I1Cent=           0 NGrid=           0
         NMat0=    1 NMatS0=    406 NMatT0=    0 NMatD0=    1 NMtDS0=    0 NMtDT0=    0
 Petite list used in FoFCou.
 Closed shell SCF:
 Using DIIS extrapolation, IDIIS=  1040.
 NGot=  2684354560 LenX=  2684327255 LenY=  2684325914
 Requested convergence on RMS density matrix=1.00D-08 within 120 cycles.
 Requested convergence on MAX density matrix=1.00D-06.
 Requested convergence on             energy=1.00D-06.
 No special actions if energy rises.

 Cycle   1  Pass 1  IDiag  1:
 E= -113.305607185062    
 DIIS: error= 2.06D-03 at cycle   1 NSaved=   1.
 NSaved= 1 IEnMin= 1 EnMin= -113.305607185062     IErMin= 1 ErrMin= 2.06D-03
 ErrMax= 2.06D-03  0.00D+00 EMaxC= 1.00D-01 BMatC= 1.73D-04 BMatP= 1.73D-04
 IDIUse=3 WtCom= 9.79D-01 WtEn= 2.06D-02
 Coeff-Com:  0.100D+01
 Coeff-En:   0.100D+01
 Coeff:      0.100D+01
 Gap=     0.258 Goal=   None    Shift=    0.000
 GapD=    0.258 DampG=1.000 DampE=1.000 DampFc=1.0000 IDamp=-1.
 RMSDP=6.72D-04 MaxDP=4.73D-03              OVMax= 5.62D-03

 Cycle   2  Pass 1  IDiag  1:
 E= -113.305714977328     Delta-E=       -0.000107792265 Rises=F Damp=F
 DIIS: error= 1.78D-03 at cycle   2 NSaved=   2.
 NSaved= 2 IEnMin= 2 EnMin= -113.305714977328     IErMin= 2 ErrMin= 1.78D-03
 ErrMax= 1.78D-03  0.00D+00 EMaxC= 1.00D-01 BMatC= 1.05D-04 BMatP= 1.73D-04
 IDIUse=3 WtCom= 9.82D-01 WtEn= 1.78D-02
 Coeff-Com:  0.419D+00 0.581D+00
 Coeff-En:   0.911D-01 0.909D+00
 Coeff:      0.413D+00 0.587D+00
 Gap=     0.257 Goal=   None    Shift=    0.000
 RMSDP=3.76D-04 MaxDP=4.68D-03 DE=-1.08D-04 OVMax= 6.12D-03

 Cycle   3  Pass 1  IDiag  1:
 E= -113.305681369465     Delta-E=        0.000033607862 Rises=F Damp=F
 DIIS: error= 2.68D-03 at cycle   3 NSaved=   3.
 NSaved= 3 IEnMin= 2 EnMin= -113.305714977328     IErMin= 2 ErrMin= 1.78D-03
 ErrMax= 2.68D-03  0.00D+00 EMaxC= 1.00D-01 BMatC= 1.42D-04 BMatP= 1.05D-04
 IDIUse=3 WtCom= 1.62D-01 WtEn= 8.38D-01
 Coeff-Com:  0.144D+00 0.497D+00 0.359D+00
 Coeff-En:   0.000D+00 0.568D+00 0.432D+00
 Coeff:      0.234D-01 0.556D+00 0.420D+00
 Gap=     0.257 Goal=   None    Shift=    0.000
 RMSDP=2.86D-04 MaxDP=2.89D-03 DE= 3.36D-05 OVMax= 4.46D-03

 Cycle   4  Pass 1  IDiag  1:
 E= -113.305785185147     Delta-E=       -0.000103815682 Rises=F Damp=F
 DIIS: error= 4.92D-04 at cycle   4 NSaved=   4.
 NSaved= 4 IEnMin= 4 EnMin= -113.305785185147     IErMin= 4 ErrMin= 4.92D-04
 ErrMax= 4.92D-04  0.00D+00 EMaxC= 1.00D-01 BMatC= 5.77D-06 BMatP= 1.05D-04
 IDIUse=3 WtCom= 9.95D-01 WtEn= 4.92D-03
 Coeff-Com:  0.587D-02 0.207D+00 0.226D+00 0.561D+00
 Coeff-En:   0.000D+00 0.000D+00 0.424D-01 0.958D+00
 Coeff:      0.584D-02 0.206D+00 0.225D+00 0.563D+00
 Gap=     0.257 Goal=   None    Shift=    0.000
 RMSDP=8.33D-05 MaxDP=1.20D-03 DE=-1.04D-04 OVMax= 8.29D-04

 Cycle   5  Pass 1  IDiag  1:
 E= -113.305791452476     Delta-E=       -0.000006267329 Rises=F Damp=F
 DIIS: error= 5.40D-06 at cycle   5 NSaved=   5.
 NSaved= 5 IEnMin= 5 EnMin= -113.305791452476     IErMin= 5 ErrMin= 5.40D-06
 ErrMax= 5.40D-06  0.00D+00 EMaxC= 1.00D-01 BMatC= 7.38D-10 BMatP= 5.77D-06
 IDIUse=1 WtCom= 1.00D+00 WtEn= 0.00D+00
 Coeff-Com:  0.157D-04 0.106D-01 0.144D-01 0.394D-01 0.936D+00
 Coeff:      0.157D-04 0.106D-01 0.144D-01 0.394D-01 0.936D+00
 Gap=     0.257 Goal=   None    Shift=    0.000
 RMSDP=1.07D-06 MaxDP=1.52D-05 DE=-6.27D-06 OVMax= 8.86D-06

 Cycle   6  Pass 1  IDiag  1:
 E= -113.305791453162     Delta-E=       -0.000000000686 Rises=F Damp=F
 DIIS: error= 3.95D-07 at cycle   6 NSaved=   6.
 NSaved= 6 IEnMin= 6 EnMin= -113.305791453162     IErMin= 6 ErrMin= 3.95D-07
 ErrMax= 3.95D-07  0.00D+00 EMaxC= 1.00D-01 BMatC= 5.73D-12 BMatP= 7.38D-10
 IDIUse=1 WtCom= 1.00D+00 WtEn= 0.00D+00
 Coeff-Com: -0.259D-05 0.191D-02 0.264D-02 0.757D-02 0.222D+00 0.766D+00
 Coeff:     -0.259D-05 0.191D-02 0.264D-02 0.757D-02 0.222D+00 0.766D+00
 Gap=     0.257 Goal=   None    Shift=    0.000
 RMSDP=1.02D-07 MaxDP=1.86D-06 DE=-6.86D-10 OVMax= 7.56D-07

 Cycle   7  Pass 1  IDiag  1:
 E= -113.305791453167     Delta-E=       -0.000000000005 Rises=F Damp=F
 DIIS: error= 1.25D-07 at cycle   7 NSaved=   7.
 NSaved= 7 IEnMin= 7 EnMin= -113.305791453167     IErMin= 7 ErrMin= 1.25D-07
 ErrMax= 1.25D-07  0.00D+00 EMaxC= 1.00D-01 BMatC= 2.87D-13 BMatP= 5.73D-12
 IDIUse=1 WtCom= 1.00D+00 WtEn= 0.00D+00
 Coeff-Com: -0.632D-06 0.236D-03 0.283D-03 0.915D-03 0.268D-01 0.123D+00
 Coeff-Com:  0.848D+00
 Coeff:     -0.632D-06 0.236D-03 0.283D-03 0.915D-03 0.268D-01 0.123D+00
 Coeff:      0.848D+00
 Gap=     0.257 Goal=   None    Shift=    0.000
 RMSDP=1.59D-08 MaxDP=1.74D-07 DE=-4.60D-12 OVMax= 2.12D-07

 Cycle   8  Pass 1  IDiag  1:
 E= -113.305791453167     Delta-E=       -0.000000000000 Rises=F Damp=F
 DIIS: error= 1.02D-08 at cycle   8 NSaved=   8.
 NSaved= 8 IEnMin= 8 EnMin= -113.305791453167     IErMin= 8 ErrMin= 1.02D-08
 ErrMax= 1.02D-08  0.00D+00 EMaxC= 1.00D-01 BMatC= 1.86D-15 BMatP= 2.87D-13
 IDIUse=1 WtCom= 1.00D+00 WtEn= 0.00D+00
 Coeff-Com: -0.279D-07 0.374D-05 0.503D-05 0.162D-04 0.733D-03 0.480D-02
 Coeff-Com:  0.825D-01 0.912D+00
 Coeff:     -0.279D-07 0.374D-05 0.503D-05 0.162D-04 0.733D-03 0.480D-02
 Coeff:      0.825D-01 0.912D+00
 Gap=     0.257 Goal=   None    Shift=    0.000
 RMSDP=1.12D-09 MaxDP=1.39D-08 DE=-1.99D-13 OVMax= 1.42D-08

 SCF Done:  E(RB-P86) =  -113.305791453     A.U. after    8 cycles
            NFock=  8  Conv=0.11D-08     -V/T= 2.0071
 KE= 1.125070754271D+02 PE=-3.101688904473D+02 EE= 6.220138611763D+01
 Leave Link  502 at Wed Oct  7 14:07:27 2020, MaxMem=  2684354560 cpu:               8.7 elap:               1.1
 (Enter /udrive/faculty/rpeverati/g16/g16/l508.exe)
 QCSCF skips out because SCF is already converged.
 Leave Link  508 at Wed Oct  7 14:07:28 2020, MaxMem=  2684354560 cpu:               0.4 elap:               0.5
 (Enter /udrive/faculty/rpeverati/g16/g16/l701.exe)
 ... and contract with generalized density number  0.
 Compute integral first derivatives.
 R6Disp: Adding Grimme-D3(BJ) dispersion energy 1st derivatives to the gradient.
 Leave Link  701 at Wed Oct  7 14:07:29 2020, MaxMem=  2684354560 cpu:               3.3 elap:               0.7
 (Enter /udrive/faculty/rpeverati/g16/g16/l702.exe)
 L702 exits ... SP integral derivatives will be done elsewhere.
 Leave Link  702 at Wed Oct  7 14:07:30 2020, MaxMem=  2684354560 cpu:               1.2 elap:               0.5
 (Enter /udrive/faculty/rpeverati/g16/g16/l703.exe)
 Integral derivatives from FoFJK, PRISM(SPDF).
 Compute integral first derivatives, UseDBF=F ICtDFT=           0.
 Calling FoFJK, ICntrl=      2527 FMM=F ISym2X=1 I1Cent= 0 IOpClX= 0 NMat=1 NMatS=1 NMatT=0.
 FoFJK:  IHMeth= 1 ICntrl=    2527 DoSepK=F KAlg= 0 I1Cent=           0 FoldK=F
 IRaf=         0 NMat=       1 IRICut=       1 DoRegI=T DoRafI=F ISym2E= 1 IDoP0=0 IntGTp=1.
 FoFCou: FMM=F IPFlag=           0 FMFlag=      100000 FMFlg1=         800
         NFxFlg=           0 DoJE=F BraDBF=F KetDBF=F FulRan=T
         wScrn=  0.000000 ICntrl=      2527 IOpCl=  0 I1Cent=           0 NGrid=           0
         NMat0=    1 NMatS0=      1 NMatT0=    0 NMatD0=    1 NMtDS0=    0 NMtDT0=    0
 Petite list used in FoFCou.
 Leave Link  703 at Wed Oct  7 14:07:31 2020, MaxMem=  2684354560 cpu:               5.3 elap:               0.8
 (Enter /udrive/faculty/rpeverati/g16/g16/l716.exe)
 Dipole        = 0.00000000D+00 1.25386080D-32 6.21240478D-02
 ***** Axes restored to original set *****
 -------------------------------------------------------------------
 Center     Atomic                   Forces (Hartrees/Bohr)
 Number     Number              X              Y              Z
 -------------------------------------------------------------------
      1        8          -0.000000000   -0.000000000    0.007552114
      2        6           0.000000000    0.000000000   -0.007552114
 -------------------------------------------------------------------
 Cartesian Forces:  Max     0.007552114 RMS     0.004360215
 Leave Link  716 at Wed Oct  7 14:07:32 2020, MaxMem=  2684354560 cpu:               1.0 elap:               0.5
 (Enter /udrive/faculty/rpeverati/g16/g16/l103.exe)

 GradGradGradGradGradGradGradGradGradGradGradGradGradGradGradGradGradGrad
 Berny optimization.
 Optmz: redundant internal coordinate code flag= 1
 Using GEDIIS/GDIIS optimizer.
 Red2BG:  D1=  2.00D+00 OD1=  0.00D+00 B2RMS=  0.00D+00 IAprox=1
 Red2BG is reusing G-inverse.
 Internal  Forces:  Max     0.007552114 RMS     0.007552114
 Search for a local minimum.
 Step number   2 out of a maximum of  100
 All quantities printed in internal units (Hartrees-Bohrs-Radians)
 RMS Force = .75521D-02 SwitMx=.10000D-02 MixMth= 1
 Mixed Optimization -- RFO/linear search
 Update second derivatives using D2CorX and points    1    2
 DE= -8.71D-04 DEPred=-7.63D-04 R= 1.14D+00
 TightC=F SS=  1.41D+00  RLast= 3.19D-02 DXNew= 5.0454D-01 9.5632D-02
 Trust test= 1.14D+00 RLast= 3.19D-02 DXMaxT set to 3.00D-01
 The second derivative matrix:
                          R1
           R1           1.26400
 ITU=  1  0
 Use linear search instead of GDIIS.
 Eigenvectors of the second derivative matrix:
                           1
     Eigenvalues --     1.26400
   1         R1         1.00000
 RFO step:  Lambda= 0.00000000D+00 EMin= 1.26400288D+00
 Quartic linear search produced a step of  0.20048.
 Iteration  1 RMS(Cart)=  0.00451894 RMS(Int)=  0.00000000
 Iteration  2 RMS(Cart)=  0.00000000 RMS(Int)=  0.00000000
 ITry= 1 IFail=0 DXMaxC= 3.20D-03 DCOld= 1.00D+10 DXMaxT= 3.00D-01 DXLimC= 3.00D+00 Rises=F
 ClnCor:  largest displacement from symmetrization is 0.00D+00 for atom     0.
 Variable       Old X    -DE/DX   Delta X   Delta X   Delta X     New X
                                 (Linear)    (Quad)   (Total)
    R1        2.16653   0.00755   0.00639   0.00000   0.00639   2.17292
         Item               Value     Threshold  Converged?
 Maximum Force            0.007552     0.000450     NO 
 RMS     Force            0.007552     0.000300     NO 
 Maximum Displacement     0.003195     0.001800     NO 
 RMS     Displacement     0.004519     0.001200     NO 
 Predicted change in Energy=-2.245167D-05
 Lowest energy point so far.  Saving SCF results.
 Largest change from initial coordinates is atom    2       0.011 Angstoms.
 GradGradGradGradGradGradGradGradGradGradGradGradGradGradGradGradGradGrad

 Leave Link  103 at Wed Oct  7 14:07:33 2020, MaxMem=  2684354560 cpu:               2.2 elap:               0.6
 (Enter /udrive/faculty/rpeverati/g16/g16/l202.exe)
                          Input orientation:                          
 ---------------------------------------------------------------------
 Center     Atomic      Atomic             Coordinates (Angstroms)
 Number     Number       Type             X           Y           Z
 ---------------------------------------------------------------------
      1          8           0        0.000000    0.000000    0.494244
      2          6           0        0.000000    0.000000   -0.655616
 ---------------------------------------------------------------------
 Stoichiometry    CO
 Framework group  C*V[C*(CO)]
 Deg. of freedom     1
 Full point group                 C*V     NOp   4
 RotChk:  IX=0 Diff= 0.00D+00
 Largest Abelian subgroup         C2V     NOp   4
 Largest concise Abelian subgroup C1      NOp   1
                         Standard orientation:                         
 ---------------------------------------------------------------------
 Center     Atomic      Atomic             Coordinates (Angstroms)
 Number     Number       Type             X           Y           Z
 ---------------------------------------------------------------------
      1          8           0        0.000000    0.000000    0.492797
      2          6           0        0.000000    0.000000   -0.657062
 ---------------------------------------------------------------------
 Rotational constants (GHZ):           0.0000000          55.7498597          55.7498597
 Leave Link  202 at Wed Oct  7 14:07:33 2020, MaxMem=  2684354560 cpu:               1.5 elap:               0.4
 (Enter /udrive/faculty/rpeverati/g16/g16/l301.exe)
 Standard basis: 6-31G(d) (5D, 7F)
 Ernie: Thresh=  0.10000D-02 Tol=  0.10000D-05 Strict=F.
 There are    16 symmetry adapted cartesian basis functions of A1  symmetry.
 There are     2 symmetry adapted cartesian basis functions of A2  symmetry.
 There are     6 symmetry adapted cartesian basis functions of B1  symmetry.
 There are     6 symmetry adapted cartesian basis functions of B2  symmetry.
 There are    14 symmetry adapted basis functions of A1  symmetry.
 There are     2 symmetry adapted basis functions of A2  symmetry.
 There are     6 symmetry adapted basis functions of B1  symmetry.
 There are     6 symmetry adapted basis functions of B2  symmetry.
    28 basis functions,    56 primitive gaussians,    30 cartesian basis functions
     7 alpha electrons        7 beta electrons
       nuclear repulsion energy        22.0900995305 Hartrees.
 IExCor=  404 DFT=T Ex=B Corr=P86 ExCW=0 ScaHFX=  0.000000
 ScaDFX=  1.000000  1.000000  1.000000  1.000000 ScalE2=  1.000000  1.000000
 IRadAn=      5 IRanWt=     -1 IRanGd=            0 ICorTp=0 IEmpDi=141
 NAtoms=    2 NActive=    2 NUniq=    2 SFac= 1.00D+00 NAtFMM=   60 NAOKFM=F Big=F
 Integral buffers will be    131072 words long.
 Raffenetti 2 integral format.
 Two-electron integral symmetry is turned on.
 R6Disp:  Grimme-D3(BJ) Dispersion energy=       -0.0006226461 Hartrees.
 Nuclear repulsion after empirical dispersion term =       22.0894768844 Hartrees.
 Leave Link  301 at Wed Oct  7 14:07:34 2020, MaxMem=  2684354560 cpu:               1.4 elap:               0.5
 (Enter /udrive/faculty/rpeverati/g16/g16/l302.exe)
 NPDir=0 NMtPBC=     1 NCelOv=     1 NCel=       1 NClECP=     1 NCelD=      1
         NCelK=      1 NCelE2=     1 NClLst=     1 CellRange=     0.0.
 One-electron integrals computed using PRISM.
 One-electron integral symmetry used in STVInt
 NBasis=    28 RedAO= T EigKep=  1.59D-02  NBF=    14     2     6     6
 NBsUse=    28 1.00D-06 EigRej= -1.00D+00 NBFU=    14     2     6     6
 Precomputing XC quadrature grid using
 IXCGrd= 4 IRadAn=           5 IRanWt=          -1 IRanGd=           0 AccXCQ= 0.00D+00.
 Generated NRdTot=       0 NPtTot=           0 NUsed=           0 NTot=          32
 NSgBfM=    30    30    30    30    30 MxSgAt=     2 MxSgA2=     2.
 Leave Link  302 at Wed Oct  7 14:07:35 2020, MaxMem=  2684354560 cpu:               2.4 elap:               0.5
 (Enter /udrive/faculty/rpeverati/g16/g16/l303.exe)
 DipDrv:  MaxL=1.
 Leave Link  303 at Wed Oct  7 14:07:36 2020, MaxMem=  2684354560 cpu:               1.0 elap:               0.5
 (Enter /udrive/faculty/rpeverati/g16/g16/l401.exe)
 Initial guess from the checkpoint file:  "MN_32_co_BH76_BP86DBJ_631Gs.chk"
 SCF N**3 symmetry information disabled.
 B after Tr=     0.000000    0.000000    0.000000
         Rot=    1.000000    0.000000    0.000000    0.000000 Ang=   0.00 deg.
 Guess basis will be translated and rotated to current coordinates.
 JPrj=2 DoOrth=T DoCkMO=T.
 Initial guess orbital symmetries:
       Occupied  (SG) (SG) (SG) (SG) (PI) (PI) (SG)
       Virtual   (PI) (PI) (SG) (PI) (PI) (SG) (SG) (SG) (PI) (PI)
                 (DLTA) (DLTA) (SG) (PI) (PI) (DLTA) (DLTA) (SG)
                 (PI) (PI) (SG)
 The electronic state of the initial guess is 1-SG.
 Leave Link  401 at Wed Oct  7 14:07:36 2020, MaxMem=  2684354560 cpu:               1.6 elap:               0.5
 (Enter /udrive/faculty/rpeverati/g16/g16/l502.exe)
 Keep J ints in memory in symmetry-blocked form, NReq=10432253.
 FoFCou: FMM=F IPFlag=           0 FMFlag=           0 FMFlg1=           0
         NFxFlg=           0 DoJE=F BraDBF=F KetDBF=F FulRan=T
         wScrn=  0.000000 ICntrl=       600 IOpCl=  0 I1Cent=           0 NGrid=           0
         NMat0=    1 NMatS0=    406 NMatT0=    0 NMatD0=    1 NMtDS0=    0 NMtDT0=    0
 Petite list used in FoFCou.
 Closed shell SCF:
 Using DIIS extrapolation, IDIIS=  1040.
 NGot=  2684354560 LenX=  2684327255 LenY=  2684325914
 Requested convergence on RMS density matrix=1.00D-08 within 120 cycles.
 Requested convergence on MAX density matrix=1.00D-06.
 Requested convergence on             energy=1.00D-06.
 No special actions if energy rises.

 Cycle   1  Pass 1  IDiag  1:
 E= -113.305808539218    
 DIIS: error= 3.98D-04 at cycle   1 NSaved=   1.
 NSaved= 1 IEnMin= 1 EnMin= -113.305808539218     IErMin= 1 ErrMin= 3.98D-04
 ErrMax= 3.98D-04  0.00D+00 EMaxC= 1.00D-01 BMatC= 6.74D-06 BMatP= 6.74D-06
 IDIUse=3 WtCom= 9.96D-01 WtEn= 3.98D-03
 Coeff-Com:  0.100D+01
 Coeff-En:   0.100D+01
 Coeff:      0.100D+01
 Gap=     0.256 Goal=   None    Shift=    0.000
 RMSDP=1.34D-04 MaxDP=9.48D-04              OVMax= 1.11D-03

 Cycle   2  Pass 1  IDiag  1:
 E= -113.305812783090     Delta-E=       -0.000004243872 Rises=F Damp=F
 DIIS: error= 3.54D-04 at cycle   2 NSaved=   2.
 NSaved= 2 IEnMin= 2 EnMin= -113.305812783090     IErMin= 2 ErrMin= 3.54D-04
 ErrMax= 3.54D-04  0.00D+00 EMaxC= 1.00D-01 BMatC= 4.18D-06 BMatP= 6.74D-06
 IDIUse=3 WtCom= 9.96D-01 WtEn= 3.54D-03
 Coeff-Com:  0.422D+00 0.578D+00
 Coeff-En:   0.919D-01 0.908D+00
 Coeff:      0.421D+00 0.579D+00
 Gap=     0.256 Goal=   None    Shift=    0.000
 RMSDP=7.49D-05 MaxDP=9.31D-04 DE=-4.24D-06 OVMax= 1.23D-03

 Cycle   3  Pass 1  IDiag  1:
 E= -113.305811548423     Delta-E=        0.000001234667 Rises=F Damp=F
 DIIS: error= 5.34D-04 at cycle   3 NSaved=   3.
 NSaved= 3 IEnMin= 2 EnMin= -113.305812783090     IErMin= 2 ErrMin= 3.54D-04
 ErrMax= 5.34D-04  0.00D+00 EMaxC= 1.00D-01 BMatC= 5.61D-06 BMatP= 4.18D-06
 IDIUse=3 WtCom= 3.02D-01 WtEn= 6.98D-01
 Coeff-Com:  0.144D+00 0.495D+00 0.361D+00
 Coeff-En:   0.000D+00 0.563D+00 0.437D+00
 Coeff:      0.434D-01 0.542D+00 0.414D+00
 Gap=     0.256 Goal=   None    Shift=    0.000
 RMSDP=5.72D-05 MaxDP=5.66D-04 DE= 1.23D-06 OVMax= 8.98D-04

 Cycle   4  Pass 1  IDiag  1:
 E= -113.305815591554     Delta-E=       -0.000004043131 Rises=F Damp=F
 DIIS: error= 1.04D-04 at cycle   4 NSaved=   4.
 NSaved= 4 IEnMin= 4 EnMin= -113.305815591554     IErMin= 4 ErrMin= 1.04D-04
 ErrMax= 1.04D-04  0.00D+00 EMaxC= 1.00D-01 BMatC= 2.32D-07 BMatP= 4.18D-06
 IDIUse=3 WtCom= 9.99D-01 WtEn= 1.04D-03
 Coeff-Com:  0.572D-02 0.193D+00 0.228D+00 0.574D+00
 Coeff-En:   0.000D+00 0.000D+00 0.613D-01 0.939D+00
 Coeff:      0.572D-02 0.192D+00 0.228D+00 0.574D+00
 Gap=     0.256 Goal=   None    Shift=    0.000
 RMSDP=1.59D-05 MaxDP=2.25D-04 DE=-4.04D-06 OVMax= 1.67D-04

 Cycle   5  Pass 1  IDiag  1:
 E= -113.305815826501     Delta-E=       -0.000000234947 Rises=F Damp=F
 DIIS: error= 1.22D-06 at cycle   5 NSaved=   5.
 NSaved= 5 IEnMin= 5 EnMin= -113.305815826501     IErMin= 5 ErrMin= 1.22D-06
 ErrMax= 1.22D-06  0.00D+00 EMaxC= 1.00D-01 BMatC= 4.45D-11 BMatP= 2.32D-07
 IDIUse=1 WtCom= 1.00D+00 WtEn= 0.00D+00
 Coeff-Com:  0.805D-05 0.899D-02 0.144D-01 0.362D-01 0.940D+00
 Coeff:      0.805D-05 0.899D-02 0.144D-01 0.362D-01 0.940D+00
 Gap=     0.256 Goal=   None    Shift=    0.000
 RMSDP=1.94D-07 MaxDP=1.91D-06 DE=-2.35D-07 OVMax= 2.25D-06

 Cycle   6  Pass 1  IDiag  1:
 E= -113.305815826538     Delta-E=       -0.000000000037 Rises=F Damp=F
 DIIS: error= 1.35D-07 at cycle   6 NSaved=   6.
 NSaved= 6 IEnMin= 6 EnMin= -113.305815826538     IErMin= 6 ErrMin= 1.35D-07
 ErrMax= 1.35D-07  0.00D+00 EMaxC= 1.00D-01 BMatC= 3.77D-13 BMatP= 4.45D-11
 IDIUse=1 WtCom= 1.00D+00 WtEn= 0.00D+00
 Coeff-Com: -0.283D-05 0.157D-02 0.248D-02 0.661D-02 0.207D+00 0.783D+00
 Coeff:     -0.283D-05 0.157D-02 0.248D-02 0.661D-02 0.207D+00 0.783D+00
 Gap=     0.256 Goal=   None    Shift=    0.000
 RMSDP=1.62D-08 MaxDP=2.62D-07 DE=-3.73D-11 OVMax= 1.51D-07

 Cycle   7  Pass 1  IDiag  1:
 E= -113.305815826538     Delta-E=       -0.000000000000 Rises=F Damp=F
 DIIS: error= 2.73D-08 at cycle   7 NSaved=   7.
 NSaved= 7 IEnMin= 7 EnMin= -113.305815826538     IErMin= 7 ErrMin= 2.73D-08
 ErrMax= 2.73D-08  0.00D+00 EMaxC= 1.00D-01 BMatC= 1.38D-14 BMatP= 3.77D-13
 IDIUse=1 WtCom= 1.00D+00 WtEn= 0.00D+00
 Coeff-Com: -0.881D-06 0.221D-03 0.297D-03 0.912D-03 0.282D-01 0.144D+00
 Coeff-Com:  0.826D+00
 Coeff:     -0.881D-06 0.221D-03 0.297D-03 0.912D-03 0.282D-01 0.144D+00
 Coeff:      0.826D+00
 Gap=     0.256 Goal=   None    Shift=    0.000
 RMSDP=3.33D-09 MaxDP=3.85D-08 DE=-3.41D-13 OVMax= 4.43D-08

 SCF Done:  E(RB-P86) =  -113.305815827     A.U. after    7 cycles
            NFock=  7  Conv=0.33D-08     -V/T= 2.0072
 KE= 1.124918719518D+02 PE=-3.100303455628D+02 EE= 6.214318090006D+01
 Leave Link  502 at Wed Oct  7 14:07:38 2020, MaxMem=  2684354560 cpu:               7.5 elap:               1.0
 (Enter /udrive/faculty/rpeverati/g16/g16/l508.exe)
 QCSCF skips out because SCF is already converged.
 Leave Link  508 at Wed Oct  7 14:07:38 2020, MaxMem=  2684354560 cpu:               0.4 elap:               0.4
 (Enter /udrive/faculty/rpeverati/g16/g16/l701.exe)
 ... and contract with generalized density number  0.
 Compute integral first derivatives.
 R6Disp: Adding Grimme-D3(BJ) dispersion energy 1st derivatives to the gradient.
 Leave Link  701 at Wed Oct  7 14:07:39 2020, MaxMem=  2684354560 cpu:               2.6 elap:               0.6
 (Enter /udrive/faculty/rpeverati/g16/g16/l702.exe)
 L702 exits ... SP integral derivatives will be done elsewhere.
 Leave Link  702 at Wed Oct  7 14:07:40 2020, MaxMem=  2684354560 cpu:               0.9 elap:               0.3
 (Enter /udrive/faculty/rpeverati/g16/g16/l703.exe)
 Integral derivatives from FoFJK, PRISM(SPDF).
 Compute integral first derivatives, UseDBF=F ICtDFT=           0.
 Calling FoFJK, ICntrl=      2527 FMM=F ISym2X=1 I1Cent= 0 IOpClX= 0 NMat=1 NMatS=1 NMatT=0.
 FoFJK:  IHMeth= 1 ICntrl=    2527 DoSepK=F KAlg= 0 I1Cent=           0 FoldK=F
 IRaf=         0 NMat=       1 IRICut=       1 DoRegI=T DoRafI=F ISym2E= 1 IDoP0=0 IntGTp=1.
 FoFCou: FMM=F IPFlag=           0 FMFlag=      100000 FMFlg1=         800
         NFxFlg=           0 DoJE=F BraDBF=F KetDBF=F FulRan=T
         wScrn=  0.000000 ICntrl=      2527 IOpCl=  0 I1Cent=           0 NGrid=           0
         NMat0=    1 NMatS0=      1 NMatT0=    0 NMatD0=    1 NMtDS0=    0 NMtDT0=    0
 Petite list used in FoFCou.
 Leave Link  703 at Wed Oct  7 14:07:41 2020, MaxMem=  2684354560 cpu:               3.4 elap:               0.6
 (Enter /udrive/faculty/rpeverati/g16/g16/l716.exe)
 Dipole        = 0.00000000D+00 1.16025279D-31 5.80990126D-02
 ***** Axes restored to original set *****
 -------------------------------------------------------------------
 Center     Atomic                   Forces (Hartrees/Bohr)
 Number     Number              X              Y              Z
 -------------------------------------------------------------------
      1        8           0.000000000    0.000000000    0.000031034
      2        6          -0.000000000   -0.000000000   -0.000031034
 -------------------------------------------------------------------
 Cartesian Forces:  Max     0.000031034 RMS     0.000017918
 Leave Link  716 at Wed Oct  7 14:07:41 2020, MaxMem=  2684354560 cpu:               1.1 elap:               0.4
 (Enter /udrive/faculty/rpeverati/g16/g16/l103.exe)

 GradGradGradGradGradGradGradGradGradGradGradGradGradGradGradGradGradGrad
 Berny optimization.
 Optmz: redundant internal coordinate code flag= 1
 Using GEDIIS/GDIIS optimizer.
 Red2BG:  D1=  2.00D+00 OD1=  0.00D+00 B2RMS=  0.00D+00 IAprox=1
 Red2BG is reusing G-inverse.
 Internal  Forces:  Max     0.000031034 RMS     0.000031034
 Search for a local minimum.
 Step number   3 out of a maximum of  100
 All quantities printed in internal units (Hartrees-Bohrs-Radians)
 RMS Force = .31034D-04 SwitMx=.10000D-02 MixMth= 2
 Mixed Optimization -- En-DIIS/RFO-DIIS
 Update second derivatives using D2CorX and points    2    3
 DE= -2.44D-05 DEPred=-2.25D-05 R= 1.09D+00
 TightC=F SS=  1.41D+00  RLast= 6.39D-03 DXNew= 5.0454D-01 1.9172D-02
 Trust test= 1.09D+00 RLast= 6.39D-03 DXMaxT set to 3.00D-01
 The second derivative matrix:
                          R1
           R1           1.17687
 ITU=  1  1
 Use linear search instead of GDIIS.
 Eigenvectors of the second derivative matrix:
                           1
     Eigenvalues --     1.17687
   1         R1         1.00000
 RFO step:  Lambda= 0.00000000D+00 EMin= 1.17687032D+00
 Quartic linear search produced a step of  0.00405.
 Iteration  1 RMS(Cart)=  0.00001832 RMS(Int)=  0.00000000
 Iteration  2 RMS(Cart)=  0.00000000 RMS(Int)=  0.00000000
 ITry= 1 IFail=0 DXMaxC= 1.30D-05 DCOld= 1.00D+10 DXMaxT= 3.00D-01 DXLimC= 3.00D+00 Rises=F
 ClnCor:  largest displacement from symmetrization is 0.00D+00 for atom     0.
 Variable       Old X    -DE/DX   Delta X   Delta X   Delta X     New X
                                 (Linear)    (Quad)   (Total)
    R1        2.17292   0.00003   0.00003   0.00000   0.00003   2.17295
         Item               Value     Threshold  Converged?
 Maximum Force            0.000031     0.000450     YES
 RMS     Force            0.000031     0.000300     YES
 Maximum Displacement     0.000013     0.001800     YES
 RMS     Displacement     0.000018     0.001200     YES
 Predicted change in Energy=-4.090658D-10
 Optimization completed.
    -- Stationary point found.
                           ----------------------------
                           !   Optimized Parameters   !
                           ! (Angstroms and Degrees)  !
 --------------------------                            --------------------------
 ! Name  Definition              Value          Derivative Info.                !
 --------------------------------------------------------------------------------
 ! R1    R(1,2)                  1.1499         -DE/DX =    0.0                 !
 --------------------------------------------------------------------------------
 Lowest energy point so far.  Saving SCF results.
 Largest change from initial coordinates is atom    2       0.012 Angstoms.
 GradGradGradGradGradGradGradGradGradGradGradGradGradGradGradGradGradGrad

 Leave Link  103 at Wed Oct  7 14:07:42 2020, MaxMem=  2684354560 cpu:               1.7 elap:               0.6
 (Enter /udrive/faculty/rpeverati/g16/g16/l202.exe)
                          Input orientation:                          
 ---------------------------------------------------------------------
 Center     Atomic      Atomic             Coordinates (Angstroms)
 Number     Number       Type             X           Y           Z
 ---------------------------------------------------------------------
      1          8           0        0.000000    0.000000    0.494244
      2          6           0        0.000000    0.000000   -0.655616
 ---------------------------------------------------------------------
 Stoichiometry    CO
 Framework group  C*V[C*(CO)]
 Deg. of freedom     1
 Full point group                 C*V     NOp   4
 RotChk:  IX=0 Diff= 0.00D+00
 Largest Abelian subgroup         C2V     NOp   4
 Largest concise Abelian subgroup C1      NOp   1
                         Standard orientation:                         
 ---------------------------------------------------------------------
 Center     Atomic      Atomic             Coordinates (Angstroms)
 Number     Number       Type             X           Y           Z
 ---------------------------------------------------------------------
      1          8           0        0.000000    0.000000    0.492797
      2          6           0        0.000000    0.000000   -0.657062
 ---------------------------------------------------------------------
 Rotational constants (GHZ):           0.0000000          55.7498597          55.7498597
 Leave Link  202 at Wed Oct  7 14:07:43 2020, MaxMem=  2684354560 cpu:               1.6 elap:               0.6
 (Enter /udrive/faculty/rpeverati/g16/g16/l601.exe)
 Copying SCF densities to generalized density rwf, IOpCl= 0 IROHF=0.

 **********************************************************************

            Population analysis using the SCF density.

 **********************************************************************

 Orbital symmetries:
       Occupied  (SG) (SG) (SG) (SG) (PI) (PI) (SG)
       Virtual   (PI) (PI) (SG) (PI) (PI) (SG) (SG) (SG) (PI) (PI)
                 (DLTA) (DLTA) (SG) (PI) (PI) (DLTA) (DLTA) (SG)
                 (PI) (PI) (SG)
 The electronic state is 1-SG.
 Alpha  occ. eigenvalues --  -18.89564 -10.02414  -1.05987  -0.50817  -0.41783
 Alpha  occ. eigenvalues --   -0.41783  -0.32133
 Alpha virt. eigenvalues --   -0.06505  -0.06505   0.23588   0.47742   0.47742
 Alpha virt. eigenvalues --    0.55041   0.67416   0.77999   0.85802   0.85802
 Alpha virt. eigenvalues --    1.41417   1.41417   1.44588   1.46004   1.46004
 Alpha virt. eigenvalues --    1.85765   1.85765   2.31107   2.50324   2.50324
 Alpha virt. eigenvalues --    2.84963
          Condensed to atoms (all electrons):
               1          2
     1  O    7.574886   0.560709
     2  C    0.560709   5.303697
 Mulliken charges:
               1
     1  O   -0.135595
     2  C    0.135595
 Sum of Mulliken charges =  -0.00000
 Mulliken charges with hydrogens summed into heavy atoms:
               1
     1  O   -0.135595
     2  C    0.135595
 Electronic spatial extent (au):  <R**2>=             39.7536
 Charge=             -0.0000 electrons
 Dipole moment (field-independent basis, Debye):
    X=              0.0000    Y=              0.0000    Z=              0.1477  Tot=              0.1477
 Quadrupole moment (field-independent basis, Debye-Ang):
   XX=             -9.8964   YY=             -9.8964   ZZ=            -11.9034
   XY=              0.0000   XZ=              0.0000   YZ=             -0.0000
 Traceless Quadrupole moment (field-independent basis, Debye-Ang):
   XX=              0.6690   YY=              0.6690   ZZ=             -1.3380
   XY=              0.0000   XZ=              0.0000   YZ=             -0.0000
 Octapole moment (field-independent basis, Debye-Ang**2):
  XXX=              0.0000  YYY=              0.0000  ZZZ=              5.7877  XYY=              0.0000
  XXY=             -0.0000  XXZ=              1.1310  XZZ=              0.0000  YZZ=              0.0000
  YYZ=              1.1310  XYZ=              0.0000
 Hexadecapole moment (field-independent basis, Debye-Ang**3):
 XXXX=             -7.8569 YYYY=             -7.8569 ZZZZ=            -34.6370 XXXY=              0.0000
 XXXZ=              0.0000 YYYX=              0.0000 YYYZ=              0.0000 ZZZX=              0.0000
 ZZZY=             -0.0000 XXYY=             -2.6190 XXZZ=             -6.5647 YYZZ=             -6.5647
 XXYZ=             -0.0000 YYXZ=              0.0000 ZZXY=              0.0000
 N-N= 2.208947688438D+01 E-N=-3.100303451267D+02  KE= 1.124918719518D+02
 No NMR shielding tensors so no spin-rotation constants.
 Leave Link  601 at Wed Oct  7 14:07:44 2020, MaxMem=  2684354560 cpu:               2.6 elap:               0.6
 (Enter /udrive/faculty/rpeverati/g16/g16/l9999.exe)

 Test job not archived.
 1\1\GINC-NODE59\FOpt\RBP86\6-31G(d)\C1O1\RPEVERATI\07-Oct-2020\0\\#P O
 pt(MaxCyc=100) BP86/6-31G* 5D 7F Integral=UltraFineGrid SCF=(NoSymm,XQ
 C,MaxCyc=120) EmpiricalDispersion=GD3BJ IOp(1/33=1)\\TS search on BH76
 .\\0,1\O,0.,0.,0.4942436135\C,0.,0.,-0.6556156747\\Version=ES64L-G16Re
 vA.03\State=1-SG\HF=-113.3058158\RMSD=3.333e-09\RMSF=1.792e-05\Dipole=
 0.,0.,0.058099\Quadrupole=0.4973879,0.4973879,-0.9947758,0.,0.,0.\PG=C
 *V [C*(C1O1)]\\@


 A MAN BEGINS CUTTING HIS WISDOM TEETH THE 1ST
 TIME HE BITES OFF MORE THAN HE CAN CHEW.
 Job cpu time:       0 days  0 hours  1 minutes 58.4 seconds.
 Elapsed time:       0 days  0 hours  0 minutes 24.9 seconds.
 File lengths (MBytes):  RWF=      5 Int=      0 D2E=      0 Chk=      1 Scr=      1
 Normal termination of Gaussian 16 at Wed Oct  7 14:07:45 2020.
