 Entering Gaussian System, Link 0=g16
 Input=MN_49_hcnts_BH76_BP86DBJ_631Gs.in
 Output=MN_49_hcnts_BH76_BP86DBJ_631Gs.log
 Initial command:
 /udrive/faculty/rpeverati/g16/g16/l1.exe "/udrive/scratch-directories/gaussian09/rpeverati/Gau-22496.inp" -scrdir="/udrive/scratch-directories/gaussian09/rpeverati/"
 Entering Link 1 = /udrive/faculty/rpeverati/g16/g16/l1.exe PID=     22515.
  
 Copyright (c) 1988,1990,1992,1993,1995,1998,2003,2009,2016,
            Gaussian, Inc.  All Rights Reserved.
  
 This is part of the Gaussian(R) 16 program.  It is based on
 the Gaussian(R) 09 system (copyright 2009, Gaussian, Inc.),
 the Gaussian(R) 03 system (copyright 2003, Gaussian, Inc.),
 the Gaussian(R) 98 system (copyright 1998, Gaussian, Inc.),
 the Gaussian(R) 94 system (copyright 1995, Gaussian, Inc.),
 the Gaussian 92(TM) system (copyright 1992, Gaussian, Inc.),
 the Gaussian 90(TM) system (copyright 1990, Gaussian, Inc.),
 the Gaussian 88(TM) system (copyright 1988, Gaussian, Inc.),
 the Gaussian 86(TM) system (copyright 1986, Carnegie Mellon
 University), and the Gaussian 82(TM) system (copyright 1983,
 Carnegie Mellon University). Gaussian is a federally registered
 trademark of Gaussian, Inc.
  
 This software contains proprietary and confidential information,
 including trade secrets, belonging to Gaussian, Inc.
  
 This software is provided under written license and may be
 used, copied, transmitted, or stored only in accord with that
 written license.
  
 The following legend is applicable only to US Government
 contracts under FAR:
  
                    RESTRICTED RIGHTS LEGEND
  
 Use, reproduction and disclosure by the US Government is
 subject to restrictions as set forth in subparagraphs (a)
 and (c) of the Commercial Computer Software - Restricted
 Rights clause in FAR 52.227-19.
  
 Gaussian, Inc.
 340 Quinnipiac St., Bldg. 40, Wallingford CT 06492
  
  
 ---------------------------------------------------------------
 Warning -- This program may not be used in any manner that
 competes with the business of Gaussian, Inc. or will provide
 assistance to any competitor of Gaussian, Inc.  The licensee
 of this program is prohibited from giving any competitor of
 Gaussian, Inc. access to this program.  By using this program,
 the user acknowledges that Gaussian, Inc. is engaged in the
 business of creating and licensing software in the field of
 computational chemistry and represents and warrants to the
 licensee that it is not a competitor of Gaussian, Inc. and that
 it will not use this program in any manner prohibited above.
 ---------------------------------------------------------------
  

 Cite this work as:
 Gaussian 16, Revision A.03,
 M. J. Frisch, G. W. Trucks, H. B. Schlegel, G. E. Scuseria, 
 M. A. Robb, J. R. Cheeseman, G. Scalmani, V. Barone, 
 G. A. Petersson, H. Nakatsuji, X. Li, M. Caricato, A. V. Marenich, 
 J. Bloino, B. G. Janesko, R. Gomperts, B. Mennucci, H. P. Hratchian, 
 J. V. Ortiz, A. F. Izmaylov, J. L. Sonnenberg, D. Williams-Young, 
 F. Ding, F. Lipparini, F. Egidi, J. Goings, B. Peng, A. Petrone, 
 T. Henderson, D. Ranasinghe, V. G. Zakrzewski, J. Gao, N. Rega, 
 G. Zheng, W. Liang, M. Hada, M. Ehara, K. Toyota, R. Fukuda, 
 J. Hasegawa, M. Ishida, T. Nakajima, Y. Honda, O. Kitao, H. Nakai, 
 T. Vreven, K. Throssell, J. A. Montgomery, Jr., J. E. Peralta, 
 F. Ogliaro, M. J. Bearpark, J. J. Heyd, E. N. Brothers, K. N. Kudin, 
 V. N. Staroverov, T. A. Keith, R. Kobayashi, J. Normand, 
 K. Raghavachari, A. P. Rendell, J. C. Burant, S. S. Iyengar, 
 J. Tomasi, M. Cossi, J. M. Millam, M. Klene, C. Adamo, R. Cammi, 
 J. W. Ochterski, R. L. Martin, K. Morokuma, O. Farkas, 
 J. B. Foresman, and D. J. Fox, Gaussian, Inc., Wallingford CT, 2016.
 
 ******************************************
 Gaussian 16:  ES64L-G16RevA.03 25-Dec-2016
                 7-Oct-2020 
 ******************************************
 %NoSave
 %nproc=12
 Will use up to   12 processors via shared memory.
 %mem=20GB
 %chk=MN_49_hcnts_BH76_BP86DBJ_631Gs
 ----------------------------------------------------------------------
 #P Opt(TS,MaxCyc=50,NoEigenTest,MaxStep=10,AddRedundant) BP86/6-31G* 5
 D 7F Integral=UltraFineGrid SCF=(NoSymm,XQC,MaxCyc=120) EmpiricalDispe
 rsion=GD3BJ IOp(1/33=1)
 ----------------------------------------------------------------------
 1/5=1,6=50,8=10,11=1,18=120,26=4,33=1,38=1/1,3;
 2/9=110,12=2,17=6,18=5,40=1/2;
 3/5=1,6=6,7=1,8=11,11=2,25=1,30=1,71=1,74=404,75=-5,124=41/1,2,3;
 4/9=2/1;
 5/5=2,7=120,8=3,13=1,38=5/2,8;
 6/7=2,8=2,9=2,10=2,28=1/1;
 7//1,2,3,16;
 1/5=1,6=50,8=10,11=1,18=20,26=4,33=1/3(2);
 2/9=110/2;
 99//99;
 2/9=110/2;
 3/5=1,6=6,7=1,8=11,11=2,25=1,30=1,71=1,74=404,75=-5,124=41/1,2,3;
 4/5=5,9=2,16=3,69=1/1;
 5/5=2,7=120,8=3,13=1,38=5/2,8;
 7//1,2,3,16;
 1/5=1,6=50,8=10,11=1,18=20,26=4,33=1/3(-5);
 2/9=110/2;
 6/7=2,8=2,9=2,10=2,19=2,28=1/1;
 99/9=1/99;
 Leave Link    1 at Wed Oct  7 14:08:09 2020, MaxMem=  2684354560 cpu:               6.2 elap:               0.6
 (Enter /udrive/faculty/rpeverati/g16/g16/l101.exe)
 ONIOM data not found on unit 2.
 ------------------
 TS search on BH76.
 ------------------
 TstMul:  ICh=     0
 TstMul:  Mul=     1
 TstMul:  ICh=     0
 TstMul:  Mul=     1
 Symbolic Z-matrix:
 Charge =  0 Multiplicity = 1
 C                     0.08032   0.62026   0. 
 N                     0.08032  -0.56809   0. 
 H                    -1.04415   0.25512   0. 
 
 RdStrC is calling ZToCFu for IStruc=1 NZ=     3.
 PrtBox:  NBox=     1 Levels=  1 BoxLen=    8.00 SMaxX=        2.25
          Shift=            1.973150            1.073540            0.000000
 Box      1 Number                   0 centers from      1 to      3:
 After GenITR:
 ITRead=  0  0  0
 MicOpt= -1 -1 -1
 The following ModRedundant input section has been read:
 
 ITRead=  0  0  0
 MicOpt= -1 -1 -1
 NAtoms=      3 NQM=        3 NQMF=       0 NMMI=      0 NMMIF=      0
                NMic=       0 NMicF=      0.
                    Isotopes and Nuclear Properties:
 (Nuclear quadrupole moments (NQMom) in fm**2, nuclear magnetic moments (NMagM)
  in nuclear magnetons)

  Atom         1           2           3
 IAtWgt=          12          14           1
 AtmWgt=  12.0000000  14.0030740   1.0078250
 NucSpn=           0           2           1
 AtZEff=   0.0000000   0.0000000   0.0000000
 NQMom=    0.0000000   2.0440000   0.0000000
 NMagM=    0.0000000   0.4037610   2.7928460
 AtZNuc=   6.0000000   7.0000000   1.0000000
 No MM parameters found.
 Leave Link  101 at Wed Oct  7 14:08:10 2020, MaxMem=  2684354560 cpu:               9.7 elap:               1.0
 (Enter /udrive/faculty/rpeverati/g16/g16/l103.exe)

 GradGradGradGradGradGradGradGradGradGradGradGradGradGradGradGradGradGrad
 Berny optimization.
 Optmz: redundant internal coordinate code flag= 1
 Initialization pass.
                           ----------------------------
                           !    Initial Parameters    !
                           ! (Angstroms and Degrees)  !
 --------------------------                            --------------------------
 ! Name  Definition              Value          Derivative Info.                !
 --------------------------------------------------------------------------------
 ! R1    R(1,2)                  1.1884         estimate D2E/DX2                !
 ! R2    R(1,3)                  1.1823         estimate D2E/DX2                !
 ! A1    A(2,1,3)               72.0103         estimate D2E/DX2                !
 --------------------------------------------------------------------------------
 Maximum allowed force set to 1.00D+20.
 Trust Radius=1.00D-01 FncErr=1.00D-07 GrdErr=1.00D-06 EigMax=2.50D+02 EigMin=1.00D-04
 Number of steps in this run=     50 maximum allowed number of steps=    100.
 Search for a saddle point of order  1.
 GradGradGradGradGradGradGradGradGradGradGradGradGradGradGradGradGradGrad

 Leave Link  103 at Wed Oct  7 14:08:11 2020, MaxMem=  2684354560 cpu:               1.5 elap:               0.7
 (Enter /udrive/faculty/rpeverati/g16/g16/l202.exe)
                          Input orientation:                          
 ---------------------------------------------------------------------
 Center     Atomic      Atomic             Coordinates (Angstroms)
 Number     Number       Type             X           Y           Z
 ---------------------------------------------------------------------
      1          6           0        0.080319    0.620259    0.000000
      2          7           0        0.080319   -0.568093    0.000000
      3          1           0       -1.044146    0.255121    0.000000
 ---------------------------------------------------------------------
                    Distance matrix (angstroms):
                    1          2          3
     1  C    0.000000
     2  N    1.188352   0.000000
     3  H    1.182264   1.393594   0.000000
 Stoichiometry    CHN
 Framework group  CS[SG(CHN)]
 Deg. of freedom     3
 Full point group                 CS      NOp   2
 Largest Abelian subgroup         CS      NOp   2
 Largest concise Abelian subgroup C1      NOp   1
                         Standard orientation:                         
 ---------------------------------------------------------------------
 Center     Atomic      Atomic             Coordinates (Angstroms)
 Number     Number       Type             X           Y           Z
 ---------------------------------------------------------------------
      1          6           0        0.080319    0.620257    0.000000
      2          7           0        0.080319   -0.568095    0.000000
      3          1           0       -1.044146    0.255119    0.000000
 ---------------------------------------------------------------------
 Rotational constants (GHZ):         415.7753317          54.8709834          48.4737702
 Leave Link  202 at Wed Oct  7 14:08:12 2020, MaxMem=  2684354560 cpu:               2.1 elap:               0.7
 (Enter /udrive/faculty/rpeverati/g16/g16/l301.exe)
 Standard basis: 6-31G(d) (5D, 7F)
 Ernie: Thresh=  0.10000D-02 Tol=  0.10000D-05 Strict=F.
 There are    24 symmetry adapted cartesian basis functions of A'  symmetry.
 There are     8 symmetry adapted cartesian basis functions of A"  symmetry.
 There are    22 symmetry adapted basis functions of A'  symmetry.
 There are     8 symmetry adapted basis functions of A"  symmetry.
    30 basis functions,    60 primitive gaussians,    32 cartesian basis functions
     7 alpha electrons        7 beta electrons
       nuclear repulsion energy        24.0463711332 Hartrees.
 IExCor=  404 DFT=T Ex=B Corr=P86 ExCW=0 ScaHFX=  0.000000
 ScaDFX=  1.000000  1.000000  1.000000  1.000000 ScalE2=  1.000000  1.000000
 IRadAn=      5 IRanWt=     -1 IRanGd=            0 ICorTp=0 IEmpDi=141
 NAtoms=    3 NActive=    3 NUniq=    3 SFac= 1.00D+00 NAtFMM=   60 NAOKFM=F Big=F
 Integral buffers will be    131072 words long.
 Raffenetti 2 integral format.
 Two-electron integral symmetry is turned on.
 R6Disp:  Grimme-D3(BJ) Dispersion energy=       -0.0012196649 Hartrees.
 Nuclear repulsion after empirical dispersion term =       24.0451514683 Hartrees.
 Leave Link  301 at Wed Oct  7 14:08:13 2020, MaxMem=  2684354560 cpu:               2.6 elap:               0.8
 (Enter /udrive/faculty/rpeverati/g16/g16/l302.exe)
 NPDir=0 NMtPBC=     1 NCelOv=     1 NCel=       1 NClECP=     1 NCelD=      1
         NCelK=      1 NCelE2=     1 NClLst=     1 CellRange=     0.0.
 One-electron integrals computed using PRISM.
 One-electron integral symmetry used in STVInt
 NBasis=    30 RedAO= T EigKep=  7.88D-03  NBF=    22     8
 NBsUse=    30 1.00D-06 EigRej= -1.00D+00 NBFU=    22     8
 Precomputing XC quadrature grid using
 IXCGrd= 4 IRadAn=           5 IRanWt=          -1 IRanGd=           0 AccXCQ= 0.00D+00.
 Generated NRdTot=       0 NPtTot=           0 NUsed=           0 NTot=          32
 NSgBfM=    32    32    32    32    32 MxSgAt=     3 MxSgA2=     3.
 Leave Link  302 at Wed Oct  7 14:08:14 2020, MaxMem=  2684354560 cpu:               4.2 elap:               0.8
 (Enter /udrive/faculty/rpeverati/g16/g16/l303.exe)
 DipDrv:  MaxL=1.
 Leave Link  303 at Wed Oct  7 14:08:15 2020, MaxMem=  2684354560 cpu:               2.0 elap:               0.7
 (Enter /udrive/faculty/rpeverati/g16/g16/l401.exe)
 SCF N**3 symmetry information disabled.
 ExpMin= 1.61D-01 ExpMax= 4.17D+03 ExpMxC= 6.27D+02 IAcc=3 IRadAn=         5 AccDes= 0.00D+00
 Harris functional with IExCor=  404 and IRadAn=       5 diagonalized for initial guess.
 HarFok:  IExCor=  404 AccDes= 0.00D+00 IRadAn=         5 IDoV= 1 UseB2=F ITyADJ=14
 ICtDFT=  3500011 ScaDFX=  1.000000  1.000000  1.000000  1.000000
 FoFCou: FMM=F IPFlag=           0 FMFlag=      100000 FMFlg1=           0
         NFxFlg=           0 DoJE=T BraDBF=F KetDBF=T FulRan=T
         wScrn=  0.000000 ICntrl=       500 IOpCl=  0 I1Cent=   200000004 NGrid=           0
         NMat0=    1 NMatS0=      1 NMatT0=    0 NMatD0=    1 NMtDS0=    0 NMtDT0=    0
 Petite list used in FoFCou.
 Harris En= -93.3509336795704    
 JPrj=0 DoOrth=F DoCkMO=F.
 Initial guess orbital symmetries:
       Occupied  (A') (A') (A') (A') (A') (A") (A')
       Virtual   (A') (A") (A') (A') (A") (A') (A') (A') (A') (A")
                 (A') (A') (A') (A") (A') (A") (A') (A") (A') (A')
                 (A') (A") (A')
 The electronic state of the initial guess is 1-A'.
 Leave Link  401 at Wed Oct  7 14:08:16 2020, MaxMem=  2684354560 cpu:               5.8 elap:               1.0
 (Enter /udrive/faculty/rpeverati/g16/g16/l502.exe)
 Keep J ints in memory in symmetry-blocked form, NReq=10459184.
 FoFCou: FMM=F IPFlag=           0 FMFlag=           0 FMFlg1=           0
         NFxFlg=           0 DoJE=F BraDBF=F KetDBF=F FulRan=T
         wScrn=  0.000000 ICntrl=       600 IOpCl=  0 I1Cent=           0 NGrid=           0
         NMat0=    1 NMatS0=    465 NMatT0=    0 NMatD0=    1 NMtDS0=    0 NMtDT0=    0
 Petite list used in FoFCou.
 Closed shell SCF:
 Using DIIS extrapolation, IDIIS=  1040.
 NGot=  2684354560 LenX=  2684292770 LenY=  2684291305
 Requested convergence on RMS density matrix=1.00D-08 within 120 cycles.
 Requested convergence on MAX density matrix=1.00D-06.
 Requested convergence on             energy=1.00D-06.
 No special actions if energy rises.
 Integral accuracy reduced to 1.0D-05 until final iterations.

 Cycle   1  Pass 0  IDiag  1:
 E= -93.3220030079164    
 DIIS: error= 2.44D-02 at cycle   1 NSaved=   1.
 NSaved= 1 IEnMin= 1 EnMin= -93.3220030079164     IErMin= 1 ErrMin= 2.44D-02
 ErrMax= 2.44D-02  0.00D+00 EMaxC= 1.00D-01 BMatC= 1.64D-02 BMatP= 1.64D-02
 IDIUse=3 WtCom= 7.56D-01 WtEn= 2.44D-01
 Coeff-Com:  0.100D+01
 Coeff-En:   0.100D+01
 Coeff:      0.100D+01
 Gap=     0.176 Goal=   None    Shift=    0.000
 GapD=    0.176 DampG=1.000 DampE=0.500 DampFc=0.5000 IDamp=-1.
 Damping current iteration by 5.00D-01
 RMSDP=1.01D-02 MaxDP=7.37D-02              OVMax= 1.19D-01

 Cycle   2  Pass 0  IDiag  1:
 E= -93.3309694369461     Delta-E=       -0.008966429030 Rises=F Damp=T
 DIIS: error= 5.60D-03 at cycle   2 NSaved=   2.
 NSaved= 2 IEnMin= 2 EnMin= -93.3309694369461     IErMin= 2 ErrMin= 5.60D-03
 ErrMax= 5.60D-03  0.00D+00 EMaxC= 1.00D-01 BMatC= 8.65D-04 BMatP= 1.64D-02
 IDIUse=3 WtCom= 9.44D-01 WtEn= 5.60D-02
 Coeff-Com:  0.398D-01 0.960D+00
 Coeff-En:   0.879D-01 0.912D+00
 Coeff:      0.425D-01 0.957D+00
 Gap=     0.196 Goal=   None    Shift=    0.000
 RMSDP=2.56D-03 MaxDP=1.94D-02 DE=-8.97D-03 OVMax= 7.01D-02

 Cycle   3  Pass 0  IDiag  1:
 E= -93.3371050934281     Delta-E=       -0.006135656482 Rises=F Damp=F
 DIIS: error= 1.71D-02 at cycle   3 NSaved=   3.
 NSaved= 3 IEnMin= 3 EnMin= -93.3371050934281     IErMin= 2 ErrMin= 5.60D-03
 ErrMax= 1.71D-02  0.00D+00 EMaxC= 1.00D-01 BMatC= 5.07D-03 BMatP= 8.65D-04
 IDIUse=2 WtCom= 0.00D+00 WtEn= 1.00D+00
 Coeff-En:   0.000D+00 0.378D-01 0.962D+00
 Coeff:      0.000D+00 0.378D-01 0.962D+00
 Gap=     0.175 Goal=   None    Shift=    0.000
 RMSDP=7.29D-03 MaxDP=6.36D-02 DE=-6.14D-03 OVMax= 1.08D-01

 Cycle   4  Pass 0  IDiag  1:
 E= -93.2901439028049     Delta-E=        0.046961190623 Rises=F Damp=F
 DIIS: error= 5.43D-02 at cycle   4 NSaved=   4.
 NSaved= 4 IEnMin= 3 EnMin= -93.3371050934281     IErMin= 2 ErrMin= 5.60D-03
 ErrMax= 5.43D-02  0.00D+00 EMaxC= 1.00D-01 BMatC= 5.55D-02 BMatP= 8.65D-04
 IDIUse=2 WtCom= 0.00D+00 WtEn= 1.00D+00
 Coeff-En:   0.000D+00 0.000D+00 0.844D+00 0.156D+00
 Coeff:      0.000D+00 0.000D+00 0.844D+00 0.156D+00
 Gap=     0.184 Goal=   None    Shift=    0.000
 RMSDP=3.69D-03 MaxDP=3.22D-02 DE= 4.70D-02 OVMax= 5.48D-02

 Cycle   5  Pass 0  IDiag  1:
 E= -93.3358351067663     Delta-E=       -0.045691203961 Rises=F Damp=F
 DIIS: error= 1.91D-02 at cycle   5 NSaved=   5.
 NSaved= 5 IEnMin= 3 EnMin= -93.3371050934281     IErMin= 2 ErrMin= 5.60D-03
 ErrMax= 1.91D-02  0.00D+00 EMaxC= 1.00D-01 BMatC= 6.53D-03 BMatP= 8.65D-04
 IDIUse=2 WtCom= 0.00D+00 WtEn= 1.00D+00
 Coeff-En:   0.000D+00 0.000D+00 0.538D+00 0.000D+00 0.462D+00
 Coeff:      0.000D+00 0.000D+00 0.538D+00 0.000D+00 0.462D+00
 Gap=     0.191 Goal=   None    Shift=    0.000
 RMSDP=1.81D-03 MaxDP=1.62D-02 DE=-4.57D-02 OVMax= 2.72D-02

 Cycle   6  Pass 0  IDiag  1:
 E= -93.3419289484653     Delta-E=       -0.006093841699 Rises=F Damp=F
 DIIS: error= 7.59D-04 at cycle   6 NSaved=   6.
 NSaved= 6 IEnMin= 6 EnMin= -93.3419289484653     IErMin= 6 ErrMin= 7.59D-04
 ErrMax= 7.59D-04  0.00D+00 EMaxC= 1.00D-01 BMatC= 1.50D-05 BMatP= 8.65D-04
 IDIUse=3 WtCom= 9.92D-01 WtEn= 7.59D-03
 Coeff-Com:  0.153D-02 0.825D-02 0.254D+00-0.684D-01 0.402D+00 0.402D+00
 Coeff-En:   0.000D+00 0.000D+00 0.000D+00 0.000D+00 0.000D+00 0.100D+01
 Coeff:      0.151D-02 0.819D-02 0.252D+00-0.678D-01 0.399D+00 0.407D+00
 Gap=     0.191 Goal=   None    Shift=    0.000
 RMSDP=1.11D-04 MaxDP=8.36D-04 DE=-6.09D-03 OVMax= 1.66D-03

 Cycle   7  Pass 0  IDiag  1:
 E= -93.3419442840972     Delta-E=       -0.000015335632 Rises=F Damp=F
 DIIS: error= 9.88D-05 at cycle   7 NSaved=   7.
 NSaved= 7 IEnMin= 7 EnMin= -93.3419442840972     IErMin= 7 ErrMin= 9.88D-05
 ErrMax= 9.88D-05  0.00D+00 EMaxC= 1.00D-01 BMatC= 1.73D-07 BMatP= 1.50D-05
 IDIUse=1 WtCom= 1.00D+00 WtEn= 0.00D+00
 Coeff-Com:  0.155D-03 0.102D-02 0.520D-01-0.140D-01 0.769D-01 0.133D+00
 Coeff-Com:  0.751D+00
 Coeff:      0.155D-03 0.102D-02 0.520D-01-0.140D-01 0.769D-01 0.133D+00
 Coeff:      0.751D+00
 Gap=     0.191 Goal=   None    Shift=    0.000
 RMSDP=1.18D-05 MaxDP=7.01D-05 DE=-1.53D-05 OVMax= 2.20D-04

 Cycle   8  Pass 0  IDiag  1:
 E= -93.3419444619034     Delta-E=       -0.000000177806 Rises=F Damp=F
 DIIS: error= 1.15D-05 at cycle   8 NSaved=   8.
 NSaved= 8 IEnMin= 8 EnMin= -93.3419444619034     IErMin= 8 ErrMin= 1.15D-05
 ErrMax= 1.15D-05  0.00D+00 EMaxC= 1.00D-01 BMatC= 2.90D-09 BMatP= 1.73D-07
 IDIUse=1 WtCom= 1.00D+00 WtEn= 0.00D+00
 Coeff-Com: -0.213D-04 0.740D-04 0.697D-02-0.163D-02 0.808D-02 0.305D-01
 Coeff-Com:  0.221D+00 0.735D+00
 Coeff:     -0.213D-04 0.740D-04 0.697D-02-0.163D-02 0.808D-02 0.305D-01
 Coeff:      0.221D+00 0.735D+00
 Gap=     0.191 Goal=   None    Shift=    0.000
 RMSDP=1.54D-06 MaxDP=1.07D-05 DE=-1.78D-07 OVMax= 1.93D-05

 Initial convergence to 1.0D-05 achieved.  Increase integral accuracy.
 Cycle   9  Pass 1  IDiag  1:
 E= -93.3419435711674     Delta-E=        0.000000890736 Rises=F Damp=F
 DIIS: error= 6.32D-07 at cycle   1 NSaved=   1.
 NSaved= 1 IEnMin= 1 EnMin= -93.3419435711674     IErMin= 1 ErrMin= 6.32D-07
 ErrMax= 6.32D-07  0.00D+00 EMaxC= 1.00D-01 BMatC= 1.36D-11 BMatP= 1.36D-11
 IDIUse=1 WtCom= 1.00D+00 WtEn= 0.00D+00
 Coeff-Com:  0.100D+01
 Coeff:      0.100D+01
 Gap=     0.191 Goal=   None    Shift=    0.000
 RMSDP=1.54D-06 MaxDP=1.07D-05 DE= 8.91D-07 OVMax= 4.83D-06

 Cycle  10  Pass 1  IDiag  1:
 E= -93.3419435711171     Delta-E=        0.000000000050 Rises=F Damp=F
 DIIS: error= 1.97D-06 at cycle   2 NSaved=   2.
 NSaved= 2 IEnMin= 1 EnMin= -93.3419435711674     IErMin= 1 ErrMin= 6.32D-07
 ErrMax= 1.97D-06  0.00D+00 EMaxC= 1.00D-01 BMatC= 6.86D-11 BMatP= 1.36D-11
 IDIUse=1 WtCom= 1.00D+00 WtEn= 0.00D+00
 Coeff-Com:  0.717D+00 0.283D+00
 Coeff:      0.717D+00 0.283D+00
 Gap=     0.191 Goal=   None    Shift=    0.000
 RMSDP=2.42D-07 MaxDP=2.15D-06 DE= 5.03D-11 OVMax= 3.72D-06

 Cycle  11  Pass 1  IDiag  1:
 E= -93.3419435711777     Delta-E=       -0.000000000061 Rises=F Damp=F
 DIIS: error= 5.04D-07 at cycle   3 NSaved=   3.
 NSaved= 3 IEnMin= 3 EnMin= -93.3419435711777     IErMin= 3 ErrMin= 5.04D-07
 ErrMax= 5.04D-07  0.00D+00 EMaxC= 1.00D-01 BMatC= 4.41D-12 BMatP= 1.36D-11
 IDIUse=1 WtCom= 1.00D+00 WtEn= 0.00D+00
 Coeff-Com:  0.152D+00 0.204D+00 0.644D+00
 Coeff:      0.152D+00 0.204D+00 0.644D+00
 Gap=     0.191 Goal=   None    Shift=    0.000
 RMSDP=4.81D-08 MaxDP=4.54D-07 DE=-6.06D-11 OVMax= 7.27D-07

 Cycle  12  Pass 1  IDiag  1:
 E= -93.3419435711817     Delta-E=       -0.000000000004 Rises=F Damp=F
 DIIS: error= 4.21D-08 at cycle   4 NSaved=   4.
 NSaved= 4 IEnMin= 4 EnMin= -93.3419435711817     IErMin= 4 ErrMin= 4.21D-08
 ErrMax= 4.21D-08  0.00D+00 EMaxC= 1.00D-01 BMatC= 6.07D-14 BMatP= 4.41D-12
 IDIUse=1 WtCom= 1.00D+00 WtEn= 0.00D+00
 Coeff-Com:  0.390D-01 0.772D-01 0.266D+00 0.617D+00
 Coeff:      0.390D-01 0.772D-01 0.266D+00 0.617D+00
 Gap=     0.191 Goal=   None    Shift=    0.000
 RMSDP=1.37D-08 MaxDP=1.10D-07 DE=-4.06D-12 OVMax= 1.74D-07

 Cycle  13  Pass 1  IDiag  1:
 E= -93.3419435711819     Delta-E=       -0.000000000000 Rises=F Damp=F
 DIIS: error= 1.23D-08 at cycle   5 NSaved=   5.
 NSaved= 5 IEnMin= 5 EnMin= -93.3419435711819     IErMin= 5 ErrMin= 1.23D-08
 ErrMax= 1.23D-08  0.00D+00 EMaxC= 1.00D-01 BMatC= 5.08D-15 BMatP= 6.07D-14
 IDIUse=1 WtCom= 1.00D+00 WtEn= 0.00D+00
 Coeff-Com:  0.456D-02 0.162D-01 0.698D-01 0.256D+00 0.654D+00
 Coeff:      0.456D-02 0.162D-01 0.698D-01 0.256D+00 0.654D+00
 Gap=     0.191 Goal=   None    Shift=    0.000
 RMSDP=2.70D-09 MaxDP=2.02D-08 DE=-1.99D-13 OVMax= 3.86D-08

 SCF Done:  E(RB-P86) =  -93.3419435712     A.U. after   13 cycles
            NFock= 13  Conv=0.27D-08     -V/T= 2.0063
 KE= 9.275318791396D+01 PE=-2.655488601768D+02 EE= 5.540857722329D+01
 Leave Link  502 at Wed Oct  7 14:08:18 2020, MaxMem=  2684354560 cpu:              13.1 elap:               1.7
 (Enter /udrive/faculty/rpeverati/g16/g16/l508.exe)
 QCSCF skips out because SCF is already converged.
 Leave Link  508 at Wed Oct  7 14:08:19 2020, MaxMem=  2684354560 cpu:               0.3 elap:               0.4
 (Enter /udrive/faculty/rpeverati/g16/g16/l601.exe)
 Copying SCF densities to generalized density rwf, IOpCl= 0 IROHF=0.

 **********************************************************************

            Population analysis using the SCF density.

 **********************************************************************

 Orbital symmetries:
       Occupied  (A') (A') (A') (A') (A') (A") (A')
       Virtual   (A') (A") (A') (A') (A") (A') (A') (A') (A') (A")
                 (A') (A') (A') (A") (A') (A") (A') (A") (A') (A')
                 (A') (A") (A')
 The electronic state is 1-A'.
 Alpha  occ. eigenvalues --  -14.08594  -9.96986  -0.90647  -0.48102  -0.40000
 Alpha  occ. eigenvalues --   -0.34409  -0.28911
 Alpha virt. eigenvalues --   -0.09810  -0.02858   0.03497   0.28818   0.48438
 Alpha virt. eigenvalues --    0.49060   0.52967   0.62184   0.66077   0.69060
 Alpha virt. eigenvalues --    0.72263   0.78715   1.20557   1.40122   1.42098
 Alpha virt. eigenvalues --    1.44025   1.70262   1.81466   1.89895   2.24411
 Alpha virt. eigenvalues --    2.42778   2.44721   2.74278
          Condensed to atoms (all electrons):
               1          2          3
     1  C    5.411758   0.416092   0.227262
     2  N    0.416092   6.749127   0.041335
     3  H    0.227262   0.041335   0.469737
 Mulliken charges:
               1
     1  C   -0.055112
     2  N   -0.206554
     3  H    0.261666
 Sum of Mulliken charges =   0.00000
 Mulliken charges with hydrogens summed into heavy atoms:
               1
     1  C    0.206554
     2  N   -0.206554
 Electronic spatial extent (au):  <R**2>=             46.9234
 Charge=              0.0000 electrons
 Dipole moment (field-independent basis, Debye):
    X=             -1.2268    Y=              0.1638    Z=              0.0000  Tot=              1.2377
 Quadrupole moment (field-independent basis, Debye-Ang):
   XX=             -9.4821   YY=            -13.9765   ZZ=            -11.7645
   XY=             -0.2688   XZ=              0.0000   YZ=              0.0000
 Traceless Quadrupole moment (field-independent basis, Debye-Ang):
   XX=              2.2589   YY=             -2.2355   ZZ=             -0.0235
   XY=             -0.2688   XZ=              0.0000   YZ=              0.0000
 Octapole moment (field-independent basis, Debye-Ang**2):
  XXX=             -2.0629  YYY=             -2.6002  ZZZ=              0.0000  XYY=             -0.1330
  XXY=             -0.4204  XXZ=              0.0000  XZZ=             -0.2048  YZZ=             -0.5521
  YYZ=              0.0000  XYZ=              0.0000
 Hexadecapole moment (field-independent basis, Debye-Ang**3):
 XXXX=            -12.0863 YYYY=            -40.4600 ZZZZ=            -10.7975 XXXY=              0.0078
 XXXZ=              0.0000 YYYX=              0.5105 YYYZ=              0.0000 ZZZX=              0.0000
 ZZZY=              0.0000 XXYY=             -8.5157 XXZZ=             -4.1831 YYZZ=             -8.0754
 XXYZ=              0.0000 YYXZ=              0.0000 ZZXY=              0.1556
 N-N= 2.404515146833D+01 E-N=-2.655488599581D+02  KE= 9.275318791396D+01
 No NMR shielding tensors so no spin-rotation constants.
 Leave Link  601 at Wed Oct  7 14:08:20 2020, MaxMem=  2684354560 cpu:               3.2 elap:               0.7
 (Enter /udrive/faculty/rpeverati/g16/g16/l701.exe)
 ... and contract with generalized density number  0.
 Compute integral first derivatives.
 R6Disp: Adding Grimme-D3(BJ) dispersion energy 1st derivatives to the gradient.
 Leave Link  701 at Wed Oct  7 14:08:21 2020, MaxMem=  2684354560 cpu:               3.9 elap:               0.8
 (Enter /udrive/faculty/rpeverati/g16/g16/l702.exe)
 L702 exits ... SP integral derivatives will be done elsewhere.
 Leave Link  702 at Wed Oct  7 14:08:22 2020, MaxMem=  2684354560 cpu:               1.7 elap:               0.5
 (Enter /udrive/faculty/rpeverati/g16/g16/l703.exe)
 Integral derivatives from FoFJK, PRISM(SPDF).
 Compute integral first derivatives, UseDBF=F ICtDFT=           0.
 Calling FoFJK, ICntrl=      2527 FMM=F ISym2X=1 I1Cent= 0 IOpClX= 0 NMat=1 NMatS=1 NMatT=0.
 FoFJK:  IHMeth= 1 ICntrl=    2527 DoSepK=F KAlg= 0 I1Cent=           0 FoldK=F
 IRaf=         0 NMat=       1 IRICut=       1 DoRegI=T DoRafI=F ISym2E= 1 IDoP0=0 IntGTp=1.
 FoFCou: FMM=F IPFlag=           0 FMFlag=      100000 FMFlg1=         800
         NFxFlg=           0 DoJE=F BraDBF=F KetDBF=F FulRan=T
         wScrn=  0.000000 ICntrl=      2527 IOpCl=  0 I1Cent=           0 NGrid=           0
         NMat0=    1 NMatS0=      1 NMatT0=    0 NMatD0=    1 NMtDS0=    0 NMtDT0=    0
 Petite list used in FoFCou.
 Leave Link  703 at Wed Oct  7 14:08:23 2020, MaxMem=  2684354560 cpu:               5.8 elap:               0.9
 (Enter /udrive/faculty/rpeverati/g16/g16/l716.exe)
 Dipole        =-4.82649631D-01 6.44348545D-02 0.00000000D+00
 ***** Axes restored to original set *****
 -------------------------------------------------------------------
 Center     Atomic                   Forces (Hartrees/Bohr)
 Number     Number              X              Y              Z
 -------------------------------------------------------------------
      1        6          -0.000243369    0.025689910   -0.000000000
      2        7           0.006490253   -0.030520547   -0.000000000
      3        1          -0.006246884    0.004830636   -0.000000000
 -------------------------------------------------------------------
 Cartesian Forces:  Max     0.030520547 RMS     0.013727574
 Leave Link  716 at Wed Oct  7 14:08:24 2020, MaxMem=  2684354560 cpu:               2.3 elap:               0.7
 (Enter /udrive/faculty/rpeverati/g16/g16/l103.exe)

 GradGradGradGradGradGradGradGradGradGradGradGradGradGradGradGradGradGrad
 Berny optimization.
 Optmz: redundant internal coordinate code flag= 1
 FormGI is forming the generalized inverse of G from B-inverse, IUseBI=4.
 Internal  Forces:  Max     0.030520511 RMS     0.019695452
 Search for a saddle point.
 Step number   1 out of a maximum of   50
 All quantities printed in internal units (Hartrees-Bohrs-Radians)
 Swapping is turned off.
 Second derivative matrix not updated -- first step.
 The second derivative matrix:
                          R1        R2        A1
           R1           1.10901
           R2           0.00000   0.26007
           A1           0.00000   0.00000   0.16000
 ITU=  0
 Eigenvectors of the second derivative matrix:
                           1         2         3
     Eigenvalues --     0.16000   0.26007   1.10901
   1         R1         0.00000   0.00000   1.00000
   2         R2         0.00000  -1.00000  -0.00000
   3         A1        -1.00000  -0.00000   0.00000
 Eigenvalue     1 is   1.60D-01 should be less than     0.000000 Eigenvector:
                          A1        R2        R1
   1                   -1.00000   0.00000   0.00000
 RLam0= 1.61D-01.
 Iter=   1 RLamda= 0.00000000D+00 Sum=-9.16072881D-04.
 Iter=   2 RLamda=-9.16072881D-04 Sum=-9.15112410D-04.
 Iter=   3 RLamda=-9.15112410D-04 Sum=-9.15113416D-04.
 RFO step:  Lambda0=1.613168614D-01 Lambda=-9.15112410D-04.
 Linear search not attempted -- option 19 set.
 Iteration  1 RMS(Cart)=  0.02298227 RMS(Int)=  0.00030060
 Iteration  2 RMS(Cart)=  0.00039300 RMS(Int)=  0.00000004
 Iteration  3 RMS(Cart)=  0.00000003 RMS(Int)=  0.00000000
 ITry= 1 IFail=0 DXMaxC= 2.34D-02 DCOld= 1.00D+10 DXMaxT= 1.00D-01 DXLimC= 3.00D+00 Rises=F
 ClnCor:  largest displacement from symmetrization is 1.37D-15 for atom     3.
 Variable       Old X    -DE/DX   Delta X   Delta X   Delta X     New X
                                 (Linear)    (Quad)   (Total)
    R1        2.24566   0.03052   0.00000   0.02750   0.02750   2.27316
    R2        2.23415   0.00445   0.00000   0.01705   0.01705   2.25120
    A1        1.25682   0.01458   0.00000  -0.03235  -0.03235   1.22446
         Item               Value     Threshold  Converged?
 Maximum Force            0.030521     0.000450     NO 
 RMS     Force            0.019695     0.000300     NO 
 Maximum Displacement     0.023371     0.001800     NO 
 RMS     Displacement     0.023220     0.001200     NO 
 Predicted change in Energy= 9.727975D-05
 Lowest energy point so far.  Saving SCF results.
 Largest change from initial coordinates is atom    1       0.011 Angstoms.
 GradGradGradGradGradGradGradGradGradGradGradGradGradGradGradGradGradGrad

 Leave Link  103 at Wed Oct  7 14:08:25 2020, MaxMem=  2684354560 cpu:               2.5 elap:               0.6
 (Enter /udrive/faculty/rpeverati/g16/g16/l202.exe)
                          Input orientation:                          
 ---------------------------------------------------------------------
 Center     Atomic      Atomic             Coordinates (Angstroms)
 Number     Number       Type             X           Y           Z
 ---------------------------------------------------------------------
      1          6           0        0.086873    0.632627    0.000000
      2          7           0        0.069138   -0.570146    0.000000
      3          1           0       -1.039519    0.244807    0.000000
 ---------------------------------------------------------------------
                    Distance matrix (angstroms):
                    1          2          3
     1  C    0.000000
     2  N    1.202903   0.000000
     3  H    1.191286   1.375960   0.000000
 Stoichiometry    CHN
 Framework group  CS[SG(CHN)]
 Deg. of freedom     3
 Full point group                 CS      NOp   2
 RotChk:  IX=0 Diff= 2.09D-02
 Largest Abelian subgroup         CS      NOp   2
 Largest concise Abelian subgroup C1      NOp   1
                         Standard orientation:                         
 ---------------------------------------------------------------------
 Center     Atomic      Atomic             Coordinates (Angstroms)
 Number     Number       Type             X           Y           Z
 ---------------------------------------------------------------------
      1          6           0        0.080039    0.630336    0.000000
      2          7           0        0.080039   -0.572567    0.000000
      3          1           0       -1.040512    0.225951    0.000000
 ---------------------------------------------------------------------
 Rotational constants (GHZ):         417.7712054          53.6685996          47.5589785
 Leave Link  202 at Wed Oct  7 14:08:26 2020, MaxMem=  2684354560 cpu:               1.5 elap:               0.5
 (Enter /udrive/faculty/rpeverati/g16/g16/l301.exe)
 Standard basis: 6-31G(d) (5D, 7F)
 Ernie: Thresh=  0.10000D-02 Tol=  0.10000D-05 Strict=F.
 There are    24 symmetry adapted cartesian basis functions of A'  symmetry.
 There are     8 symmetry adapted cartesian basis functions of A"  symmetry.
 There are    22 symmetry adapted basis functions of A'  symmetry.
 There are     8 symmetry adapted basis functions of A"  symmetry.
    30 basis functions,    60 primitive gaussians,    32 cartesian basis functions
     7 alpha electrons        7 beta electrons
       nuclear repulsion energy        23.8338523090 Hartrees.
 IExCor=  404 DFT=T Ex=B Corr=P86 ExCW=0 ScaHFX=  0.000000
 ScaDFX=  1.000000  1.000000  1.000000  1.000000 ScalE2=  1.000000  1.000000
 IRadAn=      5 IRanWt=     -1 IRanGd=            0 ICorTp=0 IEmpDi=141
 NAtoms=    3 NActive=    3 NUniq=    3 SFac= 1.00D+00 NAtFMM=   60 NAOKFM=F Big=F
 Integral buffers will be    131072 words long.
 Raffenetti 2 integral format.
 Two-electron integral symmetry is turned on.
 R6Disp:  Grimme-D3(BJ) Dispersion energy=       -0.0012142025 Hartrees.
 Nuclear repulsion after empirical dispersion term =       23.8326381065 Hartrees.
 Leave Link  301 at Wed Oct  7 14:08:27 2020, MaxMem=  2684354560 cpu:               1.9 elap:               0.6
 (Enter /udrive/faculty/rpeverati/g16/g16/l302.exe)
 NPDir=0 NMtPBC=     1 NCelOv=     1 NCel=       1 NClECP=     1 NCelD=      1
         NCelK=      1 NCelE2=     1 NClLst=     1 CellRange=     0.0.
 One-electron integrals computed using PRISM.
 One-electron integral symmetry used in STVInt
 NBasis=    30 RedAO= T EigKep=  8.30D-03  NBF=    22     8
 NBsUse=    30 1.00D-06 EigRej= -1.00D+00 NBFU=    22     8
 Precomputing XC quadrature grid using
 IXCGrd= 4 IRadAn=           5 IRanWt=          -1 IRanGd=           0 AccXCQ= 0.00D+00.
 Generated NRdTot=       0 NPtTot=           0 NUsed=           0 NTot=          32
 NSgBfM=    32    32    32    32    32 MxSgAt=     3 MxSgA2=     3.
 Leave Link  302 at Wed Oct  7 14:08:28 2020, MaxMem=  2684354560 cpu:               3.9 elap:               0.7
 (Enter /udrive/faculty/rpeverati/g16/g16/l303.exe)
 DipDrv:  MaxL=1.
 Leave Link  303 at Wed Oct  7 14:08:28 2020, MaxMem=  2684354560 cpu:               1.7 elap:               0.6
 (Enter /udrive/faculty/rpeverati/g16/g16/l401.exe)
 Initial guess from the checkpoint file:  "MN_49_hcnts_BH76_BP86DBJ_631Gs.chk"
 SCF N**3 symmetry information disabled.
 B after Tr=     0.000000    0.000000    0.000000
         Rot=    0.999996   -0.000000    0.000000   -0.002718 Ang=  -0.31 deg.
 Guess basis will be translated and rotated to current coordinates.
 JPrj=2 DoOrth=T DoCkMO=T.
 Initial guess orbital symmetries:
       Occupied  (A') (A') (A') (A') (A') (A") (A')
       Virtual   (A') (A") (A') (A') (A") (A') (A') (A') (A') (A")
                 (A') (A') (A') (A") (A') (A") (A') (A") (A') (A')
                 (A') (A") (A')
 The electronic state of the initial guess is 1-A'.
 Generating alternative initial guess.
 ExpMin= 1.61D-01 ExpMax= 4.17D+03 ExpMxC= 6.27D+02 IAcc=2 IRadAn=         4 AccDes= 0.00D+00
 Harris functional with IExCor=  404 and IRadAn=       4 diagonalized for initial guess.
 HarFok:  IExCor=  404 AccDes= 0.00D+00 IRadAn=         4 IDoV= 1 UseB2=F ITyADJ=14
 ICtDFT=  3500011 ScaDFX=  1.000000  1.000000  1.000000  1.000000
 FoFCou: FMM=F IPFlag=           0 FMFlag=      100000 FMFlg1=           0
         NFxFlg=           0 DoJE=T BraDBF=F KetDBF=T FulRan=T
         wScrn=  0.000000 ICntrl=       500 IOpCl=  0 I1Cent=   200000004 NGrid=           0
         NMat0=    1 NMatS0=      1 NMatT0=    0 NMatD0=    1 NMtDS0=    0 NMtDT0=    0
 Petite list used in FoFCou.
 Harris En= -93.3489598688517    
 Leave Link  401 at Wed Oct  7 14:08:30 2020, MaxMem=  2684354560 cpu:               7.6 elap:               1.2
 (Enter /udrive/faculty/rpeverati/g16/g16/l502.exe)
 Keep J ints in memory in symmetry-blocked form, NReq=10459184.
 FoFCou: FMM=F IPFlag=           0 FMFlag=           0 FMFlg1=           0
         NFxFlg=           0 DoJE=F BraDBF=F KetDBF=F FulRan=T
         wScrn=  0.000000 ICntrl=       600 IOpCl=  0 I1Cent=           0 NGrid=           0
         NMat0=    1 NMatS0=    465 NMatT0=    0 NMatD0=    1 NMtDS0=    0 NMtDT0=    0
 Petite list used in FoFCou.
 Closed shell SCF:
 Using DIIS extrapolation, IDIIS=  1040.
 NGot=  2684354560 LenX=  2684292770 LenY=  2684291305
 Requested convergence on RMS density matrix=1.00D-08 within 120 cycles.
 Requested convergence on MAX density matrix=1.00D-06.
 Requested convergence on             energy=1.00D-06.
 No special actions if energy rises.
 Integral accuracy reduced to 1.0D-05 until final iterations.

 Cycle   1  Pass 0  IDiag  1:
 E= -93.3418105145631    
 DIIS: error= 1.54D-03 at cycle   1 NSaved=   1.
 NSaved= 1 IEnMin= 1 EnMin= -93.3418105145631     IErMin= 1 ErrMin= 1.54D-03
 ErrMax= 1.54D-03  0.00D+00 EMaxC= 1.00D-01 BMatC= 1.57D-04 BMatP= 1.57D-04
 IDIUse=3 WtCom= 9.85D-01 WtEn= 1.54D-02
 Coeff-Com:  0.100D+01
 Coeff-En:   0.100D+01
 Coeff:      0.100D+01
 Gap=     0.190 Goal=   None    Shift=    0.000
 GapD=    0.190 DampG=1.000 DampE=1.000 DampFc=1.0000 IDamp=-1.
 RMSDP=1.06D-03 MaxDP=1.21D-02              OVMax= 1.58D-02

 Cycle   2  Pass 0  IDiag  1:
 E= -93.3420810035003     Delta-E=       -0.000270488937 Rises=F Damp=F
 DIIS: error= 1.16D-03 at cycle   2 NSaved=   2.
 NSaved= 2 IEnMin= 2 EnMin= -93.3420810035003     IErMin= 2 ErrMin= 1.16D-03
 ErrMax= 1.16D-03  0.00D+00 EMaxC= 1.00D-01 BMatC= 4.55D-05 BMatP= 1.57D-04
 IDIUse=3 WtCom= 9.88D-01 WtEn= 1.16D-02
 Coeff-Com:  0.300D+00 0.700D+00
 Coeff-En:   0.000D+00 0.100D+01
 Coeff:      0.297D+00 0.703D+00
 Gap=     0.191 Goal=   None    Shift=    0.000
 RMSDP=3.34D-04 MaxDP=3.16D-03 DE=-2.70D-04 OVMax= 5.47D-03

 Cycle   3  Pass 0  IDiag  1:
 E= -93.3420628794681     Delta-E=        0.000018124032 Rises=F Damp=F
 DIIS: error= 2.04D-03 at cycle   3 NSaved=   3.
 NSaved= 3 IEnMin= 2 EnMin= -93.3420810035003     IErMin= 2 ErrMin= 1.16D-03
 ErrMax= 2.04D-03  0.00D+00 EMaxC= 1.00D-01 BMatC= 6.79D-05 BMatP= 4.55D-05
 IDIUse=3 WtCom= 1.81D-01 WtEn= 8.19D-01
 Coeff-Com:  0.113D+00 0.531D+00 0.356D+00
 Coeff-En:   0.000D+00 0.572D+00 0.428D+00
 Coeff:      0.204D-01 0.565D+00 0.415D+00
 Gap=     0.190 Goal=   None    Shift=    0.000
 RMSDP=2.93D-04 MaxDP=2.63D-03 DE= 1.81D-05 OVMax= 4.51D-03

 Cycle   4  Pass 0  IDiag  1:
 E= -93.3421072360789     Delta-E=       -0.000044356611 Rises=F Damp=F
 DIIS: error= 9.32D-04 at cycle   4 NSaved=   4.
 NSaved= 4 IEnMin= 4 EnMin= -93.3421072360789     IErMin= 4 ErrMin= 9.32D-04
 ErrMax= 9.32D-04  0.00D+00 EMaxC= 1.00D-01 BMatC= 2.03D-05 BMatP= 4.55D-05
 IDIUse=3 WtCom= 9.91D-01 WtEn= 9.32D-03
 Coeff-Com:  0.115D-02 0.225D+00 0.335D+00 0.438D+00
 Coeff-En:   0.000D+00 0.000D+00 0.298D+00 0.702D+00
 Coeff:      0.114D-02 0.223D+00 0.335D+00 0.441D+00
 Gap=     0.190 Goal=   None    Shift=    0.000
 RMSDP=1.22D-04 MaxDP=1.00D-03 DE=-4.44D-05 OVMax= 1.84D-03

 Cycle   5  Pass 0  IDiag  1:
 E= -93.3421270548106     Delta-E=       -0.000019818732 Rises=F Damp=F
 DIIS: error= 3.66D-05 at cycle   5 NSaved=   5.
 NSaved= 5 IEnMin= 5 EnMin= -93.3421270548106     IErMin= 5 ErrMin= 3.66D-05
 ErrMax= 3.66D-05  0.00D+00 EMaxC= 1.00D-01 BMatC= 4.33D-08 BMatP= 2.03D-05
 IDIUse=1 WtCom= 1.00D+00 WtEn= 0.00D+00
 Coeff-Com:  0.107D-02 0.815D-01 0.132D+00 0.172D+00 0.613D+00
 Coeff:      0.107D-02 0.815D-01 0.132D+00 0.172D+00 0.613D+00
 Gap=     0.190 Goal=   None    Shift=    0.000
 RMSDP=1.20D-05 MaxDP=1.05D-04 DE=-1.98D-05 OVMax= 1.66D-04

 Cycle   6  Pass 0  IDiag  1:
 E= -93.3421270657779     Delta-E=       -0.000000010967 Rises=F Damp=F
 DIIS: error= 8.06D-06 at cycle   6 NSaved=   6.
 NSaved= 6 IEnMin= 6 EnMin= -93.3421270657779     IErMin= 6 ErrMin= 8.06D-06
 ErrMax= 8.06D-06  0.00D+00 EMaxC= 1.00D-01 BMatC= 2.06D-09 BMatP= 4.33D-08
 IDIUse=1 WtCom= 1.00D+00 WtEn= 0.00D+00
 Coeff-Com:  0.151D-03 0.214D-01 0.364D-01 0.480D-01 0.251D+00 0.643D+00
 Coeff:      0.151D-03 0.214D-01 0.364D-01 0.480D-01 0.251D+00 0.643D+00
 Gap=     0.190 Goal=   None    Shift=    0.000
 RMSDP=2.21D-06 MaxDP=1.73D-05 DE=-1.10D-08 OVMax= 2.66D-05

 Initial convergence to 1.0D-05 achieved.  Increase integral accuracy.
 Cycle   7  Pass 1  IDiag  1:
 E= -93.3421255706206     Delta-E=        0.000001495157 Rises=F Damp=F
 DIIS: error= 2.16D-06 at cycle   1 NSaved=   1.
 NSaved= 1 IEnMin= 1 EnMin= -93.3421255706206     IErMin= 1 ErrMin= 2.16D-06
 ErrMax= 2.16D-06  0.00D+00 EMaxC= 1.00D-01 BMatC= 1.23D-10 BMatP= 1.23D-10
 IDIUse=1 WtCom= 1.00D+00 WtEn= 0.00D+00
 Coeff-Com:  0.100D+01
 Coeff:      0.100D+01
 Gap=     0.190 Goal=   None    Shift=    0.000
 RMSDP=2.21D-06 MaxDP=1.73D-05 DE= 1.50D-06 OVMax= 1.14D-05

 Cycle   8  Pass 1  IDiag  1:
 E= -93.3421255705500     Delta-E=        0.000000000071 Rises=F Damp=F
 DIIS: error= 2.54D-06 at cycle   2 NSaved=   2.
 NSaved= 2 IEnMin= 1 EnMin= -93.3421255706206     IErMin= 1 ErrMin= 2.16D-06
 ErrMax= 2.54D-06  0.00D+00 EMaxC= 1.00D-01 BMatC= 2.00D-10 BMatP= 1.23D-10
 IDIUse=1 WtCom= 1.00D+00 WtEn= 0.00D+00
 Coeff-Com:  0.565D+00 0.435D+00
 Coeff:      0.565D+00 0.435D+00
 Gap=     0.190 Goal=   None    Shift=    0.000
 RMSDP=5.05D-07 MaxDP=4.29D-06 DE= 7.06D-11 OVMax= 7.72D-06

 Cycle   9  Pass 1  IDiag  1:
 E= -93.3421255706757     Delta-E=       -0.000000000126 Rises=F Damp=F
 DIIS: error= 2.29D-06 at cycle   3 NSaved=   3.
 NSaved= 3 IEnMin= 3 EnMin= -93.3421255706757     IErMin= 1 ErrMin= 2.16D-06
 ErrMax= 2.29D-06  0.00D+00 EMaxC= 1.00D-01 BMatC= 9.17D-11 BMatP= 1.23D-10
 IDIUse=1 WtCom= 1.00D+00 WtEn= 0.00D+00
 Coeff-Com:  0.355D+00 0.359D+00 0.285D+00
 Coeff:      0.355D+00 0.359D+00 0.285D+00
 Gap=     0.190 Goal=   None    Shift=    0.000
 RMSDP=2.29D-07 MaxDP=2.13D-06 DE=-1.26D-10 OVMax= 3.57D-06

 Cycle  10  Pass 1  IDiag  1:
 E= -93.3421255707595     Delta-E=       -0.000000000084 Rises=F Damp=F
 DIIS: error= 1.00D-07 at cycle   4 NSaved=   4.
 NSaved= 4 IEnMin= 4 EnMin= -93.3421255707595     IErMin= 4 ErrMin= 1.00D-07
 ErrMax= 1.00D-07  0.00D+00 EMaxC= 1.00D-01 BMatC= 4.76D-13 BMatP= 9.17D-11
 IDIUse=1 WtCom= 1.00D+00 WtEn= 0.00D+00
 Coeff-Com:  0.131D+00 0.146D+00 0.131D+00 0.592D+00
 Coeff:      0.131D+00 0.146D+00 0.131D+00 0.592D+00
 Gap=     0.190 Goal=   None    Shift=    0.000
 RMSDP=3.86D-08 MaxDP=3.31D-07 DE=-8.38D-11 OVMax= 5.33D-07

 Cycle  11  Pass 1  IDiag  1:
 E= -93.3421255707605     Delta-E=       -0.000000000001 Rises=F Damp=F
 DIIS: error= 3.68D-08 at cycle   5 NSaved=   5.
 NSaved= 5 IEnMin= 5 EnMin= -93.3421255707605     IErMin= 5 ErrMin= 3.68D-08
 ErrMax= 3.68D-08  0.00D+00 EMaxC= 1.00D-01 BMatC= 2.88D-14 BMatP= 4.76D-13
 IDIUse=1 WtCom= 1.00D+00 WtEn= 0.00D+00
 Coeff-Com:  0.867D-02 0.158D-01 0.780D-02 0.174D+00 0.794D+00
 Coeff:      0.867D-02 0.158D-01 0.780D-02 0.174D+00 0.794D+00
 Gap=     0.190 Goal=   None    Shift=    0.000
 RMSDP=6.46D-09 MaxDP=4.59D-08 DE=-9.95D-13 OVMax= 8.67D-08

 SCF Done:  E(RB-P86) =  -93.3421255708     A.U. after   11 cycles
            NFock= 11  Conv=0.65D-08     -V/T= 2.0069
 KE= 9.269889584580D+01 PE=-2.650712342760D+02 EE= 5.519757475291D+01
 Leave Link  502 at Wed Oct  7 14:08:32 2020, MaxMem=  2684354560 cpu:              12.2 elap:               1.5
 (Enter /udrive/faculty/rpeverati/g16/g16/l508.exe)
 QCSCF skips out because SCF is already converged.
 Leave Link  508 at Wed Oct  7 14:08:32 2020, MaxMem=  2684354560 cpu:               0.5 elap:               0.5
 (Enter /udrive/faculty/rpeverati/g16/g16/l701.exe)
 ... and contract with generalized density number  0.
 Compute integral first derivatives.
 R6Disp: Adding Grimme-D3(BJ) dispersion energy 1st derivatives to the gradient.
 Leave Link  701 at Wed Oct  7 14:08:34 2020, MaxMem=  2684354560 cpu:               4.3 elap:               0.8
 (Enter /udrive/faculty/rpeverati/g16/g16/l702.exe)
 L702 exits ... SP integral derivatives will be done elsewhere.
 Leave Link  702 at Wed Oct  7 14:08:35 2020, MaxMem=  2684354560 cpu:               2.1 elap:               0.7
 (Enter /udrive/faculty/rpeverati/g16/g16/l703.exe)
 Integral derivatives from FoFJK, PRISM(SPDF).
 Compute integral first derivatives, UseDBF=F ICtDFT=           0.
 Calling FoFJK, ICntrl=      2527 FMM=F ISym2X=1 I1Cent= 0 IOpClX= 0 NMat=1 NMatS=1 NMatT=0.
 FoFJK:  IHMeth= 1 ICntrl=    2527 DoSepK=F KAlg= 0 I1Cent=           0 FoldK=F
 IRaf=         0 NMat=       1 IRICut=       1 DoRegI=T DoRafI=F ISym2E= 1 IDoP0=0 IntGTp=1.
 FoFCou: FMM=F IPFlag=           0 FMFlag=      100000 FMFlg1=         800
         NFxFlg=           0 DoJE=F BraDBF=F KetDBF=F FulRan=T
         wScrn=  0.000000 ICntrl=      2527 IOpCl=  0 I1Cent=           0 NGrid=           0
         NMat0=    1 NMatS0=      1 NMatT0=    0 NMatD0=    1 NMtDS0=    0 NMtDT0=    0
 Petite list used in FoFCou.
 Leave Link  703 at Wed Oct  7 14:08:36 2020, MaxMem=  2684354560 cpu:               5.4 elap:               0.9
 (Enter /udrive/faculty/rpeverati/g16/g16/l716.exe)
 Dipole        =-4.76401844D-01 4.70280195D-02 0.00000000D+00
 ***** Axes restored to original set *****
 -------------------------------------------------------------------
 Center     Atomic                   Forces (Hartrees/Bohr)
 Number     Number              X              Y              Z
 -------------------------------------------------------------------
      1        6           0.002457339    0.001657951   -0.000000000
      2        7           0.003169755   -0.003155122   -0.000000000
      3        1          -0.005627094    0.001497170   -0.000000000
 -------------------------------------------------------------------
 Cartesian Forces:  Max     0.005627094 RMS     0.002639342
 Leave Link  716 at Wed Oct  7 14:08:36 2020, MaxMem=  2684354560 cpu:               1.7 elap:               0.6
 (Enter /udrive/faculty/rpeverati/g16/g16/l103.exe)

 GradGradGradGradGradGradGradGradGradGradGradGradGradGradGradGradGradGrad
 Berny optimization.
 Optmz: redundant internal coordinate code flag= 1
 Red2BG:  D1=  4.65D-01 OD1=  2.65D-02 B2RMS=  0.00D+00 IAprox=0
 FormGI is forming the generalized inverse of G from B-inverse, IUseBI=4.
 Internal  Forces:  Max     0.007310549 RMS     0.005368542
 Search for a saddle point.
 Step number   2 out of a maximum of   50
 All quantities printed in internal units (Hartrees-Bohrs-Radians)
 Swapping is turned off.
 Update second derivatives using D2CorX and points    1    2
 The second derivative matrix:
                          R1        R2        A1
           R1           1.09822
           R2          -0.02632   0.21932
           A1           0.07224   0.10506  -0.10777
 ITU=  0  0
 Eigenvectors of the second derivative matrix:
                           1         2         3
     Eigenvalues --    -0.14335   0.25012   1.10299
   1         R1         0.06169  -0.00569   0.99808
   2         R2         0.28184  -0.95919  -0.02289
   3         A1        -0.95748  -0.28271   0.05757
 RLam0= 2.07D-04.
 Iter=   1 RLamda= 0.00000000D+00 Sum=-1.91121605D-04.
 Iter=   2 RLamda=-1.91121605D-04 Sum=-1.90981910D-04.
 Iter=   3 RLamda=-1.90981910D-04 Sum=-1.90982012D-04.
 RFO step:  Lambda0=2.065892659D-04 Lambda=-1.90981910D-04.
 Linear search not attempted -- option 19 set.
 Iteration  1 RMS(Cart)=  0.02274517 RMS(Int)=  0.00025533
 Iteration  2 RMS(Cart)=  0.00029358 RMS(Int)=  0.00000002
 Iteration  3 RMS(Cart)=  0.00000002 RMS(Int)=  0.00000000
 ITry= 1 IFail=0 DXMaxC= 2.26D-02 DCOld= 1.00D+10 DXMaxT= 1.00D-01 DXLimC= 3.00D+00 Rises=F
 ClnCor:  largest displacement from symmetrization is 1.14D-15 for atom     3.
 Variable       Old X    -DE/DX   Delta X   Delta X   Delta X     New X
                                 (Linear)    (Quad)   (Total)
    R1        2.27316   0.00311   0.00000   0.00558   0.00558   2.27874
    R2        2.25120   0.00483   0.00000   0.03637   0.03637   2.28758
    A1        1.22446   0.00731   0.00000  -0.02855  -0.02855   1.19591
         Item               Value     Threshold  Converged?
 Maximum Force            0.007311     0.000450     NO 
 RMS     Force            0.005369     0.000300     NO 
 Maximum Displacement     0.022584     0.001800     NO 
 RMS     Displacement     0.022907     0.001200     NO 
 Predicted change in Energy= 7.882537D-06
 Lowest energy point so far.  Saving SCF results.
 Largest change from initial coordinates is atom    3       0.041 Angstoms.
 GradGradGradGradGradGradGradGradGradGradGradGradGradGradGradGradGradGrad

 Leave Link  103 at Wed Oct  7 14:08:37 2020, MaxMem=  2684354560 cpu:               1.7 elap:               0.6
 (Enter /udrive/faculty/rpeverati/g16/g16/l202.exe)
                          Input orientation:                          
 ---------------------------------------------------------------------
 Center     Atomic      Atomic             Coordinates (Angstroms)
 Number     Number       Type             X           Y           Z
 ---------------------------------------------------------------------
      1          6           0        0.098824    0.639514    0.000000
      2          7           0        0.059246   -0.565692    0.000000
      3          1           0       -1.041578    0.233465    0.000000
 ---------------------------------------------------------------------
                    Distance matrix (angstroms):
                    1          2          3
     1  C    0.000000
     2  N    1.205856   0.000000
     3  H    1.210534   1.360318   0.000000
 Stoichiometry    CHN
 Framework group  CS[SG(CHN)]
 Deg. of freedom     3
 Full point group                 CS      NOp   2
 RotChk:  IX=0 Diff= 2.56D-02
 Largest Abelian subgroup         CS      NOp   2
 Largest concise Abelian subgroup C1      NOp   1
                         Standard orientation:                         
 ---------------------------------------------------------------------
 Center     Atomic      Atomic             Coordinates (Angstroms)
 Number     Number       Type             X           Y           Z
 ---------------------------------------------------------------------
      1          6           0        0.080461    0.634590    0.000000
      2          7           0        0.080461   -0.571267    0.000000
      3          1           0       -1.045999    0.191329    0.000000
 ---------------------------------------------------------------------
 Rotational constants (GHZ):         412.5721806          53.5132272          47.3691484
 Leave Link  202 at Wed Oct  7 14:08:38 2020, MaxMem=  2684354560 cpu:               1.4 elap:               0.5
 (Enter /udrive/faculty/rpeverati/g16/g16/l301.exe)
 Standard basis: 6-31G(d) (5D, 7F)
 Ernie: Thresh=  0.10000D-02 Tol=  0.10000D-05 Strict=F.
 There are    24 symmetry adapted cartesian basis functions of A'  symmetry.
 There are     8 symmetry adapted cartesian basis functions of A"  symmetry.
 There are    22 symmetry adapted basis functions of A'  symmetry.
 There are     8 symmetry adapted basis functions of A"  symmetry.
    30 basis functions,    60 primitive gaussians,    32 cartesian basis functions
     7 alpha electrons        7 beta electrons
       nuclear repulsion energy        23.7771865198 Hartrees.
 IExCor=  404 DFT=T Ex=B Corr=P86 ExCW=0 ScaHFX=  0.000000
 ScaDFX=  1.000000  1.000000  1.000000  1.000000 ScalE2=  1.000000  1.000000
 IRadAn=      5 IRanWt=     -1 IRanGd=            0 ICorTp=0 IEmpDi=141
 NAtoms=    3 NActive=    3 NUniq=    3 SFac= 1.00D+00 NAtFMM=   60 NAOKFM=F Big=F
 Integral buffers will be    131072 words long.
 Raffenetti 2 integral format.
 Two-electron integral symmetry is turned on.
 R6Disp:  Grimme-D3(BJ) Dispersion energy=       -0.0012095222 Hartrees.
 Nuclear repulsion after empirical dispersion term =       23.7759769975 Hartrees.
 Leave Link  301 at Wed Oct  7 14:08:39 2020, MaxMem=  2684354560 cpu:               1.8 elap:               0.6
 (Enter /udrive/faculty/rpeverati/g16/g16/l302.exe)
 NPDir=0 NMtPBC=     1 NCelOv=     1 NCel=       1 NClECP=     1 NCelD=      1
         NCelK=      1 NCelE2=     1 NClLst=     1 CellRange=     0.0.
 One-electron integrals computed using PRISM.
 One-electron integral symmetry used in STVInt
 NBasis=    30 RedAO= T EigKep=  8.45D-03  NBF=    22     8
 NBsUse=    30 1.00D-06 EigRej= -1.00D+00 NBFU=    22     8
 Precomputing XC quadrature grid using
 IXCGrd= 4 IRadAn=           5 IRanWt=          -1 IRanGd=           0 AccXCQ= 0.00D+00.
 Generated NRdTot=       0 NPtTot=           0 NUsed=           0 NTot=          32
 NSgBfM=    32    32    32    32    32 MxSgAt=     3 MxSgA2=     3.
 Leave Link  302 at Wed Oct  7 14:08:40 2020, MaxMem=  2684354560 cpu:               3.9 elap:               0.8
 (Enter /udrive/faculty/rpeverati/g16/g16/l303.exe)
 DipDrv:  MaxL=1.
 Leave Link  303 at Wed Oct  7 14:08:41 2020, MaxMem=  2684354560 cpu:               1.2 elap:               0.5
 (Enter /udrive/faculty/rpeverati/g16/g16/l401.exe)
 Initial guess from the checkpoint file:  "MN_49_hcnts_BH76_BP86DBJ_631Gs.chk"
 SCF N**3 symmetry information disabled.
 B after Tr=     0.000000   -0.000000    0.000000
         Rot=    0.999994    0.000000    0.000000   -0.003398 Ang=  -0.39 deg.
 Guess basis will be translated and rotated to current coordinates.
 JPrj=2 DoOrth=T DoCkMO=T.
 Initial guess orbital symmetries:
       Occupied  (A') (A') (A') (A') (A') (A") (A')
       Virtual   (A') (A") (A') (A') (A") (A') (A') (A') (A') (A")
                 (A') (A') (A') (A") (A') (A") (A') (A") (A') (A')
                 (A') (A") (A')
 The electronic state of the initial guess is 1-A'.
 Generating alternative initial guess.
 ExpMin= 1.61D-01 ExpMax= 4.17D+03 ExpMxC= 6.27D+02 IAcc=2 IRadAn=         4 AccDes= 0.00D+00
 Harris functional with IExCor=  404 and IRadAn=       4 diagonalized for initial guess.
 HarFok:  IExCor=  404 AccDes= 0.00D+00 IRadAn=         4 IDoV= 1 UseB2=F ITyADJ=14
 ICtDFT=  3500011 ScaDFX=  1.000000  1.000000  1.000000  1.000000
 FoFCou: FMM=F IPFlag=           0 FMFlag=      100000 FMFlg1=           0
         NFxFlg=           0 DoJE=T BraDBF=F KetDBF=T FulRan=T
         wScrn=  0.000000 ICntrl=       500 IOpCl=  0 I1Cent=   200000004 NGrid=           0
         NMat0=    1 NMatS0=      1 NMatT0=    0 NMatD0=    1 NMtDS0=    0 NMtDT0=    0
 Petite list used in FoFCou.
 Harris En= -93.3487928117178    
 Leave Link  401 at Wed Oct  7 14:08:42 2020, MaxMem=  2684354560 cpu:               7.1 elap:               1.0
 (Enter /udrive/faculty/rpeverati/g16/g16/l502.exe)
 Keep J ints in memory in symmetry-blocked form, NReq=10459184.
 FoFCou: FMM=F IPFlag=           0 FMFlag=           0 FMFlg1=           0
         NFxFlg=           0 DoJE=F BraDBF=F KetDBF=F FulRan=T
         wScrn=  0.000000 ICntrl=       600 IOpCl=  0 I1Cent=           0 NGrid=           0
         NMat0=    1 NMatS0=    465 NMatT0=    0 NMatD0=    1 NMtDS0=    0 NMtDT0=    0
 Petite list used in FoFCou.
 Closed shell SCF:
 Using DIIS extrapolation, IDIIS=  1040.
 NGot=  2684354560 LenX=  2684292770 LenY=  2684291305
 Requested convergence on RMS density matrix=1.00D-08 within 120 cycles.
 Requested convergence on MAX density matrix=1.00D-06.
 Requested convergence on             energy=1.00D-06.
 No special actions if energy rises.
 Integral accuracy reduced to 1.0D-05 until final iterations.

 Cycle   1  Pass 0  IDiag  1:
 E= -93.3418813842955    
 DIIS: error= 1.48D-03 at cycle   1 NSaved=   1.
 NSaved= 1 IEnMin= 1 EnMin= -93.3418813842955     IErMin= 1 ErrMin= 1.48D-03
 ErrMax= 1.48D-03  0.00D+00 EMaxC= 1.00D-01 BMatC= 1.12D-04 BMatP= 1.12D-04
 IDIUse=3 WtCom= 9.85D-01 WtEn= 1.48D-02
 Coeff-Com:  0.100D+01
 Coeff-En:   0.100D+01
 Coeff:      0.100D+01
 Gap=     0.192 Goal=   None    Shift=    0.000
 GapD=    0.192 DampG=1.000 DampE=1.000 DampFc=1.0000 IDamp=-1.
 RMSDP=8.79D-04 MaxDP=9.45D-03              OVMax= 1.31D-02

 Cycle   2  Pass 0  IDiag  1:
 E= -93.3420339846413     Delta-E=       -0.000152600346 Rises=F Damp=F
 DIIS: error= 2.54D-03 at cycle   2 NSaved=   2.
 NSaved= 2 IEnMin= 2 EnMin= -93.3420339846413     IErMin= 1 ErrMin= 1.48D-03
 ErrMax= 2.54D-03  0.00D+00 EMaxC= 1.00D-01 BMatC= 1.22D-04 BMatP= 1.12D-04
 IDIUse=3 WtCom= 9.75D-01 WtEn= 2.54D-02
 Coeff-Com:  0.515D+00 0.485D+00
 Coeff-En:   0.619D-01 0.938D+00
 Coeff:      0.504D+00 0.496D+00
 Gap=     0.194 Goal=   None    Shift=    0.000
 RMSDP=4.62D-04 MaxDP=4.76D-03 DE=-1.53D-04 OVMax= 8.54D-03

 Cycle   3  Pass 0  IDiag  1:
 E= -93.3420204286663     Delta-E=        0.000013555975 Rises=F Damp=F
 DIIS: error= 2.84D-03 at cycle   3 NSaved=   3.
 NSaved= 3 IEnMin= 2 EnMin= -93.3420339846413     IErMin= 1 ErrMin= 1.48D-03
 ErrMax= 2.84D-03  0.00D+00 EMaxC= 1.00D-01 BMatC= 1.34D-04 BMatP= 1.12D-04
 IDIUse=3 WtCom= 1.58D-01 WtEn= 8.42D-01
 Coeff-Com:  0.105D+00 0.478D+00 0.417D+00
 Coeff-En:   0.000D+00 0.520D+00 0.480D+00
 Coeff:      0.167D-01 0.513D+00 0.470D+00
 Gap=     0.192 Goal=   None    Shift=    0.000
 RMSDP=3.51D-04 MaxDP=2.85D-03 DE= 1.36D-05 OVMax= 5.16D-03

 Cycle   4  Pass 0  IDiag  1:
 E= -93.3421419749173     Delta-E=       -0.000121546251 Rises=F Damp=F
 DIIS: error= 2.92D-04 at cycle   4 NSaved=   4.
 NSaved= 4 IEnMin= 4 EnMin= -93.3421419749173     IErMin= 4 ErrMin= 2.92D-04
 ErrMax= 2.92D-04  0.00D+00 EMaxC= 1.00D-01 BMatC= 4.07D-06 BMatP= 1.12D-04
 IDIUse=3 WtCom= 9.97D-01 WtEn= 2.92D-03
 Coeff-Com:  0.688D-02 0.199D+00 0.235D+00 0.559D+00
 Coeff-En:   0.000D+00 0.000D+00 0.874D-02 0.991D+00
 Coeff:      0.686D-02 0.198D+00 0.235D+00 0.560D+00
 Gap=     0.193 Goal=   None    Shift=    0.000
 RMSDP=9.80D-05 MaxDP=6.39D-04 DE=-1.22D-04 OVMax= 1.63D-03

 Cycle   5  Pass 0  IDiag  1:
 E= -93.3421471472198     Delta-E=       -0.000005172302 Rises=F Damp=F
 DIIS: error= 4.84D-05 at cycle   5 NSaved=   5.
 NSaved= 5 IEnMin= 5 EnMin= -93.3421471472198     IErMin= 5 ErrMin= 4.84D-05
 ErrMax= 4.84D-05  0.00D+00 EMaxC= 1.00D-01 BMatC= 5.88D-08 BMatP= 4.07D-06
 IDIUse=1 WtCom= 1.00D+00 WtEn= 0.00D+00
 Coeff-Com:  0.455D-03 0.782D-01 0.984D-01 0.250D+00 0.573D+00
 Coeff:      0.455D-03 0.782D-01 0.984D-01 0.250D+00 0.573D+00
 Gap=     0.193 Goal=   None    Shift=    0.000
 RMSDP=9.77D-06 MaxDP=7.11D-05 DE=-5.17D-06 OVMax= 1.42D-04

 Initial convergence to 1.0D-05 achieved.  Increase integral accuracy.
 Cycle   6  Pass 1  IDiag  1:
 E= -93.3421452756697     Delta-E=        0.000001871550 Rises=F Damp=F
 DIIS: error= 7.20D-06 at cycle   1 NSaved=   1.
 NSaved= 1 IEnMin= 1 EnMin= -93.3421452756697     IErMin= 1 ErrMin= 7.20D-06
 ErrMax= 7.20D-06  0.00D+00 EMaxC= 1.00D-01 BMatC= 2.03D-09 BMatP= 2.03D-09
 IDIUse=1 WtCom= 1.00D+00 WtEn= 0.00D+00
 Coeff-Com:  0.100D+01
 Coeff:      0.100D+01
 Gap=     0.193 Goal=   None    Shift=    0.000
 RMSDP=9.77D-06 MaxDP=7.11D-05 DE= 1.87D-06 OVMax= 4.24D-05

 Cycle   7  Pass 1  IDiag  1:
 E= -93.3421452477186     Delta-E=        0.000000027951 Rises=F Damp=F
 DIIS: error= 1.75D-05 at cycle   2 NSaved=   2.
 NSaved= 2 IEnMin= 1 EnMin= -93.3421452756697     IErMin= 1 ErrMin= 7.20D-06
 ErrMax= 1.75D-05  0.00D+00 EMaxC= 1.00D-01 BMatC= 6.43D-09 BMatP= 2.03D-09
 IDIUse=1 WtCom= 1.00D+00 WtEn= 0.00D+00
 Coeff-Com:  0.653D+00 0.347D+00
 Coeff:      0.653D+00 0.347D+00
 Gap=     0.193 Goal=   None    Shift=    0.000
 RMSDP=2.96D-06 MaxDP=2.03D-05 DE= 2.80D-08 OVMax= 4.04D-05

 Cycle   8  Pass 1  IDiag  1:
 E= -93.3421452767702     Delta-E=       -0.000000029052 Rises=F Damp=F
 DIIS: error= 8.42D-06 at cycle   3 NSaved=   3.
 NSaved= 3 IEnMin= 3 EnMin= -93.3421452767702     IErMin= 1 ErrMin= 7.20D-06
 ErrMax= 8.42D-06  0.00D+00 EMaxC= 1.00D-01 BMatC= 1.47D-09 BMatP= 2.03D-09
 IDIUse=1 WtCom= 1.00D+00 WtEn= 0.00D+00
 Coeff-Com:  0.385D+00 0.279D+00 0.336D+00
 Coeff:      0.385D+00 0.279D+00 0.336D+00
 Gap=     0.193 Goal=   None    Shift=    0.000
 RMSDP=8.71D-07 MaxDP=9.38D-06 DE=-2.91D-08 OVMax= 1.41D-05

 Cycle   9  Pass 1  IDiag  1:
 E= -93.3421452781202     Delta-E=       -0.000000001350 Rises=F Damp=F
 DIIS: error= 5.60D-07 at cycle   4 NSaved=   4.
 NSaved= 4 IEnMin= 4 EnMin= -93.3421452781202     IErMin= 4 ErrMin= 5.60D-07
 ErrMax= 5.60D-07  0.00D+00 EMaxC= 1.00D-01 BMatC= 7.67D-12 BMatP= 1.47D-09
 IDIUse=1 WtCom= 1.00D+00 WtEn= 0.00D+00
 Coeff-Com:  0.107D+00 0.819D-01 0.135D+00 0.676D+00
 Coeff:      0.107D+00 0.819D-01 0.135D+00 0.676D+00
 Gap=     0.193 Goal=   None    Shift=    0.000
 RMSDP=9.71D-08 MaxDP=6.31D-07 DE=-1.35D-09 OVMax= 1.15D-06

 Cycle  10  Pass 1  IDiag  1:
 E= -93.3421452781284     Delta-E=       -0.000000000008 Rises=F Damp=F
 DIIS: error= 6.59D-08 at cycle   5 NSaved=   5.
 NSaved= 5 IEnMin= 5 EnMin= -93.3421452781284     IErMin= 5 ErrMin= 6.59D-08
 ErrMax= 6.59D-08  0.00D+00 EMaxC= 1.00D-01 BMatC= 1.94D-13 BMatP= 7.67D-12
 IDIUse=1 WtCom= 1.00D+00 WtEn= 0.00D+00
 Coeff-Com:  0.303D-01 0.229D-01 0.450D-01 0.256D+00 0.645D+00
 Coeff:      0.303D-01 0.229D-01 0.450D-01 0.256D+00 0.645D+00
 Gap=     0.193 Goal=   None    Shift=    0.000
 RMSDP=2.12D-08 MaxDP=1.27D-07 DE=-8.13D-12 OVMax= 3.14D-07

 Cycle  11  Pass 1  IDiag  1:
 E= -93.3421452781288     Delta-E=       -0.000000000000 Rises=F Damp=F
 DIIS: error= 6.24D-09 at cycle   6 NSaved=   6.
 NSaved= 6 IEnMin= 6 EnMin= -93.3421452781288     IErMin= 6 ErrMin= 6.24D-09
 ErrMax= 6.24D-09  0.00D+00 EMaxC= 1.00D-01 BMatC= 1.79D-15 BMatP= 1.94D-13
 IDIUse=1 WtCom= 1.00D+00 WtEn= 0.00D+00
 Coeff-Com:  0.603D-02 0.455D-02 0.949D-02 0.529D-01 0.179D+00 0.749D+00
 Coeff:      0.603D-02 0.455D-02 0.949D-02 0.529D-01 0.179D+00 0.749D+00
 Gap=     0.193 Goal=   None    Shift=    0.000
 RMSDP=1.84D-09 MaxDP=1.44D-08 DE=-4.69D-13 OVMax= 2.19D-08

 SCF Done:  E(RB-P86) =  -93.3421452781     A.U. after   11 cycles
            NFock= 11  Conv=0.18D-08     -V/T= 2.0071
 KE= 9.268332100854D+01 PE=-2.649434251952D+02 EE= 5.514198191099D+01
 Leave Link  502 at Wed Oct  7 14:08:44 2020, MaxMem=  2684354560 cpu:              12.1 elap:               1.6
 (Enter /udrive/faculty/rpeverati/g16/g16/l508.exe)
 QCSCF skips out because SCF is already converged.
 Leave Link  508 at Wed Oct  7 14:08:45 2020, MaxMem=  2684354560 cpu:               0.3 elap:               0.5
 (Enter /udrive/faculty/rpeverati/g16/g16/l701.exe)
 ... and contract with generalized density number  0.
 Compute integral first derivatives.
 R6Disp: Adding Grimme-D3(BJ) dispersion energy 1st derivatives to the gradient.
 Leave Link  701 at Wed Oct  7 14:08:46 2020, MaxMem=  2684354560 cpu:               4.2 elap:               0.9
 (Enter /udrive/faculty/rpeverati/g16/g16/l702.exe)
 L702 exits ... SP integral derivatives will be done elsewhere.
 Leave Link  702 at Wed Oct  7 14:08:47 2020, MaxMem=  2684354560 cpu:               1.8 elap:               0.7
 (Enter /udrive/faculty/rpeverati/g16/g16/l703.exe)
 Integral derivatives from FoFJK, PRISM(SPDF).
 Compute integral first derivatives, UseDBF=F ICtDFT=           0.
 Calling FoFJK, ICntrl=      2527 FMM=F ISym2X=1 I1Cent= 0 IOpClX= 0 NMat=1 NMatS=1 NMatT=0.
 FoFJK:  IHMeth= 1 ICntrl=    2527 DoSepK=F KAlg= 0 I1Cent=           0 FoldK=F
 IRaf=         0 NMat=       1 IRICut=       1 DoRegI=T DoRafI=F ISym2E= 1 IDoP0=0 IntGTp=1.
 FoFCou: FMM=F IPFlag=           0 FMFlag=      100000 FMFlg1=         800
         NFxFlg=           0 DoJE=F BraDBF=F KetDBF=F FulRan=T
         wScrn=  0.000000 ICntrl=      2527 IOpCl=  0 I1Cent=           0 NGrid=           0
         NMat0=    1 NMatS0=      1 NMatT0=    0 NMatD0=    1 NMtDS0=    0 NMtDT0=    0
 Petite list used in FoFCou.
 Leave Link  703 at Wed Oct  7 14:08:48 2020, MaxMem=  2684354560 cpu:               5.9 elap:               0.9
 (Enter /udrive/faculty/rpeverati/g16/g16/l716.exe)
 Dipole        =-4.80848330D-01 3.01245050D-02 0.00000000D+00
 ***** Axes restored to original set *****
 -------------------------------------------------------------------
 Center     Atomic                   Forces (Hartrees/Bohr)
 Number     Number              X              Y              Z
 -------------------------------------------------------------------
      1        6           0.001063657   -0.000519806   -0.000000000
      2        7          -0.000579760    0.001351593   -0.000000000
      3        1          -0.000483897   -0.000831787   -0.000000000
 -------------------------------------------------------------------
 Cartesian Forces:  Max     0.001351593 RMS     0.000706361
 Leave Link  716 at Wed Oct  7 14:08:49 2020, MaxMem=  2684354560 cpu:               2.0 elap:               0.7
 (Enter /udrive/faculty/rpeverati/g16/g16/l103.exe)

 GradGradGradGradGradGradGradGradGradGradGradGradGradGradGradGradGradGrad
 Berny optimization.
 Optmz: redundant internal coordinate code flag= 1
 Red2BG:  D1=  4.53D-01 OD1=  2.35D-02 B2RMS=  0.00D+00 IAprox=0
 FormGI is forming the generalized inverse of G from B-inverse, IUseBI=4.
 Internal  Forces:  Max     0.001421367 RMS     0.001201976
 Search for a saddle point.
 Step number   3 out of a maximum of   50
 All quantities printed in internal units (Hartrees-Bohrs-Radians)
 Swapping is turned off.
 Update second derivatives using D2CorX and points    1    2    3
 The second derivative matrix:
                          R1        R2        A1
           R1           1.10182
           R2          -0.00654   0.21083
           A1           0.05150   0.12375  -0.13810
 ITU=  0  0  0
 Eigenvectors of the second derivative matrix:
                           1         2         3
     Eigenvalues --    -0.17957   0.25016   1.10396
   1         R1         0.03982   0.01097   0.99915
   2         R2         0.30254  -0.95313  -0.00160
   3         A1        -0.95230  -0.30235   0.04127
 RLam0= 1.29D-05.
 Iter=   1 RLamda= 0.00000000D+00 Sum=-2.07700112D-06.
 Iter=   2 RLamda=-2.07700112D-06 Sum=-2.07699513D-06.
 RFO step:  Lambda0=1.291446099D-05 Lambda=-2.07700112D-06.
 Linear search not attempted -- option 19 set.
 Iteration  1 RMS(Cart)=  0.00653924 RMS(Int)=  0.00001665
 Iteration  2 RMS(Cart)=  0.00001485 RMS(Int)=  0.00000000
 Iteration  3 RMS(Cart)=  0.00000000 RMS(Int)=  0.00000000
 ITry= 1 IFail=0 DXMaxC= 6.99D-03 DCOld= 1.00D+10 DXMaxT= 1.00D-01 DXLimC= 3.00D+00 Rises=F
 ClnCor:  largest displacement from symmetrization is 2.22D-16 for atom     1.
 Variable       Old X    -DE/DX   Delta X   Delta X   Delta X     New X
                                 (Linear)    (Quad)   (Total)
    R1        2.27874  -0.00133   0.00000  -0.00161  -0.00161   2.27713
    R2        2.28758   0.00073   0.00000  -0.00148  -0.00148   2.28610
    A1        1.19591  -0.00142   0.00000   0.00837   0.00837   1.20428
         Item               Value     Threshold  Converged?
 Maximum Force            0.001421     0.000450     NO 
 RMS     Force            0.001202     0.000300     NO 
 Maximum Displacement     0.006987     0.001800     NO 
 RMS     Displacement     0.006530     0.001200     NO 
 Predicted change in Energy= 5.419194D-06
 Lowest energy point so far.  Saving SCF results.
 Largest change from initial coordinates is atom    3       0.061 Angstoms.
 GradGradGradGradGradGradGradGradGradGradGradGradGradGradGradGradGradGrad

 Leave Link  103 at Wed Oct  7 14:08:50 2020, MaxMem=  2684354560 cpu:               1.3 elap:               0.6
 (Enter /udrive/faculty/rpeverati/g16/g16/l202.exe)
                          Input orientation:                          
 ---------------------------------------------------------------------
 Center     Atomic      Atomic             Coordinates (Angstroms)
 Number     Number       Type             X           Y           Z
 ---------------------------------------------------------------------
      1          6           0        0.097451    0.637605    0.000000
      2          7           0        0.062943   -0.566905    0.000000
      3          1           0       -1.043902    0.236587    0.000000
 ---------------------------------------------------------------------
                    Distance matrix (angstroms):
                    1          2          3
     1  C    0.000000
     2  N    1.205005   0.000000
     3  H    1.209752   1.367738   0.000000
 Stoichiometry    CHN
 Framework group  CS[SG(CHN)]
 Deg. of freedom     3
 Full point group                 CS      NOp   2
 RotChk:  IX=0 Diff= 5.92D-03
 Largest Abelian subgroup         CS      NOp   2
 Largest concise Abelian subgroup C1      NOp   1
                         Standard orientation:                         
 ---------------------------------------------------------------------
 Center     Atomic      Atomic             Coordinates (Angstroms)
 Number     Number       Type             X           Y           Z
 ---------------------------------------------------------------------
      1          6           0        0.080671    0.633469    0.000000
      2          7           0        0.080671   -0.571535    0.000000
      3          1           0       -1.048729    0.199932    0.000000
 ---------------------------------------------------------------------
 Rotational constants (GHZ):         410.6211823          53.5634707          47.3826429
 Leave Link  202 at Wed Oct  7 14:08:51 2020, MaxMem=  2684354560 cpu:               1.3 elap:               0.5
 (Enter /udrive/faculty/rpeverati/g16/g16/l301.exe)
 Standard basis: 6-31G(d) (5D, 7F)
 Ernie: Thresh=  0.10000D-02 Tol=  0.10000D-05 Strict=F.
 There are    24 symmetry adapted cartesian basis functions of A'  symmetry.
 There are     8 symmetry adapted cartesian basis functions of A"  symmetry.
 There are    22 symmetry adapted basis functions of A'  symmetry.
 There are     8 symmetry adapted basis functions of A"  symmetry.
    30 basis functions,    60 primitive gaussians,    32 cartesian basis functions
     7 alpha electrons        7 beta electrons
       nuclear repulsion energy        23.7771289662 Hartrees.
 IExCor=  404 DFT=T Ex=B Corr=P86 ExCW=0 ScaHFX=  0.000000
 ScaDFX=  1.000000  1.000000  1.000000  1.000000 ScalE2=  1.000000  1.000000
 IRadAn=      5 IRanWt=     -1 IRanGd=            0 ICorTp=0 IEmpDi=141
 NAtoms=    3 NActive=    3 NUniq=    3 SFac= 1.00D+00 NAtFMM=   60 NAOKFM=F Big=F
 Integral buffers will be    131072 words long.
 Raffenetti 2 integral format.
 Two-electron integral symmetry is turned on.
 R6Disp:  Grimme-D3(BJ) Dispersion energy=       -0.0012119872 Hartrees.
 Nuclear repulsion after empirical dispersion term =       23.7759169790 Hartrees.
 Leave Link  301 at Wed Oct  7 14:08:51 2020, MaxMem=  2684354560 cpu:               1.8 elap:               0.5
 (Enter /udrive/faculty/rpeverati/g16/g16/l302.exe)
 NPDir=0 NMtPBC=     1 NCelOv=     1 NCel=       1 NClECP=     1 NCelD=      1
         NCelK=      1 NCelE2=     1 NClLst=     1 CellRange=     0.0.
 One-electron integrals computed using PRISM.
 One-electron integral symmetry used in STVInt
 NBasis=    30 RedAO= T EigKep=  8.42D-03  NBF=    22     8
 NBsUse=    30 1.00D-06 EigRej= -1.00D+00 NBFU=    22     8
 Precomputing XC quadrature grid using
 IXCGrd= 4 IRadAn=           5 IRanWt=          -1 IRanGd=           0 AccXCQ= 0.00D+00.
 Generated NRdTot=       0 NPtTot=           0 NUsed=           0 NTot=          32
 NSgBfM=    32    32    32    32    32 MxSgAt=     3 MxSgA2=     3.
 Leave Link  302 at Wed Oct  7 14:08:52 2020, MaxMem=  2684354560 cpu:               4.5 elap:               0.8
 (Enter /udrive/faculty/rpeverati/g16/g16/l303.exe)
 DipDrv:  MaxL=1.
 Leave Link  303 at Wed Oct  7 14:08:53 2020, MaxMem=  2684354560 cpu:               1.8 elap:               0.6
 (Enter /udrive/faculty/rpeverati/g16/g16/l401.exe)
 Initial guess from the checkpoint file:  "MN_49_hcnts_BH76_BP86DBJ_631Gs.chk"
 SCF N**3 symmetry information disabled.
 B after Tr=     0.000000   -0.000000    0.000000
         Rot=    1.000000    0.000000    0.000000    0.000771 Ang=   0.09 deg.
 Guess basis will be translated and rotated to current coordinates.
 JPrj=2 DoOrth=T DoCkMO=T.
 Initial guess orbital symmetries:
       Occupied  (A') (A') (A') (A') (A') (A") (A')
       Virtual   (A') (A") (A') (A') (A") (A') (A') (A') (A') (A")
                 (A') (A') (A') (A") (A') (A") (A') (A") (A') (A')
                 (A') (A") (A')
 The electronic state of the initial guess is 1-A'.
 Leave Link  401 at Wed Oct  7 14:08:54 2020, MaxMem=  2684354560 cpu:               3.5 elap:               0.7
 (Enter /udrive/faculty/rpeverati/g16/g16/l502.exe)
 Keep J ints in memory in symmetry-blocked form, NReq=10459184.
 FoFCou: FMM=F IPFlag=           0 FMFlag=           0 FMFlg1=           0
         NFxFlg=           0 DoJE=F BraDBF=F KetDBF=F FulRan=T
         wScrn=  0.000000 ICntrl=       600 IOpCl=  0 I1Cent=           0 NGrid=           0
         NMat0=    1 NMatS0=    465 NMatT0=    0 NMatD0=    1 NMtDS0=    0 NMtDT0=    0
 Petite list used in FoFCou.
 Closed shell SCF:
 Using DIIS extrapolation, IDIIS=  1040.
 NGot=  2684354560 LenX=  2684292770 LenY=  2684291305
 Requested convergence on RMS density matrix=1.00D-08 within 120 cycles.
 Requested convergence on MAX density matrix=1.00D-06.
 Requested convergence on             energy=1.00D-06.
 No special actions if energy rises.

 Cycle   1  Pass 1  IDiag  1:
 E= -93.3421221092375    
 DIIS: error= 3.84D-04 at cycle   1 NSaved=   1.
 NSaved= 1 IEnMin= 1 EnMin= -93.3421221092375     IErMin= 1 ErrMin= 3.84D-04
 ErrMax= 3.84D-04  0.00D+00 EMaxC= 1.00D-01 BMatC= 7.25D-06 BMatP= 7.25D-06
 IDIUse=3 WtCom= 9.96D-01 WtEn= 3.84D-03
 Coeff-Com:  0.100D+01
 Coeff-En:   0.100D+01
 Coeff:      0.100D+01
 Gap=     0.192 Goal=   None    Shift=    0.000
 RMSDP=2.27D-04 MaxDP=2.43D-03              OVMax= 3.40D-03

 Cycle   2  Pass 1  IDiag  1:
 E= -93.3421345774355     Delta-E=       -0.000012468198 Rises=F Damp=F
 DIIS: error= 5.19D-04 at cycle   2 NSaved=   2.
 NSaved= 2 IEnMin= 2 EnMin= -93.3421345774355     IErMin= 1 ErrMin= 3.84D-04
 ErrMax= 5.19D-04  0.00D+00 EMaxC= 1.00D-01 BMatC= 5.11D-06 BMatP= 7.25D-06
 IDIUse=3 WtCom= 9.95D-01 WtEn= 5.19D-03
 Coeff-Com:  0.434D+00 0.566D+00
 Coeff-En:   0.000D+00 0.100D+01
 Coeff:      0.432D+00 0.568D+00
 Gap=     0.191 Goal=   None    Shift=    0.000
 RMSDP=1.09D-04 MaxDP=1.16D-03 DE=-1.25D-05 OVMax= 2.00D-03

 Cycle   3  Pass 1  IDiag  1:
 E= -93.3421303375254     Delta-E=        0.000004239910 Rises=F Damp=F
 DIIS: error= 7.54D-04 at cycle   3 NSaved=   3.
 NSaved= 3 IEnMin= 2 EnMin= -93.3421345774355     IErMin= 1 ErrMin= 3.84D-04
 ErrMax= 7.54D-04  0.00D+00 EMaxC= 1.00D-01 BMatC= 9.51D-06 BMatP= 5.11D-06
 IDIUse=3 WtCom= 2.67D-01 WtEn= 7.33D-01
 Coeff-Com:  0.415D-01 0.561D+00 0.397D+00
 Coeff-En:   0.000D+00 0.609D+00 0.391D+00
 Coeff:      0.111D-01 0.597D+00 0.392D+00
 Gap=     0.192 Goal=   None    Shift=    0.000
 RMSDP=7.72D-05 MaxDP=6.45D-04 DE= 4.24D-06 OVMax= 1.11D-03

 Cycle   4  Pass 1  IDiag  1:
 E= -93.3421392083372     Delta-E=       -0.000008870812 Rises=F Damp=F
 DIIS: error= 3.79D-05 at cycle   4 NSaved=   4.
 NSaved= 4 IEnMin= 4 EnMin= -93.3421392083372     IErMin= 4 ErrMin= 3.79D-05
 ErrMax= 3.79D-05  0.00D+00 EMaxC= 1.00D-01 BMatC= 7.29D-08 BMatP= 5.11D-06
 IDIUse=1 WtCom= 1.00D+00 WtEn= 0.00D+00
 Coeff-Com:  0.295D-02 0.227D+00 0.140D+00 0.630D+00
 Coeff:      0.295D-02 0.227D+00 0.140D+00 0.630D+00
 Gap=     0.192 Goal=   None    Shift=    0.000
 RMSDP=1.45D-05 MaxDP=1.07D-04 DE=-8.87D-06 OVMax= 2.49D-04

 Cycle   5  Pass 1  IDiag  1:
 E= -93.3421392235210     Delta-E=       -0.000000015184 Rises=F Damp=F
 DIIS: error= 6.07D-06 at cycle   5 NSaved=   5.
 NSaved= 5 IEnMin= 5 EnMin= -93.3421392235210     IErMin= 5 ErrMin= 6.07D-06
 ErrMax= 6.07D-06  0.00D+00 EMaxC= 1.00D-01 BMatC= 1.03D-09 BMatP= 7.29D-08
 IDIUse=1 WtCom= 1.00D+00 WtEn= 0.00D+00
 Coeff-Com: -0.165D-03 0.842D-01 0.525D-01 0.251D+00 0.612D+00
 Coeff:     -0.165D-03 0.842D-01 0.525D-01 0.251D+00 0.612D+00
 Gap=     0.192 Goal=   None    Shift=    0.000
 RMSDP=1.58D-06 MaxDP=1.20D-05 DE=-1.52D-08 OVMax= 2.10D-05

 Cycle   6  Pass 1  IDiag  1:
 E= -93.3421392247439     Delta-E=       -0.000000001223 Rises=F Damp=F
 DIIS: error= 1.62D-06 at cycle   6 NSaved=   6.
 NSaved= 6 IEnMin= 6 EnMin= -93.3421392247439     IErMin= 6 ErrMin= 1.62D-06
 ErrMax= 1.62D-06  0.00D+00 EMaxC= 1.00D-01 BMatC= 9.65D-11 BMatP= 1.03D-09
 IDIUse=1 WtCom= 1.00D+00 WtEn= 0.00D+00
 Coeff-Com:  0.664D-05 0.182D-01 0.119D-01 0.589D-01 0.272D+00 0.639D+00
 Coeff:      0.664D-05 0.182D-01 0.119D-01 0.589D-01 0.272D+00 0.639D+00
 Gap=     0.192 Goal=   None    Shift=    0.000
 RMSDP=4.04D-07 MaxDP=3.01D-06 DE=-1.22D-09 OVMax= 5.44D-06

 Cycle   7  Pass 1  IDiag  1:
 E= -93.3421392248626     Delta-E=       -0.000000000119 Rises=F Damp=F
 DIIS: error= 1.55D-07 at cycle   7 NSaved=   7.
 NSaved= 7 IEnMin= 7 EnMin= -93.3421392248626     IErMin= 7 ErrMin= 1.55D-07
 ErrMax= 1.55D-07  0.00D+00 EMaxC= 1.00D-01 BMatC= 7.34D-13 BMatP= 9.65D-11
 IDIUse=1 WtCom= 1.00D+00 WtEn= 0.00D+00
 Coeff-Com: -0.153D-04 0.417D-02 0.261D-02 0.137D-01 0.675D-01 0.176D+00
 Coeff-Com:  0.736D+00
 Coeff:     -0.153D-04 0.417D-02 0.261D-02 0.137D-01 0.675D-01 0.176D+00
 Coeff:      0.736D+00
 Gap=     0.192 Goal=   None    Shift=    0.000
 RMSDP=4.27D-08 MaxDP=3.24D-07 DE=-1.19D-10 OVMax= 4.39D-07

 Cycle   8  Pass 1  IDiag  1:
 E= -93.3421392248633     Delta-E=       -0.000000000001 Rises=F Damp=F
 DIIS: error= 3.40D-08 at cycle   8 NSaved=   8.
 NSaved= 8 IEnMin= 8 EnMin= -93.3421392248633     IErMin= 8 ErrMin= 3.40D-08
 ErrMax= 3.40D-08  0.00D+00 EMaxC= 1.00D-01 BMatC= 4.32D-14 BMatP= 7.34D-13
 IDIUse=1 WtCom= 1.00D+00 WtEn= 0.00D+00
 Coeff-Com: -0.488D-05 0.522D-03 0.297D-03 0.178D-02 0.971D-02 0.289D-01
 Coeff-Com:  0.272D+00 0.687D+00
 Coeff:     -0.488D-05 0.522D-03 0.297D-03 0.178D-02 0.971D-02 0.289D-01
 Coeff:      0.272D+00 0.687D+00
 Gap=     0.192 Goal=   None    Shift=    0.000
 RMSDP=8.05D-09 MaxDP=5.01D-08 DE=-6.54D-13 OVMax= 8.98D-08

 SCF Done:  E(RB-P86) =  -93.3421392249     A.U. after    8 cycles
            NFock=  8  Conv=0.80D-08     -V/T= 2.0071
 KE= 9.268340095258D+01 PE=-2.649471728463D+02 EE= 5.514571568985D+01
 Leave Link  502 at Wed Oct  7 14:08:56 2020, MaxMem=  2684354560 cpu:               9.8 elap:               1.3
 (Enter /udrive/faculty/rpeverati/g16/g16/l508.exe)
 QCSCF skips out because SCF is already converged.
 Leave Link  508 at Wed Oct  7 14:08:56 2020, MaxMem=  2684354560 cpu:               0.6 elap:               0.5
 (Enter /udrive/faculty/rpeverati/g16/g16/l701.exe)
 ... and contract with generalized density number  0.
 Compute integral first derivatives.
 R6Disp: Adding Grimme-D3(BJ) dispersion energy 1st derivatives to the gradient.
 Leave Link  701 at Wed Oct  7 14:08:58 2020, MaxMem=  2684354560 cpu:               3.9 elap:               0.8
 (Enter /udrive/faculty/rpeverati/g16/g16/l702.exe)
 L702 exits ... SP integral derivatives will be done elsewhere.
 Leave Link  702 at Wed Oct  7 14:08:58 2020, MaxMem=  2684354560 cpu:               2.1 elap:               0.6
 (Enter /udrive/faculty/rpeverati/g16/g16/l703.exe)
 Integral derivatives from FoFJK, PRISM(SPDF).
 Compute integral first derivatives, UseDBF=F ICtDFT=           0.
 Calling FoFJK, ICntrl=      2527 FMM=F ISym2X=1 I1Cent= 0 IOpClX= 0 NMat=1 NMatS=1 NMatT=0.
 FoFJK:  IHMeth= 1 ICntrl=    2527 DoSepK=F KAlg= 0 I1Cent=           0 FoldK=F
[...]
   XY=             -0.2024   XZ=              0.0000   YZ=              0.0000
 Octapole moment (field-independent basis, Debye-Ang**2):
  XXX=             -2.0337  YYY=             -2.8250  ZZZ=              0.0000  XYY=             -0.0862
  XXY=             -0.5035  XXZ=              0.0000  XZZ=             -0.1955  YZZ=             -0.5783
  YYZ=              0.0000  XYZ=              0.0000
 Hexadecapole moment (field-independent basis, Debye-Ang**3):
 XXXX=            -12.1487 YYYY=            -41.3710 ZZZZ=            -10.9107 XXXY=             -0.0117
 XXXZ=              0.0000 YYYX=              0.3791 YYYZ=              0.0000 ZZZX=              0.0000
 ZZZY=              0.0000 XXYY=             -8.6808 XXZZ=             -4.2177 YYZZ=             -8.2339
 XXYZ=              0.0000 YYXZ=              0.0000 ZZXY=              0.1179
 N-N= 2.377591697899D+01 E-N=-2.649471715407D+02  KE= 9.268340107914D+01
  Exact polarizability:  13.305   0.387  17.817   0.000   0.000   8.729
 Approx polarizability:  23.312   2.056  44.570   0.000   0.000  13.820
 No NMR shielding tensors so no spin-rotation constants.
 Leave Link  601 at Wed Oct  7 14:09:22 2020, MaxMem=  2684354560 cpu:               3.8 elap:               0.8
 (Enter /udrive/faculty/rpeverati/g16/g16/l701.exe)
 ... and contract with generalized density number  0.
 Compute integral second derivatives.
 R6Disp: Adding Grimme-D3(BJ) dispersion energy 2nd derivatives to the Hessian.
 Leave Link  701 at Wed Oct  7 14:09:23 2020, MaxMem=  2684354560 cpu:               4.8 elap:               0.9
 (Enter /udrive/faculty/rpeverati/g16/g16/l702.exe)
 L702 exits ... SP integral derivatives will be done elsewhere.
 Leave Link  702 at Wed Oct  7 14:09:24 2020, MaxMem=  2684354560 cpu:               1.8 elap:               0.7
 (Enter /udrive/faculty/rpeverati/g16/g16/l703.exe)
 Integral derivatives from FoFJK, PRISM(SPDF).
 Compute integral second derivatives, UseDBF=F ICtDFT=           0.
 Calling FoFJK, ICntrl=    100527 FMM=F ISym2X=1 I1Cent= 0 IOpClX= 0 NMat=1 NMatS=1 NMatT=0.
 FoFJK:  IHMeth= 1 ICntrl=  100527 DoSepK=F KAlg= 0 I1Cent=           0 FoldK=F
 IRaf=         0 NMat=       1 IRICut=       1 DoRegI=T DoRafI=F ISym2E= 1 IDoP0=0 IntGTp=1.
 FoFCou: FMM=F IPFlag=           0 FMFlag=      100000 FMFlg1=         800
         NFxFlg=           0 DoJE=F BraDBF=F KetDBF=F FulRan=T
         wScrn=  0.000000 ICntrl=    100527 IOpCl=  0 I1Cent=           0 NGrid=           0
         NMat0=    1 NMatS0=      1 NMatT0=    0 NMatD0=    1 NMtDS0=    0 NMtDT0=    0
 Petite list used in FoFCou.
 Leave Link  703 at Wed Oct  7 14:09:26 2020, MaxMem=  2684354560 cpu:              14.3 elap:               1.7
 (Enter /udrive/faculty/rpeverati/g16/g16/l716.exe)
 Dipole        =-4.82337166D-01 3.49245794D-02 0.00000000D+00
 Polarizability= 1.33049761D+01 3.86533743D-01 1.78172478D+01
                 1.70813763D-15 8.63633008D-16 8.72855801D+00
 Full mass-weighted force constant matrix:
 Low frequencies ----1098.0249   -0.0016   -0.0011   -0.0011    7.1797   16.6630
 Low frequencies ---   46.8101 1976.2236 2517.6680
 ******    1 imaginary frequencies (negative Signs) ****** 
 Diagonal vibrational polarizability:
        0.4748993       1.4128113       0.0000000
 Harmonic frequencies (cm**-1), IR intensities (KM/Mole), Raman scattering
 activities (A**4/AMU), depolarization ratios for plane and unpolarized
 incident light, reduced masses (AMU), force constants (mDyne/A),
 and normal coordinates:
                      1                      2                      3
                     A'                     A'                     A'
 Frequencies --  -1098.0248              1976.2236              2517.6680
 Red. masses --      1.1641                11.8375                 1.0585
 Frc consts  --      0.8269                27.2384                 3.9530
 IR Inten    --     62.4710                10.0167                99.9368
  Atom  AN      X      Y      Z        X      Y      Z        X      Y      Z
     1   6    -0.07  -0.06  -0.00    -0.03   0.72   0.00    -0.06  -0.02  -0.00
     2   7     0.07  -0.02  -0.00     0.01  -0.63   0.00    -0.02   0.01  -0.00
     3   1    -0.16   0.98   0.00     0.15   0.26   0.00     0.99   0.12   0.00

 -------------------
 - Thermochemistry -
 -------------------
 Temperature   298.150 Kelvin.  Pressure   1.00000 Atm.
 Atom     1 has atomic number  6 and mass  12.00000
 Atom     2 has atomic number  7 and mass  14.00307
 Atom     3 has atomic number  1 and mass   1.00783
 Molecular mass:    27.01090 amu.
 Principal axes and moments of inertia in atomic units:
                           1         2         3
     Eigenvalues --     4.39515  33.69351  38.08866
           X           -0.02878   0.99959   0.00000
           Y            0.99959   0.02878   0.00000
           Z            0.00000   0.00000   1.00000
 This molecule is an asymmetric top.
 Rotational symmetry number  1.
 Rotational temperatures (Kelvin)     19.70671     2.57064     2.27401
 Rotational constants (GHZ):         410.62118    53.56347    47.38264
    1 imaginary frequencies ignored.
 Zero-point vibrational energy      26879.4 (Joules/Mol)
                                    6.42434 (Kcal/Mol)
 Vibrational temperatures:   2843.35  3622.36
          (Kelvin)
 
 Zero-point correction=                           0.010238 (Hartree/Particle)
 Thermal correction to Energy=                    0.013071
 Thermal correction to Enthalpy=                  0.014015
 Thermal correction to Gibbs Free Energy=        -0.010788
 Sum of electronic and zero-point Energies=            -93.331901
 Sum of electronic and thermal Energies=               -93.329068
 Sum of electronic and thermal Enthalpies=             -93.328124
 Sum of electronic and thermal Free Energies=          -93.352927
 
                     E (Thermal)             CV                S
                      KCal/Mol        Cal/Mol-Kelvin    Cal/Mol-Kelvin
 Total                    8.202              5.976             52.203
 Electronic               0.000              0.000              0.000
 Translational            0.889              2.981             35.816
 Rotational               0.889              2.981             16.385
 Vibrational              6.425              0.015              0.002
                       Q            Log10(Q)             Ln(Q)
 Total Bot       0.916695D+05          4.962225         11.425945
 Total V=0       0.469137D+10          9.671299         22.268990
 Vib (Bot)       0.195415D-04         -4.709041        -10.842968
 Vib (V=0)       0.100008D+01          0.000034          0.000077
 Electronic      0.100000D+01          0.000000          0.000000
 Translational   0.551776D+07          6.741762         15.523482
 Rotational      0.850165D+03          2.929503          6.745431
 
                                                          TS search on BH76.
                                                             IR Spectrum
 
     2                           1                                                                                                   
     5                           9                                                                                                   
     1                           7                                                                                                   
     8                           6                                                                                                   
 
     X                           X                                                                                                   
     X                           X                                                                                                   
     X                                                                                                                               
     X                                                                                                                               
     X                                                                                                                               
     X                                                                                                                               
     X                                                                                                                               
     X                                                                                                                               
     X                                                                                                                               
     X                                                                                                                               
     X                                                                                                                               
     X                                                                                                                               
     X                                                                                                                               
     X                                                                                                                               
     X                                                                                                                               
     X                                                                                                                               
     X                                                                                                                               
     X                                                                                                                               
     X                                                                                                                               
     X                                                                                                                               
 
 ***** Axes restored to original set *****
 -------------------------------------------------------------------
 Center     Atomic                   Forces (Hartrees/Bohr)
 Number     Number              X              Y              Z
 -------------------------------------------------------------------
      1        6          -0.000093522   -0.000009106   -0.000000000
      2        7          -0.000068407    0.000025129   -0.000000000
      3        1           0.000161929   -0.000016023   -0.000000000
 -------------------------------------------------------------------
 Cartesian Forces:  Max     0.000161929 RMS     0.000067180
 Force constants in Cartesian coordinates: 
                1             2             3             4             5 
      1  0.102204D+00
      2 -0.190374D-03  0.913532D+00
      3  0.000000D+00  0.000000D+00  0.428243D-04
      4  0.741629D-01  0.275254D-01  0.000000D+00 -0.236770D-01
      5 -0.166277D-01 -0.962019D+00  0.000000D+00  0.156817D-01  0.974639D+00
      6  0.000000D+00  0.000000D+00  0.635837D-05  0.000000D+00  0.000000D+00
      7 -0.176367D+00 -0.273350D-01  0.000000D+00 -0.504858D-01  0.945991D-03
      8  0.168181D-01  0.484880D-01  0.000000D+00 -0.432071D-01 -0.126196D-01
      9  0.000000D+00  0.000000D+00 -0.491827D-04  0.000000D+00  0.000000D+00
                6             7             8             9 
      6  0.246270D-04
      7  0.000000D+00  0.226853D+00
      8  0.000000D+00  0.263890D-01 -0.358684D-01
      9 -0.309854D-04  0.000000D+00  0.000000D+00  0.801681D-04
 FormGI is forming the generalized inverse of G from B-inverse, IUseBI=4.
 Force constants in internal coordinates: 
                1             2             3 
      1  0.974717D+00
      2 -0.506689D-02  0.214498D+00
      3  0.294908D-01  0.140824D+00 -0.123212D+00
 Leave Link  716 at Wed Oct  7 14:09:26 2020, MaxMem=  2684354560 cpu:               1.4 elap:               0.5
 (Enter /udrive/faculty/rpeverati/g16/g16/l103.exe)

 GradGradGradGradGradGradGradGradGradGradGradGradGradGradGradGradGradGrad
 Berny optimization.
 Optmz: redundant internal coordinate code flag= 1
 Red2BG:  D1=  4.55D-01 OD1=  5.34D-16 B2RMS=  0.00D+00 IAprox=1
 Red2BG is reusing G-inverse.
 Internal  Forces:  Max     0.000157309 RMS     0.000125200
 Search for a local minimum.
 Step number   1 out of a maximum of    2
 All quantities printed in internal units (Hartrees-Bohrs-Radians)
 Second derivative matrix not updated -- analytic derivatives used.
 The second derivative matrix:
                          R1        R2        A1
           R1           0.97472
           R2          -0.00507   0.21450
           A1           0.02949   0.14082  -0.12321
 ITU=  0
 Eigenvectors of the second derivative matrix:
                           1         2         3
     Eigenvalues --    -0.17498   0.26547   0.97551
   1         R1         0.02561   0.00742   0.99964
   2         R2         0.34021  -0.94035  -0.00173
   3         A1        -0.94000  -0.34013   0.02661
 Eigenvalue     1 is  -1.75D-01 should be greater than     0.000000 Eigenvector:
                          A1        R2        R1
   1                   -0.94000   0.34021   0.02561
 Angle between quadratic step and forces=  11.94 degrees.
 Linear search not attempted -- first point.
 Iteration  1 RMS(Cart)=  0.00073501 RMS(Int)=  0.00000016
 Iteration  2 RMS(Cart)=  0.00000010 RMS(Int)=  0.00000000
 ITry= 1 IFail=0 DXMaxC= 7.80D-04 DCOld= 1.00D+10 DXMaxT= 3.00D-01 DXLimC= 3.00D+00 Rises=F
 ClnCor:  largest displacement from symmetrization is 2.22D-16 for atom     1.
 Variable       Old X    -DE/DX   Delta X   Delta X   Delta X     New X
                                 (Linear)    (Quad)   (Total)
    R1        2.27713  -0.00002   0.00000  -0.00001  -0.00001   2.27712
    R2        2.28610  -0.00015   0.00000  -0.00049  -0.00049   2.28561
    A1        1.20428  -0.00016   0.00000  -0.00077  -0.00077   1.20351
         Item               Value     Threshold  Converged?
 Maximum Force            0.000157     0.000450     YES
 RMS     Force            0.000125     0.000300     YES
 Maximum Displacement     0.000780     0.001800     YES
 RMS     Displacement     0.000735     0.001200     YES
 Predicted change in Energy=-1.506442D-07
 Optimization completed.
    -- Stationary point found.
                           ----------------------------
                           !   Optimized Parameters   !
                           ! (Angstroms and Degrees)  !
 --------------------------                            --------------------------
 ! Name  Definition              Value          Derivative Info.                !
 --------------------------------------------------------------------------------
 ! R1    R(1,2)                  1.205          -DE/DX =    0.0                 !
 ! R2    R(1,3)                  1.2098         -DE/DX =   -0.0001              !
 ! A1    A(2,1,3)               68.9999         -DE/DX =   -0.0002              !
 --------------------------------------------------------------------------------
 GradGradGradGradGradGradGradGradGradGradGradGradGradGradGradGradGradGrad

 Leave Link  103 at Wed Oct  7 14:09:27 2020, MaxMem=  2684354560 cpu:               2.1 elap:               0.5
 (Enter /udrive/faculty/rpeverati/g16/g16/l9999.exe)

 ----------------------------------------------------------------------

 Electric dipole moment (input orientation):
 (Debye = 10**-18 statcoulomb cm , SI units = C m)
                  (au)            (Debye)         (10**-30 SI)
   Tot        0.483600D+00      0.122919D+01      0.410013D+01
   x         -0.481139D+00     -0.122293D+01     -0.407927D+01
   y          0.487228D-01      0.123841D+00      0.413089D+00
   z          0.000000D+00      0.000000D+00      0.000000D+00

 Dipole polarizability, Alpha (input orientation).
 (esu units = cm**3 , SI units = C**2 m**2 J**-1)
 Alpha(0;0):
               (au)            (10**-24 esu)      (10**-40 SI)
   iso        0.132836D+02      0.196843D+01      0.219017D+01
   aniso      0.789952D+01      0.117059D+01      0.130246D+01
   xx         0.133308D+02      0.197542D+01      0.219795D+01
   yx         0.515063D+00      0.763245D-01      0.849225D-01
   yy         0.177914D+02      0.263642D+01      0.293341D+01
   zx         0.000000D+00      0.000000D+00      0.000000D+00
   zy         0.000000D+00      0.000000D+00      0.000000D+00
   zz         0.872856D+01      0.129344D+01      0.143914D+01

 ----------------------------------------------------------------------

 Dipole orientation:
     6          0.12264547          1.21112824         -0.06182406
     7         -0.10617673         -1.04849886         -0.22627361
     1          0.02479078          0.24480983          2.00769493

 Electric dipole moment (dipole orientation):
 (Debye = 10**-18 statcoulomb cm , SI units = C m)
                  (au)            (Debye)         (10**-30 SI)
   Tot        0.483600D+00      0.122919D+01      0.410013D+01
   x          0.000000D+00      0.000000D+00      0.000000D+00
   y          0.000000D+00      0.000000D+00      0.000000D+00
   z          0.483600D+00      0.122919D+01      0.410013D+01

 Dipole polarizability, Alpha (dipole orientation).
 (esu units = cm**3 , SI units = C**2 m**2 J**-1)
 Alpha(0;0):
               (au)            (10**-24 esu)      (10**-40 SI)
   iso        0.132836D+02      0.196843D+01      0.219017D+01
   aniso      0.789952D+01      0.117059D+01      0.130246D+01
   xx         0.882114D+01      0.130716D+01      0.145441D+01
   yx         0.914251D+00      0.135478D+00      0.150740D+00
   yy         0.177568D+02      0.263129D+01      0.292770D+01
   zx        -0.579171D-02     -0.858243D-03     -0.954925D-03
   zy        -0.571934D-01     -0.847518D-02     -0.942991D-02
   zz         0.132728D+02      0.196683D+01      0.218839D+01

 ----------------------------------------------------------------------

 Test job not archived.
 1\1\GINC-NODE37\Freq\RBP86\6-31G(d)\C1H1N1\RPEVERATI\07-Oct-2020\0\\#P
  Freq BP86/6-31G* 5D 7F Integral=UltraFineGrid SCF=(NoSymm,XQC,MaxCyc=
 120) EmpiricalDispersion=GD3BJ IOp(1/33=1) Geom=Check Guess=Read\\TS s
 earch on BH76.\\0,1\C,0.0974506098,0.6376053341,0.\N,0.0629432685,-0.5
 669054134,0.\H,-1.0439017994,0.2365874647,0.\\Version=ES64L-G16RevA.03
 \State=1-A'\HF=-93.3421392\RMSD=1.809e-09\RMSF=6.718e-05\ZeroPoint=0.0
 102378\Thermal=0.0130711\Dipole=-0.4811392,0.0487228,0.\DipoleDeriv=-0
 .2069634,0.0381024,0.,0.1906025,-0.0783943,0.,0.,0.,-0.1293493,-0.1026
 893,0.0561509,0.,-0.2202801,-0.176149,0.,0.,0.,-0.0966478,0.3096528,-0
 .0942533,0.,0.0296776,0.2545433,0.,0.,0.,0.2259972\Polar=13.3308055,0.
 5150633,17.7914185,0.,0.,8.728558\Quadrupole=1.7182495,-1.7009844,-0.0
 172651,-0.2487477,0.,0.\PG=CS [SG(C1H1N1)]\NImag=1\\0.10220428,-0.0001
 9037,0.91353152,0.,0.,0.00004282,0.07416288,0.02752541,0.,-0.02367703,
 -0.01662769,-0.96201947,0.,0.01568170,0.97463903,0.,0.,0.00000636,0.,0
 .,0.00002463,-0.17636716,-0.02733503,0.,-0.05048585,0.00094599,0.,0.22
 685300,0.01681807,0.04848796,0.,-0.04320711,-0.01261956,0.,0.02638904,
 -0.03586840,0.,0.,-0.00004918,0.,0.,-0.00003099,0.,0.,0.00008017\\0.00
 009352,0.00000911,0.,0.00006841,-0.00002513,0.,-0.00016193,0.00001602,
 0.\\\@


 EVERYBODY NEEDS BEAUTY AS WELL AS BREAD, PLACES TO PLAY IN AND PRAY IN,
 WHERE NATURE MAY HEAL AND CHEER AND GIVE STRENGTH TO BODY AND SOUL ALIKE.

                                    -- JOHN MUIR
 Job cpu time:       0 days  0 hours  1 minutes 37.0 seconds.
 Elapsed time:       0 days  0 hours  0 minutes 17.8 seconds.
 File lengths (MBytes):  RWF=      5 Int=      0 D2E=      0 Chk=      1 Scr=      1
 Normal termination of Gaussian 16 at Wed Oct  7 14:09:29 2020.
