 Entering Gaussian System, Link 0=g16
 Input=MN_71_NH3_BH76_BP86DBJ_631Gs.in
 Output=MN_71_NH3_BH76_BP86DBJ_631Gs.log
 Initial command:
 /udrive/faculty/rpeverati/g16/g16/l1.exe "/udrive/scratch-directories/gaussian09/rpeverati/Gau-31633.inp" -scrdir="/udrive/scratch-directories/gaussian09/rpeverati/"
 Entering Link 1 = /udrive/faculty/rpeverati/g16/g16/l1.exe PID=     31634.
  
 Copyright (c) 1988,1990,1992,1993,1995,1998,2003,2009,2016,
            Gaussian, Inc.  All Rights Reserved.
  
 This is part of the Gaussian(R) 16 program.  It is based on
 the Gaussian(R) 09 system (copyright 2009, Gaussian, Inc.),
 the Gaussian(R) 03 system (copyright 2003, Gaussian, Inc.),
 the Gaussian(R) 98 system (copyright 1998, Gaussian, Inc.),
 the Gaussian(R) 94 system (copyright 1995, Gaussian, Inc.),
 the Gaussian 92(TM) system (copyright 1992, Gaussian, Inc.),
 the Gaussian 90(TM) system (copyright 1990, Gaussian, Inc.),
 the Gaussian 88(TM) system (copyright 1988, Gaussian, Inc.),
 the Gaussian 86(TM) system (copyright 1986, Carnegie Mellon
 University), and the Gaussian 82(TM) system (copyright 1983,
 Carnegie Mellon University). Gaussian is a federally registered
 trademark of Gaussian, Inc.
  
 This software contains proprietary and confidential information,
 including trade secrets, belonging to Gaussian, Inc.
  
 This software is provided under written license and may be
 used, copied, transmitted, or stored only in accord with that
 written license.
  
 The following legend is applicable only to US Government
 contracts under FAR:
  
                    RESTRICTED RIGHTS LEGEND
  
 Use, reproduction and disclosure by the US Government is
 subject to restrictions as set forth in subparagraphs (a)
 and (c) of the Commercial Computer Software - Restricted
 Rights clause in FAR 52.227-19.
  
 Gaussian, Inc.
 340 Quinnipiac St., Bldg. 40, Wallingford CT 06492
  
  
 ---------------------------------------------------------------
 Warning -- This program may not be used in any manner that
 competes with the business of Gaussian, Inc. or will provide
 assistance to any competitor of Gaussian, Inc.  The licensee
 of this program is prohibited from giving any competitor of
 Gaussian, Inc. access to this program.  By using this program,
 the user acknowledges that Gaussian, Inc. is engaged in the
 business of creating and licensing software in the field of
 computational chemistry and represents and warrants to the
 licensee that it is not a competitor of Gaussian, Inc. and that
 it will not use this program in any manner prohibited above.
 ---------------------------------------------------------------
  

 Cite this work as:
 Gaussian 16, Revision A.03,
 M. J. Frisch, G. W. Trucks, H. B. Schlegel, G. E. Scuseria, 
 M. A. Robb, J. R. Cheeseman, G. Scalmani, V. Barone, 
 G. A. Petersson, H. Nakatsuji, X. Li, M. Caricato, A. V. Marenich, 
 J. Bloino, B. G. Janesko, R. Gomperts, B. Mennucci, H. P. Hratchian, 
 J. V. Ortiz, A. F. Izmaylov, J. L. Sonnenberg, D. Williams-Young, 
 F. Ding, F. Lipparini, F. Egidi, J. Goings, B. Peng, A. Petrone, 
 T. Henderson, D. Ranasinghe, V. G. Zakrzewski, J. Gao, N. Rega, 
 G. Zheng, W. Liang, M. Hada, M. Ehara, K. Toyota, R. Fukuda, 
 J. Hasegawa, M. Ishida, T. Nakajima, Y. Honda, O. Kitao, H. Nakai, 
 T. Vreven, K. Throssell, J. A. Montgomery, Jr., J. E. Peralta, 
 F. Ogliaro, M. J. Bearpark, J. J. Heyd, E. N. Brothers, K. N. Kudin, 
 V. N. Staroverov, T. A. Keith, R. Kobayashi, J. Normand, 
 K. Raghavachari, A. P. Rendell, J. C. Burant, S. S. Iyengar, 
 J. Tomasi, M. Cossi, J. M. Millam, M. Klene, C. Adamo, R. Cammi, 
 J. W. Ochterski, R. L. Martin, K. Morokuma, O. Farkas, 
 J. B. Foresman, and D. J. Fox, Gaussian, Inc., Wallingford CT, 2016.
 
 ******************************************
 Gaussian 16:  ES64L-G16RevA.03 25-Dec-2016
                 7-Oct-2020 
 ******************************************
 %NoSave
 %nproc=12
 Will use up to   12 processors via shared memory.
 %mem=20GB
 %chk=MN_71_NH3_BH76_BP86DBJ_631Gs
 ----------------------------------------------------------------------
 #P Opt(MaxCyc=100) BP86/6-31G* 5D 7F Integral=UltraFineGrid SCF=(NoSym
 m,XQC,MaxCyc=120) EmpiricalDispersion=GD3BJ IOp(1/33=1)
 ----------------------------------------------------------------------
 1/6=100,18=20,19=15,26=4,33=1,38=1/1,3;
 2/9=110,12=2,17=6,18=5,40=1/2;
 3/5=1,6=6,7=1,8=11,11=2,25=1,30=1,71=1,74=404,75=-5,124=41/1,2,3;
 4/9=2/1;
 5/5=2,7=120,8=3,13=1,38=5/2,8;
 6/7=2,8=2,9=2,10=2,28=1/1;
 7//1,2,3,16;
 1/6=100,18=20,19=15,26=4,33=1/3(2);
 2/9=110/2;
 99//99;
 2/9=110/2;
 3/5=1,6=6,7=1,8=11,11=2,25=1,30=1,71=1,74=404,75=-5,124=41/1,2,3;
 4/5=5,9=2,16=3,69=1/1;
 5/5=2,7=120,8=3,13=1,38=5/2,8;
 7//1,2,3,16;
 1/6=100,18=20,19=15,26=4,33=1/3(-5);
 2/9=110/2;
 6/7=2,8=2,9=2,10=2,19=2,28=1/1;
 99/9=1/99;
 Leave Link    1 at Wed Oct  7 14:09:44 2020, MaxMem=  2684354560 cpu:               7.4 elap:               0.7
 (Enter /udrive/faculty/rpeverati/g16/g16/l101.exe)
 ONIOM data not found on unit 2.
 ------------------
 TS search on BH76.
 ------------------
 TstMul:  ICh=     0
 TstMul:  Mul=     1
 TstMul:  ICh=     0
 TstMul:  Mul=     1
 Symbolic Z-matrix:
 Charge =  0 Multiplicity = 1
 N                     0.        0.        0.28223 
 H                     0.46901   0.81235  -0.09408 
 H                     0.46901  -0.81235  -0.09408 
 H                    -0.93802   0.       -0.09408 
 
 RdStrC is calling ZToCFu for IStruc=1 NZ=     4.
 PrtBox:  NBox=     1 Levels=  1 BoxLen=    8.00 SMaxX=        3.07
          Shift=            1.772609            1.535125            0.177777
 Box      1 Number                   0 centers from      1 to      4:
 After GenITR:
 ITRead=  0  0  0  0
 MicOpt= -1 -1 -1 -1
 ITRead=  0  0  0  0
 MicOpt= -1 -1 -1 -1
 NAtoms=      4 NQM=        4 NQMF=       0 NMMI=      0 NMMIF=      0
                NMic=       0 NMicF=      0.
                    Isotopes and Nuclear Properties:
 (Nuclear quadrupole moments (NQMom) in fm**2, nuclear magnetic moments (NMagM)
  in nuclear magnetons)

  Atom         1           2           3           4
 IAtWgt=          14           1           1           1
 AtmWgt=  14.0030740   1.0078250   1.0078250   1.0078250
 NucSpn=           2           1           1           1
 AtZEff=   0.0000000   0.0000000   0.0000000   0.0000000
 NQMom=    2.0440000   0.0000000   0.0000000   0.0000000
 NMagM=    0.4037610   2.7928460   2.7928460   2.7928460
 AtZNuc=   7.0000000   1.0000000   1.0000000   1.0000000
 No MM parameters found.
 Leave Link  101 at Wed Oct  7 14:09:46 2020, MaxMem=  2684354560 cpu:              19.6 elap:               1.8
 (Enter /udrive/faculty/rpeverati/g16/g16/l103.exe)

 GradGradGradGradGradGradGradGradGradGradGradGradGradGradGradGradGradGrad
 Berny optimization.
 Optmz: redundant internal coordinate code flag= 1
 Initialization pass.
                           ----------------------------
                           !    Initial Parameters    !
                           ! (Angstroms and Degrees)  !
 --------------------------                            --------------------------
 ! Name  Definition              Value          Derivative Info.                !
 --------------------------------------------------------------------------------
 ! R1    R(1,2)                  1.0107         estimate D2E/DX2                !
 ! R2    R(1,3)                  1.0107         estimate D2E/DX2                !
 ! R3    R(1,4)                  1.0107         estimate D2E/DX2                !
 ! A1    A(2,1,3)              106.9816         estimate D2E/DX2                !
 ! A2    A(2,1,4)              106.9816         estimate D2E/DX2                !
 ! A3    A(3,1,4)              106.9816         estimate D2E/DX2                !
 ! D1    D(2,1,4,3)            114.3656         estimate D2E/DX2                !
 --------------------------------------------------------------------------------
 Maximum allowed force set to 1.00D+20.
 Trust Radius=3.00D-01 FncErr=1.00D-07 GrdErr=1.00D-06 EigMax=2.50D+02 EigMin=1.00D-04
 Number of steps in this run=    100 maximum allowed number of steps=    100.
 GradGradGradGradGradGradGradGradGradGradGradGradGradGradGradGradGradGrad

 Leave Link  103 at Wed Oct  7 14:09:47 2020, MaxMem=  2684354560 cpu:               1.8 elap:               0.6
 (Enter /udrive/faculty/rpeverati/g16/g16/l202.exe)
                          Input orientation:                          
 ---------------------------------------------------------------------
 Center     Atomic      Atomic             Coordinates (Angstroms)
 Number     Number       Type             X           Y           Z
 ---------------------------------------------------------------------
      1          7           0        0.000000    0.000000    0.282227
      2          1           0        0.469012    0.812353   -0.094076
      3          1           0        0.469012   -0.812353   -0.094076
      4          1           0       -0.938024    0.000000   -0.094076
 ---------------------------------------------------------------------
                    Distance matrix (angstroms):
                    1          2          3          4
     1  N    0.000000
     2  H    1.010689   0.000000
     3  H    1.010689   1.624706   0.000000
     4  H    1.010689   1.624706   1.624706   0.000000
 Stoichiometry    H3N
 Framework group  C3V[C3(N),3SGV(H)]
 Deg. of freedom     2
 Full point group                 C3V     NOp   6
 Largest Abelian subgroup         CS      NOp   2
 Largest concise Abelian subgroup CS      NOp   2
                         Standard orientation:                         
 ---------------------------------------------------------------------
 Center     Atomic      Atomic             Coordinates (Angstroms)
 Number     Number       Type             X           Y           Z
 ---------------------------------------------------------------------
      1          7           0        0.000000    0.000000    0.112891
      2          1           0        0.000000    0.938024   -0.263412
      3          1           0        0.812353   -0.469012   -0.263412
      4          1           0       -0.812353   -0.469012   -0.263412
 ---------------------------------------------------------------------
 Rotational constants (GHZ):         300.4147259         300.4147259         189.9688874
 Leave Link  202 at Wed Oct  7 14:09:48 2020, MaxMem=  2684354560 cpu:               1.8 elap:               0.6
 (Enter /udrive/faculty/rpeverati/g16/g16/l301.exe)
 Standard basis: 6-31G(d) (5D, 7F)
 Ernie: Thresh=  0.10000D-02 Tol=  0.10000D-05 Strict=F.
 There are    15 symmetry adapted cartesian basis functions of A'  symmetry.
 There are     6 symmetry adapted cartesian basis functions of A"  symmetry.
 There are    14 symmetry adapted basis functions of A'  symmetry.
 There are     6 symmetry adapted basis functions of A"  symmetry.
    20 basis functions,    40 primitive gaussians,    21 cartesian basis functions
     5 alpha electrons        5 beta electrons
       nuclear repulsion energy        11.9723081244 Hartrees.
 IExCor=  404 DFT=T Ex=B Corr=P86 ExCW=0 ScaHFX=  0.000000
 ScaDFX=  1.000000  1.000000  1.000000  1.000000 ScalE2=  1.000000  1.000000
 IRadAn=      5 IRanWt=     -1 IRanGd=            0 ICorTp=0 IEmpDi=141
 NAtoms=    4 NActive=    4 NUniq=    2 SFac= 4.00D+00 NAtFMM=   60 NAOKFM=F Big=F
 Integral buffers will be    131072 words long.
 Raffenetti 2 integral format.
 Two-electron integral symmetry is turned on.
 R6Disp:  Grimme-D3(BJ) Dispersion energy=       -0.0009770771 Hartrees.
 Nuclear repulsion after empirical dispersion term =       11.9713310474 Hartrees.
 Leave Link  301 at Wed Oct  7 14:09:49 2020, MaxMem=  2684354560 cpu:               2.4 elap:               0.7
 (Enter /udrive/faculty/rpeverati/g16/g16/l302.exe)
 NPDir=0 NMtPBC=     1 NCelOv=     1 NCel=       1 NClECP=     1 NCelD=      1
         NCelK=      1 NCelE2=     1 NClLst=     1 CellRange=     0.0.
 One-electron integrals computed using PRISM.
 One-electron integral symmetry used in STVInt
 NBasis=    20 RedAO= T EigKep=  3.89D-02  NBF=    14     6
 NBsUse=    20 1.00D-06 EigRej= -1.00D+00 NBFU=    14     6
 Precomputing XC quadrature grid using
 IXCGrd= 4 IRadAn=           5 IRanWt=          -1 IRanGd=           0 AccXCQ= 0.00D+00.
 Generated NRdTot=       0 NPtTot=           0 NUsed=           0 NTot=          32
 NSgBfM=    21    21    21    21    21 MxSgAt=     4 MxSgA2=     4.
 Leave Link  302 at Wed Oct  7 14:09:50 2020, MaxMem=  2684354560 cpu:               3.4 elap:               0.6
 (Enter /udrive/faculty/rpeverati/g16/g16/l303.exe)
 DipDrv:  MaxL=1.
 Leave Link  303 at Wed Oct  7 14:09:51 2020, MaxMem=  2684354560 cpu:               1.6 elap:               0.5
 (Enter /udrive/faculty/rpeverati/g16/g16/l401.exe)
 SCF N**3 symmetry information disabled.
 ExpMin= 1.61D-01 ExpMax= 4.17D+03 ExpMxC= 6.27D+02 IAcc=3 IRadAn=         5 AccDes= 0.00D+00
 Harris functional with IExCor=  404 and IRadAn=       5 diagonalized for initial guess.
 HarFok:  IExCor=  404 AccDes= 0.00D+00 IRadAn=         5 IDoV= 1 UseB2=F ITyADJ=14
 ICtDFT=  3500011 ScaDFX=  1.000000  1.000000  1.000000  1.000000
 FoFCou: FMM=F IPFlag=           0 FMFlag=      100000 FMFlg1=           0
         NFxFlg=           0 DoJE=T BraDBF=F KetDBF=T FulRan=T
         wScrn=  0.000000 ICntrl=       500 IOpCl=  0 I1Cent=   200000004 NGrid=           0
         NMat0=    1 NMatS0=      1 NMatT0=    0 NMatD0=    1 NMtDS0=    0 NMtDT0=    0
 Petite list used in FoFCou.
 Harris En= -56.5953645786853    
 JPrj=0 DoOrth=F DoCkMO=F.
 Initial guess orbital symmetries:
       Occupied  (A1) (A1) (E) (E) (A1)
       Virtual   (A1) (E) (E) (A1) (E) (E) (E) (E) (A1) (A1) (E)
                 (E) (A1) (E) (E)
 The electronic state of the initial guess is 1-A1.
 Leave Link  401 at Wed Oct  7 14:09:52 2020, MaxMem=  2684354560 cpu:               4.3 elap:               0.7
 (Enter /udrive/faculty/rpeverati/g16/g16/l502.exe)
 Keep J ints in memory in symmetry-blocked form, NReq=10364782.
 FoFCou: FMM=F IPFlag=           0 FMFlag=           0 FMFlg1=           0
         NFxFlg=           0 DoJE=F BraDBF=F KetDBF=F FulRan=T
         wScrn=  0.000000 ICntrl=       600 IOpCl=  0 I1Cent=           0 NGrid=           0
         NMat0=    1 NMatS0=    210 NMatT0=    0 NMatD0=    1 NMtDS0=    0 NMtDT0=    0
 Petite list used in FoFCou.
 Closed shell SCF:
 Using DIIS extrapolation, IDIIS=  1040.
 NGot=  2684354560 LenX=  2684340664 LenY=  2684339782
 Requested convergence on RMS density matrix=1.00D-08 within 120 cycles.
 Requested convergence on MAX density matrix=1.00D-06.
 Requested convergence on             energy=1.00D-06.
 No special actions if energy rises.
 Integral accuracy reduced to 1.0D-05 until final iterations.

 Cycle   1  Pass 0  IDiag  1:
 E= -56.4680099667586    
 DIIS: error= 7.23D-02 at cycle   1 NSaved=   1.
 NSaved= 1 IEnMin= 1 EnMin= -56.4680099667586     IErMin= 1 ErrMin= 7.23D-02
 ErrMax= 7.23D-02  0.00D+00 EMaxC= 1.00D-01 BMatC= 8.80D-02 BMatP= 8.80D-02
 IDIUse=3 WtCom= 2.77D-01 WtEn= 7.23D-01
 Coeff-Com:  0.100D+01
 Coeff-En:   0.100D+01
 Coeff:      0.100D+01
 Gap=     0.143 Goal=   None    Shift=    0.000
 GapD=    0.143 DampG=1.000 DampE=0.500 DampFc=0.5000 IDamp=-1.
 Damping current iteration by 5.00D-01
 RMSDP=3.00D-02 MaxDP=2.05D-01              OVMax= 2.11D-01

 Cycle   2  Pass 0  IDiag  1:
 E= -56.4873101941667     Delta-E=       -0.019300227408 Rises=F Damp=T
 DIIS: error= 2.13D-02 at cycle   2 NSaved=   2.
 NSaved= 2 IEnMin= 2 EnMin= -56.4873101941667     IErMin= 2 ErrMin= 2.13D-02
 ErrMax= 2.13D-02  0.00D+00 EMaxC= 1.00D-01 BMatC= 9.00D-03 BMatP= 8.80D-02
 IDIUse=3 WtCom= 7.87D-01 WtEn= 2.13D-01
 Coeff-Com:  0.238D+00 0.762D+00
 Coeff-En:   0.383D+00 0.617D+00
 Coeff:      0.269D+00 0.731D+00
 Gap=     0.248 Goal=   None    Shift=    0.000
 RMSDP=4.58D-03 MaxDP=3.34D-02 DE=-1.93D-02 OVMax= 1.24D-01

 Cycle   3  Pass 0  IDiag  1:
 E= -56.5452373596000     Delta-E=       -0.057927165433 Rises=F Damp=F
 DIIS: error= 4.06D-03 at cycle   3 NSaved=   3.
 NSaved= 3 IEnMin= 3 EnMin= -56.5452373596000     IErMin= 3 ErrMin= 4.06D-03
 ErrMax= 4.06D-03  0.00D+00 EMaxC= 1.00D-01 BMatC= 3.76D-04 BMatP= 9.00D-03
 IDIUse=3 WtCom= 9.59D-01 WtEn= 4.06D-02
 Coeff-Com:  0.775D-01 0.803D-01 0.842D+00
 Coeff-En:   0.000D+00 0.000D+00 0.100D+01
 Coeff:      0.744D-01 0.770D-01 0.849D+00
 Gap=     0.264 Goal=   None    Shift=    0.000
 RMSDP=6.64D-04 MaxDP=4.92D-03 DE=-5.79D-02 OVMax= 5.21D-03

 Cycle   4  Pass 0  IDiag  1:
 E= -56.5455491555338     Delta-E=       -0.000311795934 Rises=F Damp=F
 DIIS: error= 3.83D-04 at cycle   4 NSaved=   4.
 NSaved= 4 IEnMin= 4 EnMin= -56.5455491555338     IErMin= 4 ErrMin= 3.83D-04
 ErrMax= 3.83D-04  0.00D+00 EMaxC= 1.00D-01 BMatC= 2.43D-06 BMatP= 3.76D-04
 IDIUse=3 WtCom= 9.96D-01 WtEn= 3.83D-03
 Coeff-Com:  0.572D-02-0.135D-01 0.183D+00 0.825D+00
 Coeff-En:   0.000D+00 0.000D+00 0.000D+00 0.100D+01
 Coeff:      0.569D-02-0.135D-01 0.182D+00 0.826D+00
 Gap=     0.264 Goal=   None    Shift=    0.000
 RMSDP=7.00D-05 MaxDP=3.74D-04 DE=-3.12D-04 OVMax= 4.56D-04

 Cycle   5  Pass 0  IDiag  1:
 E= -56.5455512157864     Delta-E=       -0.000002060253 Rises=F Damp=F
 DIIS: error= 5.29D-05 at cycle   5 NSaved=   5.
 NSaved= 5 IEnMin= 5 EnMin= -56.5455512157864     IErMin= 5 ErrMin= 5.29D-05
 ErrMax= 5.29D-05  0.00D+00 EMaxC= 1.00D-01 BMatC= 4.61D-08 BMatP= 2.43D-06
 IDIUse=1 WtCom= 1.00D+00 WtEn= 0.00D+00
 Coeff-Com:  0.957D-03-0.686D-03 0.813D-02 0.194D-01 0.972D+00
 Coeff:      0.957D-03-0.686D-03 0.813D-02 0.194D-01 0.972D+00
 Gap=     0.264 Goal=   None    Shift=    0.000
 RMSDP=7.55D-06 MaxDP=5.05D-05 DE=-2.06D-06 OVMax= 5.75D-05

 Initial convergence to 1.0D-05 achieved.  Increase integral accuracy.
 Cycle   6  Pass 1  IDiag  1:
 E= -56.5455522444197     Delta-E=       -0.000001028633 Rises=F Damp=F
 DIIS: error= 1.99D-06 at cycle   1 NSaved=   1.
 NSaved= 1 IEnMin= 1 EnMin= -56.5455522444197     IErMin= 1 ErrMin= 1.99D-06
 ErrMax= 1.99D-06  0.00D+00 EMaxC= 1.00D-01 BMatC= 7.19D-11 BMatP= 7.19D-11
 IDIUse=1 WtCom= 1.00D+00 WtEn= 0.00D+00
 Coeff-Com:  0.100D+01
 Coeff:      0.100D+01
 Gap=     0.264 Goal=   None    Shift=    0.000
 RMSDP=7.55D-06 MaxDP=5.05D-05 DE=-1.03D-06 OVMax= 5.03D-06

 Cycle   7  Pass 1  IDiag  1:
 E= -56.5455522443385     Delta-E=        0.000000000081 Rises=F Damp=F
 DIIS: error= 3.11D-06 at cycle   2 NSaved=   2.
 NSaved= 2 IEnMin= 1 EnMin= -56.5455522444197     IErMin= 1 ErrMin= 1.99D-06
 ErrMax= 3.11D-06  0.00D+00 EMaxC= 1.00D-01 BMatC= 1.65D-10 BMatP= 7.19D-11
 IDIUse=1 WtCom= 1.00D+00 WtEn= 0.00D+00
 Coeff-Com:  0.604D+00 0.396D+00
 Coeff:      0.604D+00 0.396D+00
 Gap=     0.264 Goal=   None    Shift=    0.000
 RMSDP=4.84D-07 MaxDP=3.62D-06 DE= 8.12D-11 OVMax= 3.48D-06

 Cycle   8  Pass 1  IDiag  1:
 E= -56.5455522444784     Delta-E=       -0.000000000140 Rises=F Damp=F
 DIIS: error= 1.52D-07 at cycle   3 NSaved=   3.
 NSaved= 3 IEnMin= 3 EnMin= -56.5455522444784     IErMin= 3 ErrMin= 1.52D-07
 ErrMax= 1.52D-07  0.00D+00 EMaxC= 1.00D-01 BMatC= 6.35D-13 BMatP= 7.19D-11
 IDIUse=1 WtCom= 1.00D+00 WtEn= 0.00D+00
 Coeff-Com:  0.114D+00 0.112D+00 0.774D+00
 Coeff:      0.114D+00 0.112D+00 0.774D+00
 Gap=     0.264 Goal=   None    Shift=    0.000
 RMSDP=2.85D-08 MaxDP=1.56D-07 DE=-1.40D-10 OVMax= 2.36D-07

 Cycle   9  Pass 1  IDiag  1:
 E= -56.5455522444789     Delta-E=       -0.000000000000 Rises=F Damp=F
 DIIS: error= 2.29D-08 at cycle   4 NSaved=   4.
 NSaved= 4 IEnMin= 4 EnMin= -56.5455522444789     IErMin= 4 ErrMin= 2.29D-08
 ErrMax= 2.29D-08  0.00D+00 EMaxC= 1.00D-01 BMatC= 9.26D-15 BMatP= 6.35D-13
 IDIUse=1 WtCom= 1.00D+00 WtEn= 0.00D+00
 Coeff-Com:  0.286D-02 0.127D-01 0.155D+00 0.829D+00
 Coeff:      0.286D-02 0.127D-01 0.155D+00 0.829D+00
 Gap=     0.264 Goal=   None    Shift=    0.000
 RMSDP=4.54D-09 MaxDP=3.28D-08 DE=-4.97D-13 OVMax= 3.90D-08

 SCF Done:  E(RB-P86) =  -56.5455522445     A.U. after    9 cycles
            NFock=  9  Conv=0.45D-08     -V/T= 2.0058
 KE= 5.622070544006D+01 PE=-1.559585397561D+02 EE= 3.122095102415D+01
 Leave Link  502 at Wed Oct  7 14:09:53 2020, MaxMem=  2684354560 cpu:               8.4 elap:               1.1
 (Enter /udrive/faculty/rpeverati/g16/g16/l508.exe)
 QCSCF skips out because SCF is already converged.
 Leave Link  508 at Wed Oct  7 14:09:54 2020, MaxMem=  2684354560 cpu:               0.7 elap:               0.5
 (Enter /udrive/faculty/rpeverati/g16/g16/l601.exe)
 Copying SCF densities to generalized density rwf, IOpCl= 0 IROHF=0.

 **********************************************************************

            Population analysis using the SCF density.

 **********************************************************************

 Orbital symmetries:
       Occupied  (A1) (A1) (E) (E) (A1)
       Virtual   (A1) (E) (E) (E) (E) (A1) (E) (E) (A1) (A1) (E)
                 (E) (A1) (E) (E)
 The electronic state is 1-A1.
 Alpha  occ. eigenvalues --  -13.97843  -0.77021  -0.40731  -0.40731  -0.20019
 Alpha virt. eigenvalues --    0.06348   0.14726   0.14726   0.64190   0.64190
 Alpha virt. eigenvalues --    0.67302   0.86827   0.86827   0.87240   1.17818
 Alpha virt. eigenvalues --    1.60121   1.60121   1.89153   2.33142   2.33142
          Condensed to atoms (all electrons):
               1          2          3          4
     1  N    6.943745   0.322315   0.322315   0.322315
     2  H    0.322315   0.436935  -0.031407  -0.031407
     3  H    0.322315  -0.031407   0.436935  -0.031407
     4  H    0.322315  -0.031407  -0.031407   0.436935
 Mulliken charges:
               1
     1  N   -0.910691
     2  H    0.303564
     3  H    0.303564
     4  H    0.303564
 Sum of Mulliken charges =   0.00000
 Mulliken charges with hydrogens summed into heavy atoms:
               1
     1  N    0.000000
 Electronic spatial extent (au):  <R**2>=             26.1055
 Charge=              0.0000 electrons
 Dipole moment (field-independent basis, Debye):
    X=             -0.0000    Y=              0.0000    Z=             -1.8456  Tot=              1.8456
 Quadrupole moment (field-independent basis, Debye-Ang):
   XX=             -6.0891   YY=             -6.0891   ZZ=             -8.8273
   XY=             -0.0000   XZ=              0.0000   YZ=             -0.0000
 Traceless Quadrupole moment (field-independent basis, Debye-Ang):
   XX=              0.9127   YY=              0.9127   ZZ=             -1.8255
   XY=             -0.0000   XZ=              0.0000   YZ=             -0.0000
 Octapole moment (field-independent basis, Debye-Ang**2):
  XXX=             -0.0000  YYY=              0.8045  ZZZ=             -1.6730  XYY=              0.0000
  XXY=             -0.8045  XXZ=             -0.8673  XZZ=              0.0000  YZZ=              0.0000
  YYZ=             -0.8673  XYZ=              0.0000
 Hexadecapole moment (field-independent basis, Debye-Ang**3):
 XXXX=             -9.4170 YYYY=             -9.4170 ZZZZ=             -9.6881 XXXY=              0.0000
 XXXZ=              0.0000 YYYX=              0.0000 YYYZ=             -0.2913 ZZZX=             -0.0000
 ZZZY=             -0.0000 XXYY=             -3.1390 XXZZ=             -3.2402 YYZZ=             -3.2402
 XXYZ=              0.2913 YYXZ=             -0.0000 ZZXY=              0.0000
 N-N= 1.197133104737D+01 E-N=-1.559585400292D+02  KE= 5.622070544006D+01
 No NMR shielding tensors so no spin-rotation constants.
 Leave Link  601 at Wed Oct  7 14:09:55 2020, MaxMem=  2684354560 cpu:               3.3 elap:               0.8
 (Enter /udrive/faculty/rpeverati/g16/g16/l701.exe)
 ... and contract with generalized density number  0.
 Compute integral first derivatives.
 R6Disp: Adding Grimme-D3(BJ) dispersion energy 1st derivatives to the gradient.
 Leave Link  701 at Wed Oct  7 14:09:56 2020, MaxMem=  2684354560 cpu:               3.8 elap:               0.8
 (Enter /udrive/faculty/rpeverati/g16/g16/l702.exe)
 L702 exits ... SP integral derivatives will be done elsewhere.
 Leave Link  702 at Wed Oct  7 14:09:57 2020, MaxMem=  2684354560 cpu:               2.0 elap:               0.6
 (Enter /udrive/faculty/rpeverati/g16/g16/l703.exe)
 Integral derivatives from FoFJK, PRISM(SPDF).
 Compute integral first derivatives, UseDBF=F ICtDFT=           0.
 Calling FoFJK, ICntrl=      2527 FMM=F ISym2X=1 I1Cent= 0 IOpClX= 0 NMat=1 NMatS=1 NMatT=0.
 FoFJK:  IHMeth= 1 ICntrl=    2527 DoSepK=F KAlg= 0 I1Cent=           0 FoldK=F
 IRaf=         0 NMat=       1 IRICut=       1 DoRegI=T DoRafI=F ISym2E= 1 IDoP0=0 IntGTp=1.
 FoFCou: FMM=F IPFlag=           0 FMFlag=      100000 FMFlg1=         800
         NFxFlg=           0 DoJE=F BraDBF=F KetDBF=F FulRan=T
         wScrn=  0.000000 ICntrl=      2527 IOpCl=  0 I1Cent=           0 NGrid=           0
         NMat0=    1 NMatS0=      1 NMatT0=    0 NMatD0=    1 NMtDS0=    0 NMtDT0=    0
 Petite list used in FoFCou.
 Leave Link  703 at Wed Oct  7 14:09:58 2020, MaxMem=  2684354560 cpu:               4.8 elap:               0.8
 (Enter /udrive/faculty/rpeverati/g16/g16/l716.exe)
 Dipole        =-2.22044605D-16 0.00000000D+00-7.26112851D-01
 ***** Axes restored to original set *****
 -------------------------------------------------------------------
 Center     Atomic                   Forces (Hartrees/Bohr)
 Number     Number              X              Y              Z
 -------------------------------------------------------------------
      1        7          -0.000000000    0.000000000    0.017069746
      2        1           0.005727730    0.009920720   -0.005689915
      3        1           0.005727730   -0.009920720   -0.005689915
      4        1          -0.011455460   -0.000000000   -0.005689915
 -------------------------------------------------------------------
 Cartesian Forces:  Max     0.017069746 RMS     0.008073539
 Leave Link  716 at Wed Oct  7 14:09:59 2020, MaxMem=  2684354560 cpu:               2.6 elap:               0.7
 (Enter /udrive/faculty/rpeverati/g16/g16/l103.exe)

 GradGradGradGradGradGradGradGradGradGradGradGradGradGradGradGradGradGrad
 Berny optimization.
 Optmz: redundant internal coordinate code flag= 1
 FormGI is forming the generalized inverse of G from B-inverse, IUseBI=4.
 Internal  Forces:  Max     0.012750335 RMS     0.008385705
 Search for a local minimum.
 Step number   1 out of a maximum of  100
 All quantities printed in internal units (Hartrees-Bohrs-Radians)
 RMS Force = .83857D-02 SwitMx=.10000D-02 MixMth= 1
 Mixed Optimization -- RFO/linear search
 Second derivative matrix not updated -- first step.
 The second derivative matrix:
                          R1        R2        R3        A1        A2
           R1           0.45857
           R2           0.00000   0.45857
           R3           0.00000   0.00000   0.45857
           A1           0.00000   0.00000   0.00000   0.16000
           A2           0.00000   0.00000   0.00000   0.00000   0.16000
           A3           0.00000   0.00000   0.00000   0.00000   0.00000
           D1           0.00000   0.00000   0.00000   0.00000   0.00000
                          A3        D1
           A3           0.16000
           D1           0.00000   0.00887
 ITU=  0
 Eigenvectors of the second derivative matrix:
                           1         2         3         4         5
     Eigenvalues --     0.06351   0.16000   0.16000   0.45857   0.45857
   1         R1        -0.00000  -0.00000  -0.00000   0.85326   0.51458
   2         R2        -0.00000  -0.00000  -0.00000   0.50842  -0.85695
   3         R3        -0.00000   0.00000  -0.00000  -0.11598   0.02916
   4         A1        -0.51935   0.19748  -0.46364  -0.00000   0.00000
   5         A2        -0.21426   0.41121   0.83900   0.00000  -0.00000
   6         A3        -0.21426  -0.88989   0.28481  -0.00000  -0.00000
   7         D1        -0.79904  -0.00000   0.00000  -0.00000   0.00000
                           6
     Eigenvalues --     0.45857
   1         R1         0.08457
   2         R2         0.08457
   3         R3         0.99282
   4         A1        -0.00000
   5         A2        -0.00000
   6         A3        -0.00000
   7         D1        -0.00000
 Iter=   1 RLamda= 0.00000000D+00 Sum=-1.11916803D-03.
 Iter=   2 RLamda=-1.11916803D-03 Sum=-1.11572240D-03.
 Iter=   3 RLamda=-1.11572240D-03 Sum=-1.11573294D-03.
 Iter=   4 RLamda=-1.11573294D-03 Sum=-1.11573291D-03.
 RFO step:  Lambda=-1.11573294D-03 EMin= 6.35086103D-02
 Linear search not attempted -- first point.
 Iteration  1 RMS(Cart)=  0.01528970 RMS(Int)=  0.00019708
 Iteration  2 RMS(Cart)=  0.00014193 RMS(Int)=  0.00008420
 Iteration  3 RMS(Cart)=  0.00000003 RMS(Int)=  0.00008420
 ITry= 1 IFail=0 DXMaxC= 2.04D-02 DCOld= 1.00D+10 DXMaxT= 3.00D-01 DXLimC= 3.00D+00 Rises=F
 ClnCor:  largest displacement from symmetrization is 4.15D-04 for atom     4.
 Variable       Old X    -DE/DX   Delta X   Delta X   Delta X     New X
                                 (Linear)    (Quad)   (Total)
    R1        1.90993   0.01275   0.00000   0.02774   0.02785   1.93778
    R2        1.90993   0.01275   0.00000   0.02774   0.02785   1.93778
    R3        1.90993   0.01275   0.00000   0.02774   0.02785   1.93778
    A1        1.86718  -0.00023   0.00000  -0.00962  -0.01025   1.85693
    A2        1.86718  -0.00115   0.00000  -0.01049  -0.01025   1.85693
    A3        1.86718  -0.00115   0.00000  -0.01049  -0.01025   1.85693
    D1        1.99606  -0.00136   0.00000  -0.02098  -0.02110   1.97495
         Item               Value     Threshold  Converged?
 Maximum Force            0.012750     0.000450     NO 
 RMS     Force            0.008386     0.000300     NO 
 Maximum Displacement     0.020424     0.001800     NO 
 RMS     Displacement     0.015298     0.001200     NO 
 Predicted change in Energy=-5.591255D-04
 Lowest energy point so far.  Saving SCF results.
 Largest change from initial coordinates is atom    1       0.011 Angstoms.
 GradGradGradGradGradGradGradGradGradGradGradGradGradGradGradGradGradGrad

 Leave Link  103 at Wed Oct  7 14:10:00 2020, MaxMem=  2684354560 cpu:               3.2 elap:               0.8
 (Enter /udrive/faculty/rpeverati/g16/g16/l202.exe)
                          Input orientation:                          
 ---------------------------------------------------------------------
 Center     Atomic      Atomic             Coordinates (Angstroms)
 Number     Number       Type             X           Y           Z
 ---------------------------------------------------------------------
      1          7           0       -0.000000    0.000000    0.293034
      2          1           0        0.474040    0.821062   -0.097661
      3          1           0        0.474040   -0.821062   -0.097661
      4          1           0       -0.948080    0.000000   -0.097661
 ---------------------------------------------------------------------
                    Distance matrix (angstroms):
                    1          2          3          4
     1  N    0.000000
     2  H    1.025426   0.000000
     3  H    1.025426   1.642123   0.000000
     4  H    1.025426   1.642123   1.642123   0.000000
 Stoichiometry    H3N
 Framework group  C3V[C3(N),3SGV(H)]
 Deg. of freedom     2
 Full point group                 C3V     NOp   6
 RotChk:  IX=0 Diff= 1.57D-16
 Largest Abelian subgroup         CS      NOp   2
 Largest concise Abelian subgroup CS      NOp   2
                         Standard orientation:                         
 ---------------------------------------------------------------------
 Center     Atomic      Atomic             Coordinates (Angstroms)
 Number     Number       Type             X           Y           Z
 ---------------------------------------------------------------------
      1          7           0        0.000000    0.000000    0.117209
      2          1           0        0.000000    0.948080   -0.273487
      3          1           0        0.821062   -0.474040   -0.273487
      4          1           0       -0.821062   -0.474040   -0.273487
 ---------------------------------------------------------------------
 Rotational constants (GHZ):         290.7159370         290.7159370         185.9603941
 Leave Link  202 at Wed Oct  7 14:10:00 2020, MaxMem=  2684354560 cpu:               1.3 elap:               0.4
 (Enter /udrive/faculty/rpeverati/g16/g16/l301.exe)
 Standard basis: 6-31G(d) (5D, 7F)
 Ernie: Thresh=  0.10000D-02 Tol=  0.10000D-05 Strict=F.
 There are    15 symmetry adapted cartesian basis functions of A'  symmetry.
 There are     6 symmetry adapted cartesian basis functions of A"  symmetry.
 There are    14 symmetry adapted basis functions of A'  symmetry.
 There are     6 symmetry adapted basis functions of A"  symmetry.
    20 basis functions,    40 primitive gaussians,    21 cartesian basis functions
     5 alpha electrons        5 beta electrons
       nuclear repulsion energy        11.8039260132 Hartrees.
 IExCor=  404 DFT=T Ex=B Corr=P86 ExCW=0 ScaHFX=  0.000000
 ScaDFX=  1.000000  1.000000  1.000000  1.000000 ScalE2=  1.000000  1.000000
 IRadAn=      5 IRanWt=     -1 IRanGd=            0 ICorTp=0 IEmpDi=141
 NAtoms=    4 NActive=    4 NUniq=    2 SFac= 4.00D+00 NAtFMM=   60 NAOKFM=F Big=F
 Integral buffers will be    131072 words long.
 Raffenetti 2 integral format.
 Two-electron integral symmetry is turned on.
 R6Disp:  Grimme-D3(BJ) Dispersion energy=       -0.0009770290 Hartrees.
 Nuclear repulsion after empirical dispersion term =       11.8029489841 Hartrees.
 Leave Link  301 at Wed Oct  7 14:10:01 2020, MaxMem=  2684354560 cpu:               1.9 elap:               0.7
 (Enter /udrive/faculty/rpeverati/g16/g16/l302.exe)
 NPDir=0 NMtPBC=     1 NCelOv=     1 NCel=       1 NClECP=     1 NCelD=      1
         NCelK=      1 NCelE2=     1 NClLst=     1 CellRange=     0.0.
 One-electron integrals computed using PRISM.
 One-electron integral symmetry used in STVInt
 NBasis=    20 RedAO= T EigKep=  4.01D-02  NBF=    14     6
 NBsUse=    20 1.00D-06 EigRej= -1.00D+00 NBFU=    14     6
 Precomputing XC quadrature grid using
 IXCGrd= 4 IRadAn=           5 IRanWt=          -1 IRanGd=           0 AccXCQ= 0.00D+00.
 Generated NRdTot=       0 NPtTot=           0 NUsed=           0 NTot=          32
 NSgBfM=    21    21    21    21    21 MxSgAt=     4 MxSgA2=     4.
 Leave Link  302 at Wed Oct  7 14:10:02 2020, MaxMem=  2684354560 cpu:               4.3 elap:               0.8
 (Enter /udrive/faculty/rpeverati/g16/g16/l303.exe)
 DipDrv:  MaxL=1.
 Leave Link  303 at Wed Oct  7 14:10:03 2020, MaxMem=  2684354560 cpu:               2.0 elap:               0.7
 (Enter /udrive/faculty/rpeverati/g16/g16/l401.exe)
 Initial guess from the checkpoint file:  "MN_71_NH3_BH76_BP86DBJ_631Gs.chk"
 SCF N**3 symmetry information disabled.
 B after Tr=     0.000000    0.000000    0.000000
         Rot=    1.000000   -0.000000    0.000000   -0.000000 Ang=   0.00 deg.
 Guess basis will be translated and rotated to current coordinates.
 JPrj=2 DoOrth=T DoCkMO=T.
 Initial guess orbital symmetries:
       Occupied  (A1) (A1) (E) (E) (A1)
       Virtual   (A1) (E) (E) (E) (E) (A1) (E) (E) (A1) (A1) (E)
                 (E) (A1) (E) (E)
 The electronic state of the initial guess is 1-A1.
 Generating alternative initial guess.
 ExpMin= 1.61D-01 ExpMax= 4.17D+03 ExpMxC= 6.27D+02 IAcc=2 IRadAn=         4 AccDes= 0.00D+00
 Harris functional with IExCor=  404 and IRadAn=       4 diagonalized for initial guess.
 HarFok:  IExCor=  404 AccDes= 0.00D+00 IRadAn=         4 IDoV= 1 UseB2=F ITyADJ=14
 ICtDFT=  3500011 ScaDFX=  1.000000  1.000000  1.000000  1.000000
 FoFCou: FMM=F IPFlag=           0 FMFlag=      100000 FMFlg1=           0
         NFxFlg=           0 DoJE=T BraDBF=F KetDBF=T FulRan=T
         wScrn=  0.000000 ICntrl=       500 IOpCl=  0 I1Cent=   200000004 NGrid=           0
         NMat0=    1 NMatS0=      1 NMatT0=    0 NMatD0=    1 NMtDS0=    0 NMtDT0=    0
 Petite list used in FoFCou.
 Harris En= -56.5925823760497    
 Leave Link  401 at Wed Oct  7 14:10:05 2020, MaxMem=  2684354560 cpu:               5.3 elap:               0.9
 (Enter /udrive/faculty/rpeverati/g16/g16/l502.exe)
 Keep J ints in memory in symmetry-blocked form, NReq=10364782.
 FoFCou: FMM=F IPFlag=           0 FMFlag=           0 FMFlg1=           0
         NFxFlg=           0 DoJE=F BraDBF=F KetDBF=F FulRan=T
         wScrn=  0.000000 ICntrl=       600 IOpCl=  0 I1Cent=           0 NGrid=           0
         NMat0=    1 NMatS0=    210 NMatT0=    0 NMatD0=    1 NMtDS0=    0 NMtDT0=    0
 Petite list used in FoFCou.
 Closed shell SCF:
 Using DIIS extrapolation, IDIIS=  1040.
 NGot=  2684354560 LenX=  2684340664 LenY=  2684339782
 Requested convergence on RMS density matrix=1.00D-08 within 120 cycles.
 Requested convergence on MAX density matrix=1.00D-06.
 Requested convergence on             energy=1.00D-06.
 No special actions if energy rises.
 Integral accuracy reduced to 1.0D-05 until final iterations.

 Cycle   1  Pass 0  IDiag  1:
 E= -56.5459932457508    
 DIIS: error= 2.72D-03 at cycle   1 NSaved=   1.
 NSaved= 1 IEnMin= 1 EnMin= -56.5459932457508     IErMin= 1 ErrMin= 2.72D-03
 ErrMax= 2.72D-03  0.00D+00 EMaxC= 1.00D-01 BMatC= 1.34D-04 BMatP= 1.34D-04
 IDIUse=3 WtCom= 9.73D-01 WtEn= 2.72D-02
 Coeff-Com:  0.100D+01
 Coeff-En:   0.100D+01
 Coeff:      0.100D+01
 Gap=     0.258 Goal=   None    Shift=    0.000
 GapD=    0.258 DampG=1.000 DampE=1.000 DampFc=1.0000 IDamp=-1.
 RMSDP=1.59D-03 MaxDP=1.30D-02              OVMax= 1.16D-02

 Cycle   2  Pass 0  IDiag  1:
 E= -56.5459927859006     Delta-E=        0.000000459850 Rises=F Damp=F
 DIIS: error= 3.66D-03 at cycle   2 NSaved=   2.
 NSaved= 2 IEnMin= 1 EnMin= -56.5459932457508     IErMin= 1 ErrMin= 2.72D-03
 ErrMax= 3.66D-03  0.00D+00 EMaxC= 1.00D-01 BMatC= 2.24D-04 BMatP= 1.34D-04
 IDIUse=3 WtCom= 1.42D-01 WtEn= 8.58D-01
 Coeff-Com:  0.576D+00 0.424D+00
 Coeff-En:   0.501D+00 0.499D+00
 Coeff:      0.511D+00 0.489D+00
 Gap=     0.261 Goal=   None    Shift=    0.000
 RMSDP=7.24D-04 MaxDP=5.24D-03 DE= 4.60D-07 OVMax= 5.14D-03

 Cycle   3  Pass 0  IDiag  1:
 E= -56.5461669701358     Delta-E=       -0.000174184235 Rises=F Damp=F
 DIIS: error= 1.12D-03 at cycle   3 NSaved=   3.
 NSaved= 3 IEnMin= 3 EnMin= -56.5461669701358     IErMin= 3 ErrMin= 1.12D-03
 ErrMax= 1.12D-03  0.00D+00 EMaxC= 1.00D-01 BMatC= 2.31D-05 BMatP= 1.34D-04
 IDIUse=3 WtCom= 9.89D-01 WtEn= 1.12D-02
 Coeff-Com:  0.329D-01 0.246D+00 0.721D+00
 Coeff-En:   0.000D+00 0.856D-01 0.914D+00
 Coeff:      0.325D-01 0.244D+00 0.723D+00
 Gap=     0.260 Goal=   None    Shift=    0.000
 RMSDP=1.70D-04 MaxDP=1.25D-03 DE=-1.74D-04 OVMax= 1.35D-03

 Cycle   4  Pass 0  IDiag  1:
 E= -56.5461867348532     Delta-E=       -0.000019764717 Rises=F Damp=F
 DIIS: error= 7.86D-05 at cycle   4 NSaved=   4.
 NSaved= 4 IEnMin= 4 EnMin= -56.5461867348532     IErMin= 4 ErrMin= 7.86D-05
 ErrMax= 7.86D-05  0.00D+00 EMaxC= 1.00D-01 BMatC= 1.21D-07 BMatP= 2.31D-05
 IDIUse=1 WtCom= 1.00D+00 WtEn= 0.00D+00
 Coeff-Com:  0.346D-02 0.634D-01 0.214D+00 0.719D+00
 Coeff:      0.346D-02 0.634D-01 0.214D+00 0.719D+00
 Gap=     0.260 Goal=   None    Shift=    0.000
 RMSDP=1.45D-05 MaxDP=9.67D-05 DE=-1.98D-05 OVMax= 1.07D-04

 Cycle   5  Pass 0  IDiag  1:
 E= -56.5461868390056     Delta-E=       -0.000000104152 Rises=F Damp=F
 DIIS: error= 2.62D-06 at cycle   5 NSaved=   5.
 NSaved= 5 IEnMin= 5 EnMin= -56.5461868390056     IErMin= 5 ErrMin= 2.62D-06
 ErrMax= 2.62D-06  0.00D+00 EMaxC= 1.00D-01 BMatC= 1.50D-10 BMatP= 1.21D-07
 IDIUse=1 WtCom= 1.00D+00 WtEn= 0.00D+00
 Coeff-Com: -0.830D-04 0.295D-02 0.102D-01 0.627D-01 0.924D+00
 Coeff:     -0.830D-04 0.295D-02 0.102D-01 0.627D-01 0.924D+00
 Gap=     0.260 Goal=   None    Shift=    0.000
 RMSDP=6.09D-07 MaxDP=3.42D-06 DE=-1.04D-07 OVMax= 3.54D-06

 Initial convergence to 1.0D-05 achieved.  Increase integral accuracy.
 Cycle   6  Pass 1  IDiag  1:
 E= -56.5461871036927     Delta-E=       -0.000000264687 Rises=F Damp=F
 DIIS: error= 2.76D-07 at cycle   1 NSaved=   1.
 NSaved= 1 IEnMin= 1 EnMin= -56.5461871036927     IErMin= 1 ErrMin= 2.76D-07
 ErrMax= 2.76D-07  0.00D+00 EMaxC= 1.00D-01 BMatC= 1.68D-12 BMatP= 1.68D-12
 IDIUse=1 WtCom= 1.00D+00 WtEn= 0.00D+00
 Coeff-Com:  0.100D+01
 Coeff:      0.100D+01
 Gap=     0.260 Goal=   None    Shift=    0.000
 RMSDP=6.09D-07 MaxDP=3.42D-06 DE=-2.65D-07 OVMax= 6.49D-07

 Cycle   7  Pass 1  IDiag  1:
 E= -56.5461871036941     Delta-E=       -0.000000000001 Rises=F Damp=F
 DIIS: error= 9.37D-08 at cycle   2 NSaved=   2.
 NSaved= 2 IEnMin= 2 EnMin= -56.5461871036941     IErMin= 2 ErrMin= 9.37D-08
 ErrMax= 9.37D-08  0.00D+00 EMaxC= 1.00D-01 BMatC= 1.59D-13 BMatP= 1.68D-12
 IDIUse=1 WtCom= 1.00D+00 WtEn= 0.00D+00
 Coeff-Com:  0.166D+00 0.834D+00
 Coeff:      0.166D+00 0.834D+00
 Gap=     0.260 Goal=   None    Shift=    0.000
 RMSDP=3.26D-08 MaxDP=2.09D-07 DE=-1.48D-12 OVMax= 2.66D-07

 Cycle   8  Pass 1  IDiag  1:
 E= -56.5461871036942     Delta-E=       -0.000000000000 Rises=F Damp=F
 DIIS: error= 7.45D-08 at cycle   3 NSaved=   3.
 NSaved= 3 IEnMin= 3 EnMin= -56.5461871036942     IErMin= 3 ErrMin= 7.45D-08
 ErrMax= 7.45D-08  0.00D+00 EMaxC= 1.00D-01 BMatC= 9.47D-14 BMatP= 1.59D-13
 IDIUse=1 WtCom= 1.00D+00 WtEn= 0.00D+00
 Coeff-Com:  0.385D-01 0.436D+00 0.525D+00
 Coeff:      0.385D-01 0.436D+00 0.525D+00
 Gap=     0.260 Goal=   None    Shift=    0.000
 RMSDP=1.46D-08 MaxDP=1.07D-07 DE=-5.68D-14 OVMax= 1.03D-07

 Cycle   9  Pass 1  IDiag  1:
 E= -56.5461871036942     Delta-E=       -0.000000000000 Rises=F Damp=F
 DIIS: error= 2.28D-08 at cycle   4 NSaved=   4.
 NSaved= 4 IEnMin= 4 EnMin= -56.5461871036942     IErMin= 4 ErrMin= 2.28D-08
 ErrMax= 2.28D-08  0.00D+00 EMaxC= 1.00D-01 BMatC= 1.11D-14 BMatP= 9.47D-14
 IDIUse=1 WtCom= 1.00D+00 WtEn= 0.00D+00
 Coeff-Com:  0.115D-02 0.124D+00 0.289D+00 0.585D+00
 Coeff:      0.115D-02 0.124D+00 0.289D+00 0.585D+00
 Gap=     0.260 Goal=   None    Shift=    0.000
 RMSDP=3.66D-09 MaxDP=2.54D-08 DE=-4.26D-14 OVMax= 2.95D-08

 SCF Done:  E(RB-P86) =  -56.5461871037     A.U. after    9 cycles
            NFock=  9  Conv=0.37D-08     -V/T= 2.0069
 KE= 5.615632993463D+01 PE=-1.555829491843D+02 EE= 3.107748316181D+01
 Leave Link  502 at Wed Oct  7 14:10:06 2020, MaxMem=  2684354560 cpu:               8.5 elap:               1.2
 (Enter /udrive/faculty/rpeverati/g16/g16/l508.exe)
 QCSCF skips out because SCF is already converged.
 Leave Link  508 at Wed Oct  7 14:10:07 2020, MaxMem=  2684354560 cpu:               0.7 elap:               0.6
 (Enter /udrive/faculty/rpeverati/g16/g16/l701.exe)
 ... and contract with generalized density number  0.
 Compute integral first derivatives.
 R6Disp: Adding Grimme-D3(BJ) dispersion energy 1st derivatives to the gradient.
 Leave Link  701 at Wed Oct  7 14:10:08 2020, MaxMem=  2684354560 cpu:               3.8 elap:               0.7
 (Enter /udrive/faculty/rpeverati/g16/g16/l702.exe)
 L702 exits ... SP integral derivatives will be done elsewhere.
 Leave Link  702 at Wed Oct  7 14:10:09 2020, MaxMem=  2684354560 cpu:               4.3 elap:               0.8
 (Enter /udrive/faculty/rpeverati/g16/g16/l703.exe)
 Integral derivatives from FoFJK, PRISM(SPDF).
 Compute integral first derivatives, UseDBF=F ICtDFT=           0.
 Calling FoFJK, ICntrl=      2527 FMM=F ISym2X=1 I1Cent= 0 IOpClX= 0 NMat=1 NMatS=1 NMatT=0.
 FoFJK:  IHMeth= 1 ICntrl=    2527 DoSepK=F KAlg= 0 I1Cent=           0 FoldK=F
 IRaf=         0 NMat=       1 IRICut=       1 DoRegI=T DoRafI=F ISym2E= 1 IDoP0=0 IntGTp=1.
 FoFCou: FMM=F IPFlag=           0 FMFlag=      100000 FMFlg1=         800
         NFxFlg=           0 DoJE=F BraDBF=F KetDBF=F FulRan=T
         wScrn=  0.000000 ICntrl=      2527 IOpCl=  0 I1Cent=           0 NGrid=           0
         NMat0=    1 NMatS0=      1 NMatT0=    0 NMatD0=    1 NMtDS0=    0 NMtDT0=    0
 Petite list used in FoFCou.
 Leave Link  703 at Wed Oct  7 14:10:10 2020, MaxMem=  2684354560 cpu:               4.8 elap:               0.9
 (Enter /udrive/faculty/rpeverati/g16/g16/l716.exe)
 Dipole        = 2.22044605D-16 1.11022302D-16-7.36942424D-01
 ***** Axes restored to original set *****
 -------------------------------------------------------------------
 Center     Atomic                   Forces (Hartrees/Bohr)
 Number     Number              X              Y              Z
 -------------------------------------------------------------------
      1        7          -0.000000000   -0.000000000    0.004898487
      2        1           0.000257718    0.000446380   -0.001632829
      3        1           0.000257718   -0.000446380   -0.001632829
      4        1          -0.000515435   -0.000000000   -0.001632829
 -------------------------------------------------------------------
 Cartesian Forces:  Max     0.004898487 RMS     0.001653042
 Leave Link  716 at Wed Oct  7 14:10:11 2020, MaxMem=  2684354560 cpu:               2.0 elap:               0.7
 (Enter /udrive/faculty/rpeverati/g16/g16/l103.exe)

 GradGradGradGradGradGradGradGradGradGradGradGradGradGradGradGradGradGrad
 Berny optimization.
 Optmz: redundant internal coordinate code flag= 1
 Using GEDIIS/GDIIS optimizer.
 Red2BG:  D1=  7.23D-01 OD1=  5.21D-02 B2RMS=  0.00D+00 IAprox=0
 FormGI is forming the generalized inverse of G from B-inverse, IUseBI=4.
 Internal  Forces:  Max     0.001744008 RMS     0.001280152
 Search for a local minimum.
 Step number   2 out of a maximum of  100
 All quantities printed in internal units (Hartrees-Bohrs-Radians)
 RMS Force = .12802D-02 SwitMx=.10000D-02 MixMth= 1
 Mixed Optimization -- RFO/linear search
 Update second derivatives using D2CorX and points    1    2
 DE= -6.35D-04 DEPred=-5.59D-04 R= 1.14D+00
 TightC=F SS=  1.41D+00  RLast= 5.56D-02 DXNew= 5.0454D-01 1.6668D-01
 Trust test= 1.14D+00 RLast= 5.56D-02 DXMaxT set to 3.00D-01
 The second derivative matrix:
                          R1        R2        R3        A1        A2
           R1           0.45508
           R2          -0.00349   0.45508
           R3          -0.00349  -0.00349   0.45508
           A1           0.01988   0.01988   0.01988   0.15761
           A2           0.02336   0.02336   0.02336  -0.00236   0.15776
           A3           0.02336   0.02336   0.02336  -0.00236  -0.00224
           D1           0.00687   0.00687   0.00687  -0.00023  -0.00012
                          A3        D1
           A3           0.15776
           D1          -0.00012   0.00900
 ITU=  1  0
 Use linear search instead of GDIIS.
 Eigenvectors of the second derivative matrix:
                           1         2         3         4         5
     Eigenvalues --     0.05744   0.15552   0.16000   0.45685   0.45857
   1         R1         0.06830  -0.05923  -0.00000   0.57023   0.73798
   2         R2         0.06830  -0.05923  -0.00000   0.57023  -0.67154
   3         R3         0.06830  -0.05923  -0.00000   0.57023  -0.06644
   4         A1        -0.50234  -0.51820   0.00000   0.00634  -0.00000
   5         A2        -0.24194   0.59922   0.70711   0.09121  -0.00000
   6         A3        -0.24194   0.59922  -0.70711   0.09121  -0.00000
   7         D1        -0.78524  -0.05320  -0.00000   0.08852  -0.00000
                           6
     Eigenvalues --     0.45857
   1         R1        -0.34935
   2         R2        -0.46444
   3         R3         0.81379
   4         A1         0.00000
   5         A2         0.00000
   6         A3         0.00000
   7         D1         0.00000
 Iter=   1 RLamda= 0.00000000D+00 Sum=-1.12405143D-04.
 Iter=   2 RLamda=-1.12405143D-04 Sum=-1.12218803D-04.
 Iter=   3 RLamda=-1.12218803D-04 Sum=-1.12219112D-04.
 RFO step:  Lambda=-1.12218803D-04 EMin= 5.74440619D-02
 Quartic linear search produced a step of  0.17975.
 Iteration  1 RMS(Cart)=  0.01070371 RMS(Int)=  0.00031384
 Iteration  2 RMS(Cart)=  0.00019098 RMS(Int)=  0.00024022
 Iteration  3 RMS(Cart)=  0.00000002 RMS(Int)=  0.00024022
 ITry= 1 IFail=0 DXMaxC= 2.27D-02 DCOld= 1.00D+10 DXMaxT= 3.00D-01 DXLimC= 3.00D+00 Rises=F
 ClnCor:  largest displacement from symmetrization is 3.22D-04 for atom     4.
 Variable       Old X    -DE/DX   Delta X   Delta X   Delta X     New X
                                 (Linear)    (Quad)   (Total)
    R1        1.93778   0.00110   0.00501   0.00071   0.00580   1.94357
    R2        1.93778   0.00110   0.00501   0.00071   0.00580   1.94357
    R3        1.93778   0.00110   0.00501   0.00071   0.00580   1.94357
    A1        1.85693  -0.00033  -0.00184  -0.01478  -0.01743   1.83951
    A2        1.85693  -0.00153  -0.00184  -0.01566  -0.01743   1.83951
    A3        1.85693  -0.00153  -0.00184  -0.01566  -0.01743   1.83951
    D1        1.97495  -0.00174  -0.00379  -0.03072  -0.03433   1.94062
         Item               Value     Threshold  Converged?
 Maximum Force            0.001744     0.000450     NO 
 RMS     Force            0.001280     0.000300     NO 
 Maximum Displacement     0.022654     0.001800     NO 
 RMS     Displacement     0.010736     0.001200     NO 
 Predicted change in Energy=-6.514303D-05
 Lowest energy point so far.  Saving SCF results.
 Largest change from initial coordinates is atom    1       0.016 Angstoms.
 GradGradGradGradGradGradGradGradGradGradGradGradGradGradGradGradGradGrad

 Leave Link  103 at Wed Oct  7 14:10:12 2020, MaxMem=  2684354560 cpu:               1.9 elap:               0.7
 (Enter /udrive/faculty/rpeverati/g16/g16/l202.exe)
                          Input orientation:                          
 ---------------------------------------------------------------------
 Center     Atomic      Atomic             Coordinates (Angstroms)
 Number     Number       Type             X           Y           Z
 ---------------------------------------------------------------------
      1          7           0       -0.000000   -0.000000    0.305023
      2          1           0        0.472341    0.818119   -0.101644
      3          1           0        0.472341   -0.818119   -0.101644
      4          1           0       -0.944683    0.000000   -0.101644
 ---------------------------------------------------------------------
                    Distance matrix (angstroms):
                    1          2          3          4
     1  N    0.000000
     2  H    1.028496   0.000000
     3  H    1.028496   1.636238   0.000000
     4  H    1.028496   1.636238   1.636238   0.000000
 Stoichiometry    H3N
 Framework group  C3V[C3(N),3SGV(H)]
 Deg. of freedom     2
 Full point group                 C3V     NOp   6
 RotChk:  IX=0 Diff= 1.57D-16
 Largest Abelian subgroup         CS      NOp   2
 Largest concise Abelian subgroup CS      NOp   2
                         Standard orientation:                         
 ---------------------------------------------------------------------
 Center     Atomic      Atomic             Coordinates (Angstroms)
 Number     Number       Type             X           Y           Z
 ---------------------------------------------------------------------
      1          7           0        0.000000    0.000000    0.122000
      2          1           0        0.000000    0.944683   -0.284667
      3          1           0        0.818119   -0.472341   -0.284667
      4          1           0       -0.818119   -0.472341   -0.284667
 ---------------------------------------------------------------------
 Rotational constants (GHZ):         287.0919813         287.0919813         187.3004764
 Leave Link  202 at Wed Oct  7 14:10:13 2020, MaxMem=  2684354560 cpu:               1.7 elap:               0.6
 (Enter /udrive/faculty/rpeverati/g16/g16/l301.exe)
 Standard basis: 6-31G(d) (5D, 7F)
 Ernie: Thresh=  0.10000D-02 Tol=  0.10000D-05 Strict=F.
 There are    15 symmetry adapted cartesian basis functions of A'  symmetry.
 There are     6 symmetry adapted cartesian basis functions of A"  symmetry.
 There are    14 symmetry adapted basis functions of A'  symmetry.
 There are     6 symmetry adapted basis functions of A"  symmetry.
    20 basis functions,    40 primitive gaussians,    21 cartesian basis functions
     5 alpha electrons        5 beta electrons
       nuclear repulsion energy        11.7750647711 Hartrees.
 IExCor=  404 DFT=T Ex=B Corr=P86 ExCW=0 ScaHFX=  0.000000
 ScaDFX=  1.000000  1.000000  1.000000  1.000000 ScalE2=  1.000000  1.000000
 IRadAn=      5 IRanWt=     -1 IRanGd=            0 ICorTp=0 IEmpDi=141
 NAtoms=    4 NActive=    4 NUniq=    2 SFac= 4.00D+00 NAtFMM=   60 NAOKFM=F Big=F
 Integral buffers will be    131072 words long.
 Raffenetti 2 integral format.
 Two-electron integral symmetry is turned on.
 R6Disp:  Grimme-D3(BJ) Dispersion energy=       -0.0009771304 Hartrees.
 Nuclear repulsion after empirical dispersion term =       11.7740876407 Hartrees.
 Leave Link  301 at Wed Oct  7 14:10:14 2020, MaxMem=  2684354560 cpu:               1.8 elap:               0.5
 (Enter /udrive/faculty/rpeverati/g16/g16/l302.exe)
 NPDir=0 NMtPBC=     1 NCelOv=     1 NCel=       1 NClECP=     1 NCelD=      1
         NCelK=      1 NCelE2=     1 NClLst=     1 CellRange=     0.0.
 One-electron integrals computed using PRISM.
 One-electron integral symmetry used in STVInt
 NBasis=    20 RedAO= T EigKep=  4.00D-02  NBF=    14     6
 NBsUse=    20 1.00D-06 EigRej= -1.00D+00 NBFU=    14     6
 Precomputing XC quadrature grid using
 IXCGrd= 4 IRadAn=           5 IRanWt=          -1 IRanGd=           0 AccXCQ= 0.00D+00.
 Generated NRdTot=       0 NPtTot=           0 NUsed=           0 NTot=          32
 NSgBfM=    21    21    21    21    21 MxSgAt=     4 MxSgA2=     4.
 Leave Link  302 at Wed Oct  7 14:10:15 2020, MaxMem=  2684354560 cpu:               3.5 elap:               0.7
 (Enter /udrive/faculty/rpeverati/g16/g16/l303.exe)
 DipDrv:  MaxL=1.
 Leave Link  303 at Wed Oct  7 14:10:16 2020, MaxMem=  2684354560 cpu:               2.1 elap:               0.7
 (Enter /udrive/faculty/rpeverati/g16/g16/l401.exe)
 Initial guess from the checkpoint file:  "MN_71_NH3_BH76_BP86DBJ_631Gs.chk"
 SCF N**3 symmetry information disabled.
 B after Tr=    -0.000000    0.000000   -0.000000
         Rot=    1.000000   -0.000000   -0.000000    0.000000 Ang=   0.00 deg.
 Guess basis will be translated and rotated to current coordinates.
 JPrj=2 DoOrth=T DoCkMO=T.
 Initial guess orbital symmetries:
       Occupied  (A1) (A1) (E) (E) (A1)
       Virtual   (A1) (E) (E) (E) (E) (A1) (E) (E) (A1) (A1) (E)
                 (E) (A1) (E) (E)
 The electronic state of the initial guess is 1-A1.
 Generating alternative initial guess.
 ExpMin= 1.61D-01 ExpMax= 4.17D+03 ExpMxC= 6.27D+02 IAcc=2 IRadAn=         4 AccDes= 0.00D+00
 Harris functional with IExCor=  404 and IRadAn=       4 diagonalized for initial guess.
 HarFok:  IExCor=  404 AccDes= 0.00D+00 IRadAn=         4 IDoV= 1 UseB2=F ITyADJ=14
 ICtDFT=  3500011 ScaDFX=  1.000000  1.000000  1.000000  1.000000
 FoFCou: FMM=F IPFlag=           0 FMFlag=      100000 FMFlg1=           0
         NFxFlg=           0 DoJE=T BraDBF=F KetDBF=T FulRan=T
         wScrn=  0.000000 ICntrl=       500 IOpCl=  0 I1Cent=   200000004 NGrid=           0
         NMat0=    1 NMatS0=      1 NMatT0=    0 NMatD0=    1 NMtDS0=    0 NMtDT0=    0
 Petite list used in FoFCou.
 Harris En= -56.5917647542194    
 Leave Link  401 at Wed Oct  7 14:10:17 2020, MaxMem=  2684354560 cpu:               5.9 elap:               1.0
 (Enter /udrive/faculty/rpeverati/g16/g16/l502.exe)
 Keep J ints in memory in symmetry-blocked form, NReq=10364782.
 FoFCou: FMM=F IPFlag=           0 FMFlag=           0 FMFlg1=           0
         NFxFlg=           0 DoJE=F BraDBF=F KetDBF=F FulRan=T
         wScrn=  0.000000 ICntrl=       600 IOpCl=  0 I1Cent=           0 NGrid=           0
         NMat0=    1 NMatS0=    210 NMatT0=    0 NMatD0=    1 NMtDS0=    0 NMtDT0=    0
 Petite list used in FoFCou.
 Closed shell SCF:
 Using DIIS extrapolation, IDIIS=  1040.
 NGot=  2684354560 LenX=  2684340664 LenY=  2684339782
 Requested convergence on RMS density matrix=1.00D-08 within 120 cycles.
 Requested convergence on MAX density matrix=1.00D-06.
 Requested convergence on             energy=1.00D-06.
 No special actions if energy rises.
 Integral accuracy reduced to 1.0D-05 until final iterations.

 Cycle   1  Pass 0  IDiag  1:
 E= -56.5461931197048    
 DIIS: error= 1.93D-03 at cycle   1 NSaved=   1.
 NSaved= 1 IEnMin= 1 EnMin= -56.5461931197048     IErMin= 1 ErrMin= 1.93D-03
 ErrMax= 1.93D-03  0.00D+00 EMaxC= 1.00D-01 BMatC= 4.78D-05 BMatP= 4.78D-05
 IDIUse=3 WtCom= 9.81D-01 WtEn= 1.93D-02
 Coeff-Com:  0.100D+01
 Coeff-En:   0.100D+01
 Coeff:      0.100D+01
 Gap=     0.261 Goal=   None    Shift=    0.000
 GapD=    0.261 DampG=1.000 DampE=1.000 DampFc=1.0000 IDamp=-1.
 RMSDP=9.17D-04 MaxDP=7.73D-03              OVMax= 6.89D-03

 Cycle   2  Pass 0  IDiag  1:
 E= -56.5462527093873     Delta-E=       -0.000059589682 Rises=F Damp=F
 DIIS: error= 1.02D-03 at cycle   2 NSaved=   2.
 NSaved= 2 IEnMin= 2 EnMin= -56.5462527093873     IErMin= 2 ErrMin= 1.02D-03
 ErrMax= 1.02D-03  0.00D+00 EMaxC= 1.00D-01 BMatC= 1.80D-05 BMatP= 4.78D-05
 IDIUse=3 WtCom= 9.90D-01 WtEn= 1.02D-02
 Coeff-Com:  0.318D+00 0.682D+00
 Coeff-En:   0.000D+00 0.100D+01
 Coeff:      0.315D+00 0.685D+00
 Gap=     0.262 Goal=   None    Shift=    0.000
 RMSDP=2.87D-04 MaxDP=2.06D-03 DE=-5.96D-05 OVMax= 2.13D-03

 Cycle   3  Pass 0  IDiag  1:
 E= -56.5462568478087     Delta-E=       -0.000004138421 Rises=F Damp=F
 DIIS: error= 8.78D-04 at cycle   3 NSaved=   3.
 NSaved= 3 IEnMin= 3 EnMin= -56.5462568478087     IErMin= 3 ErrMin= 8.78D-04
 ErrMax= 8.78D-04  0.00D+00 EMaxC= 1.00D-01 BMatC= 1.34D-05 BMatP= 1.80D-05
 IDIUse=3 WtCom= 9.91D-01 WtEn= 8.78D-03
 Coeff-Com:  0.347D-02 0.462D+00 0.534D+00
 Coeff-En:   0.000D+00 0.439D+00 0.561D+00
 Coeff:      0.344D-02 0.462D+00 0.535D+00
 Gap=     0.262 Goal=   None    Shift=    0.000
 RMSDP=1.32D-04 MaxDP=9.54D-04 DE=-4.14D-06 OVMax= 9.62D-04

 Cycle   4  Pass 0  IDiag  1:
 E= -56.5462684393613     Delta-E=       -0.000011591553 Rises=F Damp=F
 DIIS: error= 8.25D-06 at cycle   4 NSaved=   4.
 NSaved= 4 IEnMin= 4 EnMin= -56.5462684393613     IErMin= 4 ErrMin= 8.25D-06
 ErrMax= 8.25D-06  0.00D+00 EMaxC= 1.00D-01 BMatC= 1.41D-09 BMatP= 1.34D-05
 IDIUse=1 WtCom= 1.00D+00 WtEn= 0.00D+00
 Coeff-Com: -0.102D-02 0.738D-01 0.830D-01 0.844D+00
 Coeff:     -0.102D-02 0.738D-01 0.830D-01 0.844D+00
 Gap=     0.262 Goal=   None    Shift=    0.000
 RMSDP=1.80D-06 MaxDP=7.18D-06 DE=-1.16D-05 OVMax= 1.28D-05

 Initial convergence to 1.0D-05 achieved.  Increase integral accuracy.
 Cycle   5  Pass 1  IDiag  1:
 E= -56.5462689297162     Delta-E=       -0.000000490355 Rises=F Damp=F
 DIIS: error= 1.52D-06 at cycle   1 NSaved=   1.
 NSaved= 1 IEnMin= 1 EnMin= -56.5462689297162     IErMin= 1 ErrMin= 1.52D-06
 ErrMax= 1.52D-06  0.00D+00 EMaxC= 1.00D-01 BMatC= 5.63D-11 BMatP= 5.63D-11
 IDIUse=1 WtCom= 1.00D+00 WtEn= 0.00D+00
 Coeff-Com:  0.100D+01
 Coeff:      0.100D+01
 Gap=     0.262 Goal=   None    Shift=    0.000
 RMSDP=1.80D-06 MaxDP=7.18D-06 DE=-4.90D-07 OVMax= 4.60D-06

 Cycle   6  Pass 1  IDiag  1:
 E= -56.5462689297308     Delta-E=       -0.000000000015 Rises=F Damp=F
 DIIS: error= 1.40D-06 at cycle   2 NSaved=   2.
 NSaved= 2 IEnMin= 2 EnMin= -56.5462689297308     IErMin= 2 ErrMin= 1.40D-06
 ErrMax= 1.40D-06  0.00D+00 EMaxC= 1.00D-01 BMatC= 3.79D-11 BMatP= 5.63D-11
 IDIUse=1 WtCom= 1.00D+00 WtEn= 0.00D+00
 Coeff-Com:  0.445D+00 0.555D+00
 Coeff:      0.445D+00 0.555D+00
 Gap=     0.262 Goal=   None    Shift=    0.000
 RMSDP=3.31D-07 MaxDP=2.21D-06 DE=-1.46D-11 OVMax= 2.39D-06

 Cycle   7  Pass 1  IDiag  1:
 E= -56.5462689297570     Delta-E=       -0.000000000026 Rises=F Damp=F
 DIIS: error= 6.24D-07 at cycle   3 NSaved=   3.
 NSaved= 3 IEnMin= 3 EnMin= -56.5462689297570     IErMin= 3 ErrMin= 6.24D-07
 ErrMax= 6.24D-07  0.00D+00 EMaxC= 1.00D-01 BMatC= 7.56D-12 BMatP= 3.79D-11
 IDIUse=1 WtCom= 1.00D+00 WtEn= 0.00D+00
 Coeff-Com:  0.188D+00 0.340D+00 0.472D+00
 Coeff:      0.188D+00 0.340D+00 0.472D+00
 Gap=     0.262 Goal=   None    Shift=    0.000
 RMSDP=9.77D-08 MaxDP=6.98D-07 DE=-2.61D-11 OVMax= 7.84D-07

 Cycle   8  Pass 1  IDiag  1:
 E= -56.5462689297635     Delta-E=       -0.000000000007 Rises=F Damp=F
 DIIS: error= 1.69D-08 at cycle   4 NSaved=   4.
 NSaved= 4 IEnMin= 4 EnMin= -56.5462689297635     IErMin= 4 ErrMin= 1.69D-08
 ErrMax= 1.69D-08  0.00D+00 EMaxC= 1.00D-01 BMatC= 6.57D-15 BMatP= 7.56D-12
 IDIUse=1 WtCom= 1.00D+00 WtEn= 0.00D+00
 Coeff-Com:  0.323D-02 0.987D-02 0.416D-01 0.945D+00
 Coeff:      0.323D-02 0.987D-02 0.416D-01 0.945D+00
 Gap=     0.262 Goal=   None    Shift=    0.000
 RMSDP=3.04D-09 MaxDP=1.91D-08 DE=-6.57D-12 OVMax= 2.33D-08

 SCF Done:  E(RB-P86) =  -56.5462689298     A.U. after    8 cycles
            NFock=  8  Conv=0.30D-08     -V/T= 2.0071
 KE= 5.614929843776D+01 PE=-1.555156146658D+02 EE= 3.104595965761D+01
 Leave Link  502 at Wed Oct  7 14:10:19 2020, MaxMem=  2684354560 cpu:               7.6 elap:               1.1
 (Enter /udrive/faculty/rpeverati/g16/g16/l508.exe)
 QCSCF skips out because SCF is already converged.
 Leave Link  508 at Wed Oct  7 14:10:19 2020, MaxMem=  2684354560 cpu:               0.7 elap:               0.5
 (Enter /udrive/faculty/rpeverati/g16/g16/l701.exe)
 ... and contract with generalized density number  0.
 Compute integral first derivatives.
 R6Disp: Adding Grimme-D3(BJ) dispersion energy 1st derivatives to the gradient.
 Leave Link  701 at Wed Oct  7 14:10:20 2020, MaxMem=  2684354560 cpu:               3.0 elap:               0.6
 (Enter /udrive/faculty/rpeverati/g16/g16/l702.exe)
 L702 exits ... SP integral derivatives will be done elsewhere.
 Leave Link  702 at Wed Oct  7 14:10:21 2020, MaxMem=  2684354560 cpu:               1.6 elap:               0.6
 (Enter /udrive/faculty/rpeverati/g16/g16/l703.exe)
 Integral derivatives from FoFJK, PRISM(SPDF).
 Compute integral first derivatives, UseDBF=F ICtDFT=           0.
 Calling FoFJK, ICntrl=      2527 FMM=F ISym2X=1 I1Cent= 0 IOpClX= 0 NMat=1 NMatS=1 NMatT=0.
 FoFJK:  IHMeth= 1 ICntrl=    2527 DoSepK=F KAlg= 0 I1Cent=           0 FoldK=F
 IRaf=         0 NMat=       1 IRICut=       1 DoRegI=T DoRafI=F ISym2E= 1 IDoP0=0 IntGTp=1.
 FoFCou: FMM=F IPFlag=           0 FMFlag=      100000 FMFlg1=         800
         NFxFlg=           0 DoJE=F BraDBF=F KetDBF=F FulRan=T
         wScrn=  0.000000 ICntrl=      2527 IOpCl=  0 I1Cent=           0 NGrid=           0
         NMat0=    1 NMatS0=      1 NMatT0=    0 NMatD0=    1 NMtDS0=    0 NMtDT0=    0
 Petite list used in FoFCou.
 Leave Link  703 at Wed Oct  7 14:10:22 2020, MaxMem=  2684354560 cpu:               5.2 elap:               0.9
 (Enter /udrive/faculty/rpeverati/g16/g16/l716.exe)
 Dipole        = 4.44089210D-16 3.33066907D-16-7.55782173D-01
 ***** Axes restored to original set *****
 -------------------------------------------------------------------
 Center     Atomic                   Forces (Hartrees/Bohr)
 Number     Number              X              Y              Z
 -------------------------------------------------------------------
      1        7          -0.000000000   -0.000000000    0.000565852
      2        1          -0.000150148   -0.000260064   -0.000188617
      3        1          -0.000150148    0.000260064   -0.000188617
      4        1           0.000300296   -0.000000000   -0.000188617
 -------------------------------------------------------------------
 Cartesian Forces:  Max     0.000565852 RMS     0.000241083
 Leave Link  716 at Wed Oct  7 14:10:23 2020, MaxMem=  2684354560 cpu:               1.3 elap:               0.4
 (Enter /udrive/faculty/rpeverati/g16/g16/l103.exe)

 GradGradGradGradGradGradGradGradGradGradGradGradGradGradGradGradGradGrad
 Berny optimization.
 Optmz: redundant internal coordinate code flag= 1
 Using GEDIIS/GDIIS optimizer.
 Red2BG:  D1=  7.14D-01 OD1=  4.78D-02 B2RMS=  0.00D+00 IAprox=0
 FormGI is forming the generalized inverse of G from B-inverse, IUseBI=4.
 Internal  Forces:  Max     0.000375834 RMS     0.000271580
 Search for a local minimum.
 Step number   3 out of a maximum of  100
 All quantities printed in internal units (Hartrees-Bohrs-Radians)
 RMS Force = .27158D-03 SwitMx=.10000D-02 MixMth= 2
 Mixed Optimization -- En-DIIS/RFO-DIIS
 Update second derivatives using D2CorX and points    1    2    3
 DE= -8.18D-05 DEPred=-6.51D-05 R= 1.26D+00
 TightC=F SS=  1.41D+00  RLast= 4.68D-02 DXNew= 5.0454D-01 1.4042D-01
 Trust test= 1.26D+00 RLast= 4.68D-02 DXMaxT set to 3.00D-01
 The second derivative matrix:
                          R1        R2        R3        A1        A2
           R1           0.46710
           R2           0.00853   0.46710
           R3           0.00853   0.00853   0.46710
           A1           0.04934   0.04934   0.04934   0.12932
           A2           0.03453   0.03453   0.03453  -0.03019   0.13799
           A3           0.03453   0.03453   0.03453  -0.03019  -0.02201
           D1          -0.01617  -0.01617  -0.01617  -0.00274   0.00837
                          A3        D1
           A3           0.13799
           D1           0.00837   0.02455
 ITU=  1  1  0
 Use linear search instead of GDIIS.
 Eigenvectors of the second derivative matrix:
                           1         2         3         4         5
     Eigenvalues --     0.04623   0.15157   0.16000   0.45857   0.45857
   1         R1         0.07082  -0.04999  -0.00000   0.21581   0.78746
   2         R2         0.07082  -0.04999  -0.00000  -0.78986  -0.20683
   3         R3         0.07082  -0.04999  -0.00000   0.57406  -0.58063
   4         A1        -0.48738  -0.52823  -0.00000   0.00000  -0.00000
   5         A2        -0.28076   0.59205   0.70711   0.00000  -0.00000
   6         A3        -0.28076   0.59205  -0.70711   0.00000  -0.00000
   7         D1        -0.76796  -0.11150  -0.00000   0.00000  -0.00000
                           6
     Eigenvalues --     0.49346
   1         R1         0.57080
   2         R2         0.57080
   3         R3         0.57080
   4         A1         0.01421
   5         A2         0.08669
   6         A3         0.08669
   7         D1         0.08552
 Iter=   1 RLamda= 0.00000000D+00 Sum=-1.37015408D-06.
 Iter=   2 RLamda=-1.37015408D-06 Sum=-1.37014836D-06.
 RFO step:  Lambda=-1.37015408D-06 EMin= 4.62281893D-02
 Quartic linear search produced a step of  0.18699.
 Iteration  1 RMS(Cart)=  0.00258539 RMS(Int)=  0.00005266
 Iteration  2 RMS(Cart)=  0.00000854 RMS(Int)=  0.00005187
 Iteration  3 RMS(Cart)=  0.00000000 RMS(Int)=  0.00005187
 ITry= 1 IFail=0 DXMaxC= 4.69D-03 DCOld= 1.00D+10 DXMaxT= 3.00D-01 DXLimC= 3.00D+00 Rises=F
 ClnCor:  largest displacement from symmetrization is 8.71D-05 for atom     4.
 Variable       Old X    -DE/DX   Delta X   Delta X   Delta X     New X
                                 (Linear)    (Quad)   (Total)
    R1        1.94357  -0.00020   0.00108  -0.00082   0.00029   1.94386
    R2        1.94357  -0.00020   0.00108  -0.00082   0.00029   1.94386
    R3        1.94357  -0.00020   0.00108  -0.00082   0.00029   1.94386
    A1        1.83951  -0.00008  -0.00326  -0.00045  -0.00390   1.83561
    A2        1.83951  -0.00035  -0.00326  -0.00067  -0.00390   1.83561
    A3        1.83951  -0.00035  -0.00326  -0.00067  -0.00390   1.83561
    D1        1.94062  -0.00038  -0.00642  -0.00103  -0.00742   1.93319
         Item               Value     Threshold  Converged?
 Maximum Force            0.000376     0.000450     YES
 RMS     Force            0.000272     0.000300     YES
 Maximum Displacement     0.004692     0.001800     NO 
 RMS     Displacement     0.002575     0.001200     NO 
 Predicted change in Energy=-3.006958D-06
 Lowest energy point so far.  Saving SCF results.
 Largest change from initial coordinates is atom    2       0.023 Angstoms.
 GradGradGradGradGradGradGradGradGradGradGradGradGradGradGradGradGradGrad

 Leave Link  103 at Wed Oct  7 14:10:24 2020, MaxMem=  2684354560 cpu:               2.2 elap:               0.6
 (Enter /udrive/faculty/rpeverati/g16/g16/l202.exe)
                          Input orientation:                          
 ---------------------------------------------------------------------
 Center     Atomic      Atomic             Coordinates (Angstroms)
 Number     Number       Type             X           Y           Z
 ---------------------------------------------------------------------
      1          7           0       -0.000000   -0.000000    0.307506
      2          1           0        0.471709    0.817024   -0.102468
      3          1           0        0.471709   -0.817024   -0.102468
      4          1           0       -0.943418    0.000000   -0.102468
 ---------------------------------------------------------------------
                    Distance matrix (angstroms):
                    1          2          3          4
     1  N    0.000000
     2  H    1.028648   0.000000
     3  H    1.028648   1.634048   0.000000
     4  H    1.028648   1.634048   1.634048   0.000000
 Stoichiometry    H3N
 Framework group  C3V[C3(N),3SGV(H)]
 Deg. of freedom     2
 Full point group                 C3V     NOp   6
 RotChk:  IX=0 Diff= 1.57D-16
 Largest Abelian subgroup         CS      NOp   2
 Largest concise Abelian subgroup CS      NOp   2
                         Standard orientation:                         
 ---------------------------------------------------------------------
 Center     Atomic      Atomic             Coordinates (Angstroms)
 Number     Number       Type             X           Y           Z
 ---------------------------------------------------------------------
      1          7           0        0.000000    0.000000    0.122992
      2          1           0        0.000000    0.943418   -0.286981
      3          1           0        0.817024   -0.471709   -0.286981
      4          1           0       -0.817024   -0.471709   -0.286981
 ---------------------------------------------------------------------
 Rotational constants (GHZ):         286.5863769         286.5863769         187.8029768
 Leave Link  202 at Wed Oct  7 14:10:25 2020, MaxMem=  2684354560 cpu:               1.7 elap:               0.6
 (Enter /udrive/faculty/rpeverati/g16/g16/l301.exe)
 Standard basis: 6-31G(d) (5D, 7F)
 Ernie: Thresh=  0.10000D-02 Tol=  0.10000D-05 Strict=F.
 There are    15 symmetry adapted cartesian basis functions of A'  symmetry.
 There are     6 symmetry adapted cartesian basis functions of A"  symmetry.
 There are    14 symmetry adapted basis functions of A'  symmetry.
 There are     6 symmetry adapted basis functions of A"  symmetry.
    20 basis functions,    40 primitive gaussians,    21 cartesian basis functions
     5 alpha electrons        5 beta electrons
       nuclear repulsion energy        11.7747680996 Hartrees.
 IExCor=  404 DFT=T Ex=B Corr=P86 ExCW=0 ScaHFX=  0.000000
 ScaDFX=  1.000000  1.000000  1.000000  1.000000 ScalE2=  1.000000  1.000000
 IRadAn=      5 IRanWt=     -1 IRanGd=            0 ICorTp=0 IEmpDi=141
 NAtoms=    4 NActive=    4 NUniq=    2 SFac= 4.00D+00 NAtFMM=   60 NAOKFM=F Big=F
 Integral buffers will be    131072 words long.
 Raffenetti 2 integral format.
 Two-electron integral symmetry is turned on.
 R6Disp:  Grimme-D3(BJ) Dispersion energy=       -0.0009771563 Hartrees.
 Nuclear repulsion after empirical dispersion term =       11.7737909433 Hartrees.
 Leave Link  301 at Wed Oct  7 14:10:26 2020, MaxMem=  2684354560 cpu:               2.2 elap:               0.5
 (Enter /udrive/faculty/rpeverati/g16/g16/l302.exe)
 NPDir=0 NMtPBC=     1 NCelOv=     1 NCel=       1 NClECP=     1 NCelD=      1
         NCelK=      1 NCelE2=     1 NClLst=     1 CellRange=     0.0.
 One-electron integrals computed using PRISM.
 One-electron integral symmetry used in STVInt
 NBasis=    20 RedAO= T EigKep=  3.99D-02  NBF=    14     6
 NBsUse=    20 1.00D-06 EigRej= -1.00D+00 NBFU=    14     6
 Precomputing XC quadrature grid using
 IXCGrd= 4 IRadAn=           5 IRanWt=          -1 IRanGd=           0 AccXCQ= 0.00D+00.
 Generated NRdTot=       0 NPtTot=           0 NUsed=           0 NTot=          32
 NSgBfM=    21    21    21    21    21 MxSgAt=     4 MxSgA2=     4.
 Leave Link  302 at Wed Oct  7 14:10:26 2020, MaxMem=  2684354560 cpu:               4.0 elap:               0.7
 (Enter /udrive/faculty/rpeverati/g16/g16/l303.exe)
 DipDrv:  MaxL=1.
 Leave Link  303 at Wed Oct  7 14:10:27 2020, MaxMem=  2684354560 cpu:               1.7 elap:               0.5
 (Enter /udrive/faculty/rpeverati/g16/g16/l401.exe)
 Initial guess from the checkpoint file:  "MN_71_NH3_BH76_BP86DBJ_631Gs.chk"
 SCF N**3 symmetry information disabled.
 B after Tr=     0.000000   -0.000000    0.000000
         Rot=    1.000000   -0.000000   -0.000000    0.000000 Ang=   0.00 deg.
 Guess basis will be translated and rotated to current coordinates.
 JPrj=2 DoOrth=T DoCkMO=T.
 Initial guess orbital symmetries:
       Occupied  (A1) (A1) (E) (E) (A1)
       Virtual   (A1) (E) (E) (E) (E) (A1) (E) (E) (A1) (A1) (E)
                 (E) (A1) (E) (E)
 The electronic state of the initial guess is 1-A1.
 Leave Link  401 at Wed Oct  7 14:10:28 2020, MaxMem=  2684354560 cpu:               2.3 elap:               0.5
 (Enter /udrive/faculty/rpeverati/g16/g16/l502.exe)
 Keep J ints in memory in symmetry-blocked form, NReq=10364782.
 FoFCou: FMM=F IPFlag=           0 FMFlag=           0 FMFlg1=           0
         NFxFlg=           0 DoJE=F BraDBF=F KetDBF=F FulRan=T
         wScrn=  0.000000 ICntrl=       600 IOpCl=  0 I1Cent=           0 NGrid=           0
         NMat0=    1 NMatS0=    210 NMatT0=    0 NMatD0=    1 NMtDS0=    0 NMtDT0=    0
 Petite list used in FoFCou.
 Closed shell SCF:
 Using DIIS extrapolation, IDIIS=  1040.
 NGot=  2684354560 LenX=  2684340664 LenY=  2684339782
 Requested convergence on RMS density matrix=1.00D-08 within 120 cycles.
 Requested convergence on MAX density matrix=1.00D-06.
 Requested convergence on             energy=1.00D-06.
 No special actions if energy rises.

 Cycle   1  Pass 1  IDiag  1:
 E= -56.5462689118989    
 DIIS: error= 4.27D-04 at cycle   1 NSaved=   1.
 NSaved= 1 IEnMin= 1 EnMin= -56.5462689118989     IErMin= 1 ErrMin= 4.27D-04
 ErrMax= 4.27D-04  0.00D+00 EMaxC= 1.00D-01 BMatC= 2.08D-06 BMatP= 2.08D-06
 IDIUse=3 WtCom= 9.96D-01 WtEn= 4.27D-03
 Coeff-Com:  0.100D+01
 Coeff-En:   0.100D+01
 Coeff:      0.100D+01
 Gap=     0.262 Goal=   None    Shift=    0.000
 RMSDP=1.65D-04 MaxDP=1.37D-03              OVMax= 1.23D-03

 Cycle   2  Pass 1  IDiag  1:
 E= -56.5462717106395     Delta-E=       -0.000002798741 Rises=F Damp=F
 DIIS: error= 1.01D-04 at cycle   2 NSaved=   2.
 NSaved= 2 IEnMin= 2 EnMin= -56.5462717106395     IErMin= 2 ErrMin= 1.01D-04
 ErrMax= 1.01D-04  0.00D+00 EMaxC= 1.00D-01 BMatC= 2.04D-07 BMatP= 2.08D-06
 IDIUse=3 WtCom= 9.99D-01 WtEn= 1.01D-03
 Coeff-Com:  0.131D+00 0.869D+00
 Coeff-En:   0.000D+00 0.100D+01
 Coeff:      0.131D+00 0.869D+00
 Gap=     0.262 Goal=   None    Shift=    0.000
 RMSDP=3.73D-05 MaxDP=2.65D-04 DE=-2.80D-06 OVMax= 2.91D-04

 Cycle   3  Pass 1  IDiag  1:
 E= -56.5462715914281     Delta-E=        0.000000119211 Rises=F Damp=F
 DIIS: error= 1.43D-04 at cycle   3 NSaved=   3.
 NSaved= 3 IEnMin= 2 EnMin= -56.5462717106395     IErMin= 2 ErrMin= 1.01D-04
 ErrMax= 1.43D-04  0.00D+00 EMaxC= 1.00D-01 BMatC= 3.60D-07 BMatP= 2.04D-07
 IDIUse=3 WtCom= 4.55D-01 WtEn= 5.45D-01
 Coeff-Com:  0.147D-01 0.566D+00 0.419D+00
 Coeff-En:   0.000D+00 0.600D+00 0.400D+00
 Coeff:      0.670D-02 0.585D+00 0.409D+00
 Gap=     0.262 Goal=   None    Shift=    0.000
 RMSDP=2.10D-05 MaxDP=1.51D-04 DE= 1.19D-07 OVMax= 1.55D-04

 Cycle   4  Pass 1  IDiag  1:
 E= -56.5462718986949     Delta-E=       -0.000000307267 Rises=F Damp=F
 DIIS: error= 5.67D-06 at cycle   4 NSaved=   4.
 NSaved= 4 IEnMin= 4 EnMin= -56.5462718986949     IErMin= 4 ErrMin= 5.67D-06
 ErrMax= 5.67D-06  0.00D+00 EMaxC= 1.00D-01 BMatC= 9.04D-10 BMatP= 2.04D-07
 IDIUse=1 WtCom= 1.00D+00 WtEn= 0.00D+00
 Coeff-Com: -0.150D-02 0.158D+00 0.918D-01 0.751D+00
 Coeff:     -0.150D-02 0.158D+00 0.918D-01 0.751D+00
 Gap=     0.262 Goal=   None    Shift=    0.000
 RMSDP=1.07D-06 MaxDP=5.25D-06 DE=-3.07D-07 OVMax= 8.40D-06

 Cycle   5  Pass 1  IDiag  1:
 E= -56.5462718994957     Delta-E=       -0.000000000801 Rises=F Damp=F
 DIIS: error= 4.88D-07 at cycle   5 NSaved=   5.
 NSaved= 5 IEnMin= 5 EnMin= -56.5462718994957     IErMin= 5 ErrMin= 4.88D-07
 ErrMax= 4.88D-07  0.00D+00 EMaxC= 1.00D-01 BMatC= 3.35D-12 BMatP= 9.04D-10
 IDIUse=1 WtCom= 1.00D+00 WtEn= 0.00D+00
 Coeff-Com: -0.682D-04 0.204D-01 0.910D-02 0.129D+00 0.842D+00
 Coeff:     -0.682D-04 0.204D-01 0.910D-02 0.129D+00 0.842D+00
 Gap=     0.262 Goal=   None    Shift=    0.000
 RMSDP=1.11D-07 MaxDP=6.90D-07 DE=-8.01D-10 OVMax= 1.04D-06

 Cycle   6  Pass 1  IDiag  1:
 E= -56.5462718994991     Delta-E=       -0.000000000003 Rises=F Damp=F
 DIIS: error= 1.09D-08 at cycle   6 NSaved=   6.
 NSaved= 6 IEnMin= 6 EnMin= -56.5462718994991     IErMin= 6 ErrMin= 1.09D-08
 ErrMax= 1.09D-08  0.00D+00 EMaxC= 1.00D-01 BMatC= 1.78D-15 BMatP= 3.35D-12
 IDIUse=1 WtCom= 1.00D+00 WtEn= 0.00D+00
 Coeff-Com: -0.654D-05 0.108D-02 0.361D-03 0.848D-02 0.700D-01 0.920D+00
 Coeff:     -0.654D-05 0.108D-02 0.361D-03 0.848D-02 0.700D-01 0.920D+00
 Gap=     0.262 Goal=   None    Shift=    0.000
 RMSDP=2.76D-09 MaxDP=1.96D-08 DE=-3.37D-12 OVMax= 2.24D-08

 SCF Done:  E(RB-P86) =  -56.5462718995     A.U. after    6 cycles
            NFock=  6  Conv=0.28D-08     -V/T= 2.0071
 KE= 5.615011397095D+01 PE=-1.555142050658D+02 EE= 3.104402825208D+01
 Leave Link  502 at Wed Oct  7 14:10:29 2020, MaxMem=  2684354560 cpu:               7.9 elap:               1.1
 (Enter /udrive/faculty/rpeverati/g16/g16/l508.exe)
 QCSCF skips out because SCF is already converged.
 Leave Link  508 at Wed Oct  7 14:10:30 2020, MaxMem=  2684354560 cpu:               0.6 elap:               0.4
 (Enter /udrive/faculty/rpeverati/g16/g16/l701.exe)
 ... and contract with generalized density number  0.
 Compute integral first derivatives.
 R6Disp: Adding Grimme-D3(BJ) dispersion energy 1st derivatives to the gradient.
 Leave Link  701 at Wed Oct  7 14:10:31 2020, MaxMem=  2684354560 cpu:               3.4 elap:               0.6
 (Enter /udrive/faculty/rpeverati/g16/g16/l702.exe)
 L702 exits ... SP integral derivatives will be done elsewhere.
 Leave Link  702 at Wed Oct  7 14:10:32 2020, MaxMem=  2684354560 cpu:               1.5 elap:               0.5
 (Enter /udrive/faculty/rpeverati/g16/g16/l703.exe)
 Integral derivatives from FoFJK, PRISM(SPDF).
 Compute integral first derivatives, UseDBF=F ICtDFT=           0.
 Calling FoFJK, ICntrl=      2527 FMM=F ISym2X=1 I1Cent= 0 IOpClX= 0 NMat=1 NMatS=1 NMatT=0.
 FoFJK:  IHMeth= 1 ICntrl=    2527 DoSepK=F KAlg= 0 I1Cent=           0 FoldK=F
 IRaf=         0 NMat=       1 IRICut=       1 DoRegI=T DoRafI=F ISym2E= 1 IDoP0=0 IntGTp=1.
 FoFCou: FMM=F IPFlag=           0 FMFlag=      100000 FMFlg1=         800
         NFxFlg=           0 DoJE=F BraDBF=F KetDBF=F FulRan=T
         wScrn=  0.000000 ICntrl=      2527 IOpCl=  0 I1Cent=           0 NGrid=           0
         NMat0=    1 NMatS0=      1 NMatT0=    0 NMatD0=    1 NMtDS0=    0 NMtDT0=    0
 Petite list used in FoFCou.
 Leave Link  703 at Wed Oct  7 14:10:33 2020, MaxMem=  2684354560 cpu:               4.4 elap:               0.8
 (Enter /udrive/faculty/rpeverati/g16/g16/l716.exe)
 Dipole        = 0.00000000D+00 0.00000000D+00-7.59873667D-01
 ***** Axes restored to original set *****
 -------------------------------------------------------------------
 Center     Atomic                   Forces (Hartrees/Bohr)
 Number     Number              X              Y              Z
 -------------------------------------------------------------------
      1        7          -0.000000000    0.000000000   -0.000040523
      2        1          -0.000035845   -0.000062086    0.000013508
      3        1          -0.000035845    0.000062086    0.000013508
      4        1           0.000071690    0.000000000    0.000013508
 -------------------------------------------------------------------
 Cartesian Forces:  Max     0.000071690 RMS     0.000038306
 Leave Link  716 at Wed Oct  7 14:10:34 2020, MaxMem=  2684354560 cpu:               1.6 elap:               0.5
 (Enter /udrive/faculty/rpeverati/g16/g16/l103.exe)

 GradGradGradGradGradGradGradGradGradGradGradGradGradGradGradGradGradGrad
 Berny optimization.
 Optmz: redundant internal coordinate code flag= 1
 Using GEDIIS/GDIIS optimizer.
 Red2BG:  D1=  7.13D-01 OD1=  9.66D-03 B2RMS=  0.00D+00 IAprox=0
 FormGI is forming the generalized inverse of G from B-inverse, IUseBI=4.
 Internal  Forces:  Max     0.000071134 RMS     0.000048397
 Search for a local minimum.
 Step number   4 out of a maximum of  100
 All quantities printed in internal units (Hartrees-Bohrs-Radians)
 RMS Force = .48397D-04 SwitMx=.10000D-02 MixMth= 2
 Mixed Optimization -- En-DIIS/RFO-DIIS
 Swapping is turned off.
 Update second derivatives using D2CorX and points    1    2    3    4
 DE= -2.97D-06 DEPred=-3.01D-06 R= 9.88D-01
 TightC=F SS=  1.41D+00  RLast= 1.00D-02 DXNew= 5.0454D-01 3.0139D-02
 Trust test= 9.88D-01 RLast= 1.00D-02 DXMaxT set to 3.00D-01
 The second derivative matrix:
                          R1        R2        R3        A1        A2
           R1           0.45396
           R2          -0.00461   0.45396
           R3          -0.00461  -0.00461   0.45396
           A1           0.02347   0.02347   0.02347   0.11453
           A2           0.02168   0.02168   0.02168  -0.04299   0.13165
           A3           0.02168   0.02168   0.02168  -0.04299  -0.02835
           D1          -0.00034  -0.00034  -0.00034  -0.00157   0.01552
                          A3        D1
           A3           0.13165
           D1           0.01552   0.03234
 ITU=  1  1  1  0
 Eigenvectors of the second derivative matrix:
                           1         2         3         4         5
     Eigenvalues --     0.04785   0.15309   0.16000   0.45094   0.45857
   1         R1         0.05867  -0.04781   0.00000   0.57237   0.15227
   2         R2         0.05867  -0.04781   0.00000   0.57237  -0.77083
   3         R3         0.05867  -0.04781   0.00000   0.57237   0.61857
   4         A1        -0.50086  -0.51478   0.00000   0.00834   0.00000
   5         A2        -0.27198   0.59926   0.70711   0.07794   0.00000
   6         A3        -0.27198   0.59926  -0.70711   0.07794   0.00000
   7         D1        -0.76868  -0.09960   0.00000   0.07047   0.00000
                           6
     Eigenvalues --     0.45857
   1         R1         0.80217
   2         R2        -0.26922
   3         R3        -0.53295
   4         A1        -0.00000
   5         A2        -0.00000
   6         A3        -0.00000
   7         D1        -0.00000
 DoSqrt=T IScMMF=    -3 MM Scaling Factor =       0.00000
 En-DIIS/RFO-DIIS/Sim-DIIS IScMMF=       -3 using points:     4    3
 Iter=   1 RLamda=-2.15089150D-03 Sum=-4.13002282D-08.
 Iter=   2 RLamda=-4.13002282D-08 Sum=-4.17181446D-08.
 RFO step:  Lambda=-4.13002282D-08.
 NNeg= 0 NGDIIS= 2 SimSw=  2.50D-01 Rises=F DC= -2.97D-06 SmlDif=  1.00D-05
 NRisDI= 0 DoIntr=F SqrtH=F CThrHd= 10.0 CDAdj=  3.0
 RMS Error=  0.1689384439D-03 NUsed= 2 OKEnD=F EnDIS=F
 Total RFO-DIIS matrix:
                 1             2             3 
      1   0.000000D+00 -0.100000D+01 -0.100000D+01
      2  -0.100000D+01  0.199781D-06  0.386917D-05
      3  -0.100000D+01  0.386917D-05  0.108422D-03
 InvSVX:  RCond= 2.52D-05 Info=           0 Equed=N FErr=  9.56D-16 BErr=  0.00D+00
 DidBck=F Rises=F RFO-DIIS coefs:    1.03637   -0.03637
 Iteration  1 RMS(Cart)=  0.00015971 RMS(Int)=  0.00000040
 Iteration  2 RMS(Cart)=  0.00000001 RMS(Int)=  0.00000040
 ITry= 1 IFail=0 DXMaxC= 2.29D-04 DCOld= 1.00D+10 DXMaxT= 3.00D-01 DXLimC= 3.00D+00 Rises=F
 ClnCor:  largest displacement from symmetrization is 2.26D-06 for atom     4.
 Variable       Old X    -DE/DX   Delta X   Delta X   Delta X     New X
                                 (Linear)    (Quad)   (Total)
    R1        1.94386  -0.00007   0.00001  -0.00015  -0.00014   1.94372
    R2        1.94386  -0.00007   0.00001  -0.00015  -0.00014   1.94372
    R3        1.94386  -0.00007   0.00001  -0.00015  -0.00014   1.94372
    A1        1.83561  -0.00000  -0.00014  -0.00000  -0.00015   1.83546
    A2        1.83561  -0.00002  -0.00014  -0.00001  -0.00015   1.83546
    A3        1.83561  -0.00002  -0.00014  -0.00001  -0.00015   1.83546
    D1        1.93319  -0.00002  -0.00027  -0.00001  -0.00028   1.93292
         Item               Value     Threshold  Converged?
 Maximum Force            0.000071     0.000450     YES
 RMS     Force            0.000048     0.000300     YES
 Maximum Displacement     0.000227     0.001800     YES
 RMS     Displacement     0.000159     0.001200     YES
 Predicted change in Energy=-2.085724D-08
 Optimization completed.
    -- Stationary point found.
                           ----------------------------
                           !   Optimized Parameters   !
                           ! (Angstroms and Degrees)  !
 --------------------------                            --------------------------
 ! Name  Definition              Value          Derivative Info.                !
 --------------------------------------------------------------------------------
 ! R1    R(1,2)                  1.0286         -DE/DX =   -0.0001              !
 ! R2    R(1,3)                  1.0286         -DE/DX =   -0.0001              !
 ! R3    R(1,4)                  1.0286         -DE/DX =   -0.0001              !
 ! A1    A(2,1,3)              105.1727         -DE/DX =    0.0                 !
 ! A2    A(2,1,4)              105.1727         -DE/DX =    0.0                 !
 ! A3    A(3,1,4)              105.1727         -DE/DX =    0.0                 !
 ! D1    D(2,1,4,3)            110.7639         -DE/DX =    0.0                 !
 --------------------------------------------------------------------------------
 Lowest energy point so far.  Saving SCF results.
 Largest change from initial coordinates is atom    4       0.024 Angstoms.
 GradGradGradGradGradGradGradGradGradGradGradGradGradGradGradGradGradGrad

 Leave Link  103 at Wed Oct  7 14:10:34 2020, MaxMem=  2684354560 cpu:               2.2 elap:               0.5
 (Enter /udrive/faculty/rpeverati/g16/g16/l202.exe)
                          Input orientation:                          
 ---------------------------------------------------------------------
 Center     Atomic      Atomic             Coordinates (Angstroms)
 Number     Number       Type             X           Y           Z
 ---------------------------------------------------------------------
      1          7           0       -0.000000   -0.000000    0.307506
      2          1           0        0.471709    0.817024   -0.102468
      3          1           0        0.471709   -0.817024   -0.102468
      4          1           0       -0.943418    0.000000   -0.102468
 ---------------------------------------------------------------------
                    Distance matrix (angstroms):
                    1          2          3          4
     1  N    0.000000
     2  H    1.028648   0.000000
     3  H    1.028648   1.634048   0.000000
     4  H    1.028648   1.634048   1.634048   0.000000
 Stoichiometry    H3N
 Framework group  C3V[C3(N),3SGV(H)]
 Deg. of freedom     2
 Full point group                 C3V     NOp   6
 RotChk:  IX=0 Diff= 1.57D-16
 Largest Abelian subgroup         CS      NOp   2
 Largest concise Abelian subgroup CS      NOp   2
                         Standard orientation:                         
 ---------------------------------------------------------------------
 Center     Atomic      Atomic             Coordinates (Angstroms)
 Number     Number       Type             X           Y           Z
 ---------------------------------------------------------------------
      1          7           0        0.000000    0.000000    0.122992
      2          1           0        0.000000    0.943418   -0.286981
      3          1           0        0.817024   -0.471709   -0.286981
      4          1           0       -0.817024   -0.471709   -0.286981
 ---------------------------------------------------------------------
 Rotational constants (GHZ):         286.5863769         286.5863769         187.8029768
 Leave Link  202 at Wed Oct  7 14:10:35 2020, MaxMem=  2684354560 cpu:               1.3 elap:               0.5
 (Enter /udrive/faculty/rpeverati/g16/g16/l601.exe)
 Copying SCF densities to generalized density rwf, IOpCl= 0 IROHF=0.

 **********************************************************************

            Population analysis using the SCF density.

 **********************************************************************

 Orbital symmetries:
       Occupied  (A1) (A1) (E) (E) (A1)
       Virtual   (A1) (E) (E) (E) (E) (A1) (E) (E) (A1) (A1) (E)
                 (E) (A1) (E) (E)
 The electronic state is 1-A1.
 Alpha  occ. eigenvalues --  -13.98569  -0.76734  -0.40134  -0.40134  -0.20520
 Alpha virt. eigenvalues --    0.05697   0.13921   0.13921   0.64064   0.64064
 Alpha virt. eigenvalues --    0.67309   0.85351   0.85351   0.86708   1.19204
 Alpha virt. eigenvalues --    1.60318   1.60318   1.85482   2.30836   2.30836
          Condensed to atoms (all electrons):
               1          2          3          4
     1  N    6.956971   0.313311   0.313311   0.313311
     2  H    0.313311   0.450500  -0.031390  -0.031390
     3  H    0.313311  -0.031390   0.450500  -0.031390
     4  H    0.313311  -0.031390  -0.031390   0.450500
 Mulliken charges:
               1
     1  N   -0.896905
     2  H    0.298968
     3  H    0.298968
     4  H    0.298968
 Sum of Mulliken charges =  -0.00000
 Mulliken charges with hydrogens summed into heavy atoms:
               1
     1  N   -0.000000
 Electronic spatial extent (au):  <R**2>=             26.5385
 Charge=             -0.0000 electrons
 Dipole moment (field-independent basis, Debye):
    X=              0.0000    Y=              0.0000    Z=             -1.9314  Tot=              1.9314
 Quadrupole moment (field-independent basis, Debye-Ang):
   XX=             -6.1873   YY=             -6.1873   ZZ=             -8.8002
   XY=             -0.0000   XZ=             -0.0000   YZ=             -0.0000
 Traceless Quadrupole moment (field-independent basis, Debye-Ang):
   XX=              0.8710   YY=              0.8710   ZZ=             -1.7420
   XY=             -0.0000   XZ=             -0.0000   YZ=             -0.0000
 Octapole moment (field-independent basis, Debye-Ang**2):
  XXX=              0.0000  YYY=              0.7945  ZZZ=             -1.7156  XYY=              0.0000
  XXY=             -0.7945  XXZ=             -0.9036  XZZ=              0.0000  YZZ=              0.0000
  YYZ=             -0.9036  XYZ=              0.0000
 Hexadecapole moment (field-independent basis, Debye-Ang**3):
 XXXX=             -9.7460 YYYY=             -9.7460 ZZZZ=             -9.9389 XXXY=             -0.0000
 XXXZ=             -0.0000 YYYX=              0.0000 YYYZ=             -0.3154 ZZZX=             -0.0000
 ZZZY=             -0.0000 XXYY=             -3.2487 XXZZ=             -3.3039 YYZZ=             -3.3039
 XXYZ=              0.3154 YYXZ=             -0.0000 ZZXY=              0.0000
 N-N= 1.177379094328D+01 E-N=-1.555142049274D+02  KE= 5.615011397095D+01
 No NMR shielding tensors so no spin-rotation constants.
 Leave Link  601 at Wed Oct  7 14:10:36 2020, MaxMem=  2684354560 cpu:               3.0 elap:               0.6
 (Enter /udrive/faculty/rpeverati/g16/g16/l9999.exe)

 Test job not archived.
 1\1\GINC-NODE60\FOpt\RBP86\6-31G(d)\H3N1\RPEVERATI\07-Oct-2020\0\\#P O
 pt(MaxCyc=100) BP86/6-31G* 5D 7F Integral=UltraFineGrid SCF=(NoSymm,XQ
 C,MaxCyc=120) EmpiricalDispersion=GD3BJ IOp(1/33=1)\\TS search on BH76
 .\\0,1\N,0.,0.,0.3075057818\H,0.4717090074,0.8170239672,-0.1024677168\
 H,0.4717090074,-0.8170239672,-0.1024677168\H,-0.9434180148,0.,-0.10246
 77168\\Version=ES64L-G16RevA.03\State=1-A1\HF=-56.5462719\RMSD=2.761e-
 09\RMSF=3.831e-05\Dipole=0.,0.,-0.7598737\Quadrupole=0.6475526,0.64755
 26,-1.2951052,0.,0.,0.\PG=C03V [C3(N1),3SGV(H1)]\\@


 THE HURRIEDER I GO, THE BEHINDER I GET.
 Job cpu time:       0 days  0 hours  3 minutes 12.0 seconds.
 Elapsed time:       0 days  0 hours  0 minutes 38.8 seconds.
 File lengths (MBytes):  RWF=      5 Int=      0 D2E=      0 Chk=      1 Scr=      1
 Normal termination of Gaussian 16 at Wed Oct  7 14:10:38 2020.
