 Entering Gaussian System, Link 0=g16
 Input=MN_81_RKT04_BH76_BP86DBJ_631Gs.in
 Output=MN_81_RKT04_BH76_BP86DBJ_631Gs.log
 Initial command:
 /udrive/faculty/rpeverati/g16/g16/l1.exe "/udrive/scratch-directories/gaussian09/rpeverati/Gau-27121.inp" -scrdir="/udrive/scratch-directories/gaussian09/rpeverati/"
 Entering Link 1 = /udrive/faculty/rpeverati/g16/g16/l1.exe PID=     27122.
  
 Copyright (c) 1988,1990,1992,1993,1995,1998,2003,2009,2016,
            Gaussian, Inc.  All Rights Reserved.
  
 This is part of the Gaussian(R) 16 program.  It is based on
 the Gaussian(R) 09 system (copyright 2009, Gaussian, Inc.),
 the Gaussian(R) 03 system (copyright 2003, Gaussian, Inc.),
 the Gaussian(R) 98 system (copyright 1998, Gaussian, Inc.),
 the Gaussian(R) 94 system (copyright 1995, Gaussian, Inc.),
 the Gaussian 92(TM) system (copyright 1992, Gaussian, Inc.),
 the Gaussian 90(TM) system (copyright 1990, Gaussian, Inc.),
 the Gaussian 88(TM) system (copyright 1988, Gaussian, Inc.),
 the Gaussian 86(TM) system (copyright 1986, Carnegie Mellon
 University), and the Gaussian 82(TM) system (copyright 1983,
 Carnegie Mellon University). Gaussian is a federally registered
 trademark of Gaussian, Inc.
  
 This software contains proprietary and confidential information,
 including trade secrets, belonging to Gaussian, Inc.
  
 This software is provided under written license and may be
 used, copied, transmitted, or stored only in accord with that
 written license.
  
 The following legend is applicable only to US Government
 contracts under FAR:
  
                    RESTRICTED RIGHTS LEGEND
  
 Use, reproduction and disclosure by the US Government is
 subject to restrictions as set forth in subparagraphs (a)
 and (c) of the Commercial Computer Software - Restricted
 Rights clause in FAR 52.227-19.
  
 Gaussian, Inc.
 340 Quinnipiac St., Bldg. 40, Wallingford CT 06492
  
  
 ---------------------------------------------------------------
 Warning -- This program may not be used in any manner that
 competes with the business of Gaussian, Inc. or will provide
 assistance to any competitor of Gaussian, Inc.  The licensee
 of this program is prohibited from giving any competitor of
 Gaussian, Inc. access to this program.  By using this program,
 the user acknowledges that Gaussian, Inc. is engaged in the
 business of creating and licensing software in the field of
 computational chemistry and represents and warrants to the
 licensee that it is not a competitor of Gaussian, Inc. and that
 it will not use this program in any manner prohibited above.
 ---------------------------------------------------------------
  

 Cite this work as:
 Gaussian 16, Revision A.03,
 M. J. Frisch, G. W. Trucks, H. B. Schlegel, G. E. Scuseria, 
 M. A. Robb, J. R. Cheeseman, G. Scalmani, V. Barone, 
 G. A. Petersson, H. Nakatsuji, X. Li, M. Caricato, A. V. Marenich, 
 J. Bloino, B. G. Janesko, R. Gomperts, B. Mennucci, H. P. Hratchian, 
 J. V. Ortiz, A. F. Izmaylov, J. L. Sonnenberg, D. Williams-Young, 
 F. Ding, F. Lipparini, F. Egidi, J. Goings, B. Peng, A. Petrone, 
 T. Henderson, D. Ranasinghe, V. G. Zakrzewski, J. Gao, N. Rega, 
 G. Zheng, W. Liang, M. Hada, M. Ehara, K. Toyota, R. Fukuda, 
 J. Hasegawa, M. Ishida, T. Nakajima, Y. Honda, O. Kitao, H. Nakai, 
 T. Vreven, K. Throssell, J. A. Montgomery, Jr., J. E. Peralta, 
 F. Ogliaro, M. J. Bearpark, J. J. Heyd, E. N. Brothers, K. N. Kudin, 
 V. N. Staroverov, T. A. Keith, R. Kobayashi, J. Normand, 
 K. Raghavachari, A. P. Rendell, J. C. Burant, S. S. Iyengar, 
 J. Tomasi, M. Cossi, J. M. Millam, M. Klene, C. Adamo, R. Cammi, 
 J. W. Ochterski, R. L. Martin, K. Morokuma, O. Farkas, 
 J. B. Foresman, and D. J. Fox, Gaussian, Inc., Wallingford CT, 2016.
 
 ******************************************
 Gaussian 16:  ES64L-G16RevA.03 25-Dec-2016
                 7-Oct-2020 
 ******************************************
 %NoSave
 %nproc=12
 Will use up to   12 processors via shared memory.
 %mem=20GB
 %chk=MN_81_RKT04_BH76_BP86DBJ_631Gs
 ----------------------------------------------------------------------
 #P Opt(TS,MaxCyc=50,NoEigenTest,MaxStep=10,AddRedundant) BP86/6-31G* 5
 D 7F Integral=UltraFineGrid SCF=(NoSymm,XQC,MaxCyc=120) EmpiricalDispe
 rsion=GD3BJ IOp(1/33=1)
 ----------------------------------------------------------------------
 1/5=1,6=50,8=10,11=1,18=120,26=4,33=1,38=1/1,3;
 2/9=110,12=2,17=6,18=5,40=1/2;
 3/5=1,6=6,7=1,8=11,11=2,25=1,30=1,71=1,74=404,75=-5,124=41/1,2,3;
 4/9=2/1;
 5/5=2,7=120,8=3,13=1,38=5/2,8;
 6/7=2,8=2,9=2,10=2,28=1/1;
 7//1,2,3,16;
 1/5=1,6=50,8=10,11=1,18=20,26=4,33=1/3(2);
 2/9=110/2;
 99//99;
 2/9=110/2;
 3/5=1,6=6,7=1,8=11,11=2,25=1,30=1,71=1,74=404,75=-5,124=41/1,2,3;
 4/5=5,9=2,16=3,69=1/1;
 5/5=2,7=120,8=3,13=1,38=5/2,8;
 7//1,2,3,16;
 1/5=1,6=50,8=10,11=1,18=20,26=4,33=1/3(-5);
 2/9=110/2;
 6/7=2,8=2,9=2,10=2,19=2,28=1/1;
 99/9=1/99;
 Leave Link    1 at Wed Oct  7 14:10:16 2020, MaxMem=  2684354560 cpu:               8.1 elap:               0.8
 (Enter /udrive/faculty/rpeverati/g16/g16/l101.exe)
 ONIOM data not found on unit 2.
 ------------------
 TS search on BH76.
 ------------------
 TstMul:  ICh=     0
 TstMul:  Mul=     2
 TstMul:  ICh=     0
 TstMul:  Mul=     2
 Symbolic Z-matrix:
 Charge =  0 Multiplicity = 2
 C                    -1.21149   0.00797   0.00041 
 O                     1.29397  -0.10869   0.00013 
 H                     0.00948  -0.11802   0.0028 
 H                    -1.52553  -0.23325   1.01007 
 H                    -1.43067   1.03323  -0.27808 
 H                    -1.55271  -0.71011  -0.7377 
 H                     1.41664   0.8499   -0.00059 
 
 RdStrC is calling ZToCFu for IStruc=1 NZ=     7.
 PrtBox:  NBox=     1 Levels=  1 BoxLen=    8.00 SMaxX=        5.61
          Shift=            2.934200            1.341920            1.394060
 Box      1 Number                   0 centers from      1 to      7:
 After GenITR:
 ITRead=  0  0  0  0  0  0  0
 MicOpt= -1 -1 -1 -1 -1 -1 -1
 Add virtual bond connecting atoms H3         and O2         Dist= 2.43D+00.
 The following ModRedundant input section has been read:
 
 ITRead=  0  0  0  0  0  0  0
 MicOpt= -1 -1 -1 -1 -1 -1 -1
 NAtoms=      7 NQM=        7 NQMF=       0 NMMI=      0 NMMIF=      0
                NMic=       0 NMicF=      0.
                    Isotopes and Nuclear Properties:
 (Nuclear quadrupole moments (NQMom) in fm**2, nuclear magnetic moments (NMagM)
  in nuclear magnetons)

  Atom         1           2           3           4           5           6           7
 IAtWgt=          12          16           1           1           1           1           1
 AtmWgt=  12.0000000  15.9949146   1.0078250   1.0078250   1.0078250   1.0078250   1.0078250
 NucSpn=           0           0           1           1           1           1           1
 AtZEff=   0.0000000   0.0000000   0.0000000   0.0000000   0.0000000   0.0000000   0.0000000
 NQMom=    0.0000000   0.0000000   0.0000000   0.0000000   0.0000000   0.0000000   0.0000000
 NMagM=    0.0000000   0.0000000   2.7928460   2.7928460   2.7928460   2.7928460   2.7928460
 AtZNuc=   6.0000000   8.0000000   1.0000000   1.0000000   1.0000000   1.0000000   1.0000000
 No MM parameters found.
 Leave Link  101 at Wed Oct  7 14:10:18 2020, MaxMem=  2684354560 cpu:              14.0 elap:               1.4
 (Enter /udrive/faculty/rpeverati/g16/g16/l103.exe)

 GradGradGradGradGradGradGradGradGradGradGradGradGradGradGradGradGradGrad
 Berny optimization.
 Optmz: redundant internal coordinate code flag= 1
 Initialization pass.
                           ----------------------------
                           !    Initial Parameters    !
                           ! (Angstroms and Degrees)  !
 --------------------------                            --------------------------
 ! Name  Definition              Value          Derivative Info.                !
 --------------------------------------------------------------------------------
 ! R1    R(1,3)                  1.2274         estimate D2E/DX2                !
 ! R2    R(1,4)                  1.0845         estimate D2E/DX2                !
 ! R3    R(1,5)                  1.0848         estimate D2E/DX2                !
 ! R4    R(1,6)                  1.0848         estimate D2E/DX2                !
 ! R5    R(2,3)                  1.2845         estimate D2E/DX2                !
 ! R6    R(2,7)                  0.9664         estimate D2E/DX2                !
 ! A1    A(3,1,4)              105.2711         estimate D2E/DX2                !
 ! A2    A(3,1,5)              107.367          estimate D2E/DX2                !
 ! A3    A(3,1,6)              104.2563         estimate D2E/DX2                !
 ! A4    A(4,1,5)              112.9983         estimate D2E/DX2                !
 ! A5    A(4,1,6)              113.273          estimate D2E/DX2                !
 ! A6    A(5,1,6)              112.7916         estimate D2E/DX2                !
 ! A7    A(3,2,7)               97.7088         estimate D2E/DX2                !
 ! A8    L(1,3,2,7,-1)         173.692          estimate D2E/DX2                !
 ! A9    L(1,3,2,7,-2)         180.3499         estimate D2E/DX2                !
 ! D1    D(4,1,2,7)           -104.2472         estimate D2E/DX2                !
 ! D2    D(5,1,2,7)             15.3168         estimate D2E/DX2                !
 ! D3    D(6,1,2,7)            134.7639         estimate D2E/DX2                !
 --------------------------------------------------------------------------------
 Maximum allowed force set to 1.00D+20.
 Trust Radius=1.00D-01 FncErr=1.00D-07 GrdErr=1.00D-06 EigMax=2.50D+02 EigMin=1.00D-04
 Number of steps in this run=     50 maximum allowed number of steps=    100.
 Search for a saddle point of order  1.
 GradGradGradGradGradGradGradGradGradGradGradGradGradGradGradGradGradGrad

 Leave Link  103 at Wed Oct  7 14:10:19 2020, MaxMem=  2684354560 cpu:               1.6 elap:               0.6
 (Enter /udrive/faculty/rpeverati/g16/g16/l202.exe)
                          Input orientation:                          
 ---------------------------------------------------------------------
 Center     Atomic      Atomic             Coordinates (Angstroms)
 Number     Number       Type             X           Y           Z
 ---------------------------------------------------------------------
      1          6           0       -1.211488    0.007968    0.000407
      2          8           0        1.293965   -0.108694    0.000133
      3          1           0        0.009476   -0.118020    0.002799
      4          1           0       -1.525528   -0.233250    1.010072
      5          1           0       -1.430668    1.033234   -0.278082
      6          1           0       -1.552712   -0.710113   -0.737705
      7          1           0        1.416639    0.849896   -0.000591
 ---------------------------------------------------------------------
                    Distance matrix (angstroms):
                    1          2          3          4          5
     1  C    0.000000
     2  O    2.508168   0.000000
     3  H    1.227449   1.284526   0.000000
     4  H    1.084542   2.997505   1.839596   0.000000
     5  H    1.084789   2.967327   1.865019   1.808956   0.000000
     6  H    1.084843   3.001613   1.827389   1.811867   1.807044
     7  H    2.759691   0.966408   1.707917   3.294084   2.866665
                    6          7
     6  H    0.000000
     7  H    3.434241   0.000000
 Stoichiometry    CH5O(2)
 Framework group  C1[X(CH5O)]
 Deg. of freedom    15
 Full point group                 C1      NOp   1
 Largest Abelian subgroup         C1      NOp   1
 Largest concise Abelian subgroup C1      NOp   1
                         Standard orientation:                         
 ---------------------------------------------------------------------
 Center     Atomic      Atomic             Coordinates (Angstroms)
 Number     Number       Type             X           Y           Z
 ---------------------------------------------------------------------
      1          6           0       -1.211488    0.007968    0.000407
      2          8           0        1.293965   -0.108694    0.000133
      3          1           0        0.009476   -0.118020    0.002799
      4          1           0       -1.525528   -0.233250    1.010072
      5          1           0       -1.430668    1.033235   -0.278082
      6          1           0       -1.552712   -0.710113   -0.737705
      7          1           0        1.416639    0.849895   -0.000591
 ---------------------------------------------------------------------
 Rotational constants (GHZ):         120.8646308           9.2474374           9.1021904
 Leave Link  202 at Wed Oct  7 14:10:20 2020, MaxMem=  2684354560 cpu:               1.7 elap:               0.5
 (Enter /udrive/faculty/rpeverati/g16/g16/l301.exe)
 Standard basis: 6-31G(d) (5D, 7F)
 Ernie: Thresh=  0.10000D-02 Tol=  0.10000D-05 Strict=F.
 There are    40 symmetry adapted cartesian basis functions of A   symmetry.
 There are    38 symmetry adapted basis functions of A   symmetry.
    38 basis functions,    76 primitive gaussians,    40 cartesian basis functions
    10 alpha electrons        9 beta electrons
       nuclear repulsion energy        37.1187830199 Hartrees.
 IExCor=  404 DFT=T Ex=B Corr=P86 ExCW=0 ScaHFX=  0.000000
 ScaDFX=  1.000000  1.000000  1.000000  1.000000 ScalE2=  1.000000  1.000000
 IRadAn=      5 IRanWt=     -1 IRanGd=            0 ICorTp=0 IEmpDi=141
 NAtoms=    7 NActive=    7 NUniq=    7 SFac= 1.00D+00 NAtFMM=   60 NAOKFM=F Big=F
 Integral buffers will be    131072 words long.
 Raffenetti 2 integral format.
 Two-electron integral symmetry is turned on.
 R6Disp:  Grimme-D3(BJ) Dispersion energy=       -0.0031685876 Hartrees.
 Nuclear repulsion after empirical dispersion term =       37.1156144324 Hartrees.
 Leave Link  301 at Wed Oct  7 14:10:21 2020, MaxMem=  2684354560 cpu:               2.4 elap:               0.7
 (Enter /udrive/faculty/rpeverati/g16/g16/l302.exe)
 NPDir=0 NMtPBC=     1 NCelOv=     1 NCel=       1 NClECP=     1 NCelD=      1
         NCelK=      1 NCelE2=     1 NClLst=     1 CellRange=     0.0.
 One-electron integrals computed using PRISM.
 One-electron integral symmetry used in STVInt
 NBasis=    38 RedAO= T EigKep=  1.02D-02  NBF=    38
 NBsUse=    38 1.00D-06 EigRej= -1.00D+00 NBFU=    38
 Precomputing XC quadrature grid using
 IXCGrd= 4 IRadAn=           5 IRanWt=          -1 IRanGd=           0 AccXCQ= 0.00D+00.
 Generated NRdTot=       0 NPtTot=           0 NUsed=           0 NTot=          32
 NSgBfM=    40    40    40    40    40 MxSgAt=     7 MxSgA2=     7.
 Leave Link  302 at Wed Oct  7 14:10:22 2020, MaxMem=  2684354560 cpu:               4.0 elap:               0.8
 (Enter /udrive/faculty/rpeverati/g16/g16/l303.exe)
 DipDrv:  MaxL=1.
 Leave Link  303 at Wed Oct  7 14:10:23 2020, MaxMem=  2684354560 cpu:               1.3 elap:               0.5
 (Enter /udrive/faculty/rpeverati/g16/g16/l401.exe)
 SCF N**3 symmetry information disabled.
 ExpMin= 1.61D-01 ExpMax= 5.48D+03 ExpMxC= 8.25D+02 IAcc=3 IRadAn=         5 AccDes= 0.00D+00
 Harris functional with IExCor=  404 and IRadAn=       5 diagonalized for initial guess.
 HarFok:  IExCor=  404 AccDes= 0.00D+00 IRadAn=         5 IDoV= 1 UseB2=F ITyADJ=14
 ICtDFT=  3500011 ScaDFX=  1.000000  1.000000  1.000000  1.000000
 FoFCou: FMM=F IPFlag=           0 FMFlag=      100000 FMFlg1=           0
         NFxFlg=           0 DoJE=T BraDBF=F KetDBF=T FulRan=T
         wScrn=  0.000000 ICntrl=       500 IOpCl=  0 I1Cent=   200000004 NGrid=           0
         NMat0=    1 NMatS0=      1 NMatT0=    0 NMatD0=    1 NMtDS0=    0 NMtDT0=    0
 Petite list used in FoFCou.
 Harris En= -116.284600704125    
 JPrj=0 DoOrth=F DoCkMO=F.
 Initial guess <Sx>= 0.0000 <Sy>= 0.0000 <Sz>= 0.5000 <S**2>= 0.7500 S= 0.5000
 Leave Link  401 at Wed Oct  7 14:10:24 2020, MaxMem=  2684354560 cpu:               5.3 elap:               0.8
 (Enter /udrive/faculty/rpeverati/g16/g16/l502.exe)
 Keep J ints in memory in canonical form, NReq=10631630.
 FoFCou: FMM=F IPFlag=           0 FMFlag=           0 FMFlg1=           0
         NFxFlg=           0 DoJE=F BraDBF=F KetDBF=F FulRan=T
         wScrn=  0.000000 ICntrl=       600 IOpCl=  0 I1Cent=           0 NGrid=           0
         NMat0=    1 NMatS0=    741 NMatT0=    0 NMatD0=    1 NMtDS0=    0 NMtDT0=    0
 Symmetry not used in FoFCou.
 Two-electron integral symmetry not used.
 UHF open shell SCF:
 Using DIIS extrapolation, IDIIS=  1040.
 NGot=  2684354560 LenX=  2684075284 LenY=  2684073243
 Requested convergence on RMS density matrix=1.00D-08 within 120 cycles.
 Requested convergence on MAX density matrix=1.00D-06.
 Requested convergence on             energy=1.00D-06.
 No special actions if energy rises.
 Integral accuracy reduced to 1.0D-05 until final iterations.

 Cycle   1  Pass 0  IDiag  1:
 E= -116.152520739146    
 DIIS: error= 5.33D-02 at cycle   1 NSaved=   1.
 NSaved= 1 IEnMin= 1 EnMin= -116.152520739146     IErMin= 1 ErrMin= 5.33D-02
 ErrMax= 5.33D-02  0.00D+00 EMaxC= 1.00D-01 BMatC= 3.30D-01 BMatP= 3.30D-01
 IDIUse=3 WtCom= 4.67D-01 WtEn= 5.33D-01
 Coeff-Com:  0.100D+01
 Coeff-En:   0.100D+01
 Coeff:      0.100D+01
 Gap=     0.207 Goal=   None    Shift=    0.000
 Gap=     0.042 Goal=   None    Shift=    0.000
 GapD=    0.042 DampG=0.250 DampE=0.500 DampFc=0.2500 IDamp=-1.
 Damping current iteration by 2.50D-01
 RMSDP=1.66D-02 MaxDP=1.45D-01              OVMax= 1.88D-01

 Cycle   2  Pass 0  IDiag  1:
 E= -116.183207103870     Delta-E=       -0.030686364723 Rises=F Damp=T
 DIIS: error= 2.52D-02 at cycle   2 NSaved=   2.
 NSaved= 2 IEnMin= 2 EnMin= -116.183207103870     IErMin= 2 ErrMin= 2.52D-02
 ErrMax= 2.52D-02  0.00D+00 EMaxC= 1.00D-01 BMatC= 5.51D-02 BMatP= 3.30D-01
 IDIUse=3 WtCom= 7.48D-01 WtEn= 2.52D-01
 Coeff-Com: -0.618D+00 0.162D+01
 Coeff-En:   0.000D+00 0.100D+01
 Coeff:     -0.463D+00 0.146D+01
 Gap=     0.285 Goal=   None    Shift=    0.000
 Gap=     0.056 Goal=   None    Shift=    0.000
 RMSDP=4.09D-03 MaxDP=4.99D-02 DE=-3.07D-02 OVMax= 1.20D-01

 Cycle   3  Pass 0  IDiag  1:
 E= -116.228940125550     Delta-E=       -0.045733021681 Rises=F Damp=F
 DIIS: error= 1.49D-02 at cycle   3 NSaved=   3.
 NSaved= 3 IEnMin= 3 EnMin= -116.228940125550     IErMin= 3 ErrMin= 1.49D-02
 ErrMax= 1.49D-02  0.00D+00 EMaxC= 1.00D-01 BMatC= 1.62D-02 BMatP= 5.51D-02
 IDIUse=3 WtCom= 8.51D-01 WtEn= 1.49D-01
 Coeff-Com: -0.270D+00 0.832D+00 0.437D+00
 Coeff-En:   0.000D+00 0.000D+00 0.100D+01
 Coeff:     -0.229D+00 0.708D+00 0.521D+00
 Gap=     0.298 Goal=   None    Shift=    0.000
 Gap=     0.044 Goal=   None    Shift=    0.000
 RMSDP=2.12D-03 MaxDP=2.76D-02 DE=-4.57D-02 OVMax= 5.68D-02

 Cycle   4  Pass 0  IDiag  1:
 E= -116.231982650063     Delta-E=       -0.003042524512 Rises=F Damp=F
 DIIS: error= 8.67D-03 at cycle   4 NSaved=   4.
 NSaved= 4 IEnMin= 4 EnMin= -116.231982650063     IErMin= 4 ErrMin= 8.67D-03
 ErrMax= 8.67D-03  0.00D+00 EMaxC= 1.00D-01 BMatC= 5.85D-03 BMatP= 1.62D-02
 IDIUse=3 WtCom= 9.13D-01 WtEn= 8.67D-02
 Coeff-Com:  0.838D-01-0.894D-01 0.407D+00 0.599D+00
 Coeff-En:   0.000D+00 0.000D+00 0.282D+00 0.718D+00
 Coeff:      0.765D-01-0.817D-01 0.396D+00 0.609D+00
 Gap=     0.301 Goal=   None    Shift=    0.000
 Gap=     0.053 Goal=   None    Shift=    0.000
 RMSDP=9.39D-04 MaxDP=1.06D-02 DE=-3.04D-03 OVMax= 3.05D-02

 Cycle   5  Pass 0  IDiag  1:
 E= -116.233493271848     Delta-E=       -0.001510621785 Rises=F Damp=F
 DIIS: error= 8.78D-04 at cycle   5 NSaved=   5.
 NSaved= 5 IEnMin= 5 EnMin= -116.233493271848     IErMin= 5 ErrMin= 8.78D-04
 ErrMax= 8.78D-04  0.00D+00 EMaxC= 1.00D-01 BMatC= 8.83D-05 BMatP= 5.85D-03
 IDIUse=3 WtCom= 9.91D-01 WtEn= 8.78D-03
 Coeff-Com:  0.250D-01-0.517D-01 0.829D-01 0.205D+00 0.739D+00
 Coeff-En:   0.000D+00 0.000D+00 0.000D+00 0.000D+00 0.100D+01
 Coeff:      0.248D-01-0.513D-01 0.821D-01 0.203D+00 0.741D+00
 Gap=     0.296 Goal=   None    Shift=    0.000
 Gap=     0.053 Goal=   None    Shift=    0.000
 RMSDP=1.12D-04 MaxDP=1.73D-03 DE=-1.51D-03 OVMax= 4.09D-03

 Cycle   6  Pass 0  IDiag  1:
 E= -116.233515370713     Delta-E=       -0.000022098865 Rises=F Damp=F
 DIIS: error= 9.86D-05 at cycle   6 NSaved=   6.
 NSaved= 6 IEnMin= 6 EnMin= -116.233515370713     IErMin= 6 ErrMin= 9.86D-05
 ErrMax= 9.86D-05  0.00D+00 EMaxC= 1.00D-01 BMatC= 1.72D-06 BMatP= 8.83D-05
 IDIUse=1 WtCom= 1.00D+00 WtEn= 0.00D+00
 Coeff-Com: -0.523D-02 0.234D-02-0.238D-01-0.206D-01 0.134D+00 0.913D+00
 Coeff:     -0.523D-02 0.234D-02-0.238D-01-0.206D-01 0.134D+00 0.913D+00
 Gap=     0.296 Goal=   None    Shift=    0.000
 Gap=     0.053 Goal=   None    Shift=    0.000
 RMSDP=2.42D-05 MaxDP=2.21D-04 DE=-2.21D-05 OVMax= 3.20D-04

 Cycle   7  Pass 0  IDiag  1:
 E= -116.233515986371     Delta-E=       -0.000000615658 Rises=F Damp=F
 DIIS: error= 1.70D-05 at cycle   7 NSaved=   7.
 NSaved= 7 IEnMin= 7 EnMin= -116.233515986371     IErMin= 7 ErrMin= 1.70D-05
 ErrMax= 1.70D-05  0.00D+00 EMaxC= 1.00D-01 BMatC= 3.37D-08 BMatP= 1.72D-06
 IDIUse=1 WtCom= 1.00D+00 WtEn= 0.00D+00
 Coeff-Com: -0.966D-03 0.161D-02-0.416D-02-0.830D-02-0.175D-01 0.735D-01
 Coeff-Com:  0.956D+00
 Coeff:     -0.966D-03 0.161D-02-0.416D-02-0.830D-02-0.175D-01 0.735D-01
 Coeff:      0.956D+00
 Gap=     0.296 Goal=   None    Shift=    0.000
 Gap=     0.053 Goal=   None    Shift=    0.000
 RMSDP=4.16D-06 MaxDP=5.09D-05 DE=-6.16D-07 OVMax= 6.95D-05

 Initial convergence to 1.0D-05 achieved.  Increase integral accuracy.
 Cycle   8  Pass 1  IDiag  1:
 E= -116.233515679544     Delta-E=        0.000000306827 Rises=F Damp=F
 DIIS: error= 5.73D-06 at cycle   1 NSaved=   1.
 NSaved= 1 IEnMin= 1 EnMin= -116.233515679544     IErMin= 1 ErrMin= 5.73D-06
 ErrMax= 5.73D-06  0.00D+00 EMaxC= 1.00D-01 BMatC= 2.86D-09 BMatP= 2.86D-09
 IDIUse=1 WtCom= 1.00D+00 WtEn= 0.00D+00
 Coeff-Com:  0.100D+01
 Coeff:      0.100D+01
 Gap=     0.296 Goal=   None    Shift=    0.000
 Gap=     0.053 Goal=   None    Shift=    0.000
 RMSDP=4.16D-06 MaxDP=5.09D-05 DE= 3.07D-07 OVMax= 1.86D-05

 Cycle   9  Pass 1  IDiag  1:
 E= -116.233515680073     Delta-E=       -0.000000000529 Rises=F Damp=F
 DIIS: error= 3.31D-06 at cycle   2 NSaved=   2.
 NSaved= 2 IEnMin= 2 EnMin= -116.233515680073     IErMin= 2 ErrMin= 3.31D-06
 ErrMax= 3.31D-06  0.00D+00 EMaxC= 1.00D-01 BMatC= 1.56D-09 BMatP= 2.86D-09
 IDIUse=1 WtCom= 1.00D+00 WtEn= 0.00D+00
 Coeff-Com:  0.411D+00 0.589D+00
 Coeff:      0.411D+00 0.589D+00
 Gap=     0.296 Goal=   None    Shift=    0.000
 Gap=     0.053 Goal=   None    Shift=    0.000
 RMSDP=6.99D-07 MaxDP=7.10D-06 DE=-5.29D-10 OVMax= 1.93D-05

 Cycle  10  Pass 1  IDiag  1:
 E= -116.233515680226     Delta-E=       -0.000000000153 Rises=F Damp=F
 DIIS: error= 3.57D-06 at cycle   3 NSaved=   3.
 NSaved= 3 IEnMin= 3 EnMin= -116.233515680226     IErMin= 2 ErrMin= 3.31D-06
 ErrMax= 3.57D-06  0.00D+00 EMaxC= 1.00D-01 BMatC= 9.81D-10 BMatP= 1.56D-09
 IDIUse=1 WtCom= 1.00D+00 WtEn= 0.00D+00
 Coeff-Com:  0.203D+00 0.432D+00 0.365D+00
 Coeff:      0.203D+00 0.432D+00 0.365D+00
 Gap=     0.296 Goal=   None    Shift=    0.000
 Gap=     0.053 Goal=   None    Shift=    0.000
 RMSDP=3.68D-07 MaxDP=4.95D-06 DE=-1.53D-10 OVMax= 1.15D-05

 Cycle  11  Pass 1  IDiag  1:
 E= -116.233515680458     Delta-E=       -0.000000000231 Rises=F Damp=F
 DIIS: error= 5.40D-07 at cycle   4 NSaved=   4.
 NSaved= 4 IEnMin= 4 EnMin= -116.233515680458     IErMin= 4 ErrMin= 5.40D-07
 ErrMax= 5.40D-07  0.00D+00 EMaxC= 1.00D-01 BMatC= 2.32D-11 BMatP= 9.81D-10
 IDIUse=1 WtCom= 1.00D+00 WtEn= 0.00D+00
 Coeff-Com: -0.673D-01-0.570D-01 0.910D-01 0.103D+01
 Coeff:     -0.673D-01-0.570D-01 0.910D-01 0.103D+01
 Gap=     0.296 Goal=   None    Shift=    0.000
 Gap=     0.053 Goal=   None    Shift=    0.000
 RMSDP=9.99D-08 MaxDP=1.17D-06 DE=-2.31D-10 OVMax= 1.81D-06

 Cycle  12  Pass 1  IDiag  1:
 E= -116.233515680465     Delta-E=       -0.000000000007 Rises=F Damp=F
 DIIS: error= 2.49D-07 at cycle   5 NSaved=   5.
 NSaved= 5 IEnMin= 5 EnMin= -116.233515680465     IErMin= 5 ErrMin= 2.49D-07
 ErrMax= 2.49D-07  0.00D+00 EMaxC= 1.00D-01 BMatC= 5.05D-12 BMatP= 2.32D-11
 IDIUse=1 WtCom= 1.00D+00 WtEn= 0.00D+00
 Coeff-Com: -0.499D-01-0.606D-01 0.228D-01 0.540D+00 0.547D+00
 Coeff:     -0.499D-01-0.606D-01 0.228D-01 0.540D+00 0.547D+00
 Gap=     0.296 Goal=   None    Shift=    0.000
 Gap=     0.053 Goal=   None    Shift=    0.000
 RMSDP=2.95D-08 MaxDP=3.91D-07 DE=-7.42D-12 OVMax= 4.77D-07

 Cycle  13  Pass 1  IDiag  1:
 E= -116.233515680466     Delta-E=       -0.000000000002 Rises=F Damp=F
 DIIS: error= 4.94D-08 at cycle   6 NSaved=   6.
 NSaved= 6 IEnMin= 6 EnMin= -116.233515680466     IErMin= 6 ErrMin= 4.94D-08
 ErrMax= 4.94D-08  0.00D+00 EMaxC= 1.00D-01 BMatC= 1.82D-13 BMatP= 5.05D-12
 IDIUse=1 WtCom= 1.00D+00 WtEn= 0.00D+00
 Coeff-Com: -0.107D-01-0.145D-01-0.243D-02 0.905D-01 0.197D+00 0.740D+00
 Coeff:     -0.107D-01-0.145D-01-0.243D-02 0.905D-01 0.197D+00 0.740D+00
 Gap=     0.296 Goal=   None    Shift=    0.000
 Gap=     0.053 Goal=   None    Shift=    0.000
 RMSDP=6.67D-09 MaxDP=7.62D-08 DE=-1.53D-12 OVMax= 1.50D-07

 SCF Done:  E(UB-P86) =  -116.233515680     A.U. after   13 cycles
            NFock= 13  Conv=0.67D-08     -V/T= 2.0060
 <Sx>= 0.0000 <Sy>= 0.0000 <Sz>= 0.5000 <S**2>= 0.7532 S= 0.5016
 <L.S>= 0.000000000000E+00
 KE= 1.155440666344D+02 PE=-3.467474891098D+02 EE= 7.785429236254D+01
 Annihilation of the first spin contaminant:
 S**2 before annihilation     0.7532,   after     0.7500
 Leave Link  502 at Wed Oct  7 14:10:27 2020, MaxMem=  2684354560 cpu:              23.5 elap:               2.4
 (Enter /udrive/faculty/rpeverati/g16/g16/l508.exe)
 QCSCF skips out because SCF is already converged.
 Leave Link  508 at Wed Oct  7 14:10:27 2020, MaxMem=  2684354560 cpu:               0.5 elap:               0.5
 (Enter /udrive/faculty/rpeverati/g16/g16/l601.exe)
 Copying SCF densities to generalized density rwf, IOpCl= 1 IROHF=0.

 **********************************************************************

            Population analysis using the SCF density.

 **********************************************************************

 Orbital symmetries:
 Alpha Orbitals:
       Occupied  (A) (A) (A) (A) (A) (A) (A) (A) (A) (A)
       Virtual   (A) (A) (A) (A) (A) (A) (A) (A) (A) (A) (A) (A)
                 (A) (A) (A) (A) (A) (A) (A) (A) (A) (A) (A) (A)
                 (A) (A) (A) (A)
 Beta  Orbitals:
       Occupied  (A) (A) (A) (A) (A) (A) (A) (A) (A)
       Virtual   (A) (A) (A) (A) (A) (A) (A) (A) (A) (A) (A) (A)
                 (A) (A) (A) (A) (A) (A) (A) (A) (A) (A) (A) (A)
                 (A) (A) (A) (A) (A)
 The electronic state is 2-A.
 Alpha  occ. eigenvalues --  -18.79397  -9.91620  -0.89139  -0.65004  -0.43134
 Alpha  occ. eigenvalues --   -0.37834  -0.37639  -0.35827  -0.23388  -0.23019
 Alpha virt. eigenvalues --    0.06621   0.10296   0.13415   0.13704   0.25257
 Alpha virt. eigenvalues --    0.47104   0.47231   0.49713   0.72978   0.77385
 Alpha virt. eigenvalues --    0.83341   0.83466   0.85661   0.85912   0.92617
 Alpha virt. eigenvalues --    1.03227   1.16747   1.52247   1.55118   1.59013
 Alpha virt. eigenvalues --    1.67293   1.69262   1.71490   1.79935   2.13882
 Alpha virt. eigenvalues --    2.14013   2.32646   2.45027
  Beta  occ. eigenvalues --  -18.77964  -9.90938  -0.85977  -0.63384  -0.40925
  Beta  occ. eigenvalues --   -0.37164  -0.37088  -0.33411  -0.21999
  Beta virt. eigenvalues --   -0.16718   0.07175   0.10914   0.13910   0.14208
  Beta virt. eigenvalues --    0.26918   0.47607   0.47713   0.52912   0.73677
  Beta virt. eigenvalues --    0.78817   0.83886   0.84043   0.86567   0.86849
  Beta virt. eigenvalues --    0.94524   1.05996   1.18170   1.54717   1.57763
  Beta virt. eigenvalues --    1.61586   1.69883   1.70594   1.74834   1.83313
  Beta virt. eigenvalues --    2.15147   2.15232   2.34168   2.48082
          Condensed to atoms (all electrons):
               1          2          3          4          5          6
     1  C    5.424622  -0.064531   0.225445   0.363501   0.364329   0.365692
     2  O   -0.064531   8.355581   0.116061  -0.000604   0.000319  -0.000113
     3  H    0.225445   0.116061   0.382127  -0.011568  -0.012983  -0.011237
     4  H    0.363501  -0.000604  -0.011568   0.499651  -0.025250  -0.024819
     5  H    0.364329   0.000319  -0.012983  -0.025250   0.511548  -0.024146
     6  H    0.365692  -0.000113  -0.011237  -0.024819  -0.024146   0.492690
     7  H    0.016605   0.212199  -0.031346  -0.000183  -0.000927  -0.000002
               7
     1  C    0.016605
     2  O    0.212199
     3  H   -0.031346
     4  H   -0.000183
     5  H   -0.000927
     6  H   -0.000002
     7  H    0.420900
          Atomic-Atomic Spin Densities.
               1          2          3          4          5          6
     1  C    0.575395  -0.091324   0.027949  -0.013378  -0.010687  -0.014635
     2  O   -0.091324   0.727739  -0.029896   0.002696   0.002381   0.002827
     3  H    0.027949  -0.029896  -0.048908   0.001323   0.001526   0.001166
     4  H   -0.013378   0.002696   0.001323  -0.006079   0.002566   0.003349
     5  H   -0.010687   0.002381   0.001526   0.002566  -0.010883   0.002714
     6  H   -0.014635   0.002827   0.001166   0.003349   0.002714  -0.003813
     7  H    0.005020  -0.005455   0.002760  -0.000176  -0.000268  -0.000152
               7
     1  C    0.005020
     2  O   -0.005455
     3  H    0.002760
     4  H   -0.000176
     5  H   -0.000268
     6  H   -0.000152
     7  H   -0.014060
 Mulliken charges and spin densities:
               1          2
     1  C   -0.695663   0.478339
     2  O   -0.618912   0.608968
     3  H    0.343501  -0.044082
     4  H    0.199272  -0.009699
     5  H    0.187111  -0.012650
     6  H    0.201935  -0.008545
     7  H    0.382755  -0.012331
 Sum of Mulliken charges =   0.00000   1.00000
 Mulliken charges and spin densities with hydrogens summed into heavy atoms:
               1          2
     1  C    0.236157   0.403363
     2  O   -0.236157   0.596637
 Electronic spatial extent (au):  <R**2>=            156.1471
 Charge=             -0.0000 electrons
 Dipole moment (field-independent basis, Debye):
    X=             -1.3648    Y=              1.5192    Z=             -0.0027  Tot=              2.0422
 Quadrupole moment (field-independent basis, Debye-Ang):
   XX=            -14.5390   YY=            -12.5601   ZZ=            -14.3695
   XY=              2.5243   XZ=              0.0012   YZ=              0.0143
 Traceless Quadrupole moment (field-independent basis, Debye-Ang):
   XX=             -0.7161   YY=              1.2628   ZZ=             -0.5466
   XY=              2.5243   XZ=              0.0012   YZ=              0.0143
 Octapole moment (field-independent basis, Debye-Ang**2):
  XXX=              5.5896  YYY=              1.9664  ZZZ=              0.5336  XYY=              2.7910
  XXY=              3.3072  XXZ=             -0.0089  XZZ=              0.0934  YZZ=             -0.3048
  YYZ=             -0.5365  XYZ=             -0.0654
 Hexadecapole moment (field-independent basis, Debye-Ang**3):
 XXXX=           -151.0321 YYYY=            -19.7434 ZZZZ=            -18.9531 XXXY=              6.3124
 XXXZ=             -0.0002 YYYX=              1.6513 YYYZ=             -0.0278 ZZZX=             -0.8625
 ZZZY=              0.0486 XXYY=            -25.0293 XXZZ=            -27.7662 YYZZ=             -6.6808
 XXYZ=              0.1653 YYXZ=              0.8595 ZZXY=              1.2541
 N-N= 3.711561443236D+01 E-N=-3.467474903844D+02  KE= 1.155440666344D+02
                          Isotropic Fermi Contact Couplings
        Atom                 a.u.       MegaHertz       Gauss      10(-4) cm-1
     1  C(13)              0.13246     148.90587      53.13332      49.66965
     2  O(17)              0.09580     -58.07203     -20.72154     -19.37074
     3  H(1)              -0.00913     -40.78850     -14.55435     -13.60558
     4  H(1)              -0.00278     -12.43459      -4.43697      -4.14773
     5  H(1)              -0.00392     -17.52867      -6.25466      -5.84693
     6  H(1)              -0.00238     -10.65679      -3.80261      -3.55472
     7  H(1)              -0.00815     -36.42271     -12.99653     -12.14931
 --------------------------------------------------------
       Center         ----  Spin Dipole Couplings  ----
                      3XX-RR        3YY-RR        3ZZ-RR
 --------------------------------------------------------
     1   Atom        0.536615     -0.266724     -0.269892
     2   Atom        2.295000     -1.106370     -1.188630
     3   Atom        0.225800     -0.111567     -0.114233
     4   Atom        0.002112     -0.030341      0.028229
     5   Atom        0.000789      0.028669     -0.029458
     6   Atom        0.002631     -0.002001     -0.000630
     7   Atom       -0.021737      0.106013     -0.084276
 --------------------------------------------------------
                        XY            XZ            YZ
 --------------------------------------------------------
     1   Atom       -0.045573      0.002552     -0.000396
     2   Atom       -0.443651     -0.002422      0.000374
     3   Atom       -0.010061     -0.000213     -0.000138
     4   Atom        0.001608     -0.015000     -0.015032
     5   Atom       -0.013001      0.003076     -0.017005
     6   Atom        0.009672      0.012079      0.032728
     7   Atom        0.025398     -0.000064     -0.000141
 --------------------------------------------------------


 ---------------------------------------------------------------------------------
              Anisotropic Spin Dipole Couplings in Principal Axis System
 ---------------------------------------------------------------------------------

       Atom             a.u.   MegaHertz   Gauss  10(-4) cm-1        Axes

              Baa    -0.2700   -36.230   -12.928   -12.085  0.0164  0.3420  0.9395
     1 C(13)  Bbb    -0.2692   -36.125   -12.890   -12.050  0.0541  0.9380 -0.3424
              Bcc     0.5392    72.356    25.818    24.135  0.9984 -0.0565  0.0032
 
              Baa    -1.1886    86.009    30.690    28.689  0.0004 -0.0026  1.0000
     2 O(17)  Bbb    -1.1633    84.174    30.036    28.078  0.1272  0.9919  0.0025
              Bcc     2.3519  -170.183   -60.726   -56.767  0.9919 -0.1272 -0.0007
 
              Baa    -0.1142   -60.954   -21.750   -20.332  0.0024  0.0606  0.9982
     3 H(1)   Bbb    -0.1119   -59.682   -21.296   -19.908  0.0297  0.9977 -0.0607
              Bcc     0.2261   120.636    43.046    40.240  0.9996 -0.0298 -0.0006
 
              Baa    -0.0341   -18.189    -6.490    -6.067  0.0596  0.9670  0.2476
     4 H(1)   Bbb    -0.0040    -2.134    -0.761    -0.712  0.9213 -0.1488  0.3594
              Bcc     0.0381    20.323     7.252     6.779 -0.3844 -0.2067  0.8997
 
              Baa    -0.0341   -18.180    -6.487    -6.064  0.0134  0.2642  0.9644
     5 H(1)   Bbb    -0.0040    -2.128    -0.759    -0.710  0.9413  0.3220 -0.1013
              Bcc     0.0381    20.308     7.246     6.774 -0.3373  0.9091 -0.2443
 
              Baa    -0.0341   -18.206    -6.496    -6.073 -0.0465 -0.7060  0.7067
     6 H(1)   Bbb    -0.0040    -2.127    -0.759    -0.709  0.9160 -0.3123 -0.2518
              Bcc     0.0381    20.333     7.255     6.782  0.3984  0.6356  0.6612
 
              Baa    -0.0843   -44.966   -16.045   -14.999  0.0008  0.0006  1.0000
     7 H(1)   Bbb    -0.0266   -14.193    -5.064    -4.734  0.9821 -0.1881 -0.0006
              Bcc     0.1109    59.159    21.109    19.733  0.1881  0.9821 -0.0008
 

 ---------------------------------------------------------------------------------

 No NMR shielding tensors so no spin-rotation constants.
 Leave Link  601 at Wed Oct  7 14:10:29 2020, MaxMem=  2684354560 cpu:               5.2 elap:               0.8
 (Enter /udrive/faculty/rpeverati/g16/g16/l701.exe)
 ... and contract with generalized density number  0.
 Compute integral first derivatives.
 R6Disp: Adding Grimme-D3(BJ) dispersion energy 1st derivatives to the gradient.
 Leave Link  701 at Wed Oct  7 14:10:30 2020, MaxMem=  2684354560 cpu:               3.9 elap:               0.8
 (Enter /udrive/faculty/rpeverati/g16/g16/l702.exe)
 L702 exits ... SP integral derivatives will be done elsewhere.
 Leave Link  702 at Wed Oct  7 14:10:31 2020, MaxMem=  2684354560 cpu:               1.8 elap:               0.6
 (Enter /udrive/faculty/rpeverati/g16/g16/l703.exe)
 Integral derivatives from FoFJK, PRISM(SPDF).
 Compute integral first derivatives, UseDBF=F ICtDFT=           0.
 Calling FoFJK, ICntrl=      2527 FMM=F ISym2X=0 I1Cent= 0 IOpClX= 0 NMat=1 NMatS=1 NMatT=0.
 FoFJK:  IHMeth= 1 ICntrl=    2527 DoSepK=F KAlg= 0 I1Cent=           0 FoldK=F
 IRaf=         0 NMat=       1 IRICut=       1 DoRegI=T DoRafI=F ISym2E= 0 IDoP0=0 IntGTp=1.
 FoFCou: FMM=F IPFlag=           0 FMFlag=      100000 FMFlg1=         800
         NFxFlg=           0 DoJE=F BraDBF=F KetDBF=F FulRan=T
         wScrn=  0.000000 ICntrl=      2527 IOpCl=  0 I1Cent=           0 NGrid=           0
         NMat0=    1 NMatS0=      1 NMatT0=    0 NMatD0=    1 NMtDS0=    0 NMtDT0=    0
 Symmetry not used in FoFCou.
 Leave Link  703 at Wed Oct  7 14:10:32 2020, MaxMem=  2684354560 cpu:               7.7 elap:               1.1
 (Enter /udrive/faculty/rpeverati/g16/g16/l716.exe)
 Dipole        =-5.36940094D-01 5.97716060D-01-1.07113439D-03
 ***** Axes restored to original set *****
 -------------------------------------------------------------------
 Center     Atomic                   Forces (Hartrees/Bohr)
 Number     Number              X              Y              Z
 -------------------------------------------------------------------
      1        6           0.000893070    0.000994262    0.000099389
      2        8          -0.001725358   -0.017241226   -0.000100593
      3        1           0.004308506   -0.004003317    0.000124193
      4        1          -0.002916934   -0.002138790    0.008985980
      5        1          -0.002189206    0.009200074   -0.002531405
      6        1          -0.002965737   -0.006359196   -0.006571849
      7        1           0.004595658    0.019548193   -0.000005714
 -------------------------------------------------------------------
 Cartesian Forces:  Max     0.019548193 RMS     0.006976139
 Leave Link  716 at Wed Oct  7 14:10:33 2020, MaxMem=  2684354560 cpu:               1.9 elap:               0.6
 (Enter /udrive/faculty/rpeverati/g16/g16/l103.exe)

 GradGradGradGradGradGradGradGradGradGradGradGradGradGradGradGradGradGrad
 Berny optimization.
 Optmz: redundant internal coordinate code flag= 1
 FormGI is forming the generalized inverse of G from B-inverse, IUseBI=4.
 Internal  Forces:  Max     0.019973820 RMS     0.006500105
 Search for a saddle point.
 Step number   1 out of a maximum of   50
 All quantities printed in internal units (Hartrees-Bohrs-Radians)
 Swapping is turned off.
 Second derivative matrix not updated -- first step.
 The second derivative matrix:
                          R1        R2        R3        R4        R5
           R1           0.22765
           R2           0.00000   0.35451
           R3           0.00000   0.00000   0.35422
           R4           0.00000   0.00000   0.00000   0.35415
           R5           0.00000   0.00000   0.00000   0.00000   0.19397
           R6           0.00000   0.00000   0.00000   0.00000   0.00000
           A1           0.00000   0.00000   0.00000   0.00000   0.00000
           A2           0.00000   0.00000   0.00000   0.00000   0.00000
           A3           0.00000   0.00000   0.00000   0.00000   0.00000
           A4           0.00000   0.00000   0.00000   0.00000   0.00000
           A5           0.00000   0.00000   0.00000   0.00000   0.00000
           A6           0.00000   0.00000   0.00000   0.00000   0.00000
           A7           0.00000   0.00000   0.00000   0.00000   0.00000
           A8           0.00000   0.00000   0.00000   0.00000   0.00000
           A9           0.00000   0.00000   0.00000   0.00000   0.00000
           D1           0.00000   0.00000   0.00000   0.00000   0.00000
           D2           0.00000   0.00000   0.00000   0.00000   0.00000
           D3           0.00000   0.00000   0.00000   0.00000   0.00000
                          R6        A1        A2        A3        A4
           R6           0.54118
           A1           0.00000   0.16000
           A2           0.00000   0.00000   0.16000
           A3           0.00000   0.00000   0.00000   0.16000
           A4           0.00000   0.00000   0.00000   0.00000   0.16000
           A5           0.00000   0.00000   0.00000   0.00000   0.00000
           A6           0.00000   0.00000   0.00000   0.00000   0.00000
           A7           0.00000   0.00000   0.00000   0.00000   0.00000
           A8           0.00000   0.00000   0.00000   0.00000   0.00000
           A9           0.00000   0.00000   0.00000   0.00000   0.00000
           D1           0.00000   0.00000   0.00000   0.00000   0.00000
           D2           0.00000   0.00000   0.00000   0.00000   0.00000
           D3           0.00000   0.00000   0.00000   0.00000   0.00000
                          A5        A6        A7        A8        A9
           A5           0.16000
           A6           0.00000   0.16000
           A7           0.00000   0.00000   0.16000
           A8           0.00000   0.00000   0.00000   0.00230
           A9           0.00000   0.00000   0.00000   0.00000   0.00230
           D1           0.00000   0.00000   0.00000   0.00000   0.00000
           D2           0.00000   0.00000   0.00000   0.00000   0.00000
           D3           0.00000   0.00000   0.00000   0.00000   0.00000
                          D1        D2        D3
           D1           0.00230
           D2           0.00000   0.00230
           D3           0.00000   0.00000   0.00230
 ITU=  0
 Eigenvectors of the second derivative matrix:
                           1         2         3         4         5
     Eigenvalues --     0.00230   0.00230   0.00230   0.10693   0.10730
   1         R1         0.00000  -0.00000  -0.00000   0.00185  -0.00100
   2         R2         0.00000  -0.00000  -0.00000  -0.00000  -0.00000
   3         R3        -0.00000  -0.00000  -0.00000  -0.00000   0.00000
   4         R4        -0.00000  -0.00000   0.00000  -0.00000   0.00000
   5         R5         0.00000  -0.00000  -0.00000  -0.00241   0.00140
   6         R6        -0.00000  -0.00000   0.00000  -0.00001  -0.00002
   7         A1        -0.00000   0.00000   0.00000  -0.20091  -0.16382
   8         A2        -0.00000  -0.00000   0.00000   0.24943  -0.07126
   9         A3         0.00000  -0.00000  -0.00000  -0.07755   0.24868
  10         A4         0.00000   0.00000  -0.00000   0.14372  -0.59984
  11         A5         0.00000   0.00000   0.00000  -0.57889   0.17299
  12         A6         0.00000   0.00000   0.00000   0.44619   0.42697
  13         A7         0.00000  -0.00000   0.00000   0.00021   0.00032
  14         A8        -0.00059   0.97966  -0.08891  -0.09051   0.05175
  15         A9        -0.41228   0.08269   0.90087   0.03428   0.05212
  16         D1        -0.51927  -0.16381  -0.24420  -0.32197   0.33503
  17         D2        -0.55292   0.01917  -0.16105  -0.13627  -0.45255
  18         D3        -0.50465   0.07887  -0.30814   0.45271   0.10845
                           6         7         8         9        10
     Eigenvalues --     0.16000   0.16000   0.16000   0.16000   0.19397
   1         R1         0.00000  -0.00000   0.00000  -0.00000   0.00002
   2         R2        -0.00000   0.00000   0.00000   0.00000   0.00000
   3         R3        -0.00000   0.00000   0.00000  -0.00000   0.00000
   4         R4         0.00000   0.00000   0.00000   0.00000  -0.00000
   5         R5         0.00000   0.00000   0.00000  -0.00000  -0.99999
   6         R6        -0.00000   0.00000  -0.00000  -0.00000  -0.00000
   7         A1         0.12118   0.06636  -0.81125   0.28679   0.00047
   8         A2         0.26094   0.58820   0.35357   0.46795  -0.00128
   9         A3         0.74324  -0.19260   0.07543  -0.40696   0.00098
  10         A4        -0.15844  -0.27372   0.17743  -0.31216  -0.00217
  11         A5        -0.38430   0.05598   0.32898   0.05253   0.00299
  12         A6        -0.40961  -0.17194  -0.18006  -0.03419  -0.00087
  13         A7        -0.15573   0.71057  -0.19760  -0.65711  -0.00000
  14         A8         0.00000  -0.00000  -0.00000  -0.00000  -0.00019
  15         A9        -0.00000   0.00000   0.00000  -0.00000   0.00001
  16         D1        -0.00000  -0.00000  -0.00000  -0.00000  -0.00080
  17         D2        -0.00000  -0.00000   0.00000  -0.00000   0.00020
  18         D3        -0.00000   0.00000   0.00000  -0.00000   0.00060
                          11        12        13        14        15
     Eigenvalues --     0.22765   0.35415   0.35422   0.35451   0.54118
   1         R1         0.99999   0.00000   0.00000   0.00000   0.00000
   2         R2        -0.00000   0.00000  -0.00000   1.00000  -0.00000
   3         R3        -0.00000  -0.00000   1.00000   0.00000  -0.00000
   4         R4        -0.00000   1.00000   0.00000  -0.00000   0.00000
   5         R5         0.00004  -0.00000   0.00000  -0.00000  -0.00000
   6         R6        -0.00000  -0.00000   0.00000   0.00000   1.00000
   7         A1         0.00045  -0.00000   0.00000   0.00000  -0.00003
   8         A2        -0.00115  -0.00000  -0.00000  -0.00000   0.00001
   9         A3         0.00084  -0.00000   0.00000   0.00000   0.00002
  10         A4        -0.00186   0.00000  -0.00000   0.00000  -0.00005
  11         A5         0.00268  -0.00000  -0.00000  -0.00000  -0.00002
  12         A6        -0.00087   0.00000   0.00000   0.00000   0.00008
  13         A7        -0.00000   0.00000  -0.00000   0.00000   0.00000
  14         A8        -0.00028  -0.00000   0.00000   0.00000   0.00000
  15         A9         0.00001   0.00000   0.00000  -0.00000  -0.00001
  16         D1        -0.00119  -0.00000   0.00000  -0.00000  -0.00002
  17         D2         0.00026  -0.00000   0.00000  -0.00000   0.00008
  18         D3         0.00093   0.00000   0.00000   0.00000  -0.00006
 Eigenvalue     1 is   2.30D-03 should be less than     0.000000 Eigenvector:
                          D2        D1        D3        A9        A8
   1                   -0.55292  -0.51927  -0.50465  -0.41228  -0.00059
                          A7        A1        A2        A6        A4
   1                    0.00000  -0.00000  -0.00000   0.00000   0.00000
 RLam0= 2.30D-03.
 Iter=   1 RLamda= 0.00000000D+00 Sum=-3.21139122D-03.
 Iter=   2 RLamda=-3.21139122D-03 Sum=-2.43190979D-03.
 Iter=   3 RLamda=-2.43190979D-03 Sum=-2.52599505D-03.
 Iter=   4 RLamda=-2.52599505D-03 Sum=-2.51309612D-03.
 Iter=   5 RLamda=-2.51309612D-03 Sum=-2.51483586D-03.
 Iter=   6 RLamda=-2.51483586D-03 Sum=-2.51460069D-03.
 Iter=   7 RLamda=-2.51460069D-03 Sum=-2.51463247D-03.
 Iter=   8 RLamda=-2.51463247D-03 Sum=-2.51462817D-03.
 RFO step:  Lambda0=2.301737863D-03 Lambda=-2.51463247D-03.
 Linear search not attempted -- option 19 set.
 Maximum step size (   0.100) exceeded in Quadratic search.
    -- Step size scaled by   0.260
 Iteration  1 RMS(Cart)=  0.04216972 RMS(Int)=  0.00158559
 Iteration  2 RMS(Cart)=  0.00198524 RMS(Int)=  0.00023402
 Iteration  3 RMS(Cart)=  0.00000160 RMS(Int)=  0.00023401
 Iteration  4 RMS(Cart)=  0.00000000 RMS(Int)=  0.00023401
 ITry= 1 IFail=0 DXMaxC= 1.01D-01 DCOld= 1.00D+10 DXMaxT= 1.00D-01 DXLimC= 3.00D+00 Rises=F
 Variable       Old X    -DE/DX   Delta X   Delta X   Delta X     New X
                                 (Linear)    (Quad)   (Total)
    R1        2.31954   0.00732   0.00000   0.00827   0.00827   2.32781
    R2        2.04949   0.00969   0.00000   0.00706   0.00706   2.05654
    R3        2.04995   0.00979   0.00000   0.00714   0.00714   2.05709
    R4        2.05006   0.00961   0.00000   0.00701   0.00701   2.05707
    R5        2.42740   0.00289   0.00000   0.00382   0.00382   2.43122
    R6        1.82625   0.01997   0.00000   0.00955   0.00956   1.83580
    A1        1.83733   0.00016   0.00000   0.00025   0.00006   1.83739
    A2        1.87391   0.00039   0.00000   0.00068   0.00081   1.87472
    A3        1.81962  -0.00023   0.00000  -0.00042  -0.00038   1.81923
    A4        1.97219  -0.00004   0.00000   0.00007  -0.00008   1.97211
    A5        1.97699  -0.00015   0.00000  -0.00037  -0.00064   1.97635
    A6        1.96858  -0.00008   0.00000  -0.00014   0.00029   1.96888
    A7        1.70534   0.00379   0.00000   0.00607   0.00607   1.71141
    A8        3.03150  -0.00173   0.00000  -0.09202  -0.09194   2.93955
    A9        3.14770   0.00014   0.00000  -0.03296  -0.03305   3.11465
    D1       -1.81946   0.00009   0.00000  -0.03869  -0.03858  -1.85804
    D2        0.26733   0.00003   0.00000  -0.05697  -0.05645   0.21087
    D3        2.35207  -0.00012   0.00000  -0.06019  -0.06079   2.29129
         Item               Value     Threshold  Converged?
 Maximum Force            0.019974     0.000450     NO 
 RMS     Force            0.006500     0.000300     NO 
 Maximum Displacement     0.100711     0.001800     NO 
 RMS     Displacement     0.042603     0.001200     NO 
 Predicted change in Energy=-5.638399D-04
 Lowest energy point so far.  Saving SCF results.
 Largest change from initial coordinates is atom    3       0.051 Angstoms.
 GradGradGradGradGradGradGradGradGradGradGradGradGradGradGradGradGradGrad

 Leave Link  103 at Wed Oct  7 14:10:34 2020, MaxMem=  2684354560 cpu:               4.6 elap:               0.7
 (Enter /udrive/faculty/rpeverati/g16/g16/l202.exe)
                          Input orientation:                          
 ---------------------------------------------------------------------
 Center     Atomic      Atomic             Coordinates (Angstroms)
 Number     Number       Type             X           Y           Z
 ---------------------------------------------------------------------
      1          6           0       -1.204339    0.003159    0.000617
      2          8           0        1.299151   -0.093642    0.021268
      3          1           0        0.015062   -0.171314    0.004524
      4          1           0       -1.531049   -0.233408    1.011379
      5          1           0       -1.383978    1.041545   -0.272250
      6          1           0       -1.572797   -0.698940   -0.745200
      7          1           0        1.377634    0.873620   -0.023303
 ---------------------------------------------------------------------
                    Distance matrix (angstroms):
                    1          2          3          4          5
     1  C    0.000000
     2  O    2.505446   0.000000
     3  H    1.231825   1.286545   0.000000
     4  H    1.088276   3.001648   1.846096   0.000000
     5  H    1.088565   2.928137   1.872150   1.815169   0.000000
     6  H    1.088552   3.033470   1.833513   1.817700   1.813456
     7  H    2.724860   0.971464   1.717343   3.279713   2.777890
                    6          7
     6  H    0.000000
     7  H    3.420398   0.000000
 Stoichiometry    CH5O(2)
 Framework group  C1[X(CH5O)]
 Deg. of freedom    15
 Full point group                 C1      NOp   1
 RotChk:  IX=0 Diff= 6.56D-02
 Largest Abelian subgroup         C1      NOp   1
 Largest concise Abelian subgroup C1      NOp   1
                         Standard orientation:                         
 ---------------------------------------------------------------------
 Center     Atomic      Atomic             Coordinates (Angstroms)
 Number     Number       Type             X           Y           Z
 ---------------------------------------------------------------------
      1          6           0       -1.208125    0.008207    0.000767
      2          8           0        1.294621   -0.108077    0.000368
      3          1           0        0.009888   -0.175343   -0.011331
      4          1           0       -1.530276   -0.271439    1.001947
      5          1           0       -1.381436    1.059193   -0.223657
      6          1           0       -1.586704   -0.656639   -0.773573
      7          1           0        1.380309    0.859600   -0.000932
 ---------------------------------------------------------------------
 Rotational constants (GHZ):         119.6278301           9.2787189           9.1289144
 Leave Link  202 at Wed Oct  7 14:10:34 2020, MaxMem=  2684354560 cpu:               1.4 elap:               0.4
 (Enter /udrive/faculty/rpeverati/g16/g16/l301.exe)
 Standard basis: 6-31G(d) (5D, 7F)
 Ernie: Thresh=  0.10000D-02 Tol=  0.10000D-05 Strict=F.
 There are    40 symmetry adapted cartesian basis functions of A   symmetry.
 There are    38 symmetry adapted basis functions of A   symmetry.
    38 basis functions,    76 primitive gaussians,    40 cartesian basis functions
    10 alpha electrons        9 beta electrons
       nuclear repulsion energy        37.0789830510 Hartrees.
 IExCor=  404 DFT=T Ex=B Corr=P86 ExCW=0 ScaHFX=  0.000000
 ScaDFX=  1.000000  1.000000  1.000000  1.000000 ScalE2=  1.000000  1.000000
 IRadAn=      5 IRanWt=     -1 IRanGd=            0 ICorTp=0 IEmpDi=141
 NAtoms=    7 NActive=    7 NUniq=    7 SFac= 1.00D+00 NAtFMM=   60 NAOKFM=F Big=F
 Integral buffers will be    131072 words long.
 Raffenetti 2 integral format.
 Two-electron integral symmetry is turned on.
 R6Disp:  Grimme-D3(BJ) Dispersion energy=       -0.0031795888 Hartrees.
 Nuclear repulsion after empirical dispersion term =       37.0758034622 Hartrees.
 Leave Link  301 at Wed Oct  7 14:10:35 2020, MaxMem=  2684354560 cpu:               2.1 elap:               0.6
 (Enter /udrive/faculty/rpeverati/g16/g16/l302.exe)
 NPDir=0 NMtPBC=     1 NCelOv=     1 NCel=       1 NClECP=     1 NCelD=      1
         NCelK=      1 NCelE2=     1 NClLst=     1 CellRange=     0.0.
 One-electron integrals computed using PRISM.
 One-electron integral symmetry used in STVInt
 NBasis=    38 RedAO= T EigKep=  1.10D-02  NBF=    38
 NBsUse=    38 1.00D-06 EigRej= -1.00D+00 NBFU=    38
 Precomputing XC quadrature grid using
 IXCGrd= 4 IRadAn=           5 IRanWt=          -1 IRanGd=           0 AccXCQ= 0.00D+00.
 Generated NRdTot=       0 NPtTot=           0 NUsed=           0 NTot=          32
 NSgBfM=    40    40    40    40    40 MxSgAt=     7 MxSgA2=     7.
 Leave Link  302 at Wed Oct  7 14:10:36 2020, MaxMem=  2684354560 cpu:               3.7 elap:               0.7
 (Enter /udrive/faculty/rpeverati/g16/g16/l303.exe)
 DipDrv:  MaxL=1.
 Leave Link  303 at Wed Oct  7 14:10:37 2020, MaxMem=  2684354560 cpu:               1.4 elap:               0.6
 (Enter /udrive/faculty/rpeverati/g16/g16/l401.exe)
 Initial guess from the checkpoint file:  "MN_81_RKT04_BH76_BP86DBJ_631Gs.chk"
 SCF N**3 symmetry information disabled.
 B after Tr=     0.000000   -0.000000   -0.000000
         Rot=    0.999785   -0.020670   -0.000264    0.001331 Ang=  -2.37 deg.
 Guess basis will be translated and rotated to current coordinates.
 JPrj=2 DoOrth=T DoCkMO=T.
 Initial guess <Sx>= 0.0000 <Sy>= 0.0000 <Sz>= 0.5000 <S**2>= 0.7533 S= 0.5016
 Generating alternative initial guess.
 ExpMin= 1.61D-01 ExpMax= 5.48D+03 ExpMxC= 8.25D+02 IAcc=2 IRadAn=         4 AccDes= 0.00D+00
 Harris functional with IExCor=  404 and IRadAn=       4 diagonalized for initial guess.
 HarFok:  IExCor=  404 AccDes= 0.00D+00 IRadAn=         4 IDoV= 1 UseB2=F ITyADJ=14
 ICtDFT=  3500011 ScaDFX=  1.000000  1.000000  1.000000  1.000000
 FoFCou: FMM=F IPFlag=           0 FMFlag=      100000 FMFlg1=           0
         NFxFlg=           0 DoJE=T BraDBF=F KetDBF=T FulRan=T
         wScrn=  0.000000 ICntrl=       500 IOpCl=  0 I1Cent=   200000004 NGrid=           0
         NMat0=    1 NMatS0=      1 NMatT0=    0 NMatD0=    1 NMtDS0=    0 NMtDT0=    0
 Petite list used in FoFCou.
 Harris En= -116.283774630120    
 Leave Link  401 at Wed Oct  7 14:10:39 2020, MaxMem=  2684354560 cpu:               8.4 elap:               1.2
 (Enter /udrive/faculty/rpeverati/g16/g16/l502.exe)
 Keep J ints in memory in canonical form, NReq=10631630.
 FoFCou: FMM=F IPFlag=           0 FMFlag=           0 FMFlg1=           0
         NFxFlg=           0 DoJE=F BraDBF=F KetDBF=F FulRan=T
         wScrn=  0.000000 ICntrl=       600 IOpCl=  0 I1Cent=           0 NGrid=           0
         NMat0=    1 NMatS0=    741 NMatT0=    0 NMatD0=    1 NMtDS0=    0 NMtDT0=    0
 Symmetry not used in FoFCou.
 Two-electron integral symmetry not used.
 UHF open shell SCF:
 Using DIIS extrapolation, IDIIS=  1040.
 NGot=  2684354560 LenX=  2684075284 LenY=  2684073243
 Requested convergence on RMS density matrix=1.00D-08 within 120 cycles.
 Requested convergence on MAX density matrix=1.00D-06.
 Requested convergence on             energy=1.00D-06.
 No special actions if energy rises.
 Integral accuracy reduced to 1.0D-05 until final iterations.

 Cycle   1  Pass 0  IDiag  1:
 E= -116.233028485985    
 DIIS: error= 2.59D-03 at cycle   1 NSaved=   1.
 NSaved= 1 IEnMin= 1 EnMin= -116.233028485985     IErMin= 1 ErrMin= 2.59D-03
 ErrMax= 2.59D-03  0.00D+00 EMaxC= 1.00D-01 BMatC= 2.05D-03 BMatP= 2.05D-03
 IDIUse=3 WtCom= 9.74D-01 WtEn= 2.59D-02
 Coeff-Com:  0.100D+01
 Coeff-En:   0.100D+01
 Coeff:      0.100D+01
 Gap=     0.469 Goal=   None    Shift=    0.000
 Gap=     0.482 Goal=   None    Shift=    0.000
 GapD=    0.469 DampG=2.000 DampE=1.000 DampFc=2.0000 IDamp=-1.
 RMSDP=1.34D-03 MaxDP=9.06D-03              OVMax= 1.46D-02

 Cycle   2  Pass 0  IDiag  1:
 E= -116.233974353142     Delta-E=       -0.000945867157 Rises=F Damp=F
 DIIS: error= 7.71D-04 at cycle   2 NSaved=   2.
 NSaved= 2 IEnMin= 2 EnMin= -116.233974353142     IErMin= 2 ErrMin= 7.71D-04
 ErrMax= 7.71D-04  0.00D+00 EMaxC= 1.00D-01 BMatC= 5.07D-05 BMatP= 2.05D-03
 IDIUse=3 WtCom= 9.92D-01 WtEn= 7.71D-03
 Coeff-Com:  0.293D-01 0.971D+00
 Coeff-En:   0.000D+00 0.100D+01
 Coeff:      0.291D-01 0.971D+00
 Gap=     0.294 Goal=   None    Shift=    0.000
 Gap=     0.053 Goal=   None    Shift=    0.000
 RMSDP=1.92D-04 MaxDP=2.35D-03 DE=-9.46D-04 OVMax= 3.85D-03

 Cycle   3  Pass 0  IDiag  1:
 E= -116.233954775852     Delta-E=        0.000019577291 Rises=F Damp=F
 DIIS: error= 1.19D-03 at cycle   3 NSaved=   3.
 NSaved= 3 IEnMin= 2 EnMin= -116.233974353142     IErMin= 2 ErrMin= 7.71D-04
 ErrMax= 1.19D-03  0.00D+00 EMaxC= 1.00D-01 BMatC= 1.25D-04 BMatP= 5.07D-05
 IDIUse=3 WtCom= 2.25D-01 WtEn= 7.75D-01
 Coeff-Com: -0.153D-03 0.619D+00 0.381D+00
 Coeff-En:   0.000D+00 0.683D+00 0.317D+00
 Coeff:     -0.343D-04 0.669D+00 0.331D+00
 Gap=     0.293 Goal=   None    Shift=    0.000
 Gap=     0.054 Goal=   None    Shift=    0.000
 RMSDP=1.24D-04 MaxDP=1.48D-03 DE= 1.96D-05 OVMax= 4.00D-03

 Cycle   4  Pass 0  IDiag  1:
 E= -116.233987790628     Delta-E=       -0.000033014776 Rises=F Damp=F
 DIIS: error= 2.96D-04 at cycle   4 NSaved=   4.
 NSaved= 4 IEnMin= 4 EnMin= -116.233987790628     IErMin= 4 ErrMin= 2.96D-04
 ErrMax= 2.96D-04  0.00D+00 EMaxC= 1.00D-01 BMatC= 6.62D-06 BMatP= 5.07D-05
 IDIUse=3 WtCom= 9.97D-01 WtEn= 2.96D-03
 Coeff-Com: -0.221D-02 0.332D+00 0.198D+00 0.472D+00
 Coeff-En:   0.000D+00 0.000D+00 0.000D+00 0.100D+01
 Coeff:     -0.220D-02 0.331D+00 0.198D+00 0.474D+00
 Gap=     0.293 Goal=   None    Shift=    0.000
 Gap=     0.053 Goal=   None    Shift=    0.000
 RMSDP=3.41D-05 MaxDP=3.22D-04 DE=-3.30D-05 OVMax= 5.31D-04

 Cycle   5  Pass 0  IDiag  1:
 E= -116.233989133093     Delta-E=       -0.000001342465 Rises=F Damp=F
 DIIS: error= 7.40D-05 at cycle   5 NSaved=   5.
 NSaved= 5 IEnMin= 5 EnMin= -116.233989133093     IErMin= 5 ErrMin= 7.40D-05
 ErrMax= 7.40D-05  0.00D+00 EMaxC= 1.00D-01 BMatC= 5.25D-07 BMatP= 6.62D-06
 IDIUse=1 WtCom= 1.00D+00 WtEn= 0.00D+00
 Coeff-Com: -0.720D-03-0.137D-01 0.183D-02 0.201D+00 0.812D+00
 Coeff:     -0.720D-03-0.137D-01 0.183D-02 0.201D+00 0.812D+00
 Gap=     0.293 Goal=   None    Shift=    0.000
 Gap=     0.053 Goal=   None    Shift=    0.000
 RMSDP=1.04D-05 MaxDP=1.00D-04 DE=-1.34D-06 OVMax= 1.60D-04

 Cycle   6  Pass 0  IDiag  1:
 E= -116.233989226291     Delta-E=       -0.000000093199 Rises=F Damp=F
 DIIS: error= 1.15D-05 at cycle   6 NSaved=   6.
 NSaved= 6 IEnMin= 6 EnMin= -116.233989226291     IErMin= 6 ErrMin= 1.15D-05
 ErrMax= 1.15D-05  0.00D+00 EMaxC= 1.00D-01 BMatC= 1.75D-08 BMatP= 5.25D-07
 IDIUse=1 WtCom= 1.00D+00 WtEn= 0.00D+00
 Coeff-Com: -0.529D-05-0.241D-01-0.131D-01 0.398D-01 0.245D+00 0.753D+00
 Coeff:     -0.529D-05-0.241D-01-0.131D-01 0.398D-01 0.245D+00 0.753D+00
 Gap=     0.293 Goal=   None    Shift=    0.000
 Gap=     0.053 Goal=   None    Shift=    0.000
 RMSDP=2.43D-06 MaxDP=1.95D-05 DE=-9.32D-08 OVMax= 5.19D-05

 Initial convergence to 1.0D-05 achieved.  Increase integral accuracy.
 Cycle   7  Pass 1  IDiag  1:
 E= -116.233989392551     Delta-E=       -0.000000166260 Rises=F Damp=F
 DIIS: error= 1.00D-06 at cycle   1 NSaved=   1.
 NSaved= 1 IEnMin= 1 EnMin= -116.233989392551     IErMin= 1 ErrMin= 1.00D-06
 ErrMax= 1.00D-06  0.00D+00 EMaxC= 1.00D-01 BMatC= 2.84D-10 BMatP= 2.84D-10
 IDIUse=1 WtCom= 1.00D+00 WtEn= 0.00D+00
 Coeff-Com:  0.100D+01
 Coeff:      0.100D+01
 Gap=     0.293 Goal=   None    Shift=    0.000
 Gap=     0.053 Goal=   None    Shift=    0.000
 RMSDP=2.43D-06 MaxDP=1.95D-05 DE=-1.66D-07 OVMax= 1.85D-05

 Cycle   8  Pass 1  IDiag  1:
 E= -116.233989392652     Delta-E=       -0.000000000101 Rises=F Damp=F
 DIIS: error= 6.00D-07 at cycle   2 NSaved=   2.
 NSaved= 2 IEnMin= 2 EnMin= -116.233989392652     IErMin= 2 ErrMin= 6.00D-07
 ErrMax= 6.00D-07  0.00D+00 EMaxC= 1.00D-01 BMatC= 8.94D-11 BMatP= 2.84D-10
 IDIUse=1 WtCom= 1.00D+00 WtEn= 0.00D+00
 Coeff-Com:  0.324D+00 0.676D+00
 Coeff:      0.324D+00 0.676D+00
 Gap=     0.293 Goal=   None    Shift=    0.000
 Gap=     0.053 Goal=   None    Shift=    0.000
 RMSDP=2.08D-07 MaxDP=1.94D-06 DE=-1.01D-10 OVMax= 5.32D-06

 Cycle   9  Pass 1  IDiag  1:
 E= -116.233989392674     Delta-E=       -0.000000000022 Rises=F Damp=F
 DIIS: error= 5.16D-07 at cycle   3 NSaved=   3.
 NSaved= 3 IEnMin= 3 EnMin= -116.233989392674     IErMin= 3 ErrMin= 5.16D-07
 ErrMax= 5.16D-07  0.00D+00 EMaxC= 1.00D-01 BMatC= 2.92D-11 BMatP= 8.94D-11
 IDIUse=1 WtCom= 1.00D+00 WtEn= 0.00D+00
 Coeff-Com:  0.827D-01 0.355D+00 0.562D+00
 Coeff:      0.827D-01 0.355D+00 0.562D+00
 Gap=     0.293 Goal=   None    Shift=    0.000
 Gap=     0.053 Goal=   None    Shift=    0.000
 RMSDP=1.09D-07 MaxDP=1.25D-06 DE=-2.21D-11 OVMax= 3.04D-06

 Cycle  10  Pass 1  IDiag  1:
 E= -116.233989392679     Delta-E=       -0.000000000005 Rises=F Damp=F
 DIIS: error= 4.64D-07 at cycle   4 NSaved=   4.
 NSaved= 4 IEnMin= 4 EnMin= -116.233989392679     IErMin= 4 ErrMin= 4.64D-07
 ErrMax= 4.64D-07  0.00D+00 EMaxC= 1.00D-01 BMatC= 1.78D-11 BMatP= 2.92D-11
 IDIUse=1 WtCom= 1.00D+00 WtEn= 0.00D+00
 Coeff-Com: -0.460D-01 0.691D-01 0.458D+00 0.519D+00
 Coeff:     -0.460D-01 0.691D-01 0.458D+00 0.519D+00
 Gap=     0.293 Goal=   None    Shift=    0.000
 Gap=     0.053 Goal=   None    Shift=    0.000
 RMSDP=6.88D-08 MaxDP=8.39D-07 DE=-5.00D-12 OVMax= 2.25D-06

 Cycle  11  Pass 1  IDiag  1:
 E= -116.233989392683     Delta-E=       -0.000000000004 Rises=F Damp=F
 DIIS: error= 1.45D-07 at cycle   5 NSaved=   5.
 NSaved= 5 IEnMin= 5 EnMin= -116.233989392683     IErMin= 5 ErrMin= 1.45D-07
 ErrMax= 1.45D-07  0.00D+00 EMaxC= 1.00D-01 BMatC= 1.74D-12 BMatP= 1.78D-11
 IDIUse=1 WtCom= 1.00D+00 WtEn= 0.00D+00
 Coeff-Com: -0.474D-01-0.305D-01 0.180D+00 0.301D+00 0.597D+00
 Coeff:     -0.474D-01-0.305D-01 0.180D+00 0.301D+00 0.597D+00
 Gap=     0.293 Goal=   None    Shift=    0.000
 Gap=     0.053 Goal=   None    Shift=    0.000
 RMSDP=2.64D-08 MaxDP=3.92D-07 DE=-4.18D-12 OVMax= 1.03D-06

 Cycle  12  Pass 1  IDiag  1:
 E= -116.233989392683     Delta-E=       -0.000000000001 Rises=F Damp=F
 DIIS: error= 2.46D-08 at cycle   6 NSaved=   6.
 NSaved= 6 IEnMin= 6 EnMin= -116.233989392683     IErMin= 6 ErrMin= 2.46D-08
 ErrMax= 2.46D-08  0.00D+00 EMaxC= 1.00D-01 BMatC= 8.05D-14 BMatP= 1.74D-12
 IDIUse=1 WtCom= 1.00D+00 WtEn= 0.00D+00
 Coeff-Com: -0.330D-02-0.175D-01-0.326D-01-0.200D-01 0.160D+00 0.913D+00
 Coeff:     -0.330D-02-0.175D-01-0.326D-01-0.200D-01 0.160D+00 0.913D+00
 Gap=     0.293 Goal=   None    Shift=    0.000
 Gap=     0.053 Goal=   None    Shift=    0.000
 RMSDP=1.01D-08 MaxDP=1.77D-07 DE=-5.12D-13 OVMax= 4.63D-07

 Cycle  13  Pass 1  IDiag  1:
 E= -116.233989392684     Delta-E=       -0.000000000001 Rises=F Damp=F
 DIIS: error= 4.27D-09 at cycle   7 NSaved=   7.
 NSaved= 7 IEnMin= 7 EnMin= -116.233989392684     IErMin= 7 ErrMin= 4.27D-09
 ErrMax= 4.27D-09  0.00D+00 EMaxC= 1.00D-01 BMatC= 3.29D-15 BMatP= 8.05D-14
 IDIUse=1 WtCom= 1.00D+00 WtEn= 0.00D+00
 Coeff-Com:  0.583D-03-0.401D-02-0.160D-01-0.144D-01 0.208D-01 0.268D+00
 Coeff-Com:  0.745D+00
 Coeff:      0.583D-03-0.401D-02-0.160D-01-0.144D-01 0.208D-01 0.268D+00
 Coeff:      0.745D+00
 Gap=     0.293 Goal=   None    Shift=    0.000
 Gap=     0.053 Goal=   None    Shift=    0.000
 RMSDP=1.24D-09 MaxDP=1.71D-08 DE=-6.54D-13 OVMax= 4.60D-08

 SCF Done:  E(UB-P86) =  -116.233989393     A.U. after   13 cycles
            NFock= 13  Conv=0.12D-08     -V/T= 2.0062
 <Sx>= 0.0000 <Sy>= 0.0000 <Sz>= 0.5000 <S**2>= 0.7532 S= 0.5016
 <L.S>= 0.000000000000E+00
 KE= 1.155142851210D+02 PE=-3.466452216788D+02 EE= 7.782114370291D+01
 Annihilation of the first spin contaminant:
 S**2 before annihilation     0.7532,   after     0.7500
 Leave Link  502 at Wed Oct  7 14:10:42 2020, MaxMem=  2684354560 cpu:              24.9 elap:               2.6
 (Enter /udrive/faculty/rpeverati/g16/g16/l508.exe)
 QCSCF skips out because SCF is already converged.
 Leave Link  508 at Wed Oct  7 14:10:43 2020, MaxMem=  2684354560 cpu:               0.3 elap:               0.6
 (Enter /udrive/faculty/rpeverati/g16/g16/l701.exe)
 ... and contract with generalized density number  0.
 Compute integral first derivatives.
 R6Disp: Adding Grimme-D3(BJ) dispersion energy 1st derivatives to the gradient.
 Leave Link  701 at Wed Oct  7 14:10:44 2020, MaxMem=  2684354560 cpu:               3.6 elap:               0.8
 (Enter /udrive/faculty/rpeverati/g16/g16/l702.exe)
 L702 exits ... SP integral derivatives will be done elsewhere.
 Leave Link  702 at Wed Oct  7 14:10:45 2020, MaxMem=  2684354560 cpu:               1.8 elap:               0.7
 (Enter /udrive/faculty/rpeverati/g16/g16/l703.exe)
 Integral derivatives from FoFJK, PRISM(SPDF).
 Compute integral first derivatives, UseDBF=F ICtDFT=           0.
 Calling FoFJK, ICntrl=      2527 FMM=F ISym2X=0 I1Cent= 0 IOpClX= 0 NMat=1 NMatS=1 NMatT=0.
 FoFJK:  IHMeth= 1 ICntrl=    2527 DoSepK=F KAlg= 0 I1Cent=           0 FoldK=F
 IRaf=         0 NMat=       1 IRICut=       1 DoRegI=T DoRafI=F ISym2E= 0 IDoP0=0 IntGTp=1.
 FoFCou: FMM=F IPFlag=           0 FMFlag=      100000 FMFlg1=         800
         NFxFlg=           0 DoJE=F BraDBF=F KetDBF=F FulRan=T
         wScrn=  0.000000 ICntrl=      2527 IOpCl=  0 I1Cent=           0 NGrid=           0
         NMat0=    1 NMatS0=      1 NMatT0=    0 NMatD0=    1 NMtDS0=    0 NMtDT0=    0
 Symmetry not used in FoFCou.
 Leave Link  703 at Wed Oct  7 14:10:46 2020, MaxMem=  2684354560 cpu:               7.9 elap:               1.2
 (Enter /udrive/faculty/rpeverati/g16/g16/l716.exe)
 Dipole        =-5.53459921D-01 5.87711339D-01-4.11074976D-03
 ***** Axes restored to original set *****
 -------------------------------------------------------------------
 Center     Atomic                   Forces (Hartrees/Bohr)
 Number     Number              X              Y              Z
 -------------------------------------------------------------------
      1        6           0.000459770   -0.000120889    0.000055726
      2        8          -0.000874370   -0.013196005    0.000437547
      3        1           0.003742956   -0.001870635    0.000388558
      4        1          -0.002259031   -0.001369420    0.006578143
      5        1          -0.001533987    0.006609029   -0.001757112
      6        1          -0.002569610   -0.004470083   -0.005071970
      7        1           0.003034271    0.014418003   -0.000630893
 -------------------------------------------------------------------
 Cartesian Forces:  Max     0.014418003 RMS     0.005173849
 Leave Link  716 at Wed Oct  7 14:10:47 2020, MaxMem=  2684354560 cpu:               1.6 elap:               0.6
 (Enter /udrive/faculty/rpeverati/g16/g16/l103.exe)

 GradGradGradGradGradGradGradGradGradGradGradGradGradGradGradGradGradGrad
 Berny optimization.
 Optmz: redundant internal coordinate code flag= 1
 Red2BG:  D1=  1.37D-01 OD1=  1.96D-01 B2RMS=  0.00D+00 IAprox=0
 FormGI is forming the generalized inverse of G from B-inverse, IUseBI=4.
 Internal  Forces:  Max     0.014628204 RMS     0.004821633
 Search for a saddle point.
 Step number   2 out of a maximum of   50
 All quantities printed in internal units (Hartrees-Bohrs-Radians)
 Swapping is turned off.
 Update second derivatives using D2CorX and points    1    2
 The second derivative matrix:
                          R1        R2        R3        R4        R5
           R1           0.22772
           R2          -0.00021   0.35456
           R3          -0.00029   0.00012   0.35445
           R4          -0.00011  -0.00003  -0.00002   0.35410
           R5          -0.00004  -0.00003  -0.00003  -0.00003   0.19395
           R6          -0.00030   0.00009   0.00019  -0.00004  -0.00004
           A1           0.00002  -0.00002  -0.00003  -0.00001  -0.00000
           A2           0.00009  -0.00009  -0.00015  -0.00003  -0.00001
           A3           0.00017  -0.00014  -0.00023  -0.00003  -0.00000
           A4          -0.00016   0.00014   0.00022   0.00004   0.00000
           A5           0.00006  -0.00004  -0.00006  -0.00001   0.00000
           A6          -0.00013   0.00011   0.00018   0.00003   0.00000
           A7           0.00016  -0.00025  -0.00037  -0.00011  -0.00004
           A8           0.00319  -0.00107  -0.00225   0.00034   0.00040
           A9           0.00077  -0.00006  -0.00028   0.00021   0.00015
           D1           0.00075   0.00006  -0.00012   0.00027   0.00018
           D2           0.00120  -0.00000  -0.00032   0.00038   0.00026
           D3           0.00133  -0.00003  -0.00039   0.00040   0.00028
                          R6        A1        A2        A3        A4
           R6           0.54132
           A1          -0.00003   0.16000
           A2          -0.00014   0.00001   0.16006
           A3          -0.00021   0.00002   0.00011   0.16018
           A4           0.00021  -0.00002  -0.00010  -0.00017   0.16017
           A5          -0.00006   0.00001   0.00003   0.00005  -0.00005
           A6           0.00016  -0.00002  -0.00008  -0.00014   0.00013
           A7          -0.00037   0.00003   0.00014   0.00024  -0.00023
           A8          -0.00174   0.00031   0.00154   0.00234  -0.00231
           A9          -0.00014   0.00006   0.00031   0.00043  -0.00044
           D1           0.00003   0.00005   0.00026   0.00035  -0.00036
           D2          -0.00008   0.00009   0.00045   0.00062  -0.00063
           D3          -0.00014   0.00010   0.00051   0.00070  -0.00072
                          A5        A6        A7        A8        A9
           A5           0.16002
           A6          -0.00004   0.16011
           A7           0.00008  -0.00019   0.16028
           A8           0.00065  -0.00183   0.00396   0.02329
           A9           0.00011  -0.00034   0.00087   0.00210   0.00203
           D1           0.00008  -0.00027   0.00080   0.00034  -0.00072
           D2           0.00015  -0.00048   0.00132   0.00194  -0.00078
           D3           0.00017  -0.00055   0.00148   0.00262  -0.00074
                          D1        D2        D3
           D1           0.00114
           D2          -0.00148   0.00052
           D3          -0.00151  -0.00177   0.00056
 ITU=  0  0
 Eigenvectors of the second derivative matrix:
                           1         2         3         4         5
     Eigenvalues --    -0.00321   0.00230   0.02317   0.10604   0.10867
   1         R1        -0.00712   0.00000  -0.01652  -0.00632  -0.00355
   2         R2        -0.00035   0.00000   0.00312   0.00075   0.00050
   3         R3         0.00075   0.00000   0.00680   0.00134   0.00087
   4         R4        -0.00167  -0.00000  -0.00130   0.00004   0.00006
   5         R5        -0.00204   0.00000  -0.00279   0.00465   0.00218
   6         R6        -0.00013  -0.00000   0.00328   0.00061   0.00051
   7         A1        -0.00110   0.00000  -0.00496   0.22047  -0.14094
   8         A2        -0.00261   0.00000  -0.00690  -0.26162  -0.06161
   9         A3        -0.00544  -0.00000  -0.02128   0.09192   0.23652
  10         A4         0.00649  -0.00000   0.02516  -0.14755  -0.61517
  11         A5        -0.00317  -0.00000  -0.01571   0.55953   0.16427
  12         A6         0.00426   0.00000   0.01788  -0.44101   0.43393
  13         A7        -0.01076  -0.00000  -0.03049  -0.00738  -0.00652
  14         A8        -0.11396   0.05390   0.96755   0.13341   0.06507
  15         A9         0.28327  -0.94827   0.08949  -0.03336   0.05498
  16         D1         0.55878   0.17570  -0.10957   0.33005   0.32966
  17         D2         0.55963   0.08335   0.08658   0.14288  -0.44479
  18         D3         0.53015   0.24508   0.18258  -0.44361   0.11334
                           6         7         8         9        10
     Eigenvalues --     0.15998   0.16000   0.16000   0.16092   0.19395
   1         R1         0.00042   0.00000  -0.00000  -0.00664  -0.00091
   2         R2         0.00021   0.00000  -0.00000   0.00188  -0.00021
   3         R3         0.00024  -0.00000  -0.00000   0.00307  -0.00022
   4         R4         0.00018  -0.00000  -0.00000   0.00046  -0.00020
   5         R5         0.00053   0.00000  -0.00000   0.00035  -0.99996
   6         R6         0.00015   0.00000  -0.00000   0.00144  -0.00013
   7         A1         0.05729  -0.36873   0.78598   0.01031   0.00143
   8         A2        -0.35630  -0.56105  -0.32637   0.44977  -0.00254
   9         A3        -0.45149   0.62861   0.16986   0.37052   0.00174
  10         A4         0.12230   0.35852  -0.15008  -0.19210  -0.00387
  11         A5         0.18468  -0.11525  -0.46673  -0.17187   0.00568
  12         A6         0.32798   0.01149   0.08014  -0.33859  -0.00217
  13         A7         0.71363   0.11028  -0.00892   0.69089   0.00068
  14         A8         0.00358  -0.00000  -0.00000   0.03920  -0.00268
  15         A9         0.00113  -0.00000  -0.00000   0.00719  -0.00075
  16         D1         0.00135  -0.00000  -0.00000   0.00890  -0.00242
  17         D2         0.00186  -0.00000  -0.00000   0.00898  -0.00109
  18         D3         0.00197   0.00000  -0.00000   0.00975  -0.00022
                          11        12        13        14        15
     Eigenvalues --     0.22779   0.35410   0.35438   0.35466   0.54133
   1         R1         0.99976   0.00100  -0.00107  -0.00278  -0.00100
   2         R2         0.00179  -0.06696  -0.57206   0.81746   0.00048
   3         R3         0.00265  -0.02919   0.82007   0.57146   0.00107
   4         R4         0.00078  -0.99733   0.01441  -0.07161  -0.00023
   5         R5        -0.00089   0.00022  -0.00005  -0.00027  -0.00012
   6         R6         0.00107  -0.00017  -0.00062  -0.00105   0.99999
   7         A1         0.00147   0.00004  -0.00009  -0.00020   0.00002
   8         A2        -0.00008   0.00020  -0.00039  -0.00090  -0.00042
   9         A3         0.00460   0.00023  -0.00059  -0.00129  -0.00064
  10         A4        -0.00595  -0.00024   0.00054   0.00120   0.00075
  11         A5         0.00531   0.00004  -0.00016  -0.00032  -0.00009
  12         A6        -0.00423  -0.00019   0.00051   0.00111   0.00020
  13         A7         0.00363   0.00065  -0.00093  -0.00225  -0.00100
  14         A8         0.01547  -0.00060  -0.00375  -0.00670  -0.00340
  15         A9         0.00360  -0.00054  -0.00058  -0.00070  -0.00023
  16         D1         0.00141  -0.00075  -0.00040  -0.00022   0.00012
  17         D2         0.00570  -0.00104  -0.00069  -0.00056  -0.00044
  18         D3         0.00758  -0.00108  -0.00088  -0.00088  -0.00008
 RLam0= 6.09D-06.
 Iter=   1 RLamda= 0.00000000D+00 Sum=-1.12367790D-03.
 Iter=   2 RLamda=-1.12367790D-03 Sum=-1.11123974D-03.
 Iter=   3 RLamda=-1.11123974D-03 Sum=-1.11134792D-03.
 Iter=   4 RLamda=-1.11134792D-03 Sum=-1.11134698D-03.
 RFO step:  Lambda0=6.091315486D-06 Lambda=-1.11134792D-03.
 Linear search not attempted -- option 19 set.
 Iteration  1 RMS(Cart)=  0.03077443 RMS(Int)=  0.00056530
 Iteration  2 RMS(Cart)=  0.00070266 RMS(Int)=  0.00010022
 Iteration  3 RMS(Cart)=  0.00000064 RMS(Int)=  0.00010021
 ITry= 1 IFail=0 DXMaxC= 7.71D-02 DCOld= 1.00D+10 DXMaxT= 1.00D-01 DXLimC= 3.00D+00 Rises=F
 Variable       Old X    -DE/DX   Delta X   Delta X   Delta X     New X
                                 (Linear)    (Quad)   (Total)
    R1        2.32781   0.00594   0.00000   0.02529   0.02529   2.35310
    R2        2.05654   0.00709   0.00000   0.02001   0.02001   2.07655
    R3        2.05709   0.00700   0.00000   0.01991   0.01991   2.07700
    R4        2.05707   0.00723   0.00000   0.02026   0.02026   2.07733
    R5        2.43122   0.00223   0.00000   0.01130   0.01130   2.44252
    R6        1.83580   0.01463   0.00000   0.02707   0.02707   1.86287
    A1        1.83739   0.00019   0.00000   0.00117   0.00122   1.83861
    A2        1.87472   0.00048   0.00000   0.00253   0.00244   1.87716
    A3        1.81923   0.00016   0.00000   0.00038   0.00043   1.81966
    A4        1.97211  -0.00035   0.00000  -0.00154  -0.00163   1.97048
    A5        1.97635   0.00004   0.00000   0.00017   0.00035   1.97670
    A6        1.96888  -0.00038   0.00000  -0.00206  -0.00217   1.96671
    A7        1.71141   0.00342   0.00000   0.02010   0.02010   1.73151
    A8        2.93955   0.00075   0.00000   0.01733   0.01726   2.95682
    A9        3.11465   0.00028   0.00000   0.08073   0.08074   3.19539
    D1       -1.85804  -0.00005   0.00000   0.01041   0.01018  -1.84786
    D2        0.21087   0.00003   0.00000   0.02125   0.02123   0.23211
    D3        2.29129  -0.00005   0.00000   0.01013   0.01038   2.30167
         Item               Value     Threshold  Converged?
 Maximum Force            0.014628     0.000450     NO 
 RMS     Force            0.004822     0.000300     NO 
 Maximum Displacement     0.077107     0.001800     NO 
 RMS     Displacement     0.030989     0.001200     NO 
 Predicted change in Energy=-5.574401D-04
 Lowest energy point so far.  Saving SCF results.
 Largest change from initial coordinates is atom    6       0.018 Angstoms.
 GradGradGradGradGradGradGradGradGradGradGradGradGradGradGradGradGradGrad

 Leave Link  103 at Wed Oct  7 14:10:48 2020, MaxMem=  2684354560 cpu:               3.6 elap:               0.7
 (Enter /udrive/faculty/rpeverati/g16/g16/l202.exe)
                          Input orientation:                          
 ---------------------------------------------------------------------
 Center     Atomic      Atomic             Coordinates (Angstroms)
 Number     Number       Type             X           Y           Z
 ---------------------------------------------------------------------
      1          6           0       -1.214835    0.002370    0.004635
      2          8           0        1.309677   -0.099132    0.001077
      3          1           0        0.019062   -0.163132    0.030075
      4          1           0       -1.561690   -0.239909    1.018782
      5          1           0       -1.403251    1.048953   -0.273195
      6          1           0       -1.567716   -0.708331   -0.756145
      7          1           0        1.418437    0.880201   -0.028196
[...]
 Second derivative matrix not updated -- analytic derivatives used.
 The second derivative matrix:
                          R1        R2        R3        R4        R5
           R1           0.15632
           R2           0.00166   0.33912
           R3           0.00131   0.00068   0.33899
           R4           0.00164   0.00042   0.00068   0.33934
           R5           0.08117  -0.00014   0.00014  -0.00012   0.03508
           R6           0.00220  -0.00010   0.00041  -0.00009  -0.00461
           A1           0.01215   0.00249  -0.00627  -0.00676  -0.00453
           A2           0.01352  -0.00656   0.00134  -0.00655  -0.00181
           A3           0.01212  -0.00676  -0.00627   0.00245  -0.00433
           A4          -0.01131   0.00641   0.00664  -0.00353   0.00258
           A5          -0.01028   0.00667  -0.00373   0.00666   0.00415
           A6          -0.01129  -0.00353   0.00663   0.00640   0.00257
           A7          -0.00010  -0.00089   0.00101  -0.00084   0.00721
           A8           0.00285   0.00166  -0.00336   0.00156   0.00357
           A9           0.00001  -0.00218  -0.00005   0.00221   0.00001
           D1           0.00010  -0.00004  -0.00523   0.00475  -0.00096
           D2          -0.00002   0.00502   0.00000  -0.00500  -0.00003
           D3          -0.00008  -0.00476   0.00522   0.00005   0.00099
                          R6        A1        A2        A3        A4
           R6           0.45536
           A1          -0.00124   0.07442
           A2          -0.00012  -0.00602   0.07909
           A3          -0.00120  -0.00650  -0.00599   0.07433
           A4           0.00080  -0.02277  -0.02730  -0.00382   0.05511
           A5           0.00064  -0.02733  -0.00370  -0.02733  -0.00423
           A6           0.00077  -0.00382  -0.02732  -0.02278  -0.00437
           A7           0.00618   0.00075  -0.00154   0.00065   0.00010
           A8          -0.00333   0.00310   0.00042   0.00299  -0.00614
           A9           0.00001   0.00052   0.00004  -0.00053  -0.00298
           D1           0.00014  -0.00008  -0.00570   0.00631  -0.01877
           D2          -0.00001   0.00353  -0.00006  -0.00354   0.01998
           D3          -0.00013  -0.00632   0.00571   0.00012  -0.00073
                          A5        A6        A7        A8        A9
           A5           0.06023
           A6          -0.00424   0.05506
           A7          -0.00012   0.00015   0.08915
           A8           0.00699  -0.00629   0.00318   0.02568
           A9           0.00010   0.00285  -0.00001  -0.00001   0.00383
           D1           0.01805   0.00072  -0.00011   0.00192   0.00066
           D2           0.00000  -0.01989  -0.00000   0.00002  -0.00199
           D3          -0.01809   0.01874   0.00010  -0.00190   0.00056
                          D1        D2        D3
           D1           0.01617
           D2          -0.00820   0.01599
           D3          -0.00756  -0.00820   0.01621
 ITU=  0
 Eigenvectors of the second derivative matrix:
                           1         2         3         4         5
     Eigenvalues --    -0.00984   0.00002   0.00362   0.02378   0.06823
   1         R1         0.45311   0.00042  -0.00046   0.05275   0.00596
   2         R2        -0.00618  -0.00042   0.00508   0.00174  -0.02208
   3         R3        -0.00604   0.00003   0.00009  -0.00129   0.05004
   4         R4        -0.00616   0.00038  -0.00513   0.00156  -0.02437
   5         R5        -0.86868  -0.00076   0.00080  -0.06472  -0.02985
   6         R6        -0.01179  -0.00004   0.00001  -0.00904   0.00388
   7         A1        -0.08292   0.02022  -0.01725   0.02255   0.25250
   8         A2        -0.05923   0.00019  -0.00050  -0.00125  -0.45921
   9         A3        -0.08081  -0.02044   0.01771   0.02199   0.27974
  10         A4         0.06380   0.00491  -0.00001  -0.04176  -0.25663
  11         A5         0.06640   0.00025  -0.00047   0.04755   0.44152
  12         A6         0.06381  -0.00509   0.00049  -0.04190  -0.23435
  13         A7         0.06221   0.00016   0.00002   0.05499  -0.06781
  14         A8         0.07114  -0.00118   0.00110  -0.95717   0.19834
  15         A9         0.00066   0.12161   0.98676   0.00141   0.00254
  16         D1        -0.02699   0.56985  -0.11474   0.18074   0.38250
  17         D2        -0.00094   0.57906   0.01568   0.00191  -0.01212
  18         D3         0.02652   0.56947  -0.11058  -0.18527  -0.36942
                           6         7         8         9        10
     Eigenvalues --     0.06959   0.08933   0.09456   0.10197   0.10945
   1         R1        -0.00105   0.06991   0.00006  -0.02215   0.13698
   2         R2         0.04297  -0.00511  -0.00373  -0.00293  -0.03640
   3         R3        -0.00146  -0.00394  -0.00006   0.00801  -0.03275
   4         R4        -0.04141  -0.00516   0.00395  -0.00307  -0.03643
   5         R5         0.00169  -0.02023  -0.00018   0.00050   0.26108
   6         R6        -0.00018   0.01487   0.00014   0.00065  -0.00457
   7         A1        -0.45284  -0.01955  -0.52733  -0.31607  -0.39411
   8         A2         0.01249  -0.07629  -0.00030   0.61402  -0.44966
   9         A3         0.43809  -0.03234   0.52978  -0.31293  -0.39085
  10         A4        -0.39181   0.06830   0.44208  -0.24611   0.33786
  11         A5        -0.01356  -0.03970  -0.00316   0.51522   0.40232
  12         A6         0.40567   0.08125  -0.44061  -0.24702   0.33567
  13         A7         0.00353  -0.98371  -0.01320  -0.10164   0.09661
  14         A8        -0.00796  -0.07156  -0.00087   0.06552  -0.02713
  15         A9         0.04218   0.00054  -0.03960   0.00114  -0.00024
  16         D1         0.21672  -0.02605  -0.08017   0.10702   0.01161
  17         D2        -0.41862  -0.00306   0.19338  -0.00058   0.00092
  18         D3         0.23865   0.02884  -0.07796  -0.10708  -0.01231
                          11        12        13        14        15
     Eigenvalues --     0.20284   0.33929   0.33980   0.34127   0.45555
   1         R1        -0.87615  -0.00163  -0.00022   0.00575  -0.00411
   2         R2        -0.00474  -0.49346  -0.68466   0.53286   0.00068
   3         R3        -0.00618   0.80616  -0.13511   0.57280  -0.00441
   4         R4        -0.00475  -0.32078   0.71368   0.61966   0.00062
   5         R5        -0.41424   0.00050  -0.00018   0.00294   0.00982
   6         R6        -0.00148  -0.00437   0.00062  -0.00208  -0.99975
   7         A1        -0.09559  -0.01474  -0.02067  -0.02747   0.00331
   8         A2        -0.12449   0.02326  -0.00099  -0.02962   0.00038
   9         A3        -0.09596  -0.00877   0.02670  -0.02463   0.00320
  10         A4         0.09558   0.01242  -0.02941   0.02188  -0.00221
  11         A5         0.08393  -0.03197   0.00243   0.02419  -0.00163
  12         A6         0.09547   0.01884   0.02262   0.02508  -0.00214
  13         A7        -0.02574   0.00567  -0.00047  -0.00159  -0.01661
  14         A8        -0.02982  -0.01457   0.00160  -0.00109   0.00780
  15         A9        -0.00009   0.00102   0.00974   0.00058  -0.00001
  16         D1         0.00092  -0.02133   0.01565  -0.00005  -0.00019
  17         D2         0.00029  -0.00324  -0.02606  -0.00156   0.00002
  18         D3        -0.00118   0.02448   0.00993   0.00159   0.00015
 Eigenvalue     1 is  -9.84D-03 should be greater than     0.000000 Eigenvector:
                          R5        R1        A1        A3        A8
   1                   -0.86868   0.45311  -0.08292  -0.08081   0.07114
                          A5        A6        A4        A7        A2
   1                    0.06640   0.06381   0.06380   0.06221  -0.05923
 Angle between quadratic step and forces=  86.27 degrees.
 Linear search not attempted -- first point.
 Iteration  1 RMS(Cart)=  0.00443823 RMS(Int)=  0.00003174
 Iteration  2 RMS(Cart)=  0.00002597 RMS(Int)=  0.00000024
 Iteration  3 RMS(Cart)=  0.00000000 RMS(Int)=  0.00000024
 ITry= 1 IFail=0 DXMaxC= 1.28D-02 DCOld= 1.00D+10 DXMaxT= 3.00D-01 DXLimC= 3.00D+00 Rises=F
 Variable       Old X    -DE/DX   Delta X   Delta X   Delta X     New X
                                 (Linear)    (Quad)   (Total)
    R1        2.31016  -0.00004   0.00000  -0.00032  -0.00032   2.30984
    R2        2.07792  -0.00002   0.00000  -0.00009  -0.00009   2.07783
    R3        2.07771  -0.00001   0.00000  -0.00003  -0.00003   2.07767
    R4        2.07771   0.00002   0.00000   0.00011   0.00011   2.07782
    R5        2.52196  -0.00001   0.00000   0.00015   0.00015   2.52211
    R6        1.86689   0.00001   0.00000   0.00000   0.00000   1.86690
    A1        1.83628   0.00005   0.00000   0.00118   0.00118   1.83746
    A2        1.88506   0.00002   0.00000   0.00035   0.00035   1.88541
    A3        1.83923  -0.00006   0.00000  -0.00131  -0.00131   1.83792
    A4        1.96046   0.00000   0.00000   0.00023   0.00023   1.96070
    A5        1.97084  -0.00001   0.00000  -0.00019  -0.00019   1.97065
    A6        1.96104  -0.00000   0.00000  -0.00023  -0.00023   1.96081
    A7        1.73482   0.00007   0.00000   0.00081   0.00081   1.73563
    A8        2.94817  -0.00000   0.00000  -0.00018  -0.00018   2.94798
    A9        3.13874  -0.00001   0.00000   0.00157   0.00157   3.14031
    D1       -2.09209  -0.00002   0.00000   0.01383   0.01383  -2.07826
    D2       -0.02089   0.00002   0.00000   0.01444   0.01444  -0.00646
    D3        2.05146  -0.00000   0.00000   0.01407   0.01407   2.06553
         Item               Value     Threshold  Converged?
 Maximum Force            0.000072     0.000450     YES
 RMS     Force            0.000029     0.000300     YES
 Maximum Displacement     0.012841     0.001800     NO 
 RMS     Displacement     0.004439     0.001200     NO 
 Predicted change in Energy=-9.977658D-08
                           ----------------------------
                           ! Non-Optimized Parameters !
                           ! (Angstroms and Degrees)  !
 --------------------------                            --------------------------
 ! Name  Definition              Value          Derivative Info.                !
 --------------------------------------------------------------------------------
 ! R1    R(1,3)                  1.2223         -DE/DX =    0.0                 !
 ! R2    R(1,4)                  1.0995         -DE/DX =    0.0                 !
 ! R3    R(1,5)                  1.0995         -DE/DX =    0.0                 !
 ! R4    R(1,6)                  1.0995         -DE/DX =    0.0                 !
 ! R5    R(2,3)                  1.3346         -DE/DX =    0.0                 !
 ! R6    R(2,7)                  0.9879         -DE/DX =    0.0                 !
 ! A1    A(3,1,4)              105.2789         -DE/DX =    0.0001              !
 ! A2    A(3,1,5)              108.0259         -DE/DX =    0.0                 !
 ! A3    A(3,1,6)              105.305          -DE/DX =   -0.0001              !
 ! A4    A(4,1,5)              112.3397         -DE/DX =    0.0                 !
 ! A5    A(4,1,6)              112.9097         -DE/DX =    0.0                 !
 ! A6    A(5,1,6)              112.3459         -DE/DX =    0.0                 !
 ! A7    A(3,2,7)               99.4441         -DE/DX =    0.0001              !
 ! A8    L(1,3,2,7,-1)         168.907          -DE/DX =    0.0                 !
 ! A9    L(1,3,2,7,-2)         179.9264         -DE/DX =    0.0                 !
 ! D1    D(4,1,2,7)           -119.0754         -DE/DX =    0.0                 !
 ! D2    D(5,1,2,7)             -0.37           -DE/DX =    0.0                 !
 ! D3    D(6,1,2,7)            118.3462         -DE/DX =    0.0                 !
 --------------------------------------------------------------------------------
 GradGradGradGradGradGradGradGradGradGradGradGradGradGradGradGradGradGrad

 Leave Link  103 at Wed Oct  7 14:13:03 2020, MaxMem=  2684354560 cpu:               1.7 elap:               0.4
 (Enter /udrive/faculty/rpeverati/g16/g16/l9999.exe)

 ----------------------------------------------------------------------

 Electric dipole moment (input orientation):
 (Debye = 10**-18 statcoulomb cm , SI units = C m)
                  (au)            (Debye)         (10**-30 SI)
   Tot        0.780347D+00      0.198344D+01      0.661606D+01
   x         -0.509981D+00     -0.129624D+01     -0.432380D+01
   y          0.570483D+00      0.145002D+01      0.483675D+01
   z         -0.153007D+00     -0.388904D+00     -0.129724D+01

 Dipole polarizability, Alpha (input orientation).
 (esu units = cm**3 , SI units = C**2 m**2 J**-1)
 Alpha(0;0):
               (au)            (10**-24 esu)      (10**-40 SI)
   iso        0.229873D+02      0.340636D+01      0.379009D+01
   aniso      0.190335D+02      0.282048D+01      0.313820D+01
   xx         0.353654D+02      0.524061D+01      0.583096D+01
   yx         0.152385D+01      0.225811D+00      0.251248D+00
   yy         0.184693D+02      0.273686D+01      0.304517D+01
   zx         0.826215D-01      0.122432D-01      0.136224D-01
   zy        -0.851016D+00     -0.126108D+00     -0.140314D+00
   zz         0.151272D+02      0.224162D+01      0.249414D+01

 ----------------------------------------------------------------------

 Dipole orientation:
     6         -1.48371525          0.90562265          1.49436561
     8          1.44645462         -1.03278148         -1.79025331
     1         -0.21478975          0.06898571         -0.24537358
     1         -3.38225746          0.10782415          1.21723207
     1         -0.61849382          0.28287362          3.27774770
     1         -1.43305425          2.97056834          1.27002065
     1          2.58861011         -1.78790513         -0.52117397

 Electric dipole moment (dipole orientation):
 (Debye = 10**-18 statcoulomb cm , SI units = C m)
                  (au)            (Debye)         (10**-30 SI)
   Tot        0.780347D+00      0.198344D+01      0.661606D+01
   x          0.000000D+00      0.000000D+00      0.000000D+00
   y          0.000000D+00      0.000000D+00      0.000000D+00
   z          0.780347D+00      0.198344D+01      0.661606D+01

 Dipole polarizability, Alpha (dipole orientation).
 (esu units = cm**3 , SI units = C**2 m**2 J**-1)
 Alpha(0;0):
               (au)            (10**-24 esu)      (10**-40 SI)
   iso        0.229873D+02      0.340636D+01      0.379009D+01
   aniso      0.190335D+02      0.282048D+01      0.313820D+01
   xx         0.251832D+02      0.373177D+01      0.415215D+01
   yx        -0.679732D+01     -0.100726D+01     -0.112073D+01
   yy         0.194124D+02      0.287662D+01      0.320068D+01
   zx        -0.671085D+01     -0.994445D+00     -0.110647D+01
   zy         0.444607D+01      0.658840D+00      0.733058D+00
   zz         0.243662D+02      0.361070D+01      0.401744D+01

 ----------------------------------------------------------------------

 Test job not archived.
 1\1\GINC-NODE63\Freq\UBP86\6-31G(d)\C1H5O1(2)\RPEVERATI\07-Oct-2020\0\
 \#P Freq BP86/6-31G* 5D 7F Integral=UltraFineGrid SCF=(NoSymm,XQC,MaxC
 yc=120) EmpiricalDispersion=GD3BJ IOp(1/33=1) Geom=Check Guess=Read\\T
 S search on BH76.\\0,2\C,-1.2130143064,-0.0006090886,0.0077151523\O,1.
 329544389,-0.0845126099,0.0850645065\H,-0.0027984401,-0.1605213151,0.0
 730531622\H,-1.5944463809,-0.2756026014,1.0016873412\H,-1.4037699914,1
 .0544944612,-0.235630695\H,-1.554680197,-0.6811428781,-0.7853754597\H,
 1.4388503176,0.8689140155,-0.1494805894\\Version=ES64L-G16RevA.03\Stat
 e=2-A\HF=-116.2345364\S2=0.753202\S2-1=0.\S2A=0.750006\RMSD=5.833e-10\
 RMSF=3.523e-05\ZeroPoint=0.0500691\Thermal=0.0547939\Dipole=-0.509981,
 0.5704825,-0.1530065\DipoleDeriv=0.5298769,0.0308866,0.0055254,-0.0667
 502,-0.0067789,-0.006823,0.0288222,-0.0047378,-0.0290259,-0.1803098,0.
 0431698,-0.0040227,0.0213677,-0.1825619,-0.07304,0.0019653,-0.0724491,
 -0.4600253,-0.607857,-0.0170626,-0.0132942,-0.0372288,0.1512083,0.0059
 006,-0.0090338,0.0062185,0.1777414,-0.0446012,-0.0253215,0.076492,0.00
 64604,0.069584,0.0306204,0.0038676,0.0355009,-0.0503251,-0.0269732,0.0
 253456,-0.0077368,0.0161341,-0.0879313,0.0370402,-0.0059043,0.0373954,
 0.0653799,-0.0411524,-0.0536117,-0.0589804,0.0060198,0.0208332,-0.0653
 955,-0.00749,-0.0722944,-0.0051885,0.3710166,-0.0034061,0.0020166,0.05
 3997,0.0356466,0.0716974,-0.0122271,0.0703665,0.3014434\Polar=35.36535
 92,1.523846,18.469255,0.0826215,-0.8510157,15.1272137\Quadrupole=-0.49
 68281,0.8906328,-0.3938048,1.8421218,-0.4577634,-0.2951198\PG=C01 [X(C
 1H5O1)]\NImag=1\\0.28541065,0.02386493,0.54306010,-0.01083647,-0.00007
 074,0.53965710,-0.08813736,0.01263873,-0.00510917,0.06174189,-0.001901
 42,0.00078905,0.00005325,0.03835044,0.43714603,-0.00159476,0.00031789,
 0.00088070,-0.00814509,-0.10743640,0.02795764,-0.03342813,0.00140973,-
 0.00057227,0.04751648,-0.00613704,0.00270256,0.02808899,0.01819349,-0.
 03498549,0.00366138,0.00471594,-0.01632931,0.00335252,-0.00621753,0.05
 572218,-0.00459298,0.00327941,-0.02211716,-0.00007904,0.00307656,-0.00
 408506,0.00136551,-0.00715890,0.02898866,-0.06487507,-0.02690665,0.094
 38545,0.00335614,-0.00025288,-0.00058497,-0.01534898,-0.00585489,0.017
 42348,0.06810321,-0.02565157,-0.06445457,0.05917932,-0.00033680,-0.000
 41795,-0.00026697,0.00232850,0.00105524,-0.00169219,0.02725837,0.06164
 628,0.08548231,0.06051931,-0.26729955,0.00161828,-0.00065774,0.0010590
 3,-0.00277625,0.00017010,-0.00112659,-0.09486632,-0.06648972,0.2848764
 5,-0.03997968,0.05008708,-0.01117372,0.00147283,0.00090300,-0.00017854
 ,-0.01026753,0.01921318,-0.00458628,0.00324920,-0.01136770,0.00223100,
 0.04218077,0.04348434,-0.29635279,0.05732142,-0.00029354,0.00087903,-0
 .00030897,-0.00123263,-0.00304421,0.00052059,0.00188747,-0.00415226,-0
 .00063773,-0.04893290,0.31601521,-0.00970401,0.05744007,-0.06090603,0.
 00011008,-0.00029425,-0.00042437,0.00006891,0.00099378,-0.00087071,-0.
 00657486,0.02574592,-0.00294589,0.01107707,-0.06289803,0.05778889,-0.0
 5815349,-0.05918746,-0.06719573,0.00327362,0.00005770,0.00075571,-0.01
 455877,-0.01284179,-0.01371997,0.00545588,0.00770792,0.00880192,0.0029
 8657,0.00444604,0.00516054,0.06090984,-0.05424791,-0.15012069,-0.11908
 776,-0.00096338,0.00021100,0.00064180,0.00310312,0.00113930,0.00060295
 ,0.00286010,0.00643929,0.00684830,-0.01016689,-0.01374615,-0.02100045,
 0.05916975,0.15632741,-0.05970181,-0.12053017,-0.18863204,-0.00117598,
 0.00102733,0.00038936,0.00096370,-0.00181989,-0.00185419,-0.01025729,-
 0.01664689,-0.01456586,0.00268055,0.00599736,0.00693770,0.06709393,0.1
 3205445,0.19758602,-0.00083692,-0.00190636,0.00050192,-0.02922360,-0.0
 3101980,0.00704509,-0.00200205,-0.01720840,0.00418928,0.00005962,0.000
 06128,-0.00049094,0.00035784,0.00064122,-0.00013772,0.00008635,0.00024
 522,0.00039690,0.03155876,-0.00374186,0.00206437,-0.00105687,-0.054111
 39,-0.42227785,0.10370013,0.00674585,-0.00355771,0.00137159,0.00100847
 ,-0.00011603,0.00024748,0.00026424,0.00040117,0.00001296,0.00064783,-0
 .00025017,-0.00008219,0.04918684,0.42373621,0.00094772,-0.00095576,-0.
 00158302,0.01278093,0.10423126,-0.02577730,-0.00175217,0.00080101,0.00
 106505,0.00047451,0.00017053,0.00000242,-0.00005007,0.00000536,0.00042
 041,-0.00089639,-0.00005929,0.00013901,-0.01150452,-0.10419311,0.02573
 344\\-0.00004475,-0.00005763,-0.00009315,0.00005240,-0.00002626,0.0000
 0384,0.00002313,0.00004883,0.00003974,0.00001951,0.00000369,0.00002995
 ,0.00000966,0.00001126,0.00000649,-0.00002105,0.00002142,0.00001168,-0
 .00003890,-0.00000130,0.00000146\\\@


 NEVER TEACH A PIG TO SING.
 IT WASTES YOUR TIME AND ANNOYS THE PIG.
     -- SEEN ON A GREETING CARD
 Job cpu time:       0 days  0 hours  2 minutes 43.9 seconds.
 Elapsed time:       0 days  0 hours  0 minutes 20.4 seconds.
 File lengths (MBytes):  RWF=      7 Int=      0 D2E=      0 Chk=      1 Scr=      1
 Normal termination of Gaussian 16 at Wed Oct  7 14:13:04 2020.
