 Entering Gaussian System, Link 0=g16
 Input=MN_89_RKT14_BH76_BP86DBJ_631Gs.in
 Output=MN_89_RKT14_BH76_BP86DBJ_631Gs.log
 Initial command:
 /udrive/faculty/rpeverati/g16/g16/l1.exe "/udrive/scratch-directories/gaussian09/rpeverati/Gau-12621.inp" -scrdir="/udrive/scratch-directories/gaussian09/rpeverati/"
 Entering Link 1 = /udrive/faculty/rpeverati/g16/g16/l1.exe PID=     12635.
  
 Copyright (c) 1988,1990,1992,1993,1995,1998,2003,2009,2016,
            Gaussian, Inc.  All Rights Reserved.
  
 This is part of the Gaussian(R) 16 program.  It is based on
 the Gaussian(R) 09 system (copyright 2009, Gaussian, Inc.),
 the Gaussian(R) 03 system (copyright 2003, Gaussian, Inc.),
 the Gaussian(R) 98 system (copyright 1998, Gaussian, Inc.),
 the Gaussian(R) 94 system (copyright 1995, Gaussian, Inc.),
 the Gaussian 92(TM) system (copyright 1992, Gaussian, Inc.),
 the Gaussian 90(TM) system (copyright 1990, Gaussian, Inc.),
 the Gaussian 88(TM) system (copyright 1988, Gaussian, Inc.),
 the Gaussian 86(TM) system (copyright 1986, Carnegie Mellon
 University), and the Gaussian 82(TM) system (copyright 1983,
 Carnegie Mellon University). Gaussian is a federally registered
 trademark of Gaussian, Inc.
  
 This software contains proprietary and confidential information,
 including trade secrets, belonging to Gaussian, Inc.
  
 This software is provided under written license and may be
 used, copied, transmitted, or stored only in accord with that
 written license.
  
 The following legend is applicable only to US Government
 contracts under FAR:
  
                    RESTRICTED RIGHTS LEGEND
  
 Use, reproduction and disclosure by the US Government is
 subject to restrictions as set forth in subparagraphs (a)
 and (c) of the Commercial Computer Software - Restricted
 Rights clause in FAR 52.227-19.
  
 Gaussian, Inc.
 340 Quinnipiac St., Bldg. 40, Wallingford CT 06492
  
  
 ---------------------------------------------------------------
 Warning -- This program may not be used in any manner that
 competes with the business of Gaussian, Inc. or will provide
 assistance to any competitor of Gaussian, Inc.  The licensee
 of this program is prohibited from giving any competitor of
 Gaussian, Inc. access to this program.  By using this program,
 the user acknowledges that Gaussian, Inc. is engaged in the
 business of creating and licensing software in the field of
 computational chemistry and represents and warrants to the
 licensee that it is not a competitor of Gaussian, Inc. and that
 it will not use this program in any manner prohibited above.
 ---------------------------------------------------------------
  

 Cite this work as:
 Gaussian 16, Revision A.03,
 M. J. Frisch, G. W. Trucks, H. B. Schlegel, G. E. Scuseria, 
 M. A. Robb, J. R. Cheeseman, G. Scalmani, V. Barone, 
 G. A. Petersson, H. Nakatsuji, X. Li, M. Caricato, A. V. Marenich, 
 J. Bloino, B. G. Janesko, R. Gomperts, B. Mennucci, H. P. Hratchian, 
 J. V. Ortiz, A. F. Izmaylov, J. L. Sonnenberg, D. Williams-Young, 
 F. Ding, F. Lipparini, F. Egidi, J. Goings, B. Peng, A. Petrone, 
 T. Henderson, D. Ranasinghe, V. G. Zakrzewski, J. Gao, N. Rega, 
 G. Zheng, W. Liang, M. Hada, M. Ehara, K. Toyota, R. Fukuda, 
 J. Hasegawa, M. Ishida, T. Nakajima, Y. Honda, O. Kitao, H. Nakai, 
 T. Vreven, K. Throssell, J. A. Montgomery, Jr., J. E. Peralta, 
 F. Ogliaro, M. J. Bearpark, J. J. Heyd, E. N. Brothers, K. N. Kudin, 
 V. N. Staroverov, T. A. Keith, R. Kobayashi, J. Normand, 
 K. Raghavachari, A. P. Rendell, J. C. Burant, S. S. Iyengar, 
 J. Tomasi, M. Cossi, J. M. Millam, M. Klene, C. Adamo, R. Cammi, 
 J. W. Ochterski, R. L. Martin, K. Morokuma, O. Farkas, 
 J. B. Foresman, and D. J. Fox, Gaussian, Inc., Wallingford CT, 2016.
 
 ******************************************
 Gaussian 16:  ES64L-G16RevA.03 25-Dec-2016
                 7-Oct-2020 
 ******************************************
 %NoSave
 %nproc=12
 Will use up to   12 processors via shared memory.
 %mem=20GB
 %chk=MN_89_RKT14_BH76_BP86DBJ_631Gs
 ----------------------------------------------------------------------
 #P Opt(TS,MaxCyc=50,NoEigenTest,MaxStep=10,AddRedundant) BP86/6-31G* 5
 D 7F Integral=UltraFineGrid SCF=(NoSymm,XQC,MaxCyc=120) EmpiricalDispe
 rsion=GD3BJ IOp(1/33=1)
 ----------------------------------------------------------------------
 1/5=1,6=50,8=10,11=1,18=120,26=4,33=1,38=1/1,3;
 2/9=110,12=2,17=6,18=5,40=1/2;
 3/5=1,6=6,7=1,8=11,11=2,25=1,30=1,71=1,74=404,75=-5,124=41/1,2,3;
 4/9=2/1;
 5/5=2,7=120,8=3,13=1,38=5/2,8;
 6/7=2,8=2,9=2,10=2,28=1/1;
 7//1,2,3,16;
 1/5=1,6=50,8=10,11=1,18=20,26=4,33=1/3(2);
 2/9=110/2;
 99//99;
 2/9=110/2;
 3/5=1,6=6,7=1,8=11,11=2,25=1,30=1,71=1,74=404,75=-5,124=41/1,2,3;
 4/5=5,9=2,16=3,69=1/1;
 5/5=2,7=120,8=3,13=1,38=5/2,8;
 7//1,2,3,16;
 1/5=1,6=50,8=10,11=1,18=20,26=4,33=1/3(-5);
 2/9=110/2;
 6/7=2,8=2,9=2,10=2,19=2,28=1/1;
 99/9=1/99;
 Leave Link    1 at Wed Oct  7 14:10:36 2020, MaxMem=  2684354560 cpu:               6.5 elap:               0.6
 (Enter /udrive/faculty/rpeverati/g16/g16/l101.exe)
 ONIOM data not found on unit 2.
 ------------------
 TS search on BH76.
 ------------------
 TstMul:  ICh=     0
 TstMul:  Mul=     3
 TstMul:  ICh=     0
 TstMul:  Mul=     3
 Symbolic Z-matrix:
 Charge =  0 Multiplicity = 3
 H                     0.        0.       -0.86029 
 O                     0.        0.        0.32902 
 H                     0.        0.       -1.77191 
 
 RdStrC is calling ZToCFu for IStruc=1 NZ=     3.
 PrtBox:  NBox=     1 Levels=  1 BoxLen=    8.00 SMaxX=        3.97
          Shift=            0.000000            0.000000            3.348420
 Box      1 Number                   0 centers from      1 to      3:
 After GenITR:
 ITRead=  0  0  0
 MicOpt= -1 -1 -1
 Add virtual bond connecting atoms H3         and H1         Dist= 1.72D+00.
 Add virtual bond connecting atoms O2         and H1         Dist= 2.25D+00.
 The following ModRedundant input section has been read:
 B       1       2 D                                                           
 B       1       3 D                                                           
 
 ITRead=  0  0  0
 MicOpt= -1 -1 -1
 NAtoms=      3 NQM=        3 NQMF=       0 NMMI=      0 NMMIF=      0
                NMic=       0 NMicF=      0.
                    Isotopes and Nuclear Properties:
 (Nuclear quadrupole moments (NQMom) in fm**2, nuclear magnetic moments (NMagM)
  in nuclear magnetons)

  Atom         1           2           3
 IAtWgt=           1          16           1
 AtmWgt=   1.0078250  15.9949146   1.0078250
 NucSpn=           1           0           1
 AtZEff=   0.0000000   0.0000000   0.0000000
 NQMom=    0.0000000   0.0000000   0.0000000
 NMagM=    2.7928460   0.0000000   2.7928460
 AtZNuc=   1.0000000   8.0000000   1.0000000
 No MM parameters found.
 Leave Link  101 at Wed Oct  7 14:10:37 2020, MaxMem=  2684354560 cpu:               4.3 elap:               0.5
 (Enter /udrive/faculty/rpeverati/g16/g16/l103.exe)

 GradGradGradGradGradGradGradGradGradGradGradGradGradGradGradGradGradGrad
 Berny optimization.
 Optmz: redundant internal coordinate code flag= 1
 Initialization pass.
                           ----------------------------
                           !    Initial Parameters    !
                           ! (Angstroms and Degrees)  !
 --------------------------                            --------------------------
 ! Name  Definition              Value          Derivative Info.                !
 --------------------------------------------------------------------------------
 ! R1    R(1,2)                  1.1893         calc D2E/DXDY, step=    0.0026  !
 ! R2    R(1,3)                  0.9116         calc D2E/DXDY, step=    0.0026  !
 ! A1    L(2,1,3,-1,-1)        180.0            estimate D2E/DX2                !
 ! A2    L(2,1,3,-2,-2)        180.0            estimate D2E/DX2                !
 --------------------------------------------------------------------------------
 Maximum allowed force set to 1.00D+20.
 Trust Radius=1.00D-01 FncErr=1.00D-07 GrdErr=1.00D-06 EigMax=2.50D+02 EigMin=1.00D-04
 Number of steps in this run=     50 maximum allowed number of steps=    100.
 Search for a saddle point of order  1.
 GradGradGradGradGradGradGradGradGradGradGradGradGradGradGradGradGradGrad

 Leave Link  103 at Wed Oct  7 14:10:38 2020, MaxMem=  2684354560 cpu:               1.7 elap:               0.6
 (Enter /udrive/faculty/rpeverati/g16/g16/l202.exe)
                          Input orientation:                          
 ---------------------------------------------------------------------
 Center     Atomic      Atomic             Coordinates (Angstroms)
 Number     Number       Type             X           Y           Z
 ---------------------------------------------------------------------
      1          1           0        0.000000    0.000000   -0.860289
      2          8           0        0.000000    0.000000    0.329024
      3          1           0        0.000000    0.000000   -1.771908
 ---------------------------------------------------------------------
                    Distance matrix (angstroms):
                    1          2          3
     1  H    0.000000
     2  O    1.189313   0.000000
     3  H    0.911619   2.100931   0.000000
 Stoichiometry    H2O(3)
 Framework group  C*V[C*(HHO)]
 Deg. of freedom     2
 Full point group                 C*V     NOp   4
 Largest Abelian subgroup         C2V     NOp   4
 Largest concise Abelian subgroup C1      NOp   1
                         Standard orientation:                         
 ---------------------------------------------------------------------
 Center     Atomic      Atomic             Coordinates (Angstroms)
 Number     Number       Type             X           Y           Z
 ---------------------------------------------------------------------
      1          1           0        0.000000    0.000000   -0.860288
      2          8           0        0.000000    0.000000    0.329024
      3          1           0        0.000000    0.000000   -1.771907
 ---------------------------------------------------------------------
 Rotational constants (GHZ):           0.0000000          96.0164001          96.0164001
 Leave Link  202 at Wed Oct  7 14:10:39 2020, MaxMem=  2684354560 cpu:               1.6 elap:               0.6
 (Enter /udrive/faculty/rpeverati/g16/g16/l301.exe)
 Standard basis: 6-31G(d) (5D, 7F)
 Ernie: Thresh=  0.10000D-02 Tol=  0.10000D-05 Strict=F.
 There are    12 symmetry adapted cartesian basis functions of A1  symmetry.
 There are     1 symmetry adapted cartesian basis functions of A2  symmetry.
 There are     3 symmetry adapted cartesian basis functions of B1  symmetry.
 There are     3 symmetry adapted cartesian basis functions of B2  symmetry.
 There are    11 symmetry adapted basis functions of A1  symmetry.
 There are     1 symmetry adapted basis functions of A2  symmetry.
 There are     3 symmetry adapted basis functions of B1  symmetry.
 There are     3 symmetry adapted basis functions of B2  symmetry.
    18 basis functions,    36 primitive gaussians,    19 cartesian basis functions
     6 alpha electrons        4 beta electrons
       nuclear repulsion energy         6.1550503684 Hartrees.
 IExCor=  404 DFT=T Ex=B Corr=P86 ExCW=0 ScaHFX=  0.000000
 ScaDFX=  1.000000  1.000000  1.000000  1.000000 ScalE2=  1.000000  1.000000
 IRadAn=      5 IRanWt=     -1 IRanGd=            0 ICorTp=0 IEmpDi=141
 NAtoms=    3 NActive=    3 NUniq=    3 SFac= 1.00D+00 NAtFMM=   60 NAOKFM=F Big=F
 Integral buffers will be    131072 words long.
 Raffenetti 2 integral format.
 Two-electron integral symmetry is turned on.
 R6Disp:  Grimme-D3(BJ) Dispersion energy=       -0.0006258683 Hartrees.
 Nuclear repulsion after empirical dispersion term =        6.1544245001 Hartrees.
 Leave Link  301 at Wed Oct  7 14:10:40 2020, MaxMem=  2684354560 cpu:               2.4 elap:               0.7
 (Enter /udrive/faculty/rpeverati/g16/g16/l302.exe)
 NPDir=0 NMtPBC=     1 NCelOv=     1 NCel=       1 NClECP=     1 NCelD=      1
         NCelK=      1 NCelE2=     1 NClLst=     1 CellRange=     0.0.
 One-electron integrals computed using PRISM.
 One-electron integral symmetry used in STVInt
 NBasis=    18 RedAO= T EigKep=  3.90D-02  NBF=    11     1     3     3
 NBsUse=    18 1.00D-06 EigRej= -1.00D+00 NBFU=    11     1     3     3
 Precomputing XC quadrature grid using
 IXCGrd= 4 IRadAn=           5 IRanWt=          -1 IRanGd=           0 AccXCQ= 0.00D+00.
 Generated NRdTot=       0 NPtTot=           0 NUsed=           0 NTot=          32
 NSgBfM=    19    19    19    19    19 MxSgAt=     3 MxSgA2=     3.
 Leave Link  302 at Wed Oct  7 14:10:41 2020, MaxMem=  2684354560 cpu:               4.1 elap:               0.8
 (Enter /udrive/faculty/rpeverati/g16/g16/l303.exe)
 DipDrv:  MaxL=1.
 Leave Link  303 at Wed Oct  7 14:10:41 2020, MaxMem=  2684354560 cpu:               1.6 elap:               0.5
 (Enter /udrive/faculty/rpeverati/g16/g16/l401.exe)
 SCF N**3 symmetry information disabled.
 ExpMin= 1.61D-01 ExpMax= 5.48D+03 ExpMxC= 8.25D+02 IAcc=3 IRadAn=         5 AccDes= 0.00D+00
 Harris functional with IExCor=  404 and IRadAn=       5 diagonalized for initial guess.
 HarFok:  IExCor=  404 AccDes= 0.00D+00 IRadAn=         5 IDoV= 1 UseB2=F ITyADJ=14
 ICtDFT=  3500011 ScaDFX=  1.000000  1.000000  1.000000  1.000000
 FoFCou: FMM=F IPFlag=           0 FMFlag=      100000 FMFlg1=           0
         NFxFlg=           0 DoJE=T BraDBF=F KetDBF=T FulRan=T
         wScrn=  0.000000 ICntrl=       500 IOpCl=  0 I1Cent=   200000004 NGrid=           0
         NMat0=    1 NMatS0=      1 NMatT0=    0 NMatD0=    1 NMtDS0=    0 NMtDT0=    0
 Petite list used in FoFCou.
 Harris En= -76.1586581799696    
 JPrj=0 DoOrth=F DoCkMO=F.
 Initial guess orbital symmetries:
 Alpha Orbitals:
       Occupied  (SG) (SG) (SG) (PI) (PI) (SG)
       Virtual   (SG) (SG) (SG) (PI) (PI) (SG) (SG) (PI) (PI) (DLTA)
                 (DLTA) (SG)
 Beta  Orbitals:
       Occupied  (SG) (SG) (SG) (PI)
       Virtual   (PI) (SG) (SG) (SG) (SG) (PI) (PI) (SG) (SG) (PI)
                 (PI) (DLTA) (DLTA) (SG)
 Initial guess <Sx>= 0.0000 <Sy>= 0.0000 <Sz>= 1.0000 <S**2>= 2.0000 S= 1.0000
 Leave Link  401 at Wed Oct  7 14:10:42 2020, MaxMem=  2684354560 cpu:               5.4 elap:               0.8
 (Enter /udrive/faculty/rpeverati/g16/g16/l502.exe)
 Keep J ints in memory in symmetry-blocked form, NReq=10355880.
 FoFCou: FMM=F IPFlag=           0 FMFlag=           0 FMFlg1=           0
         NFxFlg=           0 DoJE=F BraDBF=F KetDBF=F FulRan=T
         wScrn=  0.000000 ICntrl=       600 IOpCl=  0 I1Cent=           0 NGrid=           0
         NMat0=    1 NMatS0=    171 NMatT0=    0 NMatD0=    1 NMtDS0=    0 NMtDT0=    0
 Petite list used in FoFCou.
 UHF open shell SCF:
 Using DIIS extrapolation, IDIIS=  1040.
 NGot=  2684354560 LenX=  2684347216 LenY=  2684346334
 Requested convergence on RMS density matrix=1.00D-08 within 120 cycles.
 Requested convergence on MAX density matrix=1.00D-06.
 Requested convergence on             energy=1.00D-06.
 No special actions if energy rises.
 Integral accuracy reduced to 1.0D-05 until final iterations.

 Cycle   1  Pass 0  IDiag  1:
 E= -76.2082058010308    
 DIIS: error= 1.95D-02 at cycle   1 NSaved=   1.
 NSaved= 1 IEnMin= 1 EnMin= -76.2082058010308     IErMin= 1 ErrMin= 1.95D-02
 ErrMax= 1.95D-02  0.00D+00 EMaxC= 1.00D-01 BMatC= 2.37D-02 BMatP= 2.37D-02
 IDIUse=3 WtCom= 8.05D-01 WtEn= 1.95D-01
 Coeff-Com:  0.100D+01
 Coeff-En:   0.100D+01
 Coeff:      0.100D+01
 Gap=     0.417 Goal=   None    Shift=    0.000
 Gap=     0.030 Goal=   None    Shift=    0.000
 GapD=    0.030 DampG=0.250 DampE=0.500 DampFc=0.2500 IDamp=-1.
 Damping current iteration by 2.50D-01
 RMSDP=1.04D-02 MaxDP=8.89D-02              OVMax= 1.90D-01

 Cycle   2  Pass 0  IDiag  1:
 E= -76.2107463174958     Delta-E=       -0.002540516465 Rises=F Damp=T
 DIIS: error= 1.34D-02 at cycle   2 NSaved=   2.
 NSaved= 2 IEnMin= 2 EnMin= -76.2107463174958     IErMin= 2 ErrMin= 1.34D-02
 ErrMax= 1.34D-02  0.00D+00 EMaxC= 1.00D-01 BMatC= 6.99D-03 BMatP= 2.37D-02
 IDIUse=3 WtCom= 8.66D-01 WtEn= 1.34D-01
 Coeff-Com: -0.447D+00 0.145D+01
 Coeff-En:   0.000D+00 0.100D+01
 Coeff:     -0.387D+00 0.139D+01
 Gap=     0.425 Goal=   None    Shift=    0.000
 Gap=     0.049 Goal=   None    Shift=    0.000
 RMSDP=3.19D-03 MaxDP=2.40D-02 DE=-2.54D-03 OVMax= 1.11D-01

 Cycle   3  Pass 0  IDiag  1:
 E= -76.2164707045670     Delta-E=       -0.005724387071 Rises=F Damp=F
 DIIS: error= 3.28D-03 at cycle   3 NSaved=   3.
 NSaved= 3 IEnMin= 3 EnMin= -76.2164707045670     IErMin= 3 ErrMin= 3.28D-03
 ErrMax= 3.28D-03  0.00D+00 EMaxC= 1.00D-01 BMatC= 2.91D-04 BMatP= 6.99D-03
 IDIUse=3 WtCom= 9.67D-01 WtEn= 3.28D-02
 Coeff-Com: -0.974D-01 0.952D-01 0.100D+01
 Coeff-En:   0.000D+00 0.000D+00 0.100D+01
 Coeff:     -0.942D-01 0.921D-01 0.100D+01
 Gap=     0.430 Goal=   None    Shift=    0.000
 Gap=     0.034 Goal=   None    Shift=    0.000
 RMSDP=6.04D-04 MaxDP=4.39D-03 DE=-5.72D-03 OVMax= 5.60D-03

 Cycle   4  Pass 0  IDiag  1:
 E= -76.2165632977830     Delta-E=       -0.000092593216 Rises=F Damp=F
 DIIS: error= 8.59D-04 at cycle   4 NSaved=   4.
 NSaved= 4 IEnMin= 4 EnMin= -76.2165632977830     IErMin= 4 ErrMin= 8.59D-04
 ErrMax= 8.59D-04  0.00D+00 EMaxC= 1.00D-01 BMatC= 4.44D-05 BMatP= 2.91D-04
 IDIUse=3 WtCom= 9.91D-01 WtEn= 8.59D-03
 Coeff-Com: -0.376D-01 0.796D-02 0.236D+00 0.793D+00
 Coeff-En:   0.000D+00 0.000D+00 0.000D+00 0.100D+01
 Coeff:     -0.373D-01 0.790D-02 0.234D+00 0.795D+00
 Gap=     0.430 Goal=   None    Shift=    0.000
 Gap=     0.034 Goal=   None    Shift=    0.000
 RMSDP=2.21D-04 MaxDP=1.70D-03 DE=-9.26D-05 OVMax= 4.04D-03

 Cycle   5  Pass 0  IDiag  1:
 E= -76.2165785648195     Delta-E=       -0.000015267036 Rises=F Damp=F
 DIIS: error= 1.29D-04 at cycle   5 NSaved=   5.
 NSaved= 5 IEnMin= 5 EnMin= -76.2165785648195     IErMin= 5 ErrMin= 1.29D-04
 ErrMax= 1.29D-04  0.00D+00 EMaxC= 1.00D-01 BMatC= 1.28D-06 BMatP= 4.44D-05
 IDIUse=3 WtCom= 9.99D-01 WtEn= 1.29D-03
 Coeff-Com:  0.318D-02-0.469D-02-0.512D-01 0.753D-01 0.977D+00
 Coeff-En:   0.000D+00 0.000D+00 0.000D+00 0.000D+00 0.100D+01
 Coeff:      0.318D-02-0.469D-02-0.512D-01 0.752D-01 0.978D+00
 Gap=     0.429 Goal=   None    Shift=    0.000
 Gap=     0.034 Goal=   None    Shift=    0.000
 RMSDP=3.91D-05 MaxDP=3.02D-04 DE=-1.53D-05 OVMax= 4.74D-04

 Cycle   6  Pass 0  IDiag  1:
 E= -76.2165789888426     Delta-E=       -0.000000424023 Rises=F Damp=F
 DIIS: error= 3.57D-05 at cycle   6 NSaved=   6.
 NSaved= 6 IEnMin= 6 EnMin= -76.2165789888426     IErMin= 6 ErrMin= 3.57D-05
 ErrMax= 3.57D-05  0.00D+00 EMaxC= 1.00D-01 BMatC= 4.44D-08 BMatP= 1.28D-06
 IDIUse=1 WtCom= 1.00D+00 WtEn= 0.00D+00
 Coeff-Com:  0.245D-02-0.283D-02-0.130D-01 0.240D-02 0.205D+00 0.806D+00
 Coeff:      0.245D-02-0.283D-02-0.130D-01 0.240D-02 0.205D+00 0.806D+00
 Gap=     0.429 Goal=   None    Shift=    0.000
 Gap=     0.034 Goal=   None    Shift=    0.000
 RMSDP=1.17D-05 MaxDP=7.94D-05 DE=-4.24D-07 OVMax= 1.63D-04

 Cycle   7  Pass 0  IDiag  1:
 E= -76.2165790068728     Delta-E=       -0.000000018030 Rises=F Damp=F
 DIIS: error= 8.32D-06 at cycle   7 NSaved=   7.
 NSaved= 7 IEnMin= 7 EnMin= -76.2165790068728     IErMin= 7 ErrMin= 8.32D-06
 ErrMax= 8.32D-06  0.00D+00 EMaxC= 1.00D-01 BMatC= 2.10D-09 BMatP= 4.44D-08
 IDIUse=1 WtCom= 1.00D+00 WtEn= 0.00D+00
 Coeff-Com: -0.186D-03 0.342D-03 0.388D-03-0.294D-02-0.131D-01 0.119D+00
 Coeff-Com:  0.897D+00
 Coeff:     -0.186D-03 0.342D-03 0.388D-03-0.294D-02-0.131D-01 0.119D+00
 Coeff:      0.897D+00
 Gap=     0.429 Goal=   None    Shift=    0.000
 Gap=     0.034 Goal=   None    Shift=    0.000
 RMSDP=1.99D-06 MaxDP=1.45D-05 DE=-1.80D-08 OVMax= 2.75D-05

 Initial convergence to 1.0D-05 achieved.  Increase integral accuracy.
 Cycle   8  Pass 1  IDiag  1:
 E= -76.2165791273898     Delta-E=       -0.000000120517 Rises=F Damp=F
 DIIS: error= 2.06D-06 at cycle   1 NSaved=   1.
 NSaved= 1 IEnMin= 1 EnMin= -76.2165791273898     IErMin= 1 ErrMin= 2.06D-06
 ErrMax= 2.06D-06  0.00D+00 EMaxC= 1.00D-01 BMatC= 1.09D-10 BMatP= 1.09D-10
 IDIUse=1 WtCom= 1.00D+00 WtEn= 0.00D+00
 Coeff-Com:  0.100D+01
 Coeff:      0.100D+01
 Gap=     0.429 Goal=   None    Shift=    0.000
 Gap=     0.034 Goal=   None    Shift=    0.000
 RMSDP=1.99D-06 MaxDP=1.45D-05 DE=-1.21D-07 OVMax= 3.86D-06

 Cycle   9  Pass 1  IDiag  1:
 E= -76.2165791274218     Delta-E=       -0.000000000032 Rises=F Damp=F
 DIIS: error= 2.22D-07 at cycle   2 NSaved=   2.
 NSaved= 2 IEnMin= 2 EnMin= -76.2165791274218     IErMin= 2 ErrMin= 2.22D-07
 ErrMax= 2.22D-07  0.00D+00 EMaxC= 1.00D-01 BMatC= 2.10D-12 BMatP= 1.09D-10
 IDIUse=1 WtCom= 1.00D+00 WtEn= 0.00D+00
 Coeff-Com:  0.236D-01 0.976D+00
 Coeff:      0.236D-01 0.976D+00
 Gap=     0.429 Goal=   None    Shift=    0.000
 Gap=     0.034 Goal=   None    Shift=    0.000
 RMSDP=9.11D-08 MaxDP=6.64D-07 DE=-3.20D-11 OVMax= 1.25D-06

 Cycle  10  Pass 1  IDiag  1:
 E= -76.2165791274220     Delta-E=       -0.000000000000 Rises=F Damp=F
 DIIS: error= 2.02D-07 at cycle   3 NSaved=   3.
 NSaved= 3 IEnMin= 3 EnMin= -76.2165791274220     IErMin= 3 ErrMin= 2.02D-07
 ErrMax= 2.02D-07  0.00D+00 EMaxC= 1.00D-01 BMatC= 1.52D-12 BMatP= 2.10D-12
 IDIUse=1 WtCom= 1.00D+00 WtEn= 0.00D+00
 Coeff-Com:  0.184D-02 0.445D+00 0.554D+00
 Coeff:      0.184D-02 0.445D+00 0.554D+00
 Gap=     0.429 Goal=   None    Shift=    0.000
 Gap=     0.034 Goal=   None    Shift=    0.000
 RMSDP=5.46D-08 MaxDP=4.11D-07 DE=-2.56D-13 OVMax= 1.04D-06

 Cycle  11  Pass 1  IDiag  1:
 E= -76.2165791274224     Delta-E=       -0.000000000000 Rises=F Damp=F
 DIIS: error= 1.23D-07 at cycle   4 NSaved=   4.
 NSaved= 4 IEnMin= 4 EnMin= -76.2165791274224     IErMin= 4 ErrMin= 1.23D-07
 ErrMax= 1.23D-07  0.00D+00 EMaxC= 1.00D-01 BMatC= 7.66D-13 BMatP= 1.52D-12
 IDIUse=1 WtCom= 1.00D+00 WtEn= 0.00D+00
 Coeff-Com: -0.644D-02 0.123D+00 0.391D+00 0.493D+00
 Coeff:     -0.644D-02 0.123D+00 0.391D+00 0.493D+00
 Gap=     0.429 Goal=   None    Shift=    0.000
 Gap=     0.034 Goal=   None    Shift=    0.000
 RMSDP=1.77D-08 MaxDP=1.24D-07 DE=-3.98D-13 OVMax= 2.59D-07

 Cycle  12  Pass 1  IDiag  1:
 E= -76.2165791274225     Delta-E=       -0.000000000000 Rises=F Damp=F
 DIIS: error= 1.11D-08 at cycle   5 NSaved=   5.
 NSaved= 5 IEnMin= 5 EnMin= -76.2165791274225     IErMin= 5 ErrMin= 1.11D-08
 ErrMax= 1.11D-08  0.00D+00 EMaxC= 1.00D-01 BMatC= 3.87D-15 BMatP= 7.66D-13
 IDIUse=1 WtCom= 1.00D+00 WtEn= 0.00D+00
 Coeff-Com: -0.582D-03-0.109D-01 0.327D-01-0.766D-02 0.986D+00
 Coeff:     -0.582D-03-0.109D-01 0.327D-01-0.766D-02 0.986D+00
 Gap=     0.429 Goal=   None    Shift=    0.000
 Gap=     0.034 Goal=   None    Shift=    0.000
 RMSDP=3.36D-09 MaxDP=2.39D-08 DE=-1.14D-13 OVMax= 2.99D-08

 SCF Done:  E(UB-P86) =  -76.2165791274     A.U. after   12 cycles
            NFock= 12  Conv=0.34D-08     -V/T= 2.0061
 <Sx>= 0.0000 <Sy>= 0.0000 <Sz>= 1.0000 <S**2>= 2.0061 S= 1.0020
 <L.S>= 0.000000000000E+00
 KE= 7.575304178288D+01 PE=-1.923861339391D+02 EE= 3.426208852871D+01
 Annihilation of the first spin contaminant:
 S**2 before annihilation     2.0061,   after     2.0000
 Leave Link  502 at Wed Oct  7 14:10:44 2020, MaxMem=  2684354560 cpu:               9.8 elap:               1.1
 (Enter /udrive/faculty/rpeverati/g16/g16/l508.exe)
 QCSCF skips out because SCF is already converged.
 Leave Link  508 at Wed Oct  7 14:10:45 2020, MaxMem=  2684354560 cpu:               0.6 elap:               0.6
 (Enter /udrive/faculty/rpeverati/g16/g16/l601.exe)
 Copying SCF densities to generalized density rwf, IOpCl= 1 IROHF=0.

 **********************************************************************

            Population analysis using the SCF density.

 **********************************************************************

 Orbital symmetries:
 Alpha Orbitals:
       Occupied  (SG) (SG) (SG) (PI) (SG) (PI)
       Virtual   (SG) (SG) (SG) (PI) (PI) (SG) (?A) (PI) (PI) (?A)
                 (?A) (?A)
 Beta  Orbitals:
       Occupied  (SG) (SG) (SG) (PI)
       Virtual   (PI) (SG) (SG) (SG) (SG) (PI) (PI) (SG) (SG) (PI)
                 (PI) (DLTA) (DLTA) (SG)
 Unable to determine electronic state:  partially filled degenerate orbitals.
 Alpha  occ. eigenvalues --  -18.88093  -0.90547  -0.47572  -0.35859  -0.28321
 Alpha  occ. eigenvalues --   -0.28231
 Alpha virt. eigenvalues --    0.14676   0.57290   0.73689   0.74759   0.79622
 Alpha virt. eigenvalues --    0.87929   1.30186   1.60967   1.66002   1.66909
 Alpha virt. eigenvalues --    1.66957   2.08509
  Beta  occ. eigenvalues --  -18.84588  -0.81727  -0.42063  -0.24804
  Beta virt. eigenvalues --   -0.21371  -0.19291   0.18677   0.60294   0.80380
  Beta virt. eigenvalues --    0.81935   0.85342   0.93095   1.37011   1.69746
  Beta virt. eigenvalues --    1.71050   1.73366   1.74956   2.14464
          Condensed to atoms (all electrons):
               1          2          3
     1  H    0.497110   0.043628   0.247273
     2  O    0.043628   8.260736  -0.066267
     3  H    0.247273  -0.066267   0.792886
          Atomic-Atomic Spin Densities.
               1          2          3
     1  H   -0.087519  -0.037280   0.049702
     2  O   -0.037280   1.649170  -0.080859
     3  H    0.049702  -0.080859   0.575225
 Mulliken charges and spin densities:
               1          2
     1  H    0.211989  -0.075097
     2  O   -0.238097   1.531030
     3  H    0.026108   0.544067
 Sum of Mulliken charges =   0.00000   2.00000
 Mulliken charges and spin densities with hydrogens summed into heavy atoms:
               1          2
     2  O    0.000000   2.000000
 Electronic spatial extent (au):  <R**2>=             32.1571
 Charge=              0.0000 electrons
 Dipole moment (field-independent basis, Debye):
    X=              0.0000    Y=              0.0000    Z=             -1.0708  Tot=              1.0708
 Quadrupole moment (field-independent basis, Debye-Ang):
   XX=             -6.5604   YY=             -7.6925   ZZ=             -6.2044
   XY=              0.0000   XZ=              0.0000   YZ=             -0.0000
 Traceless Quadrupole moment (field-independent basis, Debye-Ang):
   XX=              0.2587   YY=             -0.8734   ZZ=              0.6147
   XY=              0.0000   XZ=              0.0000   YZ=             -0.0000
 Octapole moment (field-independent basis, Debye-Ang**2):
  XXX=              0.0000  YYY=              0.0000  ZZZ=              1.5662  XYY=              0.0000
  XXY=              0.0000  XXZ=              1.0775  XZZ=              0.0000  YZZ=              0.0000
  YYZ=              0.7148  XYZ=              0.0000
 Hexadecapole moment (field-independent basis, Debye-Ang**3):
 XXXX=             -4.6789 YYYY=             -5.9458 ZZZZ=            -29.5858 XXXY=              0.0000
 XXXZ=              0.0000 YYYX=              0.0000 YYYZ=             -0.0000 ZZZX=              0.0000
 ZZZY=             -0.0000 XXYY=             -1.7707 XXZZ=             -6.2301 YYZZ=             -6.5575
 XXYZ=             -0.0000 YYXZ=              0.0000 ZZXY=              0.0000
 N-N= 6.154424500118D+00 E-N=-1.923861337636D+02  KE= 7.575304178288D+01
                          Isotropic Fermi Contact Couplings
        Atom                 a.u.       MegaHertz       Gauss      10(-4) cm-1
     1  H(1)              -0.03369     -75.29786     -26.86815     -25.11666
     2  O(17)              0.16492     -49.98543     -17.83604     -16.67335
     3  H(1)               0.19662     439.42383     156.79735     146.57601
 --------------------------------------------------------
       Center         ----  Spin Dipole Couplings  ----
                      3XX-RR        3YY-RR        3ZZ-RR
 --------------------------------------------------------
     1   Atom       -0.162228     -0.198792      0.361020
     2   Atom        2.557011     -2.905053      0.348042
     3   Atom       -0.009678     -0.012235      0.021912
 --------------------------------------------------------
                        XY            XZ            YZ
 --------------------------------------------------------
     1   Atom        0.000000      0.000000      0.000000
     2   Atom        0.000000      0.000000      0.000000
     3   Atom        0.000000      0.000000      0.000000
 --------------------------------------------------------


 ---------------------------------------------------------------------------------
              Anisotropic Spin Dipole Couplings in Principal Axis System
 ---------------------------------------------------------------------------------

       Atom             a.u.   MegaHertz   Gauss  10(-4) cm-1        Axes

              Baa    -0.1988  -106.066   -37.847   -35.380  0.0000  1.0000  0.0000
     1 H(1)   Bbb    -0.1622   -86.557   -30.886   -28.872  1.0000  0.0000  0.0000
              Bcc     0.3610   192.623    68.733    64.252  0.0000  0.0000  1.0000
 
              Baa    -2.9051   210.208    75.007    70.118  0.0000  1.0000  0.0000
     2 O(17)  Bbb     0.3480   -25.184    -8.986    -8.401  0.0000  0.0000  1.0000
              Bcc     2.5570  -185.024   -66.021   -61.717  1.0000  0.0000  0.0000
 
              Baa    -0.0122    -6.528    -2.329    -2.177  0.0000  1.0000  0.0000
     3 H(1)   Bbb    -0.0097    -5.164    -1.843    -1.722  1.0000  0.0000  0.0000
              Bcc     0.0219    11.691     4.172     3.900  0.0000  0.0000  1.0000
 

 ---------------------------------------------------------------------------------

 No NMR shielding tensors so no spin-rotation constants.
 Leave Link  601 at Wed Oct  7 14:10:46 2020, MaxMem=  2684354560 cpu:               6.4 elap:               1.0
 (Enter /udrive/faculty/rpeverati/g16/g16/l701.exe)
 ... and contract with generalized density number  0.
 Compute integral first derivatives.
 R6Disp: Adding Grimme-D3(BJ) dispersion energy 1st derivatives to the gradient.
 Leave Link  701 at Wed Oct  7 14:10:47 2020, MaxMem=  2684354560 cpu:               4.3 elap:               0.8
 (Enter /udrive/faculty/rpeverati/g16/g16/l702.exe)
 L702 exits ... SP integral derivatives will be done elsewhere.
 Leave Link  702 at Wed Oct  7 14:10:48 2020, MaxMem=  2684354560 cpu:               1.8 elap:               0.6
 (Enter /udrive/faculty/rpeverati/g16/g16/l703.exe)
 Integral derivatives from FoFJK, PRISM(SPDF).
 Compute integral first derivatives, UseDBF=F ICtDFT=           0.
 Calling FoFJK, ICntrl=      2527 FMM=F ISym2X=1 I1Cent= 0 IOpClX= 0 NMat=1 NMatS=1 NMatT=0.
 FoFJK:  IHMeth= 1 ICntrl=    2527 DoSepK=F KAlg= 0 I1Cent=           0 FoldK=F
 IRaf=         0 NMat=       1 IRICut=       1 DoRegI=T DoRafI=F ISym2E= 1 IDoP0=0 IntGTp=1.
 FoFCou: FMM=F IPFlag=           0 FMFlag=      100000 FMFlg1=         800
         NFxFlg=           0 DoJE=F BraDBF=F KetDBF=F FulRan=T
         wScrn=  0.000000 ICntrl=      2527 IOpCl=  0 I1Cent=           0 NGrid=           0
         NMat0=    1 NMatS0=      1 NMatT0=    0 NMatD0=    1 NMtDS0=    0 NMtDT0=    0
 Petite list used in FoFCou.
 Leave Link  703 at Wed Oct  7 14:10:49 2020, MaxMem=  2684354560 cpu:               4.8 elap:               0.9
 (Enter /udrive/faculty/rpeverati/g16/g16/l716.exe)
 Dipole        = 0.00000000D+00 1.65902125D-32-4.21289226D-01
 ***** Axes restored to original set *****
 -------------------------------------------------------------------
 Center     Atomic                   Forces (Hartrees/Bohr)
 Number     Number              X              Y              Z
 -------------------------------------------------------------------
      1        1          -0.000000000   -0.000000000   -0.003097731
      2        8           0.000000000    0.000000000    0.008209483
      3        1          -0.000000000   -0.000000000   -0.005111752
 -------------------------------------------------------------------
 Cartesian Forces:  Max     0.008209483 RMS     0.003384960
 Leave Link  716 at Wed Oct  7 14:10:50 2020, MaxMem=  2684354560 cpu:               2.1 elap:               0.7
 (Enter /udrive/faculty/rpeverati/g16/g16/l103.exe)

 GradGradGradGradGradGradGradGradGradGradGradGradGradGradGradGradGradGrad
 Berny optimization.
 Optmz: redundant internal coordinate code flag= 1
 FormGI is forming the generalized inverse of G from B-inverse, IUseBI=4.
 Internal  Forces:  Max     0.008209483 RMS     0.004835432
 Numerically estimating second derivatives.
 Iteration  1 RMS(Cart)=  0.00204124 RMS(Int)=  0.00000000
 Iteration  2 RMS(Cart)=  0.00000000 RMS(Int)=  0.00000000
 Largest change from initial coordinates is atom    2       0.001 Angstoms.
 GradGradGradGradGradGradGradGradGradGradGradGradGradGradGradGradGradGrad

 Leave Link  103 at Wed Oct  7 14:10:51 2020, MaxMem=  2684354560 cpu:               2.4 elap:               0.7
 (Enter /udrive/faculty/rpeverati/g16/g16/l202.exe)
                          Input orientation:                          
 ---------------------------------------------------------------------
 Center     Atomic      Atomic             Coordinates (Angstroms)
 Number     Number       Type             X           Y           Z
 ---------------------------------------------------------------------
      1          1           0        0.000000    0.000000   -0.861171
      2          8           0        0.000000    0.000000    0.330788
      3          1           0        0.000000    0.000000   -1.772790
 ---------------------------------------------------------------------
                    Distance matrix (angstroms):
                    1          2          3
     1  H    0.000000
     2  O    1.191958   0.000000
     3  H    0.911619   2.103577   0.000000
 Stoichiometry    H2O(3)
 Framework group  C*V[C*(HHO)]
 Deg. of freedom     2
 Full point group                 C*V     NOp   4
 RotChk:  IX=0 Diff= 0.00D+00
 Largest Abelian subgroup         C2V     NOp   4
 Largest concise Abelian subgroup C1      NOp   1
                         Standard orientation:                         
 ---------------------------------------------------------------------
 Center     Atomic      Atomic             Coordinates (Angstroms)
 Number     Number       Type             X           Y           Z
 ---------------------------------------------------------------------
      1          1           0        0.000000    0.000000   -0.862405
      2          8           0        0.000000    0.000000    0.329554
      3          1           0        0.000000    0.000000   -1.774024
 ---------------------------------------------------------------------
 Rotational constants (GHZ):           0.0000000          95.7327345          95.7327345
 Leave Link  202 at Wed Oct  7 14:10:52 2020, MaxMem=  2684354560 cpu:               1.2 elap:               0.5
 (Enter /udrive/faculty/rpeverati/g16/g16/l301.exe)
 Standard basis: 6-31G(d) (5D, 7F)
 Ernie: Thresh=  0.10000D-02 Tol=  0.10000D-05 Strict=F.
 There are    12 symmetry adapted cartesian basis functions of A1  symmetry.
 There are     1 symmetry adapted cartesian basis functions of A2  symmetry.
 There are     3 symmetry adapted cartesian basis functions of B1  symmetry.
 There are     3 symmetry adapted cartesian basis functions of B2  symmetry.
 There are    11 symmetry adapted basis functions of A1  symmetry.
 There are     1 symmetry adapted basis functions of A2  symmetry.
 There are     3 symmetry adapted basis functions of B1  symmetry.
 There are     3 symmetry adapted basis functions of B2  symmetry.
    18 basis functions,    36 primitive gaussians,    19 cartesian basis functions
     6 alpha electrons        4 beta electrons
       nuclear repulsion energy         6.1446144508 Hartrees.
 IExCor=  404 DFT=T Ex=B Corr=P86 ExCW=0 ScaHFX=  0.000000
 ScaDFX=  1.000000  1.000000  1.000000  1.000000 ScalE2=  1.000000  1.000000
 IRadAn=      5 IRanWt=     -1 IRanGd=            0 ICorTp=0 IEmpDi=141
 NAtoms=    3 NActive=    3 NUniq=    3 SFac= 1.00D+00 NAtFMM=   60 NAOKFM=F Big=F
 Integral buffers will be    131072 words long.
 Raffenetti 2 integral format.
 Two-electron integral symmetry is turned on.
 R6Disp:  Grimme-D3(BJ) Dispersion energy=       -0.0006263294 Hartrees.
 Nuclear repulsion after empirical dispersion term =        6.1439881214 Hartrees.
 Leave Link  301 at Wed Oct  7 14:10:53 2020, MaxMem=  2684354560 cpu:               2.5 elap:               0.7
 (Enter /udrive/faculty/rpeverati/g16/g16/l302.exe)
 NPDir=0 NMtPBC=     1 NCelOv=     1 NCel=       1 NClECP=     1 NCelD=      1
         NCelK=      1 NCelE2=     1 NClLst=     1 CellRange=     0.0.
 One-electron integrals computed using PRISM.
 One-electron integral symmetry used in STVInt
 NBasis=    18 RedAO= T EigKep=  3.92D-02  NBF=    11     1     3     3
 NBsUse=    18 1.00D-06 EigRej= -1.00D+00 NBFU=    11     1     3     3
 Precomputing XC quadrature grid using
 IXCGrd= 4 IRadAn=           5 IRanWt=          -1 IRanGd=           0 AccXCQ= 0.00D+00.
 Generated NRdTot=       0 NPtTot=           0 NUsed=           0 NTot=          32
 NSgBfM=    19    19    19    19    19 MxSgAt=     3 MxSgA2=     3.
 Leave Link  302 at Wed Oct  7 14:10:54 2020, MaxMem=  2684354560 cpu:               3.9 elap:               0.9
 (Enter /udrive/faculty/rpeverati/g16/g16/l303.exe)
 DipDrv:  MaxL=1.
 Leave Link  303 at Wed Oct  7 14:10:55 2020, MaxMem=  2684354560 cpu:               1.9 elap:               0.7
 (Enter /udrive/faculty/rpeverati/g16/g16/l401.exe)
 Initial guess from the checkpoint file:  "MN_89_RKT14_BH76_BP86DBJ_631Gs.chk"
 SCF N**3 symmetry information disabled.
 B after Tr=     0.000000    0.000000   -0.000000
         Rot=    1.000000    0.000000    0.000000    0.000000 Ang=   0.00 deg.
 Guess basis will be translated and rotated to current coordinates.
 JPrj=2 DoOrth=T DoCkMO=T.
 Initial guess orbital symmetries:
 Alpha Orbitals:
       Occupied  (SG) (SG) (SG) (PI) (SG) (PI)
       Virtual   (SG) (SG) (SG) (PI) (PI) (SG) (?A) (PI) (PI) (?A)
                 (?A) (?A)
 Beta  Orbitals:
       Occupied  (SG) (SG) (SG) (PI)
       Virtual   (PI) (SG) (SG) (SG) (SG) (PI) (PI) (SG) (SG) (PI)
                 (PI) (DLTA) (DLTA) (SG)
 Initial guess <Sx>= 0.0000 <Sy>= 0.0000 <Sz>= 1.0000 <S**2>= 2.0061 S= 1.0020
 Generating alternative initial guess.
 ExpMin= 1.61D-01 ExpMax= 5.48D+03 ExpMxC= 8.25D+02 IAcc=2 IRadAn=         4 AccDes= 0.00D+00
 Harris functional with IExCor=  404 and IRadAn=       4 diagonalized for initial guess.
 HarFok:  IExCor=  404 AccDes= 0.00D+00 IRadAn=         4 IDoV= 1 UseB2=F ITyADJ=14
 ICtDFT=  3500011 ScaDFX=  1.000000  1.000000  1.000000  1.000000
 FoFCou: FMM=F IPFlag=           0 FMFlag=      100000 FMFlg1=           0
         NFxFlg=           0 DoJE=T BraDBF=F KetDBF=T FulRan=T
         wScrn=  0.000000 ICntrl=       500 IOpCl=  0 I1Cent=   200000004 NGrid=           0
         NMat0=    1 NMatS0=      1 NMatT0=    0 NMatD0=    1 NMtDS0=    0 NMtDT0=    0
 Petite list used in FoFCou.
 Harris En= -76.1586007927768    
 Leave Link  401 at Wed Oct  7 14:10:56 2020, MaxMem=  2684354560 cpu:               7.3 elap:               1.1
 (Enter /udrive/faculty/rpeverati/g16/g16/l502.exe)
 Keep J ints in memory in symmetry-blocked form, NReq=10355880.
 FoFCou: FMM=F IPFlag=           0 FMFlag=           0 FMFlg1=           0
         NFxFlg=           0 DoJE=F BraDBF=F KetDBF=F FulRan=T
         wScrn=  0.000000 ICntrl=       600 IOpCl=  0 I1Cent=           0 NGrid=           0
         NMat0=    1 NMatS0=    171 NMatT0=    0 NMatD0=    1 NMtDS0=    0 NMtDT0=    0
 Petite list used in FoFCou.
 UHF open shell SCF:
 Using DIIS extrapolation, IDIIS=  1040.
 NGot=  2684354560 LenX=  2684347216 LenY=  2684346334
 Requested convergence on RMS density matrix=1.00D-08 within 120 cycles.
 Requested convergence on MAX density matrix=1.00D-06.
 Requested convergence on             energy=1.00D-06.
 No special actions if energy rises.
 Integral accuracy reduced to 1.0D-05 until final iterations.

 Cycle   1  Pass 0  IDiag  1:
 E= -76.2166171750775    
 DIIS: error= 2.47D-04 at cycle   1 NSaved=   1.
 NSaved= 1 IEnMin= 1 EnMin= -76.2166171750775     IErMin= 1 ErrMin= 2.47D-04
 ErrMax= 2.47D-04  0.00D+00 EMaxC= 1.00D-01 BMatC= 3.63D-06 BMatP= 3.63D-06
 IDIUse=3 WtCom= 9.98D-01 WtEn= 2.47D-03
 Coeff-Com:  0.100D+01
 Coeff-En:   0.100D+01
 Coeff:      0.100D+01
 Gap=     0.428 Goal=   None    Shift=    0.000
 Gap=     0.034 Goal=   None    Shift=    0.000
 RMSDP=9.71D-05 MaxDP=8.97D-04              OVMax= 2.04D-03

 Cycle   2  Pass 0  IDiag  1:
 E= -76.2166186088895     Delta-E=       -0.000001433812 Rises=F Damp=F
 DIIS: error= 2.46D-04 at cycle   2 NSaved=   2.
 NSaved= 2 IEnMin= 2 EnMin= -76.2166186088895     IErMin= 2 ErrMin= 2.46D-04
 ErrMax= 2.46D-04  0.00D+00 EMaxC= 1.00D-01 BMatC= 2.00D-06 BMatP= 3.63D-06
 IDIUse=3 WtCom= 9.98D-01 WtEn= 2.46D-03
 Coeff-Com:  0.371D+00 0.629D+00
 Coeff-En:   0.000D+00 0.100D+01
 Coeff:      0.370D+00 0.630D+00
 Gap=     0.428 Goal=   None    Shift=    0.000
 Gap=     0.034 Goal=   None    Shift=    0.000
 RMSDP=6.73D-05 MaxDP=4.35D-04 DE=-1.43D-06 OVMax= 9.73D-04

 Cycle   3  Pass 0  IDiag  1:
 E= -76.2166187871593     Delta-E=       -0.000000178270 Rises=F Damp=F
 DIIS: error= 1.50D-04 at cycle   3 NSaved=   3.
 NSaved= 3 IEnMin= 3 EnMin= -76.2166187871593     IErMin= 3 ErrMin= 1.50D-04
 ErrMax= 1.50D-04  0.00D+00 EMaxC= 1.00D-01 BMatC= 1.33D-06 BMatP= 2.00D-06
 IDIUse=3 WtCom= 9.98D-01 WtEn= 1.50D-03
 Coeff-Com:  0.667D-02 0.446D+00 0.547D+00
 Coeff-En:   0.000D+00 0.418D+00 0.582D+00
 Coeff:      0.666D-02 0.446D+00 0.547D+00
 Gap=     0.428 Goal=   None    Shift=    0.000
 Gap=     0.034 Goal=   None    Shift=    0.000
 RMSDP=2.66D-05 MaxDP=2.50D-04 DE=-1.78D-07 OVMax= 5.75D-04

 Cycle   4  Pass 0  IDiag  1:
 E= -76.2166191368870     Delta-E=       -0.000000349728 Rises=F Damp=F
 DIIS: error= 1.25D-05 at cycle   4 NSaved=   4.
 NSaved= 4 IEnMin= 4 EnMin= -76.2166191368870     IErMin= 4 ErrMin= 1.25D-05
 ErrMax= 1.25D-05  0.00D+00 EMaxC= 1.00D-01 BMatC= 1.20D-08 BMatP= 1.33D-06
 IDIUse=1 WtCom= 1.00D+00 WtEn= 0.00D+00
 Coeff-Com: -0.145D-01 0.783D-01 0.147D+00 0.789D+00
 Coeff:     -0.145D-01 0.783D-01 0.147D+00 0.789D+00
 Gap=     0.428 Goal=   None    Shift=    0.000
 Gap=     0.034 Goal=   None    Shift=    0.000
 RMSDP=2.63D-06 MaxDP=1.95D-05 DE=-3.50D-07 OVMax= 2.50D-05

 Initial convergence to 1.0D-05 achieved.  Increase integral accuracy.
 Cycle   5  Pass 1  IDiag  1:
 E= -76.2166192175124     Delta-E=       -0.000000080625 Rises=F Damp=F
 DIIS: error= 5.32D-06 at cycle   1 NSaved=   1.
 NSaved= 1 IEnMin= 1 EnMin= -76.2166192175124     IErMin= 1 ErrMin= 5.32D-06
 ErrMax= 5.32D-06  0.00D+00 EMaxC= 1.00D-01 BMatC= 7.40D-10 BMatP= 7.40D-10
 IDIUse=1 WtCom= 1.00D+00 WtEn= 0.00D+00
 Coeff-Com:  0.100D+01
 Coeff:      0.100D+01
 Gap=     0.428 Goal=   None    Shift=    0.000
 Gap=     0.034 Goal=   None    Shift=    0.000
 RMSDP=2.63D-06 MaxDP=1.95D-05 DE=-8.06D-08 OVMax= 1.87D-05

 Cycle   6  Pass 1  IDiag  1:
 E= -76.2166192175044     Delta-E=        0.000000000008 Rises=F Damp=F
 DIIS: error= 4.50D-06 at cycle   2 NSaved=   2.
 NSaved= 2 IEnMin= 1 EnMin= -76.2166192175124     IErMin= 2 ErrMin= 4.50D-06
 ErrMax= 4.50D-06  0.00D+00 EMaxC= 1.00D-01 BMatC= 9.85D-10 BMatP= 7.40D-10
 IDIUse=1 WtCom= 1.00D+00 WtEn= 0.00D+00
 Coeff-Com:  0.541D+00 0.459D+00
 Coeff:      0.541D+00 0.459D+00
 Gap=     0.428 Goal=   None    Shift=    0.000
 Gap=     0.034 Goal=   None    Shift=    0.000
 RMSDP=9.89D-07 MaxDP=7.30D-06 DE= 8.00D-12 OVMax= 1.75D-05

 Cycle   7  Pass 1  IDiag  1:
 E= -76.2166192177360     Delta-E=       -0.000000000232 Rises=F Damp=F
 DIIS: error= 1.46D-06 at cycle   3 NSaved=   3.
 NSaved= 3 IEnMin= 3 EnMin= -76.2166192177360     IErMin= 3 ErrMin= 1.46D-06
 ErrMax= 1.46D-06  0.00D+00 EMaxC= 1.00D-01 BMatC= 1.34D-10 BMatP= 7.40D-10
 IDIUse=1 WtCom= 1.00D+00 WtEn= 0.00D+00
 Coeff-Com:  0.134D+00 0.281D+00 0.585D+00
 Coeff:      0.134D+00 0.281D+00 0.585D+00
 Gap=     0.428 Goal=   None    Shift=    0.000
 Gap=     0.034 Goal=   None    Shift=    0.000
 RMSDP=2.64D-07 MaxDP=1.80D-06 DE=-2.32D-10 OVMax= 3.65D-06

 Cycle   8  Pass 1  IDiag  1:
 E= -76.2166192177675     Delta-E=       -0.000000000032 Rises=F Damp=F
 DIIS: error= 2.91D-07 at cycle   4 NSaved=   4.
 NSaved= 4 IEnMin= 4 EnMin= -76.2166192177675     IErMin= 4 ErrMin= 2.91D-07
 ErrMax= 2.91D-07  0.00D+00 EMaxC= 1.00D-01 BMatC= 2.51D-12 BMatP= 1.34D-10
 IDIUse=1 WtCom= 1.00D+00 WtEn= 0.00D+00
 Coeff-Com: -0.498D-01 0.170D-01 0.669D-01 0.966D+00
 Coeff:     -0.498D-01 0.170D-01 0.669D-01 0.966D+00
 Gap=     0.428 Goal=   None    Shift=    0.000
 Gap=     0.034 Goal=   None    Shift=    0.000
 RMSDP=8.72D-08 MaxDP=6.09D-07 DE=-3.15D-11 OVMax= 7.74D-07

 Cycle   9  Pass 1  IDiag  1:
 E= -76.2166192177683     Delta-E=       -0.000000000001 Rises=F Damp=F
 DIIS: error= 4.61D-08 at cycle   5 NSaved=   5.
 NSaved= 5 IEnMin= 5 EnMin= -76.2166192177683     IErMin= 5 ErrMin= 4.61D-08
 ErrMax= 4.61D-08  0.00D+00 EMaxC= 1.00D-01 BMatC= 8.60D-14 BMatP= 2.51D-12
 IDIUse=1 WtCom= 1.00D+00 WtEn= 0.00D+00
 Coeff-Com: -0.246D-02-0.373D-02-0.290D-01-0.575D-02 0.104D+01
 Coeff:     -0.246D-02-0.373D-02-0.290D-01-0.575D-02 0.104D+01
 Gap=     0.428 Goal=   None    Shift=    0.000
 Gap=     0.034 Goal=   None    Shift=    0.000
 RMSDP=1.60D-08 MaxDP=1.17D-07 DE=-8.24D-13 OVMax= 1.57D-07

 Cycle  10  Pass 1  IDiag  1:
 E= -76.2166192177684     Delta-E=       -0.000000000000 Rises=F Damp=F
 DIIS: error= 1.28D-08 at cycle   6 NSaved=   6.
 NSaved= 6 IEnMin= 6 EnMin= -76.2166192177684     IErMin= 6 ErrMin= 1.28D-08
 ErrMax= 1.28D-08  0.00D+00 EMaxC= 1.00D-01 BMatC= 6.88D-15 BMatP= 8.60D-14
 IDIUse=1 WtCom= 1.00D+00 WtEn= 0.00D+00
 Coeff-Com:  0.573D-03-0.166D-02-0.616D-02-0.207D-01 0.298D+00 0.730D+00
 Coeff:      0.573D-03-0.166D-02-0.616D-02-0.207D-01 0.298D+00 0.730D+00
 Gap=     0.428 Goal=   None    Shift=    0.000
 Gap=     0.034 Goal=   None    Shift=    0.000
 RMSDP=3.39D-09 MaxDP=2.26D-08 DE=-5.68D-14 OVMax= 6.11D-08

 SCF Done:  E(UB-P86) =  -76.2166192178     A.U. after   10 cycles
            NFock= 10  Conv=0.34D-08     -V/T= 2.0061
 <Sx>= 0.0000 <Sy>= 0.0000 <Sz>= 1.0000 <S**2>= 2.0061 S= 1.0020
 <L.S>= 0.000000000000E+00
 KE= 7.575110625694D+01 PE=-1.923646453681D+02 EE= 3.425293177204D+01
 Annihilation of the first spin contaminant:
 S**2 before annihilation     2.0061,   after     2.0000
 Leave Link  502 at Wed Oct  7 14:10:58 2020, MaxMem=  2684354560 cpu:              10.7 elap:               1.4
 (Enter /udrive/faculty/rpeverati/g16/g16/l508.exe)
 QCSCF skips out because SCF is already converged.
 Leave Link  508 at Wed Oct  7 14:10:58 2020, MaxMem=  2684354560 cpu:               0.3 elap:               0.5
 (Enter /udrive/faculty/rpeverati/g16/g16/l701.exe)
 ... and contract with generalized density number  0.
 Compute integral first derivatives.
 R6Disp: Adding Grimme-D3(BJ) dispersion energy 1st derivatives to the gradient.
 Leave Link  701 at Wed Oct  7 14:10:59 2020, MaxMem=  2684354560 cpu:               3.7 elap:               0.7
 (Enter /udrive/faculty/rpeverati/g16/g16/l702.exe)
 L702 exits ... SP integral derivatives will be done elsewhere.
 Leave Link  702 at Wed Oct  7 14:11:00 2020, MaxMem=  2684354560 cpu:               1.4 elap:               0.6
 (Enter /udrive/faculty/rpeverati/g16/g16/l703.exe)
 Integral derivatives from FoFJK, PRISM(SPDF).
 Compute integral first derivatives, UseDBF=F ICtDFT=           0.
 Calling FoFJK, ICntrl=      2527 FMM=F ISym2X=1 I1Cent= 0 IOpClX= 0 NMat=1 NMatS=1 NMatT=0.
 FoFJK:  IHMeth= 1 ICntrl=    2527 DoSepK=F KAlg= 0 I1Cent=           0 FoldK=F
 IRaf=         0 NMat=       1 IRICut=       1 DoRegI=T DoRafI=F ISym2E= 1 IDoP0=0 IntGTp=1.
 FoFCou: FMM=F IPFlag=           0 FMFlag=      100000 FMFlg1=         800
         NFxFlg=           0 DoJE=F BraDBF=F KetDBF=F FulRan=T
         wScrn=  0.000000 ICntrl=      2527 IOpCl=  0 I1Cent=           0 NGrid=           0
         NMat0=    1 NMatS0=      1 NMatT0=    0 NMatD0=    1 NMtDS0=    0 NMtDT0=    0
 Petite list used in FoFCou.
 Leave Link  703 at Wed Oct  7 14:11:01 2020, MaxMem=  2684354560 cpu:               5.0 elap:               0.8
 (Enter /udrive/faculty/rpeverati/g16/g16/l716.exe)
 Dipole        = 0.00000000D+00 1.31931788D-32-4.20868108D-01
 ***** Axes restored to original set *****
 -------------------------------------------------------------------
 Center     Atomic                   Forces (Hartrees/Bohr)
 Number     Number              X              Y              Z
 -------------------------------------------------------------------
      1        1          -0.000000000   -0.000000000   -0.003179939
      2        8           0.000000000    0.000000000    0.007800713
      3        1          -0.000000000   -0.000000000   -0.004620775
 -------------------------------------------------------------------
 Cartesian Forces:  Max     0.007800713 RMS     0.003202685
 Leave Link  716 at Wed Oct  7 14:11:02 2020, MaxMem=  2684354560 cpu:               1.3 elap:               0.5
 (Enter /udrive/faculty/rpeverati/g16/g16/l103.exe)

 GradGradGradGradGradGradGradGradGradGradGradGradGradGradGradGradGradGrad
 Berny optimization.
 Optmz: redundant internal coordinate code flag= 1
 Red2BG:  D1=  1.00D+00 OD1=  3.33D-16 B2RMS=  0.00D+00 IAprox=1
 Red2BG is reusing G-inverse.
 Internal  Forces:  Max     0.007800713 RMS     0.004533285
 Numerically estimating second derivatives.
 Iteration  1 RMS(Cart)=  0.00204124 RMS(Int)=  0.00000000
 Iteration  2 RMS(Cart)=  0.00000000 RMS(Int)=  0.00000000
 Largest change from initial coordinates is atom    3       0.003 Angstoms.
 GradGradGradGradGradGradGradGradGradGradGradGradGradGradGradGradGradGrad

 Leave Link  103 at Wed Oct  7 14:11:03 2020, MaxMem=  2684354560 cpu:               1.8 elap:               0.7
 (Enter /udrive/faculty/rpeverati/g16/g16/l202.exe)
                          Input orientation:                          
 ---------------------------------------------------------------------
 Center     Atomic      Atomic             Coordinates (Angstroms)
 Number     Number       Type             X           Y           Z
 ---------------------------------------------------------------------
      1          1           0        0.000000    0.000000   -0.859407
      2          8           0        0.000000    0.000000    0.329906
      3          1           0        0.000000    0.000000   -1.773671
 ---------------------------------------------------------------------
                    Distance matrix (angstroms):
                    1          2          3
     1  H    0.000000
     2  O    1.189313   0.000000
     3  H    0.914265   2.103577   0.000000
 Stoichiometry    H2O(3)
 Framework group  C*V[C*(HHO)]
 Deg. of freedom     2
 Full point group                 C*V     NOp   4
 RotChk:  IX=0 Diff= 0.00D+00
 Largest Abelian subgroup         C2V     NOp   4
 Largest concise Abelian subgroup C1      NOp   1
                         Standard orientation:                         
 ---------------------------------------------------------------------
 Center     Atomic      Atomic             Coordinates (Angstroms)
 Number     Number       Type             X           Y           Z
 ---------------------------------------------------------------------
      1          1           0        0.000000    0.000000   -0.860024
      2          8           0        0.000000    0.000000    0.329289
      3          1           0        0.000000    0.000000   -1.774288
 ---------------------------------------------------------------------
 Rotational constants (GHZ):           0.0000000          95.8301569          95.8301569
 Leave Link  202 at Wed Oct  7 14:11:04 2020, MaxMem=  2684354560 cpu:               1.4 elap:               0.4
 (Enter /udrive/faculty/rpeverati/g16/g16/l301.exe)
 Standard basis: 6-31G(d) (5D, 7F)
 Ernie: Thresh=  0.10000D-02 Tol=  0.10000D-05 Strict=F.
 There are    12 symmetry adapted cartesian basis functions of A1  symmetry.
 There are     1 symmetry adapted cartesian basis functions of A2  symmetry.
 There are     3 symmetry adapted cartesian basis functions of B1  symmetry.
 There are     3 symmetry adapted cartesian basis functions of B2  symmetry.
 There are    11 symmetry adapted basis functions of A1  symmetry.
 There are     1 symmetry adapted basis functions of A2  symmetry.
 There are     3 symmetry adapted basis functions of B1  symmetry.
 There are     3 symmetry adapted basis functions of B2  symmetry.
    18 basis functions,    36 primitive gaussians,    19 cartesian basis functions
     6 alpha electrons        4 beta electrons
       nuclear repulsion energy         6.1508359570 Hartrees.
 IExCor=  404 DFT=T Ex=B Corr=P86 ExCW=0 ScaHFX=  0.000000
 ScaDFX=  1.000000  1.000000  1.000000  1.000000 ScalE2=  1.000000  1.000000
 IRadAn=      5 IRanWt=     -1 IRanGd=            0 ICorTp=0 IEmpDi=141
 NAtoms=    3 NActive=    3 NUniq=    3 SFac= 1.00D+00 NAtFMM=   60 NAOKFM=F Big=F
 Integral buffers will be    131072 words long.
 Raffenetti 2 integral format.
 Two-electron integral symmetry is turned on.
 R6Disp:  Grimme-D3(BJ) Dispersion energy=       -0.0006275339 Hartrees.
 Nuclear repulsion after empirical dispersion term =        6.1502084231 Hartrees.
 Leave Link  301 at Wed Oct  7 14:11:05 2020, MaxMem=  2684354560 cpu:               2.6 elap:               0.7
 (Enter /udrive/faculty/rpeverati/g16/g16/l302.exe)
 NPDir=0 NMtPBC=     1 NCelOv=     1 NCel=       1 NClECP=     1 NCelD=      1
         NCelK=      1 NCelE2=     1 NClLst=     1 CellRange=     0.0.
 One-electron integrals computed using PRISM.
 One-electron integral symmetry used in STVInt
 NBasis=    18 RedAO= T EigKep=  3.92D-02  NBF=    11     1     3     3
 NBsUse=    18 1.00D-06 EigRej= -1.00D+00 NBFU=    11     1     3     3
 Precomputing XC quadrature grid using
 IXCGrd= 4 IRadAn=           5 IRanWt=          -1 IRanGd=           0 AccXCQ= 0.00D+00.
 Generated NRdTot=       0 NPtTot=           0 NUsed=           0 NTot=          32
 NSgBfM=    19    19    19    19    19 MxSgAt=     3 MxSgA2=     3.
 Leave Link  302 at Wed Oct  7 14:11:06 2020, MaxMem=  2684354560 cpu:               3.2 elap:               0.7
 (Enter /udrive/faculty/rpeverati/g16/g16/l303.exe)
 DipDrv:  MaxL=1.
 Leave Link  303 at Wed Oct  7 14:11:06 2020, MaxMem=  2684354560 cpu:               1.1 elap:               0.6
 (Enter /udrive/faculty/rpeverati/g16/g16/l401.exe)
 Initial guess from the checkpoint file:  "MN_89_RKT14_BH76_BP86DBJ_631Gs.chk"
 SCF N**3 symmetry information disabled.
 B after Tr=     0.000000    0.000000   -0.000000
         Rot=    1.000000    0.000000    0.000000    0.000000 Ang=   0.00 deg.
 Guess basis will be translated and rotated to current coordinates.
 JPrj=2 DoOrth=T DoCkMO=T.
 Initial guess orbital symmetries:
 Alpha Orbitals:
       Occupied  (SG) (SG) (SG) (PI) (SG) (PI)
       Virtual   (SG) (SG) (SG) (PI) (PI) (SG) (?A) (PI) (PI) (?A)
                 (?A) (?A)
 Beta  Orbitals:
       Occupied  (SG) (SG) (SG) (PI)
       Virtual   (PI) (SG) (SG) (SG) (SG) (PI) (PI) (SG) (SG) (PI)
                 (PI) (DLTA) (DLTA) (SG)
 Initial guess <Sx>= 0.0000 <Sy>= 0.0000 <Sz>= 1.0000 <S**2>= 2.0061 S= 1.0020
 Generating alternative initial guess.
 ExpMin= 1.61D-01 ExpMax= 5.48D+03 ExpMxC= 8.25D+02 IAcc=2 IRadAn=         4 AccDes= 0.00D+00
 Harris functional with IExCor=  404 and IRadAn=       4 diagonalized for initial guess.
 HarFok:  IExCor=  404 AccDes= 0.00D+00 IRadAn=         4 IDoV= 1 UseB2=F ITyADJ=14
 ICtDFT=  3500011 ScaDFX=  1.000000  1.000000  1.000000  1.000000
 FoFCou: FMM=F IPFlag=           0 FMFlag=      100000 FMFlg1=           0
         NFxFlg=           0 DoJE=T BraDBF=F KetDBF=T FulRan=T
         wScrn=  0.000000 ICntrl=       500 IOpCl=  0 I1Cent=   200000004 NGrid=           0
         NMat0=    1 NMatS0=      1 NMatT0=    0 NMatD0=    1 NMtDS0=    0 NMtDT0=    0
 Petite list used in FoFCou.
 Harris En= -76.1586506403874    
 Leave Link  401 at Wed Oct  7 14:11:08 2020, MaxMem=  2684354560 cpu:               6.7 elap:               1.0
 (Enter /udrive/faculty/rpeverati/g16/g16/l502.exe)
 Keep J ints in memory in symmetry-blocked form, NReq=10355880.
 FoFCou: FMM=F IPFlag=           0 FMFlag=           0 FMFlg1=           0
         NFxFlg=           0 DoJE=F BraDBF=F KetDBF=F FulRan=T
         wScrn=  0.000000 ICntrl=       600 IOpCl=  0 I1Cent=           0 NGrid=           0
         NMat0=    1 NMatS0=    171 NMatT0=    0 NMatD0=    1 NMtDS0=    0 NMtDT0=    0
 Petite list used in FoFCou.
 UHF open shell SCF:
 Using DIIS extrapolation, IDIIS=  1040.
 NGot=  2684354560 LenX=  2684347216 LenY=  2684346334
 Requested convergence on RMS density matrix=1.00D-08 within 120 cycles.
 Requested convergence on MAX density matrix=1.00D-06.
 Requested convergence on             energy=1.00D-06.
 No special actions if energy rises.
 Integral accuracy reduced to 1.0D-05 until final iterations.

 Cycle   1  Pass 0  IDiag  1:
 E= -76.2165989787830    
 DIIS: error= 3.94D-04 at cycle   1 NSaved=   1.
 NSaved= 1 IEnMin= 1 EnMin= -76.2165989787830     IErMin= 1 ErrMin= 3.94D-04
 ErrMax= 3.94D-04  0.00D+00 EMaxC= 1.00D-01 BMatC= 6.05D-06 BMatP= 6.05D-06
 IDIUse=3 WtCom= 9.96D-01 WtEn= 3.94D-03
 Coeff-Com:  0.100D+01
 Coeff-En:   0.100D+01
 Coeff:      0.100D+01
 Gap=     0.429 Goal=   None    Shift=    0.000
 Gap=     0.034 Goal=   None    Shift=    0.000
 RMSDP=1.47D-04 MaxDP=1.41D-03              OVMax= 3.32D-03

 Cycle   2  Pass 0  IDiag  1:
 E= -76.2166015042209     Delta-E=       -0.000002525438 Rises=F Damp=F
 DIIS: error= 3.97D-04 at cycle   2 NSaved=   2.
 NSaved= 2 IEnMin= 2 EnMin= -76.2166015042209     IErMin= 1 ErrMin= 3.94D-04
 ErrMax= 3.97D-04  0.00D+00 EMaxC= 1.00D-01 BMatC= 5.86D-06 BMatP= 6.05D-06
 IDIUse=3 WtCom= 9.96D-01 WtEn= 3.97D-03
 Coeff-Com:  0.493D+00 0.507D+00
 Coeff-En:   0.000D+00 0.100D+01
 Coeff:      0.491D+00 0.509D+00
 Gap=     0.428 Goal=   None    Shift=    0.000
 Gap=     0.034 Goal=   None    Shift=    0.000
 RMSDP=9.19D-05 MaxDP=6.22D-04 DE=-2.53D-06 OVMax= 1.48D-03

 Cycle   3  Pass 0  IDiag  1:
 E= -76.2166027164179     Delta-E=       -0.000001212197 Rises=F Damp=F
 DIIS: error= 1.65D-04 at cycle   3 NSaved=   3.
 NSaved= 3 IEnMin= 3 EnMin= -76.2166027164179     IErMin= 3 ErrMin= 1.65D-04
 ErrMax= 1.65D-04  0.00D+00 EMaxC= 1.00D-01 BMatC= 1.48D-06 BMatP= 5.86D-06
 IDIUse=3 WtCom= 9.98D-01 WtEn= 1.65D-03
 Coeff-Com:  0.607D-02 0.328D+00 0.666D+00
 Coeff-En:   0.000D+00 0.226D+00 0.774D+00
 Coeff:      0.606D-02 0.328D+00 0.666D+00
 Gap=     0.428 Goal=   None    Shift=    0.000
 Gap=     0.034 Goal=   None    Shift=    0.000
 RMSDP=2.73D-05 MaxDP=2.59D-04 DE=-1.21D-06 OVMax= 5.91D-04

 Cycle   4  Pass 0  IDiag  1:
 E= -76.2166031085069     Delta-E=       -0.000000392089 Rises=F Damp=F
 DIIS: error= 1.35D-05 at cycle   4 NSaved=   4.
 NSaved= 4 IEnMin= 4 EnMin= -76.2166031085069     IErMin= 4 ErrMin= 1.35D-05
 ErrMax= 1.35D-05  0.00D+00 EMaxC= 1.00D-01 BMatC= 9.70D-09 BMatP= 1.48D-06
 IDIUse=1 WtCom= 1.00D+00 WtEn= 0.00D+00
 Coeff-Com: -0.125D-01 0.150D-01 0.834D-01 0.914D+00
 Coeff:     -0.125D-01 0.150D-01 0.834D-01 0.914D+00
 Gap=     0.428 Goal=   None    Shift=    0.000
 Gap=     0.034 Goal=   None    Shift=    0.000
 RMSDP=4.20D-06 MaxDP=3.23D-05 DE=-3.92D-07 OVMax= 1.01D-04

 Initial convergence to 1.0D-05 achieved.  Increase integral accuracy.
 Cycle   5  Pass 1  IDiag  1:
 E= -76.2166032304658     Delta-E=       -0.000000121959 Rises=F Damp=F
 DIIS: error= 1.02D-05 at cycle   1 NSaved=   1.
 NSaved= 1 IEnMin= 1 EnMin= -76.2166032304658     IErMin= 1 ErrMin= 1.02D-05
 ErrMax= 1.02D-05  0.00D+00 EMaxC= 1.00D-01 BMatC= 3.61D-09 BMatP= 3.61D-09
 IDIUse=1 WtCom= 1.00D+00 WtEn= 0.00D+00
 Coeff-Com:  0.100D+01
 Coeff:      0.100D+01
 Gap=     0.428 Goal=   None    Shift=    0.000
 Gap=     0.034 Goal=   None    Shift=    0.000
 RMSDP=4.20D-06 MaxDP=3.23D-05 DE=-1.22D-07 OVMax= 7.57D-05

 Cycle   6  Pass 1  IDiag  1:
 E= -76.2166032281659     Delta-E=        0.000000002300 Rises=F Damp=F
 DIIS: error= 1.50D-05 at cycle   2 NSaved=   2.
 NSaved= 2 IEnMin= 1 EnMin= -76.2166032304658     IErMin= 1 ErrMin= 1.02D-05
 ErrMax= 1.50D-05  0.00D+00 EMaxC= 1.00D-01 BMatC= 1.27D-08 BMatP= 3.61D-09
 IDIUse=1 WtCom= 1.00D+00 WtEn= 0.00D+00
 Coeff-Com:  0.658D+00 0.342D+00
 Coeff:      0.658D+00 0.342D+00
 Gap=     0.428 Goal=   None    Shift=    0.000
 Gap=     0.034 Goal=   None    Shift=    0.000
 RMSDP=2.78D-06 MaxDP=2.16D-05 DE= 2.30D-09 OVMax= 5.16D-05

 Cycle   7  Pass 1  IDiag  1:
 E= -76.2166032316420     Delta-E=       -0.000000003476 Rises=F Damp=F
 DIIS: error= 6.24D-07 at cycle   3 NSaved=   3.
 NSaved= 3 IEnMin= 3 EnMin= -76.2166032316420     IErMin= 3 ErrMin= 6.24D-07
 ErrMax= 6.24D-07  0.00D+00 EMaxC= 1.00D-01 BMatC= 2.39D-11 BMatP= 3.61D-09
 IDIUse=1 WtCom= 1.00D+00 WtEn= 0.00D+00
 Coeff-Com:  0.758D-01 0.582D-01 0.866D+00
 Coeff:      0.758D-01 0.582D-01 0.866D+00
 Gap=     0.428 Goal=   None    Shift=    0.000
 Gap=     0.034 Goal=   None    Shift=    0.000
 RMSDP=2.28D-07 MaxDP=1.55D-06 DE=-3.48D-09 OVMax= 5.42D-06

 Cycle   8  Pass 1  IDiag  1:
 E= -76.2166032316484     Delta-E=       -0.000000000006 Rises=F Damp=F
 DIIS: error= 5.63D-07 at cycle   4 NSaved=   4.
 NSaved= 4 IEnMin= 4 EnMin= -76.2166032316484     IErMin= 4 ErrMin= 5.63D-07
 ErrMax= 5.63D-07  0.00D+00 EMaxC= 1.00D-01 BMatC= 1.20D-11 BMatP= 2.39D-11
 IDIUse=1 WtCom= 1.00D+00 WtEn= 0.00D+00
 Coeff-Com: -0.474D-01 0.499D-02 0.106D+00 0.937D+00
 Coeff:     -0.474D-01 0.499D-02 0.106D+00 0.937D+00
 Gap=     0.428 Goal=   None    Shift=    0.000
 Gap=     0.034 Goal=   None    Shift=    0.000
 RMSDP=1.39D-07 MaxDP=1.03D-06 DE=-6.38D-12 OVMax= 1.34D-06

 Cycle   9  Pass 1  IDiag  1:
 E= -76.2166032316526     Delta-E=       -0.000000000004 Rises=F Damp=F
 DIIS: error= 6.09D-08 at cycle   5 NSaved=   5.
 NSaved= 5 IEnMin= 5 EnMin= -76.2166032316526     IErMin= 5 ErrMin= 6.09D-08
 ErrMax= 6.09D-08  0.00D+00 EMaxC= 1.00D-01 BMatC= 1.04D-13 BMatP= 1.20D-11
 IDIUse=1 WtCom= 1.00D+00 WtEn= 0.00D+00
 Coeff-Com: -0.804D-02 0.102D-02-0.424D-02 0.105D+00 0.907D+00
 Coeff:     -0.804D-02 0.102D-02-0.424D-02 0.105D+00 0.907D+00
 Gap=     0.428 Goal=   None    Shift=    0.000
 Gap=     0.034 Goal=   None    Shift=    0.000
 RMSDP=1.46D-08 MaxDP=1.08D-07 DE=-4.21D-12 OVMax= 1.39D-07

 Cycle  10  Pass 1  IDiag  1:
 E= -76.2166032316526     Delta-E=        0.000000000000 Rises=F Damp=F
 DIIS: error= 8.43D-09 at cycle   6 NSaved=   6.
 NSaved= 6 IEnMin= 5 EnMin= -76.2166032316526     IErMin= 6 ErrMin= 8.43D-09
 ErrMax= 8.43D-09  0.00D+00 EMaxC= 1.00D-01 BMatC= 4.23D-15 BMatP= 1.04D-13
 IDIUse=1 WtCom= 1.00D+00 WtEn= 0.00D+00
 Coeff-Com:  0.677D-03-0.519D-04-0.765D-02-0.316D-01 0.255D+00 0.784D+00
 Coeff:      0.677D-03-0.519D-04-0.765D-02-0.316D-01 0.255D+00 0.784D+00
 Gap=     0.428 Goal=   None    Shift=    0.000
 Gap=     0.034 Goal=   None    Shift=    0.000
 RMSDP=1.77D-09 MaxDP=9.81D-09 DE= 0.00D+00 OVMax= 2.23D-08

 SCF Done:  E(UB-P86) =  -76.2166032317     A.U. after   10 cycles
            NFock= 10  Conv=0.18D-08     -V/T= 2.0061
 <Sx>= 0.0000 <Sy>= 0.0000 <Sz>= 1.0000 <S**2>= 2.0061 S= 1.0020
 <L.S>= 0.000000000000E+00
 KE= 7.575106797369D+01 PE=-1.923770804823D+02 EE= 3.425920085387D+01
 Annihilation of the first spin contaminant:
 S**2 before annihilation     2.0061,   after     2.0000
 Leave Link  502 at Wed Oct  7 14:11:09 2020, MaxMem=  2684354560 cpu:               9.0 elap:               1.3
 (Enter /udrive/faculty/rpeverati/g16/g16/l508.exe)
 QCSCF skips out because SCF is already converged.
 Leave Link  508 at Wed Oct  7 14:11:10 2020, MaxMem=  2684354560 cpu:               0.7 elap:               0.5
 (Enter /udrive/faculty/rpeverati/g16/g16/l701.exe)
 ... and contract with generalized density number  0.
 Compute integral first derivatives.
 R6Disp: Adding Grimme-D3(BJ) dispersion energy 1st derivatives to the gradient.
 Leave Link  701 at Wed Oct  7 14:11:11 2020, MaxMem=  2684354560 cpu:               3.6 elap:               0.8
 (Enter /udrive/faculty/rpeverati/g16/g16/l702.exe)
 L702 exits ... SP integral derivatives will be done elsewhere.
 Leave Link  702 at Wed Oct  7 14:11:12 2020, MaxMem=  2684354560 cpu:               1.3 elap:               0.5
 (Enter /udrive/faculty/rpeverati/g16/g16/l703.exe)
 Integral derivatives from FoFJK, PRISM(SPDF).
 Compute integral first derivatives, UseDBF=F ICtDFT=           0.
 Calling FoFJK, ICntrl=      2527 FMM=F ISym2X=1 I1Cent= 0 IOpClX= 0 NMat=1 NMatS=1 NMatT=0.
 FoFJK:  IHMeth= 1 ICntrl=    2527 DoSepK=F KAlg= 0 I1Cent=           0 FoldK=F
 IRaf=         0 NMat=       1 IRICut=       1 DoRegI=T DoRafI=F ISym2E= 1 IDoP0=0 IntGTp=1.
 FoFCou: FMM=F IPFlag=           0 FMFlag=      100000 FMFlg1=         800
         NFxFlg=           0 DoJE=F BraDBF=F KetDBF=F FulRan=T
         wScrn=  0.000000 ICntrl=      2527 IOpCl=  0 I1Cent=           0 NGrid=           0
         NMat0=    1 NMatS0=      1 NMatT0=    0 NMatD0=    1 NMtDS0=    0 NMtDT0=    0
 Petite list used in FoFCou.
 Leave Link  703 at Wed Oct  7 14:11:13 2020, MaxMem=  2684354560 cpu:               5.1 elap:               1.0
 (Enter /udrive/faculty/rpeverati/g16/g16/l716.exe)
 Dipole        = 0.00000000D+00-6.14264314D-33-4.22438545D-01
 ***** Axes restored to original set *****
 -------------------------------------------------------------------
 Center     Atomic                   Forces (Hartrees/Bohr)
 Number     Number              X              Y              Z
 -------------------------------------------------------------------
      1        1          -0.000000000   -0.000000000   -0.003186122
      2        8          -0.000000000   -0.000000000    0.007718132
      3        1           0.000000000    0.000000000   -0.004532010
 -------------------------------------------------------------------
 Cartesian Forces:  Max     0.007718132 RMS     0.003166843
 Leave Link  716 at Wed Oct  7 14:11:14 2020, MaxMem=  2684354560 cpu:               2.1 elap:               0.7
 (Enter /udrive/faculty/rpeverati/g16/g16/l103.exe)

 GradGradGradGradGradGradGradGradGradGradGradGradGradGradGradGradGradGrad
 Berny optimization.
 Optmz: redundant internal coordinate code flag= 1
 Red2BG:  D1=  1.00D+00 OD1=  3.33D-16 B2RMS=  0.00D+00 IAprox=1
 Red2BG is reusing G-inverse.
 Internal  Forces:  Max     0.007718132 RMS     0.004475172
 Search for a saddle point.
 Step number   1 out of a maximum of   50
 All quantities printed in internal units (Hartrees-Bohrs-Radians)
 Swapping is turned off.
 Second derivative matrix not updated -- first step.
 The second derivative matrix:
                          R1        R2        A1        A2
           R1           0.08175
           R2           0.09827   0.11595
           A1          -0.00000  -0.00000   0.00230
           A2           0.00000   0.00000   0.00000   0.00230
 ITU=  0
 Eigenvectors of the second derivative matrix:
                           1         2         3         4
     Eigenvalues --    -0.00090   0.00230   0.00230   0.19860
   1         R1        -0.76531   0.00000   0.00000  -0.64366
   2         R2         0.64366  -0.00000   0.00000  -0.76531
   3         A1        -0.00000  -1.00000   0.00000   0.00000
   4         A2         0.00000   0.00000   1.00000   0.00000
 RLam0= 2.58D-03.
 Iter=   1 RLamda= 0.00000000D+00 Sum=-4.25835617D-04.
 Iter=   2 RLamda=-4.25835617D-04 Sum=-4.24924489D-04.
 Iter=   3 RLamda=-4.24924489D-04 Sum=-4.24926434D-04.
 RFO step:  Lambda0=2.578260888D-03 Lambda=-4.24924489D-04.
 Linear search not attempted -- option 19 set.
 Maximum step size (   0.100) exceeded in Quadratic search.
    -- Step size scaled by   0.116
 Iteration  1 RMS(Cart)=  0.02889807 RMS(Int)=  0.00000000
 Iteration  2 RMS(Cart)=  0.00000000 RMS(Int)=  0.00000000
 ITry= 1 IFail=0 DXMaxC= 4.71D-02 DCOld= 1.00D+10 DXMaxT= 1.00D-01 DXLimC= 3.00D+00 Rises=F
 ClnCor:  largest displacement from symmetrization is 0.00D+00 for atom     0.
 Variable       Old X    -DE/DX   Delta X   Delta X   Delta X     New X
                                 (Linear)    (Quad)   (Total)
    R1        2.24747   0.00821   0.00000  -0.07297  -0.07297   2.17450
    R2        1.72271   0.00511   0.00000   0.06837   0.06837   1.79108
    A1        3.14159  -0.00000   0.00000  -0.00000   0.00000   3.14159
    A2        3.14159   0.00000   0.00000   0.00000   0.00000   3.14159
         Item               Value     Threshold  Converged?
 Maximum Force            0.008209     0.000450     NO 
 RMS     Force            0.004835     0.000300     NO 
 Maximum Displacement     0.047115     0.001800     NO 
 RMS     Displacement     0.028898     0.001200     NO 
 Predicted change in Energy= 2.479642D-04
 Lowest energy point so far.  Saving SCF results.
 Largest change from initial coordinates is atom    1       0.012 Angstoms.
 GradGradGradGradGradGradGradGradGradGradGradGradGradGradGradGradGradGrad

 Leave Link  103 at Wed Oct  7 14:11:15 2020, MaxMem=  2684354560 cpu:               2.4 elap:               0.6
 (Enter /udrive/faculty/rpeverati/g16/g16/l202.exe)
                          Input orientation:                          
 ---------------------------------------------------------------------
 Center     Atomic      Atomic             Coordinates (Angstroms)
 Number     Number       Type             X           Y           Z
 ---------------------------------------------------------------------
      1          1           0        0.000000    0.000000   -0.835356
      2          8           0        0.000000    0.000000    0.315340
      3          1           0        0.000000    0.000000   -1.783156
 ---------------------------------------------------------------------
                    Distance matrix (angstroms):
                    1          2          3
     1  H    0.000000
     2  O    1.150696   0.000000
     3  H    0.947800   2.098496   0.000000
 Stoichiometry    H2O(3)
 Framework group  C*V[C*(HHO)]
 Deg. of freedom     2
 Full point group                 C*V     NOp   4
 RotChk:  IX=0 Diff= 0.00D+00
 Largest Abelian subgroup         C2V     NOp   4
 Largest concise Abelian subgroup C1      NOp   1
                         Standard orientation:                         
 ---------------------------------------------------------------------
 Center     Atomic      Atomic             Coordinates (Angstroms)
 Number     Number       Type             X           Y           Z
 ---------------------------------------------------------------------
      1          1           0        0.000000    0.000000   -0.825777
      2          8           0        0.000000    0.000000    0.324919
      3          1           0        0.000000    0.000000   -1.773577
 ---------------------------------------------------------------------
 Rotational constants (GHZ):           0.0000000          97.6157454          97.6157454
 Leave Link  202 at Wed Oct  7 14:11:16 2020, MaxMem=  2684354560 cpu:               2.1 elap:               0.6
 (Enter /udrive/faculty/rpeverati/g16/g16/l301.exe)
 Standard basis: 6-31G(d) (5D, 7F)
 Ernie: Thresh=  0.10000D-02 Tol=  0.10000D-05 Strict=F.
 There are    12 symmetry adapted cartesian basis functions of A1  symmetry.
 There are     1 symmetry adapted cartesian basis functions of A2  symmetry.
 There are     3 symmetry adapted cartesian basis functions of B1  symmetry.
 There are     3 symmetry adapted cartesian basis functions of B2  symmetry.
 There are    11 symmetry adapted basis functions of A1  symmetry.
 There are     1 symmetry adapted basis functions of A2  symmetry.
 There are     3 symmetry adapted basis functions of B1  symmetry.
 There are     3 symmetry adapted basis functions of B2  symmetry.
    18 basis functions,    36 primitive gaussians,    19 cartesian basis functions
     6 alpha electrons        4 beta electrons
       nuclear repulsion energy         6.2546850517 Hartrees.
 IExCor=  404 DFT=T Ex=B Corr=P86 ExCW=0 ScaHFX=  0.000000
 ScaDFX=  1.000000  1.000000  1.000000  1.000000 ScalE2=  1.000000  1.000000
 IRadAn=      5 IRanWt=     -1 IRanGd=            0 ICorTp=0 IEmpDi=141
 NAtoms=    3 NActive=    3 NUniq=    3 SFac= 1.00D+00 NAtFMM=   60 NAOKFM=F Big=F
 Integral buffers will be    131072 words long.
 Raffenetti 2 integral format.
 Two-electron integral symmetry is turned on.
 R6Disp:  Grimme-D3(BJ) Dispersion energy=       -0.0006367933 Hartrees.
 Nuclear repulsion after empirical dispersion term =        6.2540482584 Hartrees.
 Leave Link  301 at Wed Oct  7 14:11:16 2020, MaxMem=  2684354560 cpu:               1.4 elap:               0.6
 (Enter /udrive/faculty/rpeverati/g16/g16/l302.exe)
 NPDir=0 NMtPBC=     1 NCelOv=     1 NCel=       1 NClECP=     1 NCelD=      1
         NCelK=      1 NCelE2=     1 NClLst=     1 CellRange=     0.0.
 One-electron integrals computed using PRISM.
 One-electron integral symmetry used in STVInt
 NBasis=    18 RedAO= T EigKep=  3.90D-02  NBF=    11     1     3     3
 NBsUse=    18 1.00D-06 EigRej= -1.00D+00 NBFU=    11     1     3     3
 Precomputing XC quadrature grid using
 IXCGrd= 4 IRadAn=           5 IRanWt=          -1 IRanGd=           0 AccXCQ= 0.00D+00.
 Generated NRdTot=       0 NPtTot=           0 NUsed=           0 NTot=          32
 NSgBfM=    19    19    19    19    19 MxSgAt=     3 MxSgA2=     3.
 Leave Link  302 at Wed Oct  7 14:11:18 2020, MaxMem=  2684354560 cpu:               3.2 elap:               0.7
 (Enter /udrive/faculty/rpeverati/g16/g16/l303.exe)
 DipDrv:  MaxL=1.
 Leave Link  303 at Wed Oct  7 14:11:18 2020, MaxMem=  2684354560 cpu:               1.4 elap:               0.6
 (Enter /udrive/faculty/rpeverati/g16/g16/l401.exe)
 Initial guess from the checkpoint file:  "MN_89_RKT14_BH76_BP86DBJ_631Gs.chk"
 SCF N**3 symmetry information disabled.
 B after Tr=     0.000000    0.000000    0.000000
         Rot=    1.000000    0.000000    0.000000    0.000000 Ang=   0.00 deg.
 Guess basis will be translated and rotated to current coordinates.
 JPrj=2 DoOrth=T DoCkMO=T.
 Initial guess orbital symmetries:
 Alpha Orbitals:
       Occupied  (SG) (SG) (SG) (PI) (SG) (PI)
       Virtual   (SG) (SG) (SG) (PI) (PI) (SG) (?A) (PI) (PI) (?A)
                 (?A) (?A)
 Beta  Orbitals:
       Occupied  (SG) (SG) (SG) (PI)
       Virtual   (PI) (SG) (SG) (SG) (SG) (PI) (PI) (SG) (SG) (PI)
                 (PI) (DLTA) (DLTA) (SG)
 Initial guess <Sx>= 0.0000 <Sy>= 0.0000 <Sz>= 1.0000 <S**2>= 2.0062 S= 1.0021
 Generating alternative initial guess.
 ExpMin= 1.61D-01 ExpMax= 5.48D+03 ExpMxC= 8.25D+02 IAcc=2 IRadAn=         4 AccDes= 0.00D+00
 Harris functional with IExCor=  404 and IRadAn=       4 diagonalized for initial guess.
 HarFok:  IExCor=  404 AccDes= 0.00D+00 IRadAn=         4 IDoV= 1 UseB2=F ITyADJ=14
 ICtDFT=  3500011 ScaDFX=  1.000000  1.000000  1.000000  1.000000
 FoFCou: FMM=F IPFlag=           0 FMFlag=      100000 FMFlg1=           0
         NFxFlg=           0 DoJE=T BraDBF=F KetDBF=T FulRan=T
         wScrn=  0.000000 ICntrl=       500 IOpCl=  0 I1Cent=   200000004 NGrid=           0
         NMat0=    1 NMatS0=      1 NMatT0=    0 NMatD0=    1 NMtDS0=    0 NMtDT0=    0
 Petite list used in FoFCou.
 Harris En= -76.1592294000608    
 Leave Link  401 at Wed Oct  7 14:11:20 2020, MaxMem=  2684354560 cpu:               5.9 elap:               1.0
 (Enter /udrive/faculty/rpeverati/g16/g16/l502.exe)
 Keep J ints in memory in symmetry-blocked form, NReq=10355880.
 FoFCou: FMM=F IPFlag=           0 FMFlag=           0 FMFlg1=           0
         NFxFlg=           0 DoJE=F BraDBF=F KetDBF=F FulRan=T
         wScrn=  0.000000 ICntrl=       600 IOpCl=  0 I1Cent=           0 NGrid=           0
         NMat0=    1 NMatS0=    171 NMatT0=    0 NMatD0=    1 NMtDS0=    0 NMtDT0=    0
 Petite list used in FoFCou.
 UHF open shell SCF:
 Using DIIS extrapolation, IDIIS=  1040.
 NGot=  2684354560 LenX=  2684347216 LenY=  2684346334
 Requested convergence on RMS density matrix=1.00D-08 within 120 cycles.
 Requested convergence on MAX density matrix=1.00D-06.
 Requested convergence on             energy=1.00D-06.
 No special actions if energy rises.
 Integral accuracy reduced to 1.0D-05 until final iterations.

 Cycle   1  Pass 0  IDiag  1:
 E= -76.2155128349728    
 DIIS: error= 5.56D-03 at cycle   1 NSaved=   1.
 NSaved= 1 IEnMin= 1 EnMin= -76.2155128349728     IErMin= 1 ErrMin= 5.56D-03
 ErrMax= 5.56D-03  0.00D+00 EMaxC= 1.00D-01 BMatC= 1.22D-03 BMatP= 1.22D-03
 IDIUse=3 WtCom= 9.44D-01 WtEn= 5.56D-02
 Coeff-Com:  0.100D+01
 Coeff-En:   0.100D+01
 Coeff:      0.100D+01
 Gap=     0.439 Goal=   None    Shift=    0.000
 Gap=     0.034 Goal=   None    Shift=    0.000
 GapD=    0.034 DampG=0.250 DampE=1.000 DampFc=0.2500 IDamp=-1.
 Damping current iteration by 2.50D-01
 RMSDP=2.05D-03 MaxDP=2.00D-02              OVMax= 4.56D-02

 Cycle   2  Pass 0  IDiag  1:
 E= -76.2157159682858     Delta-E=       -0.000203133313 Rises=F Damp=T
 DIIS: error= 3.64D-03 at cycle   2 NSaved=   2.
 NSaved= 2 IEnMin= 2 EnMin= -76.2157159682858     IErMin= 2 ErrMin= 3.64D-03
 ErrMax= 3.64D-03  0.00D+00 EMaxC= 1.00D-01 BMatC= 6.65D-04 BMatP= 1.22D-03
 IDIUse=3 WtCom= 9.64D-01 WtEn= 3.64D-02
 Coeff-Com: -0.107D+01 0.207D+01
 Coeff-En:   0.000D+00 0.100D+01
 Coeff:     -0.104D+01 0.204D+01
 Gap=     0.431 Goal=   None    Shift=    0.000
 Gap=     0.034 Goal=   None    Shift=    0.000
 RMSDP=1.54D-03 MaxDP=1.47D-02 DE=-2.03D-04 OVMax= 1.98D-02

 Cycle   3  Pass 0  IDiag  1:
 E= -76.2162497396014     Delta-E=       -0.000533771316 Rises=F Damp=F
 DIIS: error= 2.25D-03 at cycle   3 NSaved=   3.
 NSaved= 3 IEnMin= 3 EnMin= -76.2162497396014     IErMin= 3 ErrMin= 2.25D-03
 ErrMax= 2.25D-03  0.00D+00 EMaxC= 1.00D-01 BMatC= 2.78D-04 BMatP= 6.65D-04
 IDIUse=3 WtCom= 9.77D-01 WtEn= 2.25D-02
 Coeff-Com: -0.979D+00 0.131D+01 0.671D+00
 Coeff-En:   0.000D+00 0.000D+00 0.100D+01
 Coeff:     -0.957D+00 0.128D+01 0.678D+00
 Gap=     0.431 Goal=   None    Shift=    0.000
 Gap=     0.034 Goal=   None    Shift=    0.000
 RMSDP=3.87D-04 MaxDP=3.84D-03 DE=-5.34D-04 OVMax= 8.43D-03

 Cycle   4  Pass 0  IDiag  1:
 E= -76.2163227400867     Delta-E=       -0.000073000485 Rises=F Damp=F
 DIIS: error= 2.54D-04 at cycle   4 NSaved=   4.
 NSaved= 4 IEnMin= 4 EnMin= -76.2163227400867     IErMin= 4 ErrMin= 2.54D-04
 ErrMax= 2.54D-04  0.00D+00 EMaxC= 1.00D-01 BMatC= 3.49D-06 BMatP= 2.78D-04
 IDIUse=3 WtCom= 9.97D-01 WtEn= 2.54D-03
 Coeff-Com: -0.328D-01 0.266D-01 0.103D+00 0.903D+00
 Coeff-En:   0.000D+00 0.000D+00 0.000D+00 0.100D+01
 Coeff:     -0.327D-01 0.265D-01 0.103D+00 0.904D+00
 Gap=     0.431 Goal=   None    Shift=    0.000
 Gap=     0.034 Goal=   None    Shift=    0.000
 RMSDP=5.52D-05 MaxDP=4.02D-04 DE=-7.30D-05 OVMax= 1.06D-03

 Cycle   5  Pass 0  IDiag  1:
 E= -76.2163235641137     Delta-E=       -0.000000824027 Rises=F Damp=F
 DIIS: error= 1.44D-04 at cycle   5 NSaved=   5.
 NSaved= 5 IEnMin= 5 EnMin= -76.2163235641137     IErMin= 5 ErrMin= 1.44D-04
 ErrMax= 1.44D-04  0.00D+00 EMaxC= 1.00D-01 BMatC= 5.80D-07 BMatP= 3.49D-06
 IDIUse=3 WtCom= 9.99D-01 WtEn= 1.44D-03
 Coeff-Com:  0.977D-01-0.130D+00-0.188D-01 0.330D-01 0.102D+01
 Coeff-En:   0.000D+00 0.000D+00 0.000D+00 0.000D+00 0.100D+01
 Coeff:      0.975D-01-0.130D+00-0.188D-01 0.330D-01 0.102D+01
 Gap=     0.431 Goal=   None    Shift=    0.000
 Gap=     0.034 Goal=   None    Shift=    0.000
 RMSDP=3.76D-05 MaxDP=2.87D-04 DE=-8.24D-07 OVMax= 3.63D-04

 Cycle   6  Pass 0  IDiag  1:
 E= -76.2163237556287     Delta-E=       -0.000000191515 Rises=F Damp=F
 DIIS: error= 6.49D-06 at cycle   6 NSaved=   6.
 NSaved= 6 IEnMin= 6 EnMin= -76.2163237556287     IErMin= 6 ErrMin= 6.49D-06
 ErrMax= 6.49D-06  0.00D+00 EMaxC= 1.00D-01 BMatC= 2.48D-09 BMatP= 5.80D-07
 IDIUse=1 WtCom= 1.00D+00 WtEn= 0.00D+00
 Coeff-Com:  0.164D-01-0.217D-01-0.496D-02-0.731D-02 0.192D+00 0.826D+00
 Coeff:      0.164D-01-0.217D-01-0.496D-02-0.731D-02 0.192D+00 0.826D+00
 Gap=     0.431 Goal=   None    Shift=    0.000
 Gap=     0.034 Goal=   None    Shift=    0.000
 RMSDP=2.59D-06 MaxDP=2.30D-05 DE=-1.92D-07 OVMax= 3.24D-05

[...]
              Bcc     0.0150     7.996     2.853     2.667  0.0000  0.0000  1.0000
 

 ---------------------------------------------------------------------------------

 No NMR shielding tensors so no spin-rotation constants.
 Leave Link  601 at Wed Oct  7 14:12:46 2020, MaxMem=  2684354560 cpu:               5.0 elap:               0.6
 (Enter /udrive/faculty/rpeverati/g16/g16/l701.exe)
 ... and contract with generalized density number  0.
 Compute integral second derivatives.
 R6Disp: Adding Grimme-D3(BJ) dispersion energy 2nd derivatives to the Hessian.
 Leave Link  701 at Wed Oct  7 14:12:47 2020, MaxMem=  2684354560 cpu:               4.0 elap:               0.7
 (Enter /udrive/faculty/rpeverati/g16/g16/l702.exe)
 L702 exits ... SP integral derivatives will be done elsewhere.
 Leave Link  702 at Wed Oct  7 14:12:47 2020, MaxMem=  2684354560 cpu:               1.0 elap:               0.3
 (Enter /udrive/faculty/rpeverati/g16/g16/l703.exe)
 Integral derivatives from FoFJK, PRISM(SPDF).
 Compute integral second derivatives, UseDBF=F ICtDFT=           0.
 Calling FoFJK, ICntrl=    100527 FMM=F ISym2X=1 I1Cent= 0 IOpClX= 0 NMat=1 NMatS=1 NMatT=0.
 FoFJK:  IHMeth= 1 ICntrl=  100527 DoSepK=F KAlg= 0 I1Cent=           0 FoldK=F
 IRaf=         0 NMat=       1 IRICut=       1 DoRegI=T DoRafI=F ISym2E= 1 IDoP0=0 IntGTp=1.
 FoFCou: FMM=F IPFlag=           0 FMFlag=      100000 FMFlg1=         800
         NFxFlg=           0 DoJE=F BraDBF=F KetDBF=F FulRan=T
         wScrn=  0.000000 ICntrl=    100527 IOpCl=  0 I1Cent=           0 NGrid=           0
         NMat0=    1 NMatS0=      1 NMatT0=    0 NMatD0=    1 NMtDS0=    0 NMtDT0=    0
 Petite list used in FoFCou.
 Leave Link  703 at Wed Oct  7 14:12:48 2020, MaxMem=  2684354560 cpu:               9.9 elap:               1.1
 (Enter /udrive/faculty/rpeverati/g16/g16/l716.exe)
 Dipole        = 0.00000000D+00-5.79609669D-33-5.07191444D-01
 Polarizability= 2.67856736D+00 4.10438523D-15 2.38717818D+00
                 6.53782858D-16-6.49117446D-14 1.98328242D+01
 Full mass-weighted force constant matrix:
 Low frequencies --- -512.2410  -22.4529  -21.6349   -0.0027   -0.0020    0.0004
 Low frequencies ---  165.2351  833.0238 1597.9869
 ******    1 imaginary frequencies (negative Signs) ****** 
 Diagonal vibrational polarizability:
        1.1819008      40.2491964      16.3164692
 Harmonic frequencies (cm**-1), IR intensities (KM/Mole), Raman scattering
 activities (A**4/AMU), depolarization ratios for plane and unpolarized
 incident light, reduced masses (AMU), force constants (mDyne/A),
 and normal coordinates:
                      1                      2                      3
                     SG                     PI                     PI
 Frequencies --   -512.2410               165.2340               833.0238
 Red. masses --      1.0079                 1.0193                 1.0193
 Frc consts  --      0.1558                 0.0164                 0.4167
 IR Inten    --    158.9588                40.8341                30.4763
  Atom  AN      X      Y      Z        X      Y      Z        X      Y      Z
     1   1    -0.00   0.00  -0.70     0.00   0.89   0.00     0.89  -0.00  -0.00
     2   8     0.00  -0.00  -0.00    -0.00  -0.03   0.00    -0.03   0.00  -0.00
     3   1     0.00  -0.00   0.72    -0.00  -0.45  -0.00    -0.45   0.00   0.00
                      4
                     SG
 Frequencies --   1597.9869
 Red. masses --      1.1259
 Frc consts  --      1.6939
 IR Inten    --      1.2727
  Atom  AN      X      Y      Z
     1   1    -0.00  -0.00   0.72
     2   8     0.00   0.00  -0.09
     3   1     0.00   0.00   0.69

 -------------------
 - Thermochemistry -
 -------------------
 Temperature   298.150 Kelvin.  Pressure   1.00000 Atm.
 Atom     1 has atomic number  1 and mass   1.00783
 Atom     2 has atomic number  8 and mass  15.99491
 Atom     3 has atomic number  1 and mass   1.00783
 Molecular mass:    18.01056 amu.
 Principal axes and moments of inertia in atomic units:
                           1         2         3
     Eigenvalues --     0.00000  19.19200  19.19200
           X            0.00000   0.00000   1.00000
           Y            0.00000   1.00000   0.00000
           Z            1.00000   0.00000   0.00000
 This molecule is a prolate symmetric top.
 Rotational symmetry number  1.
 Rotational temperature (Kelvin)      4.51302
 Rotational constant (GHZ):          94.036121
    1 imaginary frequencies ignored.
 Zero-point vibrational energy      15529.0 (Joules/Mol)
                                    3.71152 (Kcal/Mol)
 Warning -- explicit consideration of   1 degrees of freedom as
           vibrations may cause significant error
 Vibrational temperatures:    237.73  1198.54  2299.15
          (Kelvin)
 
 Zero-point correction=                           0.005915 (Hartree/Particle)
 Thermal correction to Energy=                    0.008965
 Thermal correction to Enthalpy=                  0.009909
 Thermal correction to Gibbs Free Energy=        -0.013745
 Sum of electronic and zero-point Energies=            -76.210478
 Sum of electronic and thermal Energies=               -76.207428
 Sum of electronic and thermal Enthalpies=             -76.206484
 Sum of electronic and thermal Free Energies=          -76.230138
 
                     E (Thermal)             CV                S
                      KCal/Mol        Cal/Mol-Kelvin    Cal/Mol-Kelvin
 Total                    5.626              7.504             49.785
 Electronic               0.000              0.000              2.183
 Translational            0.889              2.981             34.608
 Rotational               0.592              1.987             10.315
 Vibrational              4.144              2.536              2.679
 Vibration     1          0.624              1.885              2.489
                       Q            Log10(Q)             Ln(Q)
 Total Bot       0.210077D+07          6.322378         14.557813
 Total V=0       0.110393D+10          9.042940         20.822138
 Vib (Bot)       0.352813D-02         -2.452456         -5.646988
 Vib (Bot)    1  0.122151D+01          0.086897          0.200088
 Vib (V=0)       0.185398D+01          0.268106          0.617337
 Vib (V=0)    1  0.181988D+01          0.260043          0.598772
 Electronic      0.300000D+01          0.477121          1.098612
 Translational   0.300431D+07          6.477745         14.915559
 Rotational      0.660644D+02          1.819967          4.190630
 
                                                          TS search on BH76.
                                                             IR Spectrum
 
     1                                                                                                                               
     5                                                            8                                                    1             
     9                                                            3                                                    6             
     8                                                            3                                                    5             
 
     X                                                            X                                                    X             
                                                                  X                                                    X             
                                                                  X                                                    X             
                                                                  X                                                    X             
                                                                  X                                                    X             
                                                                  X                                                    X             
                                                                  X                                                    X             
                                                                  X                                                    X             
                                                                  X                                                    X             
                                                                  X                                                    X             
                                                                  X                                                    X             
                                                                  X                                                    X             
                                                                  X                                                    X             
                                                                  X                                                    X             
                                                                  X                                                    X             
                                                                                                                       X             
                                                                                                                       X             
                                                                                                                       X             
                                                                                                                       X             
                                                                                                                       X             
 
 ***** Axes restored to original set *****
 -------------------------------------------------------------------
 Center     Atomic                   Forces (Hartrees/Bohr)
 Number     Number              X              Y              Z
 -------------------------------------------------------------------
      1        1          -0.000000000    0.000000000   -0.000057918
      2        8           0.000000000   -0.000000000    0.000116788
      3        1           0.000000000   -0.000000000   -0.000058871
 -------------------------------------------------------------------
 Cartesian Forces:  Max     0.000116788 RMS     0.000047679
 Force constants in Cartesian coordinates: 
                1             2             3             4             5 
      1  0.207901D-01
      2  0.000000D+00  0.812399D-03
      3  0.000000D+00  0.000000D+00  0.398877D-01
      4 -0.102314D-01  0.000000D+00  0.000000D+00  0.501503D-02
      5  0.000000D+00 -0.388437D-03  0.000000D+00  0.000000D+00  0.163839D-03
      6  0.000000D+00  0.000000D+00 -0.881108D-01  0.000000D+00  0.000000D+00
      7 -0.105587D-01  0.000000D+00  0.000000D+00  0.521642D-02  0.000000D+00
      8  0.000000D+00 -0.423962D-03  0.000000D+00  0.000000D+00  0.224599D-03
      9  0.000000D+00  0.000000D+00  0.482232D-01  0.000000D+00  0.000000D+00
                6             7             8             9 
      6  0.172934D+00
      7  0.000000D+00  0.534224D-02
      8  0.000000D+00  0.000000D+00  0.199363D-03
      9 -0.848235D-01  0.000000D+00  0.000000D+00  0.366003D-01
 FormGI is forming the generalized inverse of G from B-inverse, IUseBI=4.
 Force constants in internal coordinates: 
                1             2             3             4 
      1  0.172934D+00
      2  0.848235D-01  0.366003D-01
      3  0.000000D+00  0.000000D+00  0.944769D-03
      4  0.000000D+00  0.000000D+00  0.000000D+00  0.219735D-01
 Leave Link  716 at Wed Oct  7 14:12:49 2020, MaxMem=  2684354560 cpu:               2.3 elap:               0.7
 (Enter /udrive/faculty/rpeverati/g16/g16/l103.exe)

 GradGradGradGradGradGradGradGradGradGradGradGradGradGradGradGradGradGrad
 Berny optimization.
 Optmz: redundant internal coordinate code flag= 1
 Red2BG:  D1=  1.00D+00 OD1=  3.33D-16 B2RMS=  0.00D+00 IAprox=1
 Red2BG is reusing G-inverse.
 Internal  Forces:  Max     0.000116788 RMS     0.000065394
 Search for a local minimum.
 Step number   1 out of a maximum of    2
 All quantities printed in internal units (Hartrees-Bohrs-Radians)
 Second derivative matrix not updated -- analytic derivatives used.
 The second derivative matrix:
                          R1        R2        A1        A2
           R1           0.17293
           R2           0.08482   0.03660
           A1          -0.00000   0.00000   0.00094
           A2          -0.00000   0.00000   0.00000   0.02197
 ITU=  0
 Eigenvectors of the second derivative matrix:
                           1         2         3         4
     Eigenvalues --    -0.00405   0.00094   0.02197   0.21359
   1         R1        -0.43219   0.00000   0.00000  -0.90178
   2         R2         0.90178  -0.00000   0.00000  -0.43219
   3         A1        -0.00000  -1.00000   0.00000  -0.00000
   4         A2         0.00000   0.00000   1.00000   0.00000
 Eigenvalue     1 is  -4.05D-03 should be greater than     0.000000 Eigenvector:
                          R2        R1        A1        A2
   1                    0.90178  -0.43219  -0.00000   0.00000
 Angle between quadratic step and forces=  45.35 degrees.
 Linear search not attempted -- first point.
 Iteration  1 RMS(Cart)=  0.00041272 RMS(Int)=  0.00000000
 Iteration  2 RMS(Cart)=  0.00000000 RMS(Int)=  0.00000000
 ITry= 1 IFail=0 DXMaxC= 6.55D-04 DCOld= 1.00D+10 DXMaxT= 3.00D-01 DXLimC= 3.00D+00 Rises=F
 ClnCor:  largest displacement from symmetrization is 0.00D+00 for atom     0.
 Variable       Old X    -DE/DX   Delta X   Delta X   Delta X     New X
                                 (Linear)    (Quad)   (Total)
    R1        2.08233   0.00012   0.00000   0.00027   0.00027   2.08261
    R2        2.02241   0.00006   0.00000   0.00085   0.00085   2.02326
    A1        3.14159   0.00000   0.00000  -0.00000   0.00000   3.14159
    A2        3.14159   0.00000   0.00000   0.00000   0.00000   3.14159
         Item               Value     Threshold  Converged?
 Maximum Force            0.000117     0.000450     YES
 RMS     Force            0.000065     0.000300     YES
 Maximum Displacement     0.000655     0.001800     YES
 RMS     Displacement     0.000413     0.001200     YES
 Predicted change in Energy=-4.255514D-08
 Optimization completed.
    -- Stationary point found.
                           ----------------------------
                           !   Optimized Parameters   !
                           ! (Angstroms and Degrees)  !
 --------------------------                            --------------------------
 ! Name  Definition              Value          Derivative Info.                !
 --------------------------------------------------------------------------------
 ! R1    R(1,2)                  1.1019         -DE/DX =    0.0001              !
 ! R2    R(1,3)                  1.0702         -DE/DX =    0.0001              !
 ! A1    L(2,1,3,-1,-1)        180.0            -DE/DX =    0.0                 !
 ! A2    L(2,1,3,-2,-2)        180.0            -DE/DX =    0.0                 !
 --------------------------------------------------------------------------------
 GradGradGradGradGradGradGradGradGradGradGradGradGradGradGradGradGradGrad

 Leave Link  103 at Wed Oct  7 14:12:50 2020, MaxMem=  2684354560 cpu:               1.7 elap:               0.5
 (Enter /udrive/faculty/rpeverati/g16/g16/l9999.exe)

 ----------------------------------------------------------------------

 Electric dipole moment (input orientation):
 (Debye = 10**-18 statcoulomb cm , SI units = C m)
                  (au)            (Debye)         (10**-30 SI)
   Tot        0.507191D+00      0.128915D+01      0.430015D+01
   x          0.000000D+00      0.000000D+00      0.000000D+00
   y          0.000000D+00      0.000000D+00      0.000000D+00
   z         -0.507191D+00     -0.128915D+01     -0.430015D+01

 Dipole polarizability, Alpha (input orientation).
 (esu units = cm**3 , SI units = C**2 m**2 J**-1)
 Alpha(0;0):
               (au)            (10**-24 esu)      (10**-40 SI)
   iso        0.829952D+01      0.122986D+01      0.136841D+01
   aniso      0.173018D+02      0.256386D+01      0.285268D+01
   xx         0.267857D+01      0.396923D+00      0.441636D+00
   yx         0.000000D+00      0.000000D+00      0.000000D+00
   yy         0.238718D+01      0.353743D+00      0.393593D+00
   zx         0.000000D+00      0.000000D+00      0.000000D+00
   zy         0.000000D+00      0.000000D+00      0.000000D+00
   zz         0.198328D+02      0.293892D+01      0.326999D+01

 ----------------------------------------------------------------------

 Dipole orientation:
     1          0.00000000         -0.00000000          1.47076140
     8          0.00000000          0.00000000         -0.61157045
     1          0.00000000         -0.00000000          3.49317405

 Electric dipole moment (dipole orientation):
 (Debye = 10**-18 statcoulomb cm , SI units = C m)
                  (au)            (Debye)         (10**-30 SI)
   Tot        0.507191D+00      0.128915D+01      0.430015D+01
   x          0.000000D+00      0.000000D+00      0.000000D+00
   y          0.000000D+00      0.000000D+00      0.000000D+00
   z          0.507191D+00      0.128915D+01      0.430015D+01

 Dipole polarizability, Alpha (dipole orientation).
 (esu units = cm**3 , SI units = C**2 m**2 J**-1)
 Alpha(0;0):
               (au)            (10**-24 esu)      (10**-40 SI)
   iso        0.829952D+01      0.122986D+01      0.136841D+01
   aniso      0.173018D+02      0.256386D+01      0.285268D+01
   xx         0.267857D+01      0.396923D+00      0.441636D+00
   yx         0.000000D+00      0.000000D+00      0.000000D+00
   yy         0.238718D+01      0.353743D+00      0.393593D+00
   zx         0.000000D+00      0.000000D+00      0.000000D+00
   zy         0.000000D+00      0.000000D+00      0.000000D+00
   zz         0.198328D+02      0.293892D+01      0.326999D+01

 ----------------------------------------------------------------------

 Test job not archived.
 1\1\GINC-NODE21\Freq\UBP86\6-31G(d)\H2O1(3)\RPEVERATI\07-Oct-2020\0\\#
 P Freq BP86/6-31G* 5D 7F Integral=UltraFineGrid SCF=(NoSymm,XQC,MaxCyc
 =120) EmpiricalDispersion=GD3BJ IOp(1/33=1) Geom=Check Guess=Read\\TS 
 search on BH76.\\0,3\H,0.,0.,-0.7782934151\O,0.,0.,0.323629146\H,0.,0.
 ,-1.848508102\\Version=ES64L-G16RevA.03\HF=-76.2163929\S2=2.005859\S2-
 1=0.\S2A=2.000007\RMSD=0.000e+00\RMSF=4.768e-05\ZeroPoint=0.0059147\Th
 ermal=0.0089651\Dipole=0.,0.,-0.5071914\DipoleDeriv=0.2035793,0.,0.,0.
 ,0.2283612,0.,0.,0.,-0.3068041,-0.2238596,0.,0.,0.,-0.2360612,0.,0.,0.
 ,0.0395608,0.0202803,0.,0.,0.,0.0077,0.,0.,0.,0.2672433\Polar=2.678567
 4,0.,2.3871782,0.,0.,19.8328242\Quadrupole=0.2116018,-0.6324014,0.4207
 996,0.,0.,0.\PG=C*V [C*(H1H1O1)]\NImag=1\\0.02079011,0.,0.00081240,0.,
 0.,0.03988768,-0.01023145,0.,0.,0.00501503,0.,-0.00038844,0.,0.,0.0001
 6384,0.,0.,-0.08811084,0.,0.,0.17293433,-0.01055866,0.,0.,0.00521642,0
 .,0.,0.00534224,0.,-0.00042396,0.,0.,0.00022460,0.,0.,0.00019936,0.,0.
 ,0.04822316,0.,0.,-0.08482349,0.,0.,0.03660033\\0.,0.,0.00005792,0.,0.
 ,-0.00011679,0.,0.,0.00005887\\\@


 "WOULD YOU TELL ME PLEASE, WHICH WAY I OUGHT TO WALK FROM HERE?"
 "THAT DEPENDS A GREAT DEAL ON WHERE YOU WANT TO GO," SAID THE CAT.
 "I DON'T MUCH CARE WHERE -- ", SAID ALICE.
 "THEN IT DOESN'T MATTER WHICH WAY YOU WALK," SAID THE CAT.

                                      -- LEWIS CARROLL
 Job cpu time:       0 days  0 hours  1 minutes 15.0 seconds.
 Elapsed time:       0 days  0 hours  0 minutes 13.6 seconds.
 File lengths (MBytes):  RWF=      5 Int=      0 D2E=      0 Chk=      1 Scr=      1
 Normal termination of Gaussian 16 at Wed Oct  7 14:12:51 2020.
