 Entering Gaussian System, Link 0=g16
 Input=MN_18_C5H8_BH76_BLYPDBJ_631Gs.in
 Output=MN_18_C5H8_BH76_BLYPDBJ_631Gs.log
 Initial command:
 /udrive/faculty/rpeverati/g16/g16/l1.exe "/udrive/scratch-directories/gaussian09/rpeverati/Gau-20089.inp" -scrdir="/udrive/scratch-directories/gaussian09/rpeverati/"
 Entering Link 1 = /udrive/faculty/rpeverati/g16/g16/l1.exe PID=     20090.
  
 Copyright (c) 1988,1990,1992,1993,1995,1998,2003,2009,2016,
            Gaussian, Inc.  All Rights Reserved.
  
 This is part of the Gaussian(R) 16 program.  It is based on
 the Gaussian(R) 09 system (copyright 2009, Gaussian, Inc.),
 the Gaussian(R) 03 system (copyright 2003, Gaussian, Inc.),
 the Gaussian(R) 98 system (copyright 1998, Gaussian, Inc.),
 the Gaussian(R) 94 system (copyright 1995, Gaussian, Inc.),
 the Gaussian 92(TM) system (copyright 1992, Gaussian, Inc.),
 the Gaussian 90(TM) system (copyright 1990, Gaussian, Inc.),
 the Gaussian 88(TM) system (copyright 1988, Gaussian, Inc.),
 the Gaussian 86(TM) system (copyright 1986, Carnegie Mellon
 University), and the Gaussian 82(TM) system (copyright 1983,
 Carnegie Mellon University). Gaussian is a federally registered
 trademark of Gaussian, Inc.
  
 This software contains proprietary and confidential information,
 including trade secrets, belonging to Gaussian, Inc.
  
 This software is provided under written license and may be
 used, copied, transmitted, or stored only in accord with that
 written license.
  
 The following legend is applicable only to US Government
 contracts under FAR:
  
                    RESTRICTED RIGHTS LEGEND
  
 Use, reproduction and disclosure by the US Government is
 subject to restrictions as set forth in subparagraphs (a)
 and (c) of the Commercial Computer Software - Restricted
 Rights clause in FAR 52.227-19.
  
 Gaussian, Inc.
 340 Quinnipiac St., Bldg. 40, Wallingford CT 06492
  
  
 ---------------------------------------------------------------
 Warning -- This program may not be used in any manner that
 competes with the business of Gaussian, Inc. or will provide
 assistance to any competitor of Gaussian, Inc.  The licensee
 of this program is prohibited from giving any competitor of
 Gaussian, Inc. access to this program.  By using this program,
 the user acknowledges that Gaussian, Inc. is engaged in the
 business of creating and licensing software in the field of
 computational chemistry and represents and warrants to the
 licensee that it is not a competitor of Gaussian, Inc. and that
 it will not use this program in any manner prohibited above.
 ---------------------------------------------------------------
  

 Cite this work as:
 Gaussian 16, Revision A.03,
 M. J. Frisch, G. W. Trucks, H. B. Schlegel, G. E. Scuseria, 
 M. A. Robb, J. R. Cheeseman, G. Scalmani, V. Barone, 
 G. A. Petersson, H. Nakatsuji, X. Li, M. Caricato, A. V. Marenich, 
 J. Bloino, B. G. Janesko, R. Gomperts, B. Mennucci, H. P. Hratchian, 
 J. V. Ortiz, A. F. Izmaylov, J. L. Sonnenberg, D. Williams-Young, 
 F. Ding, F. Lipparini, F. Egidi, J. Goings, B. Peng, A. Petrone, 
 T. Henderson, D. Ranasinghe, V. G. Zakrzewski, J. Gao, N. Rega, 
 G. Zheng, W. Liang, M. Hada, M. Ehara, K. Toyota, R. Fukuda, 
 J. Hasegawa, M. Ishida, T. Nakajima, Y. Honda, O. Kitao, H. Nakai, 
 T. Vreven, K. Throssell, J. A. Montgomery, Jr., J. E. Peralta, 
 F. Ogliaro, M. J. Bearpark, J. J. Heyd, E. N. Brothers, K. N. Kudin, 
 V. N. Staroverov, T. A. Keith, R. Kobayashi, J. Normand, 
 K. Raghavachari, A. P. Rendell, J. C. Burant, S. S. Iyengar, 
 J. Tomasi, M. Cossi, J. M. Millam, M. Klene, C. Adamo, R. Cammi, 
 J. W. Ochterski, R. L. Martin, K. Morokuma, O. Farkas, 
 J. B. Foresman, and D. J. Fox, Gaussian, Inc., Wallingford CT, 2016.
 
 ******************************************
 Gaussian 16:  ES64L-G16RevA.03 25-Dec-2016
                 7-Oct-2020 
 ******************************************
 %NoSave
 %nproc=12
 Will use up to   12 processors via shared memory.
 %mem=20GB
 %chk=MN_18_C5H8_BH76_BLYPDBJ_631Gs
 ----------------------------------------------------------------------
 #P Opt(MaxCyc=100) BLYP/6-31G* 5D 7F Integral=UltraFineGrid SCF=(NoSym
 m,XQC,MaxCyc=120) EmpiricalDispersion=GD3BJ IOp(1/33=1)
 ----------------------------------------------------------------------
 1/6=100,18=20,19=15,26=4,33=1,38=1/1,3;
 2/9=110,12=2,17=6,18=5,40=1/2;
 3/5=1,6=6,7=1,8=11,11=2,25=1,30=1,71=1,74=402,75=-5,124=41/1,2,3;
 4/9=2/1;
 5/5=2,7=120,8=3,13=1,38=5/2,8;
 6/7=2,8=2,9=2,10=2,28=1/1;
 7//1,2,3,16;
 1/6=100,18=20,19=15,26=4,33=1/3(2);
 2/9=110/2;
 99//99;
 2/9=110/2;
 3/5=1,6=6,7=1,8=11,11=2,25=1,30=1,71=1,74=402,75=-5,124=41/1,2,3;
 4/5=5,9=2,16=3,69=1/1;
 5/5=2,7=120,8=3,13=1,38=5/2,8;
 7//1,2,3,16;
 1/6=100,18=20,19=15,26=4,33=1/3(-5);
 2/9=110/2;
 6/7=2,8=2,9=2,10=2,19=2,28=1/1;
 99/9=1/99;
 Leave Link    1 at Wed Oct  7 12:22:27 2020, MaxMem=  2684354560 cpu:               8.0 elap:               0.8
 (Enter /udrive/faculty/rpeverati/g16/g16/l101.exe)
 ONIOM data not found on unit 2.
 ------------------
 TS search on BH76.
 ------------------
 TstMul:  ICh=     0
 TstMul:  Mul=     1
 TstMul:  ICh=     0
 TstMul:  Mul=     1
 Symbolic Z-matrix:
 Charge =  0 Multiplicity = 1
 C                    -2.05564  -0.61227   0.00001 
 C                    -1.2311    0.64045   0.00005 
 C                     0.10563   0.73428   0.00003 
 C                     1.05756  -0.37441  -0.00004 
 C                     2.38358  -0.19894  -0.00004 
 H                    -2.70509  -0.6416    0.87713 
 H                    -2.70513  -0.64151  -0.87709 
 H                    -1.45133  -1.51608  -0.00006 
 H                    -1.79367   1.56759   0.0001 
 H                     0.54576   1.72564   0.00006 
 H                     0.66526  -1.38324  -0.0001 
 H                     3.06469  -1.03772  -0.00009 
 H                     2.81928   0.79228   0.00002 
 
 RdStrC is calling ZToCFu for IStruc=1 NZ=    13.
 PrtBox:  NBox=     2 Levels=  2 BoxLen=    8.00 SMaxX=       10.90
          Shift=            5.111950            2.864980            1.657460
 Box      1 Number                   0 centers from      1 to     10:
 Box      2 Number                   4 centers from     11 to     13:
 After GenITR:
 ITRead=  0  0  0  0  0  0  0  0  0  0  0  0  0
 MicOpt= -1 -1 -1 -1 -1 -1 -1 -1 -1 -1 -1 -1 -1
 ITRead=  0  0  0  0  0  0  0  0  0  0  0  0  0
 MicOpt= -1 -1 -1 -1 -1 -1 -1 -1 -1 -1 -1 -1 -1
 NAtoms=     13 NQM=       13 NQMF=       0 NMMI=      0 NMMIF=      0
                NMic=       0 NMicF=      0.
                    Isotopes and Nuclear Properties:
 (Nuclear quadrupole moments (NQMom) in fm**2, nuclear magnetic moments (NMagM)
  in nuclear magnetons)

  Atom         1           2           3           4           5           6           7           8           9          10
 IAtWgt=          12          12          12          12          12           1           1           1           1           1
 AtmWgt=  12.0000000  12.0000000  12.0000000  12.0000000  12.0000000   1.0078250   1.0078250   1.0078250   1.0078250   1.0078250
 NucSpn=           0           0           0           0           0           1           1           1           1           1
 AtZEff=   0.0000000   0.0000000   0.0000000   0.0000000   0.0000000   0.0000000   0.0000000   0.0000000   0.0000000   0.0000000
 NQMom=    0.0000000   0.0000000   0.0000000   0.0000000   0.0000000   0.0000000   0.0000000   0.0000000   0.0000000   0.0000000
 NMagM=    0.0000000   0.0000000   0.0000000   0.0000000   0.0000000   2.7928460   2.7928460   2.7928460   2.7928460   2.7928460
 AtZNuc=   6.0000000   6.0000000   6.0000000   6.0000000   6.0000000   1.0000000   1.0000000   1.0000000   1.0000000   1.0000000

  Atom        11          12          13
 IAtWgt=           1           1           1
 AtmWgt=   1.0078250   1.0078250   1.0078250
 NucSpn=           1           1           1
 AtZEff=   0.0000000   0.0000000   0.0000000
 NQMom=    0.0000000   0.0000000   0.0000000
 NMagM=    2.7928460   2.7928460   2.7928460
 AtZNuc=   1.0000000   1.0000000   1.0000000
 No MM parameters found.
 Leave Link  101 at Wed Oct  7 12:22:28 2020, MaxMem=  2684354560 cpu:               4.2 elap:               0.5
 (Enter /udrive/faculty/rpeverati/g16/g16/l103.exe)

 GradGradGradGradGradGradGradGradGradGradGradGradGradGradGradGradGradGrad
 Berny optimization.
 Optmz: redundant internal coordinate code flag= 1
 Initialization pass.
                           ----------------------------
                           !    Initial Parameters    !
                           ! (Angstroms and Degrees)  !
 --------------------------                            --------------------------
 ! Name  Definition              Value          Derivative Info.                !
 --------------------------------------------------------------------------------
 ! R1    R(1,2)                  1.4997         estimate D2E/DX2                !
 ! R2    R(1,6)                  1.0918         estimate D2E/DX2                !
 ! R3    R(1,7)                  1.0918         estimate D2E/DX2                !
 ! R4    R(1,8)                  1.0872         estimate D2E/DX2                !
 ! R5    R(2,3)                  1.34           estimate D2E/DX2                !
 ! R6    R(2,9)                  1.0845         estimate D2E/DX2                !
 ! R7    R(3,4)                  1.4613         estimate D2E/DX2                !
 ! R8    R(3,10)                 1.0847         estimate D2E/DX2                !
 ! R9    R(4,5)                  1.3376         estimate D2E/DX2                !
 ! R10   R(4,11)                 1.0824         estimate D2E/DX2                !
 ! R11   R(5,12)                 1.0805         estimate D2E/DX2                !
 ! R12   R(5,13)                 1.0827         estimate D2E/DX2                !
 ! A1    A(2,1,6)              110.454          estimate D2E/DX2                !
 ! A2    A(2,1,7)              110.4539         estimate D2E/DX2                !
 ! A3    A(2,1,8)              112.8797         estimate D2E/DX2                !
 ! A4    A(6,1,7)              106.9071         estimate D2E/DX2                !
 ! A5    A(6,1,8)              107.96           estimate D2E/DX2                !
 ! A6    A(7,1,8)              107.9599         estimate D2E/DX2                !
 ! A7    A(1,2,3)              127.3679         estimate D2E/DX2                !
 ! A8    A(1,2,9)              115.3987         estimate D2E/DX2                !
 ! A9    A(3,2,9)              117.2333         estimate D2E/DX2                !
 ! A10   A(2,3,4)              126.6344         estimate D2E/DX2                !
 ! A11   A(2,3,10)             117.9542         estimate D2E/DX2                !
 ! A12   A(4,3,10)             115.4113         estimate D2E/DX2                !
 ! A13   A(3,4,5)              123.1115         estimate D2E/DX2                !
 ! A14   A(3,4,11)             118.1014         estimate D2E/DX2                !
 ! A15   A(5,4,11)             118.7871         estimate D2E/DX2                !
 ! A16   A(4,5,12)             121.5392         estimate D2E/DX2                !
 ! A17   A(4,5,13)             121.266          estimate D2E/DX2                !
 ! A18   A(12,5,13)            117.1948         estimate D2E/DX2                !
 ! D1    D(6,1,2,3)            120.9702         estimate D2E/DX2                !
 ! D2    D(6,1,2,9)            -59.0299         estimate D2E/DX2                !
 ! D3    D(7,1,2,3)           -120.9708         estimate D2E/DX2                !
 ! D4    D(7,1,2,9)             59.0292         estimate D2E/DX2                !
 ! D5    D(8,1,2,3)             -0.0004         estimate D2E/DX2                !
 ! D6    D(8,1,2,9)            179.9995         estimate D2E/DX2                !
 ! D7    D(1,2,3,4)             -0.0001         estimate D2E/DX2                !
 ! D8    D(1,2,3,10)          -180.0            estimate D2E/DX2                !
 ! D9    D(9,2,3,4)            180.0            estimate D2E/DX2                !
 ! D10   D(9,2,3,10)             0.0001         estimate D2E/DX2                !
 ! D11   D(2,3,4,5)           -179.9986         estimate D2E/DX2                !
 ! D12   D(2,3,4,11)             0.0014         estimate D2E/DX2                !
 ! D13   D(10,3,4,5)             0.0013         estimate D2E/DX2                !
 ! D14   D(10,3,4,11)         -179.9987         estimate D2E/DX2                !
 ! D15   D(3,4,5,12)           179.9999         estimate D2E/DX2                !
 ! D16   D(3,4,5,13)            -0.0001         estimate D2E/DX2                !
 ! D17   D(11,4,5,12)           -0.0001         estimate D2E/DX2                !
 ! D18   D(11,4,5,13)          179.9999         estimate D2E/DX2                !
 --------------------------------------------------------------------------------
 Maximum allowed force set to 1.00D+20.
 Trust Radius=3.00D-01 FncErr=1.00D-07 GrdErr=1.00D-06 EigMax=2.50D+02 EigMin=1.00D-04
 Number of steps in this run=    100 maximum allowed number of steps=    100.
 GradGradGradGradGradGradGradGradGradGradGradGradGradGradGradGradGradGrad

 Leave Link  103 at Wed Oct  7 12:22:29 2020, MaxMem=  2684354560 cpu:               1.2 elap:               0.3
 (Enter /udrive/faculty/rpeverati/g16/g16/l202.exe)
                          Input orientation:                          
 ---------------------------------------------------------------------
 Center     Atomic      Atomic             Coordinates (Angstroms)
 Number     Number       Type             X           Y           Z
 ---------------------------------------------------------------------
      1          6           0       -2.055637   -0.612274    0.000007
      2          6           0       -1.231099    0.640447    0.000049
      3          6           0        0.105634    0.734276    0.000026
      4          6           0        1.057555   -0.374407   -0.000044
      5          6           0        2.383583   -0.198936   -0.000036
      6          1           0       -2.705085   -0.641596    0.877132
      7          1           0       -2.705127   -0.641506   -0.877090
      8          1           0       -1.451332   -1.516082   -0.000055
      9          1           0       -1.793667    1.567587    0.000103
     10          1           0        0.545756    1.725642    0.000064
     11          1           0        0.665260   -1.383243   -0.000105
     12          1           0        3.064693   -1.037722   -0.000088
     13          1           0        2.819276    0.792284    0.000023
 ---------------------------------------------------------------------
                    Distance matrix (angstroms):
                    1          2          3          4          5
     1  C    0.000000
     2  C    1.499724   0.000000
     3  C    2.546426   1.340022   0.000000
     4  C    3.122266   2.503571   1.461278   0.000000
     5  C    4.458421   3.710862   2.461694   1.337588   0.000000
     6  H    1.091784   2.141388   3.249997   3.872763   5.182656
     7  H    1.091784   2.141386   3.249998   3.872768   5.182670
     8  H    1.087223   2.167746   2.736467   2.756436   4.054806
     9  H    2.195546   1.084468   2.074067   3.449755   4.535419
    10  H    3.497584   2.082033   1.084672   2.161514   2.661129
    11  H    2.828016   2.773355   2.190221   1.082425   2.086915
    12  H    5.137974   4.611950   3.449059   2.113903   1.080496
    13  H    5.073220   4.053220   2.714262   2.113014   1.082749
                    6          7          8          9         10
     6  H    0.000000
     7  H    1.754222   0.000000
     8  H    1.762408   1.762407   0.000000
     9  H    2.545653   2.545647   3.102613   0.000000
    10  H    4.115948   4.115948   3.807510   2.344757   0.000000
    11  H    3.560732   3.560729   2.120757   3.841057   3.111180
    12  H    5.849510   5.849525   4.541289   5.512830   3.739147
    13  H    5.774418   5.774436   4.854549   4.677643   2.457651
                   11         12         13
    11  H    0.000000
    12  H    2.424182   0.000000
    13  H    3.061487   1.846389   0.000000
 Stoichiometry    C5H8
 Framework group  C1[X(C5H8)]
 Deg. of freedom    33
 Full point group                 C1      NOp   1
 Largest Abelian subgroup         C1      NOp   1
 Largest concise Abelian subgroup C1      NOp   1
                         Standard orientation:                         
 ---------------------------------------------------------------------
 Center     Atomic      Atomic             Coordinates (Angstroms)
 Number     Number       Type             X           Y           Z
 ---------------------------------------------------------------------
      1          6           0       -2.055636   -0.612274    0.000007
      2          6           0       -1.231099    0.640447    0.000049
      3          6           0        0.105634    0.734276    0.000026
      4          6           0        1.057556   -0.374407   -0.000044
      5          6           0        2.383584   -0.198936   -0.000036
      6          1           0       -2.705085   -0.641596    0.877132
      7          1           0       -2.705127   -0.641506   -0.877090
      8          1           0       -1.451332   -1.516082   -0.000055
      9          1           0       -1.793668    1.567587    0.000103
     10          1           0        0.545756    1.725642    0.000064
     11          1           0        0.665261   -1.383243   -0.000105
     12          1           0        3.064693   -1.037721   -0.000088
     13          1           0        2.819276    0.792285    0.000023
 ---------------------------------------------------------------------
 Rotational constants (GHZ):          15.8794823           2.6528461           2.3052563
 Leave Link  202 at Wed Oct  7 12:22:29 2020, MaxMem=  2684354560 cpu:               1.8 elap:               0.6
 (Enter /udrive/faculty/rpeverati/g16/g16/l301.exe)
 Standard basis: 6-31G(d) (5D, 7F)
 Ernie: Thresh=  0.10000D-02 Tol=  0.10000D-05 Strict=F.
 There are    91 symmetry adapted cartesian basis functions of A   symmetry.
 There are    86 symmetry adapted basis functions of A   symmetry.
    86 basis functions,   172 primitive gaussians,    91 cartesian basis functions
    19 alpha electrons       19 beta electrons
       nuclear repulsion energy       155.8151495793 Hartrees.
 IExCor=  402 DFT=T Ex=B Corr=LYP ExCW=0 ScaHFX=  0.000000
 ScaDFX=  1.000000  1.000000  1.000000  1.000000 ScalE2=  1.000000  1.000000
 IRadAn=      5 IRanWt=     -1 IRanGd=            0 ICorTp=0 IEmpDi=141
 NAtoms=   13 NActive=   13 NUniq=   13 SFac= 1.00D+00 NAtFMM=   60 NAOKFM=F Big=F
 Integral buffers will be    131072 words long.
 Raffenetti 2 integral format.
 Two-electron integral symmetry is turned on.
 R6Disp:  Grimme-D3(BJ) Dispersion energy=       -0.0192333585 Hartrees.
 Nuclear repulsion after empirical dispersion term =      155.7959162207 Hartrees.
 Leave Link  301 at Wed Oct  7 12:22:30 2020, MaxMem=  2684354560 cpu:               1.5 elap:               0.5
 (Enter /udrive/faculty/rpeverati/g16/g16/l302.exe)
 NPDir=0 NMtPBC=     1 NCelOv=     1 NCel=       1 NClECP=     1 NCelD=      1
         NCelK=      1 NCelE2=     1 NClLst=     1 CellRange=     0.0.
 One-electron integrals computed using PRISM.
 One-electron integral symmetry used in STVInt
 NBasis=    86 RedAO= T EigKep=  2.65D-03  NBF=    86
 NBsUse=    86 1.00D-06 EigRej= -1.00D+00 NBFU=    86
 Precomputing XC quadrature grid using
 IXCGrd= 4 IRadAn=           5 IRanWt=          -1 IRanGd=           0 AccXCQ= 0.00D+00.
 Generated NRdTot=       0 NPtTot=           0 NUsed=           0 NTot=          32
 NSgBfM=    91    91    91    91    91 MxSgAt=    13 MxSgA2=    13.
 Leave Link  302 at Wed Oct  7 12:22:31 2020, MaxMem=  2684354560 cpu:               3.6 elap:               0.6
 (Enter /udrive/faculty/rpeverati/g16/g16/l303.exe)
 DipDrv:  MaxL=1.
 Leave Link  303 at Wed Oct  7 12:22:32 2020, MaxMem=  2684354560 cpu:               1.5 elap:               0.5
 (Enter /udrive/faculty/rpeverati/g16/g16/l401.exe)
 SCF N**3 symmetry information disabled.
 ExpMin= 1.61D-01 ExpMax= 3.05D+03 ExpMxC= 4.57D+02 IAcc=3 IRadAn=         5 AccDes= 0.00D+00
 Harris functional with IExCor=  402 and IRadAn=       5 diagonalized for initial guess.
 HarFok:  IExCor=  402 AccDes= 0.00D+00 IRadAn=         5 IDoV= 1 UseB2=F ITyADJ=14
 ICtDFT=  3500011 ScaDFX=  1.000000  1.000000  1.000000  1.000000
 FoFCou: FMM=F IPFlag=           0 FMFlag=      100000 FMFlg1=           0
         NFxFlg=           0 DoJE=T BraDBF=F KetDBF=T FulRan=T
         wScrn=  0.000000 ICntrl=       500 IOpCl=  0 I1Cent=   200000004 NGrid=           0
         NMat0=    1 NMatS0=      1 NMatT0=    0 NMatD0=    1 NMtDS0=    0 NMtDT0=    0
 Petite list used in FoFCou.
 Harris En= -195.380855706513    
 JPrj=0 DoOrth=F DoCkMO=F.
 Leave Link  401 at Wed Oct  7 12:22:33 2020, MaxMem=  2684354560 cpu:               8.8 elap:               1.1
 (Enter /udrive/faculty/rpeverati/g16/g16/l502.exe)
 Integral symmetry usage will be decided dynamically.
 Closed shell SCF:
 Using DIIS extrapolation, IDIIS=  1040.
 NGot=  2684354560 LenX=  2684335663 LenY=  2684326941
 Requested convergence on RMS density matrix=1.00D-08 within 120 cycles.
 Requested convergence on MAX density matrix=1.00D-06.
 Requested convergence on             energy=1.00D-06.
 No special actions if energy rises.
 Fock matrices will be formed incrementally for  20 cycles.
 Integral accuracy reduced to 1.0D-05 until final iterations.

 Cycle   1  Pass 0  IDiag  1:
 FoFJK:  IHMeth= 1 ICntrl=     500 DoSepK=F KAlg= 0 I1Cent=           0 FoldK=F
 IRaf= 980000000 NMat=       1 IRICut=       1 DoRegI=T DoRafI=F ISym2E= 0 IDoP0=0 IntGTp=1.
 FoFCou: FMM=F IPFlag=           0 FMFlag=      100000 FMFlg1=           0
         NFxFlg=           0 DoJE=T BraDBF=F KetDBF=F FulRan=T
         wScrn=  0.000000 ICntrl=       500 IOpCl=  0 I1Cent=           0 NGrid=           0
         NMat0=    1 NMatS0=      1 NMatT0=    0 NMatD0=    1 NMtDS0=    0 NMtDT0=    0
 Symmetry not used in FoFCou.
 E= -195.032206998253    
 DIIS: error= 4.85D-02 at cycle   1 NSaved=   1.
 NSaved= 1 IEnMin= 1 EnMin= -195.032206998253     IErMin= 1 ErrMin= 4.85D-02
 ErrMax= 4.85D-02  0.00D+00 EMaxC= 1.00D-01 BMatC= 1.44D-01 BMatP= 1.44D-01
 IDIUse=3 WtCom= 5.15D-01 WtEn= 4.85D-01
 Coeff-Com:  0.100D+01
 Coeff-En:   0.100D+01
 Coeff:      0.100D+01
 Gap=     0.142 Goal=   None    Shift=    0.000
 GapD=    0.142 DampG=1.000 DampE=0.500 DampFc=0.5000 IDamp=-1.
 Damping current iteration by 5.00D-01
 RMSDP=1.28D-02 MaxDP=1.81D-01              OVMax= 1.93D-01

 Cycle   2  Pass 0  IDiag  1:
 RMSU=  6.35D-03    CP:  9.74D-01
 E= -195.099535673923     Delta-E=       -0.067328675670 Rises=F Damp=T
 DIIS: error= 5.74D-03 at cycle   2 NSaved=   2.
 NSaved= 2 IEnMin= 2 EnMin= -195.099535673923     IErMin= 2 ErrMin= 5.74D-03
 ErrMax= 5.74D-03  0.00D+00 EMaxC= 1.00D-01 BMatC= 6.40D-03 BMatP= 1.44D-01
 IDIUse=3 WtCom= 9.43D-01 WtEn= 5.74D-02
 Coeff-Com:  0.139D+00 0.861D+00
 Coeff-En:   0.237D+00 0.763D+00
 Coeff:      0.145D+00 0.855D+00
 Gap=     0.146 Goal=   None    Shift=    0.000
 RMSDP=2.43D-03 MaxDP=3.58D-02 DE=-6.73D-02 OVMax= 1.14D-01

 Cycle   3  Pass 0  IDiag  1:
 RMSU=  1.81D-03    CP:  9.75D-01  7.44D-01
 E= -195.204606654738     Delta-E=       -0.105070980815 Rises=F Damp=F
 DIIS: error= 4.37D-03 at cycle   3 NSaved=   3.
 NSaved= 3 IEnMin= 3 EnMin= -195.204606654738     IErMin= 3 ErrMin= 4.37D-03
 ErrMax= 4.37D-03  0.00D+00 EMaxC= 1.00D-01 BMatC= 1.72D-03 BMatP= 6.40D-03
 IDIUse=3 WtCom= 9.56D-01 WtEn= 4.37D-02
 Coeff-Com:  0.490D-01 0.376D+00 0.575D+00
 Coeff-En:   0.000D+00 0.000D+00 0.100D+01
 Coeff:      0.468D-01 0.360D+00 0.594D+00
 Gap=     0.146 Goal=   None    Shift=    0.000
 RMSDP=8.85D-04 MaxDP=1.87D-02 DE=-1.05D-01 OVMax= 3.43D-02

 Cycle   4  Pass 0  IDiag  1:
 RMSU=  6.97D-04    CP:  9.76D-01  7.73D-01  7.16D-01
 E= -195.204978359192     Delta-E=       -0.000371704454 Rises=F Damp=F
 DIIS: error= 4.06D-03 at cycle   4 NSaved=   4.
 NSaved= 4 IEnMin= 4 EnMin= -195.204978359192     IErMin= 4 ErrMin= 4.06D-03
 ErrMax= 4.06D-03  0.00D+00 EMaxC= 1.00D-01 BMatC= 1.41D-03 BMatP= 1.72D-03
 IDIUse=3 WtCom= 9.59D-01 WtEn= 4.06D-02
 Coeff-Com:  0.159D-01 0.155D+00 0.448D+00 0.381D+00
 Coeff-En:   0.000D+00 0.000D+00 0.457D+00 0.543D+00
 Coeff:      0.152D-01 0.149D+00 0.448D+00 0.388D+00
 Gap=     0.147 Goal=   None    Shift=    0.000
 RMSDP=4.23D-04 MaxDP=1.05D-02 DE=-3.72D-04 OVMax= 1.89D-02

 Cycle   5  Pass 0  IDiag  1:
 RMSU=  2.14D-04    CP:  9.76D-01  7.68D-01  7.83D-01  5.08D-01
 E= -195.206467483086     Delta-E=       -0.001489123894 Rises=F Damp=F
 DIIS: error= 6.80D-04 at cycle   5 NSaved=   5.
 NSaved= 5 IEnMin= 5 EnMin= -195.206467483086     IErMin= 5 ErrMin= 6.80D-04
 ErrMax= 6.80D-04  0.00D+00 EMaxC= 1.00D-01 BMatC= 4.05D-05 BMatP= 1.41D-03
 IDIUse=3 WtCom= 9.93D-01 WtEn= 6.80D-03
 Coeff-Com:  0.240D-02 0.339D-01 0.165D+00 0.202D+00 0.597D+00
 Coeff-En:   0.000D+00 0.000D+00 0.000D+00 0.000D+00 0.100D+01
 Coeff:      0.238D-02 0.337D-01 0.164D+00 0.200D+00 0.600D+00
 Gap=     0.147 Goal=   None    Shift=    0.000
 RMSDP=1.05D-04 MaxDP=1.88D-03 DE=-1.49D-03 OVMax= 4.73D-03

 Cycle   6  Pass 0  IDiag  1:
 RMSU=  6.58D-05    CP:  9.76D-01  7.71D-01  7.83D-01  5.51D-01  6.58D-01
 E= -195.206496703926     Delta-E=       -0.000029220840 Rises=F Damp=F
 DIIS: error= 3.81D-04 at cycle   6 NSaved=   6.
 NSaved= 6 IEnMin= 6 EnMin= -195.206496703926     IErMin= 6 ErrMin= 3.81D-04
 ErrMax= 3.81D-04  0.00D+00 EMaxC= 1.00D-01 BMatC= 1.21D-05 BMatP= 4.05D-05
 IDIUse=3 WtCom= 9.96D-01 WtEn= 3.81D-03
 Coeff-Com:  0.366D-03 0.101D-01 0.754D-01 0.105D+00 0.421D+00 0.389D+00
 Coeff-En:   0.000D+00 0.000D+00 0.000D+00 0.000D+00 0.260D+00 0.740D+00
 Coeff:      0.364D-03 0.100D-01 0.751D-01 0.105D+00 0.420D+00 0.390D+00
 Gap=     0.147 Goal=   None    Shift=    0.000
 RMSDP=5.16D-05 MaxDP=1.31D-03 DE=-2.92D-05 OVMax= 3.34D-03

 Cycle   7  Pass 0  IDiag  1:
 RMSU=  2.87D-05    CP:  9.76D-01  7.71D-01  7.85D-01  5.36D-01  7.02D-01
                    CP:  3.88D-01
 E= -195.206508976565     Delta-E=       -0.000012272639 Rises=F Damp=F
 DIIS: error= 1.48D-04 at cycle   7 NSaved=   7.
 NSaved= 7 IEnMin= 7 EnMin= -195.206508976565     IErMin= 7 ErrMin= 1.48D-04
 ErrMax= 1.48D-04  0.00D+00 EMaxC= 1.00D-01 BMatC= 1.81D-06 BMatP= 1.21D-05
 IDIUse=3 WtCom= 9.99D-01 WtEn= 1.48D-03
 Coeff-Com:  0.388D-04 0.367D-02 0.366D-01 0.532D-01 0.239D+00 0.294D+00
 Coeff-Com:  0.373D+00
 Coeff-En:   0.000D+00 0.000D+00 0.000D+00 0.000D+00 0.000D+00 0.155D+00
 Coeff-En:   0.845D+00
 Coeff:      0.387D-04 0.366D-02 0.365D-01 0.531D-01 0.238D+00 0.294D+00
 Coeff:      0.374D+00
 Gap=     0.147 Goal=   None    Shift=    0.000
 RMSDP=1.82D-05 MaxDP=4.07D-04 DE=-1.23D-05 OVMax= 1.05D-03

 Cycle   8  Pass 0  IDiag  1:
 RMSU=  7.05D-06    CP:  9.76D-01  7.70D-01  7.87D-01  5.38D-01  6.99D-01
                    CP:  4.66D-01  4.70D-01
 E= -195.206511182100     Delta-E=       -0.000002205535 Rises=F Damp=F
 DIIS: error= 1.44D-05 at cycle   8 NSaved=   8.
 NSaved= 8 IEnMin= 8 EnMin= -195.206511182100     IErMin= 8 ErrMin= 1.44D-05
 ErrMax= 1.44D-05  0.00D+00 EMaxC= 1.00D-01 BMatC= 4.25D-08 BMatP= 1.81D-06
 IDIUse=1 WtCom= 1.00D+00 WtEn= 0.00D+00
 Coeff-Com: -0.307D-04-0.133D-03 0.610D-02 0.996D-02 0.542D-01 0.888D-01
 Coeff-Com:  0.179D+00 0.662D+00
 Coeff:     -0.307D-04-0.133D-03 0.610D-02 0.996D-02 0.542D-01 0.888D-01
 Coeff:      0.179D+00 0.662D+00
 Gap=     0.147 Goal=   None    Shift=    0.000
 RMSDP=2.59D-06 MaxDP=3.89D-05 DE=-2.21D-06 OVMax= 5.27D-05

 Initial convergence to 1.0D-05 achieved.  Increase integral accuracy.
 Cycle   9  Pass 1  IDiag  1:
 E= -195.206506479222     Delta-E=        0.000004702877 Rises=F Damp=F
 DIIS: error= 3.86D-06 at cycle   1 NSaved=   1.
 NSaved= 1 IEnMin= 1 EnMin= -195.206506479222     IErMin= 1 ErrMin= 3.86D-06
 ErrMax= 3.86D-06  0.00D+00 EMaxC= 1.00D-01 BMatC= 2.35D-09 BMatP= 2.35D-09
 IDIUse=1 WtCom= 1.00D+00 WtEn= 0.00D+00
 Coeff-Com:  0.100D+01
 Coeff:      0.100D+01
 Gap=     0.147 Goal=   None    Shift=    0.000
 RMSDP=2.59D-06 MaxDP=3.89D-05 DE= 4.70D-06 OVMax= 4.38D-05

 Cycle  10  Pass 1  IDiag  1:
 RMSU=  1.75D-06    CP:  1.00D+00
 E= -195.206506476922     Delta-E=        0.000000002300 Rises=F Damp=F
 DIIS: error= 5.39D-06 at cycle   2 NSaved=   2.
 NSaved= 2 IEnMin= 1 EnMin= -195.206506479222     IErMin= 1 ErrMin= 3.86D-06
 ErrMax= 5.39D-06  0.00D+00 EMaxC= 1.00D-01 BMatC= 4.65D-09 BMatP= 2.35D-09
 IDIUse=1 WtCom= 1.00D+00 WtEn= 0.00D+00
 Coeff-Com:  0.594D+00 0.406D+00
 Coeff:      0.594D+00 0.406D+00
 Gap=     0.147 Goal=   None    Shift=    0.000
 RMSDP=8.56D-07 MaxDP=1.93D-05 DE= 2.30D-09 OVMax= 4.31D-05

 Cycle  11  Pass 1  IDiag  1:
 RMSU=  6.90D-07    CP:  1.00D+00  7.10D-01
 E= -195.206506481210     Delta-E=       -0.000000004288 Rises=F Damp=F
 DIIS: error= 2.64D-06 at cycle   3 NSaved=   3.
 NSaved= 3 IEnMin= 3 EnMin= -195.206506481210     IErMin= 3 ErrMin= 2.64D-06
 ErrMax= 2.64D-06  0.00D+00 EMaxC= 1.00D-01 BMatC= 5.53D-10 BMatP= 2.35D-09
 IDIUse=1 WtCom= 1.00D+00 WtEn= 0.00D+00
 Coeff-Com:  0.285D+00 0.266D+00 0.449D+00
 Coeff:      0.285D+00 0.266D+00 0.449D+00
 Gap=     0.147 Goal=   None    Shift=    0.000
 RMSDP=4.06D-07 MaxDP=9.72D-06 DE=-4.29D-09 OVMax= 2.63D-05

 Cycle  12  Pass 1  IDiag  1:
 RMSU=  3.23D-07    CP:  1.00D+00  7.40D-01  6.52D-01
 E= -195.206506481621     Delta-E=       -0.000000000411 Rises=F Damp=F
 DIIS: error= 1.95D-06 at cycle   4 NSaved=   4.
 NSaved= 4 IEnMin= 4 EnMin= -195.206506481621     IErMin= 4 ErrMin= 1.95D-06
 ErrMax= 1.95D-06  0.00D+00 EMaxC= 1.00D-01 BMatC= 1.75D-10 BMatP= 5.53D-10
 IDIUse=1 WtCom= 1.00D+00 WtEn= 0.00D+00
 Coeff-Com:  0.436D-01 0.878D-01 0.371D+00 0.498D+00
 Coeff:      0.436D-01 0.878D-01 0.371D+00 0.498D+00
 Gap=     0.147 Goal=   None    Shift=    0.000
 RMSDP=2.03D-07 MaxDP=3.91D-06 DE=-4.11D-10 OVMax= 1.20D-05

 Cycle  13  Pass 1  IDiag  1:
 RMSU=  8.00D-08    CP:  1.00D+00  7.34D-01  7.64D-01  4.75D-01
 E= -195.206506481842     Delta-E=       -0.000000000221 Rises=F Damp=F
 DIIS: error= 2.87D-07 at cycle   5 NSaved=   5.
 NSaved= 5 IEnMin= 5 EnMin= -195.206506481842     IErMin= 5 ErrMin= 2.87D-07
 ErrMax= 2.87D-07  0.00D+00 EMaxC= 1.00D-01 BMatC= 4.69D-12 BMatP= 1.75D-10
 IDIUse=1 WtCom= 1.00D+00 WtEn= 0.00D+00
 Coeff-Com:  0.282D-02 0.250D-01 0.137D+00 0.254D+00 0.581D+00
 Coeff:      0.282D-02 0.250D-01 0.137D+00 0.254D+00 0.581D+00
 Gap=     0.147 Goal=   None    Shift=    0.000
 RMSDP=3.95D-08 MaxDP=6.30D-07 DE=-2.21D-10 OVMax= 1.64D-06

 Cycle  14  Pass 1  IDiag  1:
 RMSU=  1.35D-08    CP:  1.00D+00  7.39D-01  7.56D-01  5.21D-01  5.94D-01
 E= -195.206506481846     Delta-E=       -0.000000000004 Rises=F Damp=F
 DIIS: error= 6.29D-08 at cycle   6 NSaved=   6.
 NSaved= 6 IEnMin= 6 EnMin= -195.206506481846     IErMin= 6 ErrMin= 6.29D-08
 ErrMax= 6.29D-08  0.00D+00 EMaxC= 1.00D-01 BMatC= 5.01D-13 BMatP= 4.69D-12
 IDIUse=1 WtCom= 1.00D+00 WtEn= 0.00D+00
 Coeff-Com: -0.192D-03 0.130D-01 0.746D-01 0.149D+00 0.373D+00 0.391D+00
 Coeff:     -0.192D-03 0.130D-01 0.746D-01 0.149D+00 0.373D+00 0.391D+00
 Gap=     0.147 Goal=   None    Shift=    0.000
 RMSDP=9.11D-09 MaxDP=1.76D-07 DE=-4.15D-12 OVMax= 3.82D-07

 SCF Done:  E(RB-LYP) =  -195.206506482     A.U. after   14 cycles
            NFock= 14  Conv=0.91D-08     -V/T= 2.0056
 KE= 1.941184559868D+02 PE=-7.637329154759D+02 EE= 2.186120367864D+02
 Leave Link  502 at Wed Oct  7 12:22:42 2020, MaxMem=  2684354560 cpu:             102.6 elap:               9.1
 (Enter /udrive/faculty/rpeverati/g16/g16/l508.exe)
 QCSCF skips out because SCF is already converged.
 Leave Link  508 at Wed Oct  7 12:22:43 2020, MaxMem=  2684354560 cpu:               0.0 elap:               0.1
 (Enter /udrive/faculty/rpeverati/g16/g16/l601.exe)
 Copying SCF densities to generalized density rwf, IOpCl= 0 IROHF=0.

 **********************************************************************

            Population analysis using the SCF density.

 **********************************************************************

 Orbital symmetries:
       Occupied  (A) (A) (A) (A) (A) (A) (A) (A) (A) (A) (A) (A)
                 (A) (A) (A) (A) (A) (A) (A)
       Virtual   (A) (A) (A) (A) (A) (A) (A) (A) (A) (A) (A) (A)
                 (A) (A) (A) (A) (A) (A) (A) (A) (A) (A) (A) (A)
                 (A) (A) (A) (A) (A) (A) (A) (A) (A) (A) (A) (A)
                 (A) (A) (A) (A) (A) (A) (A) (A) (A) (A) (A) (A)
                 (A) (A) (A) (A) (A) (A) (A) (A) (A) (A) (A) (A)
                 (A) (A) (A) (A) (A) (A) (A)
 The electronic state is 1-A.
 Alpha  occ. eigenvalues --   -9.91358  -9.91325  -9.90834  -9.90816  -9.90263
 Alpha  occ. eigenvalues --   -0.71833  -0.66929  -0.60442  -0.51969  -0.46570
 Alpha  occ. eigenvalues --   -0.41535  -0.38763  -0.35955  -0.34571  -0.32693
 Alpha  occ. eigenvalues --   -0.31471  -0.28072  -0.26306  -0.18169
 Alpha virt. eigenvalues --   -0.03512   0.06252   0.08346   0.08949   0.11269
 Alpha virt. eigenvalues --    0.14017   0.15046   0.15217   0.17215   0.20672
 Alpha virt. eigenvalues --    0.22682   0.30757   0.35136   0.40925   0.44368
 Alpha virt. eigenvalues --    0.48322   0.48428   0.53610   0.54865   0.58458
 Alpha virt. eigenvalues --    0.58794   0.59527   0.63741   0.63958   0.64768
 Alpha virt. eigenvalues --    0.68000   0.73418   0.80379   0.81763   0.82634
 Alpha virt. eigenvalues --    0.84450   0.85426   0.88212   0.90155   0.93086
 Alpha virt. eigenvalues --    0.94871   1.04752   1.07664   1.11626   1.23972
 Alpha virt. eigenvalues --    1.28252   1.29738   1.37313   1.44857   1.48554
 Alpha virt. eigenvalues --    1.49616   1.66507   1.70141   1.77585   1.81754
 Alpha virt. eigenvalues --    1.90636   1.93074   1.97130   1.99831   2.03906
 Alpha virt. eigenvalues --    2.12018   2.18821   2.23694   2.25957   2.35397
 Alpha virt. eigenvalues --    2.41350   2.44219   2.46348   2.59148   2.70114
 Alpha virt. eigenvalues --    2.89649   3.00526
          Condensed to atoms (all electrons):
               1          2          3          4          5          6
     1  C    5.077166   0.389130  -0.033957  -0.020107   0.000732   0.363868
     2  C    0.389130   4.850904   0.651693  -0.020137   0.004869  -0.027965
     3  C   -0.033957   0.651693   4.777813   0.451082  -0.012930   0.000141
     4  C   -0.020107  -0.020137   0.451082   4.722750   0.630330   0.000425
     5  C    0.000732   0.004869  -0.012930   0.630330   5.052114  -0.000003
     6  H    0.363868  -0.027965   0.000141   0.000425  -0.000003   0.586456
     7  H    0.363868  -0.027965   0.000142   0.000425  -0.000003  -0.036058
     8  H    0.364658  -0.026328  -0.011019   0.004779  -0.000131  -0.030415
     9  H   -0.068622   0.346918  -0.026016   0.006780  -0.000260  -0.001216
    10  H    0.007741  -0.047115   0.348121  -0.060871  -0.009893  -0.000179
    11  H    0.003394  -0.010935  -0.051819   0.352887  -0.058131  -0.000123
    12  H    0.000002  -0.000272   0.004359  -0.015556   0.352676  -0.000000
    13  H   -0.000002   0.000354  -0.014786  -0.031626   0.358897   0.000000
               7          8          9         10         11         12
     1  C    0.363868   0.364658  -0.068622   0.007741   0.003394   0.000002
     2  C   -0.027965  -0.026328   0.346918  -0.047115  -0.010935  -0.000272
     3  C    0.000142  -0.011019  -0.026016   0.348121  -0.051819   0.004359
     4  C    0.000425   0.004779   0.006780  -0.060871   0.352887  -0.015556
     5  C   -0.000003  -0.000131  -0.000260  -0.009893  -0.058131   0.352676
     6  H   -0.036058  -0.030415  -0.001216  -0.000179  -0.000123  -0.000000
     7  H    0.586457  -0.030415  -0.001216  -0.000179  -0.000123  -0.000000
     8  H   -0.030415   0.573377   0.005502  -0.000047   0.006920   0.000010
     9  H   -0.001216   0.005502   0.652496  -0.013305  -0.000058   0.000004
    10  H   -0.000179  -0.000047  -0.013305   0.671784   0.006634   0.000017
    11  H   -0.000123   0.006920  -0.000058   0.006634   0.657635  -0.008964
    12  H   -0.000000   0.000010   0.000004   0.000017  -0.008964   0.599057
    13  H    0.000000   0.000004  -0.000015   0.007588   0.007003  -0.049060
              13
     1  C   -0.000002
     2  C    0.000354
     3  C   -0.014786
     4  C   -0.031626
     5  C    0.358897
     6  H    0.000000
     7  H    0.000000
     8  H    0.000004
     9  H   -0.000015
    10  H    0.007588
    11  H    0.007003
    12  H   -0.049060
    13  H    0.603720
 Mulliken charges:
               1
     1  C   -0.447871
     2  C   -0.083152
     3  C   -0.082826
     4  C   -0.021163
     5  C   -0.318268
     6  H    0.145068
     7  H    0.145068
     8  H    0.143105
     9  H    0.099007
    10  H    0.089704
    11  H    0.095679
    12  H    0.117728
    13  H    0.117920
 Sum of Mulliken charges =  -0.00000
 Mulliken charges with hydrogens summed into heavy atoms:
               1
     1  C   -0.014630
     2  C    0.015856
     3  C    0.006878
     4  C    0.074516
     5  C   -0.082619
 Electronic spatial extent (au):  <R**2>=            554.9935
 Charge=              0.0000 electrons
 Dipole moment (field-independent basis, Debye):
    X=             -0.5320    Y=             -0.1458    Z=              0.0000  Tot=              0.5517
 Quadrupole moment (field-independent basis, Debye-Ang):
   XX=            -29.2894   YY=            -29.6305   ZZ=            -33.8927
   XY=              0.0630   XZ=             -0.0001   YZ=              0.0002
 Traceless Quadrupole moment (field-independent basis, Debye-Ang):
   XX=              1.6482   YY=              1.3070   ZZ=             -2.9552
   XY=              0.0630   XZ=             -0.0001   YZ=              0.0002
 Octapole moment (field-independent basis, Debye-Ang**2):
  XXX=             -1.0448  YYY=              0.6447  ZZZ=              0.0001  XYY=              1.5508
  XXY=              0.3560  XXZ=              0.0001  XZZ=             -3.2366  YZZ=             -0.6826
  YYZ=              0.0000  XYZ=              0.0003
 Hexadecapole moment (field-independent basis, Debye-Ang**3):
 XXXX=           -569.2967 YYYY=           -127.0682 ZZZZ=            -41.3841 XXXY=             -3.6269
 XXXZ=              0.0037 YYYX=             -2.5115 YYYZ=             -0.0015 ZZZX=              0.0044
 ZZZY=             -0.0024 XXYY=           -114.7917 XXZZ=           -108.6470 YYZZ=            -30.6866
 XXYZ=             -0.0001 YYXZ=              0.0010 ZZXY=              1.7476
 N-N= 1.557959162207D+02 E-N=-7.637329106488D+02  KE= 1.941184559868D+02
 No NMR shielding tensors so no spin-rotation constants.
 Leave Link  601 at Wed Oct  7 12:22:44 2020, MaxMem=  2684354560 cpu:               3.4 elap:               0.8
 (Enter /udrive/faculty/rpeverati/g16/g16/l701.exe)
 ... and contract with generalized density number  0.
 Compute integral first derivatives.
 R6Disp: Adding Grimme-D3(BJ) dispersion energy 1st derivatives to the gradient.
 Leave Link  701 at Wed Oct  7 12:22:45 2020, MaxMem=  2684354560 cpu:               2.9 elap:               0.6
 (Enter /udrive/faculty/rpeverati/g16/g16/l702.exe)
 L702 exits ... SP integral derivatives will be done elsewhere.
 Leave Link  702 at Wed Oct  7 12:22:46 2020, MaxMem=  2684354560 cpu:               1.0 elap:               0.4
 (Enter /udrive/faculty/rpeverati/g16/g16/l703.exe)
 Integral derivatives from FoFJK, PRISM(SPDF).
 Compute integral first derivatives, UseDBF=F ICtDFT=           0.
 Calling FoFJK, ICntrl=      2527 FMM=F ISym2X=0 I1Cent= 0 IOpClX= 0 NMat=1 NMatS=1 NMatT=0.
 FoFJK:  IHMeth= 1 ICntrl=    2527 DoSepK=F KAlg= 0 I1Cent=           0 FoldK=F
 IRaf=         0 NMat=       1 IRICut=       1 DoRegI=T DoRafI=F ISym2E= 0 IDoP0=0 IntGTp=1.
 FoFCou: FMM=F IPFlag=           0 FMFlag=      100000 FMFlg1=         800
         NFxFlg=           0 DoJE=F BraDBF=F KetDBF=F FulRan=T
         wScrn=  0.000000 ICntrl=      2527 IOpCl=  0 I1Cent=           0 NGrid=           0
         NMat0=    1 NMatS0=      1 NMatT0=    0 NMatD0=    1 NMtDS0=    0 NMtDT0=    0
 Symmetry not used in FoFCou.
 Leave Link  703 at Wed Oct  7 12:22:48 2020, MaxMem=  2684354560 cpu:              15.2 elap:               1.5
 (Enter /udrive/faculty/rpeverati/g16/g16/l716.exe)
 Dipole        =-2.09319599D-01-5.73595827D-02 5.67910599D-07
 ***** Axes restored to original set *****
 -------------------------------------------------------------------
 Center     Atomic                   Forces (Hartrees/Bohr)
 Number     Number              X              Y              Z
 -------------------------------------------------------------------
      1        6           0.002896196    0.003584743   -0.000000209
      2        6          -0.010060126   -0.002831132   -0.000000056
      3        6           0.012684783   -0.006926064   -0.000000589
      4        6          -0.011146009    0.007130458    0.000000441
      5        6           0.007864512   -0.000038584   -0.000000189
      6        1          -0.006028474   -0.000814544    0.006797700
      7        1          -0.006028955   -0.000813894   -0.006797429
      8        1           0.004326768   -0.007102454   -0.000000329
      9        1          -0.005254630    0.006916275    0.000000491
     10        1           0.004213596    0.007391173    0.000000405
     11        1          -0.003952776   -0.007789248   -0.000000295
     12        1           0.006304353   -0.005979894   -0.000000383
     13        1           0.004180761    0.007273164    0.000000441
 -------------------------------------------------------------------
 Cartesian Forces:  Max     0.012684783 RMS     0.005504933
 Leave Link  716 at Wed Oct  7 12:22:48 2020, MaxMem=  2684354560 cpu:               1.4 elap:               0.5
 (Enter /udrive/faculty/rpeverati/g16/g16/l103.exe)

 GradGradGradGradGradGradGradGradGradGradGradGradGradGradGradGradGradGrad
 Berny optimization.
 Optmz: redundant internal coordinate code flag= 1
 FormGI is forming the generalized inverse of G from B-inverse, IUseBI=4.
 Internal  Forces:  Max     0.020174050 RMS     0.005440610
 Search for a local minimum.
 Step number   1 out of a maximum of  100
 All quantities printed in internal units (Hartrees-Bohrs-Radians)
 RMS Force = .54406D-02 SwitMx=.10000D-02 MixMth= 1
 Mixed Optimization -- RFO/linear search
 Second derivative matrix not updated -- first step.
 The second derivative matrix:
                          R1        R2        R3        R4        R5
           R1           0.32406
           R2           0.00000   0.34607
           R3           0.00000   0.00000   0.34607
           R4           0.00000   0.00000   0.00000   0.35136
           R5           0.00000   0.00000   0.00000   0.00000   0.57200
           R6           0.00000   0.00000   0.00000   0.00000   0.00000
           R7           0.00000   0.00000   0.00000   0.00000   0.00000
           R8           0.00000   0.00000   0.00000   0.00000   0.00000
           R9           0.00000   0.00000   0.00000   0.00000   0.00000
           R10          0.00000   0.00000   0.00000   0.00000   0.00000
           R11          0.00000   0.00000   0.00000   0.00000   0.00000
           R12          0.00000   0.00000   0.00000   0.00000   0.00000
           A1           0.00000   0.00000   0.00000   0.00000   0.00000
           A2           0.00000   0.00000   0.00000   0.00000   0.00000
           A3           0.00000   0.00000   0.00000   0.00000   0.00000
           A4           0.00000   0.00000   0.00000   0.00000   0.00000
           A5           0.00000   0.00000   0.00000   0.00000   0.00000
           A6           0.00000   0.00000   0.00000   0.00000   0.00000
           A7           0.00000   0.00000   0.00000   0.00000   0.00000
           A8           0.00000   0.00000   0.00000   0.00000   0.00000
           A9           0.00000   0.00000   0.00000   0.00000   0.00000
           A10          0.00000   0.00000   0.00000   0.00000   0.00000
           A11          0.00000   0.00000   0.00000   0.00000   0.00000
           A12          0.00000   0.00000   0.00000   0.00000   0.00000
           A13          0.00000   0.00000   0.00000   0.00000   0.00000
           A14          0.00000   0.00000   0.00000   0.00000   0.00000
           A15          0.00000   0.00000   0.00000   0.00000   0.00000
           A16          0.00000   0.00000   0.00000   0.00000   0.00000
           A17          0.00000   0.00000   0.00000   0.00000   0.00000
           A18          0.00000   0.00000   0.00000   0.00000   0.00000
           D1           0.00000   0.00000   0.00000   0.00000   0.00000
           D2           0.00000   0.00000   0.00000   0.00000   0.00000
           D3           0.00000   0.00000   0.00000   0.00000   0.00000
           D4           0.00000   0.00000   0.00000   0.00000   0.00000
           D5           0.00000   0.00000   0.00000   0.00000   0.00000
           D6           0.00000   0.00000   0.00000   0.00000   0.00000
           D7           0.00000   0.00000   0.00000   0.00000   0.00000
           D8           0.00000   0.00000   0.00000   0.00000   0.00000
           D9           0.00000   0.00000   0.00000   0.00000   0.00000
           D10          0.00000   0.00000   0.00000   0.00000   0.00000
           D11          0.00000   0.00000   0.00000   0.00000   0.00000
           D12          0.00000   0.00000   0.00000   0.00000   0.00000
           D13          0.00000   0.00000   0.00000   0.00000   0.00000
           D14          0.00000   0.00000   0.00000   0.00000   0.00000
           D15          0.00000   0.00000   0.00000   0.00000   0.00000
           D16          0.00000   0.00000   0.00000   0.00000   0.00000
           D17          0.00000   0.00000   0.00000   0.00000   0.00000
           D18          0.00000   0.00000   0.00000   0.00000   0.00000
                          R6        R7        R8        R9        R10
           R6           0.35460
           R7           0.00000   0.36805
           R8           0.00000   0.00000   0.35436
           R9           0.00000   0.00000   0.00000   0.57749
           R10          0.00000   0.00000   0.00000   0.00000   0.35703
           R11          0.00000   0.00000   0.00000   0.00000   0.00000
           R12          0.00000   0.00000   0.00000   0.00000   0.00000
           A1           0.00000   0.00000   0.00000   0.00000   0.00000
           A2           0.00000   0.00000   0.00000   0.00000   0.00000
           A3           0.00000   0.00000   0.00000   0.00000   0.00000
           A4           0.00000   0.00000   0.00000   0.00000   0.00000
           A5           0.00000   0.00000   0.00000   0.00000   0.00000
           A6           0.00000   0.00000   0.00000   0.00000   0.00000
           A7           0.00000   0.00000   0.00000   0.00000   0.00000
           A8           0.00000   0.00000   0.00000   0.00000   0.00000
           A9           0.00000   0.00000   0.00000   0.00000   0.00000
           A10          0.00000   0.00000   0.00000   0.00000   0.00000
           A11          0.00000   0.00000   0.00000   0.00000   0.00000
           A12          0.00000   0.00000   0.00000   0.00000   0.00000
           A13          0.00000   0.00000   0.00000   0.00000   0.00000
           A14          0.00000   0.00000   0.00000   0.00000   0.00000
           A15          0.00000   0.00000   0.00000   0.00000   0.00000
           A16          0.00000   0.00000   0.00000   0.00000   0.00000
           A17          0.00000   0.00000   0.00000   0.00000   0.00000
           A18          0.00000   0.00000   0.00000   0.00000   0.00000
           D1           0.00000   0.00000   0.00000   0.00000   0.00000
           D2           0.00000   0.00000   0.00000   0.00000   0.00000
           D3           0.00000   0.00000   0.00000   0.00000   0.00000
           D4           0.00000   0.00000   0.00000   0.00000   0.00000
           D5           0.00000   0.00000   0.00000   0.00000   0.00000
           D6           0.00000   0.00000   0.00000   0.00000   0.00000
           D7           0.00000   0.00000   0.00000   0.00000   0.00000
           D8           0.00000   0.00000   0.00000   0.00000   0.00000
           D9           0.00000   0.00000   0.00000   0.00000   0.00000
           D10          0.00000   0.00000   0.00000   0.00000   0.00000
           D11          0.00000   0.00000   0.00000   0.00000   0.00000
           D12          0.00000   0.00000   0.00000   0.00000   0.00000
           D13          0.00000   0.00000   0.00000   0.00000   0.00000
           D14          0.00000   0.00000   0.00000   0.00000   0.00000
           D15          0.00000   0.00000   0.00000   0.00000   0.00000
           D16          0.00000   0.00000   0.00000   0.00000   0.00000
           D17          0.00000   0.00000   0.00000   0.00000   0.00000
           D18          0.00000   0.00000   0.00000   0.00000   0.00000
                          R11       R12       A1        A2        A3
           R11          0.35934
           R12          0.00000   0.35664
           A1           0.00000   0.00000   0.16000
           A2           0.00000   0.00000   0.00000   0.16000
           A3           0.00000   0.00000   0.00000   0.00000   0.16000
           A4           0.00000   0.00000   0.00000   0.00000   0.00000
           A5           0.00000   0.00000   0.00000   0.00000   0.00000
           A6           0.00000   0.00000   0.00000   0.00000   0.00000
           A7           0.00000   0.00000   0.00000   0.00000   0.00000
           A8           0.00000   0.00000   0.00000   0.00000   0.00000
           A9           0.00000   0.00000   0.00000   0.00000   0.00000
           A10          0.00000   0.00000   0.00000   0.00000   0.00000
           A11          0.00000   0.00000   0.00000   0.00000   0.00000
           A12          0.00000   0.00000   0.00000   0.00000   0.00000
           A13          0.00000   0.00000   0.00000   0.00000   0.00000
           A14          0.00000   0.00000   0.00000   0.00000   0.00000
           A15          0.00000   0.00000   0.00000   0.00000   0.00000
           A16          0.00000   0.00000   0.00000   0.00000   0.00000
           A17          0.00000   0.00000   0.00000   0.00000   0.00000
           A18          0.00000   0.00000   0.00000   0.00000   0.00000
           D1           0.00000   0.00000   0.00000   0.00000   0.00000
           D2           0.00000   0.00000   0.00000   0.00000   0.00000
           D3           0.00000   0.00000   0.00000   0.00000   0.00000
           D4           0.00000   0.00000   0.00000   0.00000   0.00000
           D5           0.00000   0.00000   0.00000   0.00000   0.00000
           D6           0.00000   0.00000   0.00000   0.00000   0.00000
           D7           0.00000   0.00000   0.00000   0.00000   0.00000
           D8           0.00000   0.00000   0.00000   0.00000   0.00000
           D9           0.00000   0.00000   0.00000   0.00000   0.00000
           D10          0.00000   0.00000   0.00000   0.00000   0.00000
           D11          0.00000   0.00000   0.00000   0.00000   0.00000
           D12          0.00000   0.00000   0.00000   0.00000   0.00000
           D13          0.00000   0.00000   0.00000   0.00000   0.00000
           D14          0.00000   0.00000   0.00000   0.00000   0.00000
           D15          0.00000   0.00000   0.00000   0.00000   0.00000
           D16          0.00000   0.00000   0.00000   0.00000   0.00000
           D17          0.00000   0.00000   0.00000   0.00000   0.00000
           D18          0.00000   0.00000   0.00000   0.00000   0.00000
                          A4        A5        A6        A7        A8
           A4           0.16000
           A5           0.00000   0.16000
           A6           0.00000   0.00000   0.16000
           A7           0.00000   0.00000   0.00000   0.25000
           A8           0.00000   0.00000   0.00000   0.00000   0.16000
           A9           0.00000   0.00000   0.00000   0.00000   0.00000
           A10          0.00000   0.00000   0.00000   0.00000   0.00000
           A11          0.00000   0.00000   0.00000   0.00000   0.00000
           A12          0.00000   0.00000   0.00000   0.00000   0.00000
           A13          0.00000   0.00000   0.00000   0.00000   0.00000
           A14          0.00000   0.00000   0.00000   0.00000   0.00000
           A15          0.00000   0.00000   0.00000   0.00000   0.00000
           A16          0.00000   0.00000   0.00000   0.00000   0.00000
           A17          0.00000   0.00000   0.00000   0.00000   0.00000
           A18          0.00000   0.00000   0.00000   0.00000   0.00000
           D1           0.00000   0.00000   0.00000   0.00000   0.00000
           D2           0.00000   0.00000   0.00000   0.00000   0.00000
           D3           0.00000   0.00000   0.00000   0.00000   0.00000
           D4           0.00000   0.00000   0.00000   0.00000   0.00000
           D5           0.00000   0.00000   0.00000   0.00000   0.00000
           D6           0.00000   0.00000   0.00000   0.00000   0.00000
           D7           0.00000   0.00000   0.00000   0.00000   0.00000
           D8           0.00000   0.00000   0.00000   0.00000   0.00000
           D9           0.00000   0.00000   0.00000   0.00000   0.00000
           D10          0.00000   0.00000   0.00000   0.00000   0.00000
           D11          0.00000   0.00000   0.00000   0.00000   0.00000
           D12          0.00000   0.00000   0.00000   0.00000   0.00000
           D13          0.00000   0.00000   0.00000   0.00000   0.00000
           D14          0.00000   0.00000   0.00000   0.00000   0.00000
           D15          0.00000   0.00000   0.00000   0.00000   0.00000
           D16          0.00000   0.00000   0.00000   0.00000   0.00000
           D17          0.00000   0.00000   0.00000   0.00000   0.00000
           D18          0.00000   0.00000   0.00000   0.00000   0.00000
                          A9        A10       A11       A12       A13
           A9           0.16000
           A10          0.00000   0.25000
           A11          0.00000   0.00000   0.16000
           A12          0.00000   0.00000   0.00000   0.16000
           A13          0.00000   0.00000   0.00000   0.00000   0.25000
           A14          0.00000   0.00000   0.00000   0.00000   0.00000
           A15          0.00000   0.00000   0.00000   0.00000   0.00000
           A16          0.00000   0.00000   0.00000   0.00000   0.00000
           A17          0.00000   0.00000   0.00000   0.00000   0.00000
           A18          0.00000   0.00000   0.00000   0.00000   0.00000
           D1           0.00000   0.00000   0.00000   0.00000   0.00000
           D2           0.00000   0.00000   0.00000   0.00000   0.00000
           D3           0.00000   0.00000   0.00000   0.00000   0.00000
           D4           0.00000   0.00000   0.00000   0.00000   0.00000
           D5           0.00000   0.00000   0.00000   0.00000   0.00000
           D6           0.00000   0.00000   0.00000   0.00000   0.00000
           D7           0.00000   0.00000   0.00000   0.00000   0.00000
           D8           0.00000   0.00000   0.00000   0.00000   0.00000
           D9           0.00000   0.00000   0.00000   0.00000   0.00000
           D10          0.00000   0.00000   0.00000   0.00000   0.00000
           D11          0.00000   0.00000   0.00000   0.00000   0.00000
           D12          0.00000   0.00000   0.00000   0.00000   0.00000
           D13          0.00000   0.00000   0.00000   0.00000   0.00000
           D14          0.00000   0.00000   0.00000   0.00000   0.00000
           D15          0.00000   0.00000   0.00000   0.00000   0.00000
           D16          0.00000   0.00000   0.00000   0.00000   0.00000
           D17          0.00000   0.00000   0.00000   0.00000   0.00000
           D18          0.00000   0.00000   0.00000   0.00000   0.00000
                          A14       A15       A16       A17       A18
           A14          0.16000
           A15          0.00000   0.16000
           A16          0.00000   0.00000   0.16000
           A17          0.00000   0.00000   0.00000   0.16000
           A18          0.00000   0.00000   0.00000   0.00000   0.16000
           D1           0.00000   0.00000   0.00000   0.00000   0.00000
           D2           0.00000   0.00000   0.00000   0.00000   0.00000
           D3           0.00000   0.00000   0.00000   0.00000   0.00000
           D4           0.00000   0.00000   0.00000   0.00000   0.00000
           D5           0.00000   0.00000   0.00000   0.00000   0.00000
           D6           0.00000   0.00000   0.00000   0.00000   0.00000
           D7           0.00000   0.00000   0.00000   0.00000   0.00000
           D8           0.00000   0.00000   0.00000   0.00000   0.00000
           D9           0.00000   0.00000   0.00000   0.00000   0.00000
           D10          0.00000   0.00000   0.00000   0.00000   0.00000
           D11          0.00000   0.00000   0.00000   0.00000   0.00000
           D12          0.00000   0.00000   0.00000   0.00000   0.00000
           D13          0.00000   0.00000   0.00000   0.00000   0.00000
           D14          0.00000   0.00000   0.00000   0.00000   0.00000
           D15          0.00000   0.00000   0.00000   0.00000   0.00000
           D16          0.00000   0.00000   0.00000   0.00000   0.00000
           D17          0.00000   0.00000   0.00000   0.00000   0.00000
           D18          0.00000   0.00000   0.00000   0.00000   0.00000
                          D1        D2        D3        D4        D5
           D1           0.00770
           D2           0.00000   0.00770
           D3           0.00000   0.00000   0.00770
           D4           0.00000   0.00000   0.00000   0.00770
           D5           0.00000   0.00000   0.00000   0.00000   0.00770
           D6           0.00000   0.00000   0.00000   0.00000   0.00000
           D7           0.00000   0.00000   0.00000   0.00000   0.00000
           D8           0.00000   0.00000   0.00000   0.00000   0.00000
           D9           0.00000   0.00000   0.00000   0.00000   0.00000
           D10          0.00000   0.00000   0.00000   0.00000   0.00000
           D11          0.00000   0.00000   0.00000   0.00000   0.00000
           D12          0.00000   0.00000   0.00000   0.00000   0.00000
           D13          0.00000   0.00000   0.00000   0.00000   0.00000
           D14          0.00000   0.00000   0.00000   0.00000   0.00000
           D15          0.00000   0.00000   0.00000   0.00000   0.00000
           D16          0.00000   0.00000   0.00000   0.00000   0.00000
           D17          0.00000   0.00000   0.00000   0.00000   0.00000
           D18          0.00000   0.00000   0.00000   0.00000   0.00000
                          D6        D7        D8        D9        D10
           D6           0.00770
           D7           0.00000   0.02882
           D8           0.00000   0.00000   0.02882
           D9           0.00000   0.00000   0.00000   0.02882
           D10          0.00000   0.00000   0.00000   0.00000   0.02882
           D11          0.00000   0.00000   0.00000   0.00000   0.00000
           D12          0.00000   0.00000   0.00000   0.00000   0.00000
           D13          0.00000   0.00000   0.00000   0.00000   0.00000
           D14          0.00000   0.00000   0.00000   0.00000   0.00000
           D15          0.00000   0.00000   0.00000   0.00000   0.00000
           D16          0.00000   0.00000   0.00000   0.00000   0.00000
           D17          0.00000   0.00000   0.00000   0.00000   0.00000
           D18          0.00000   0.00000   0.00000   0.00000   0.00000
                          D11       D12       D13       D14       D15
           D11          0.01278
           D12          0.00000   0.01278
           D13          0.00000   0.00000   0.01278
           D14          0.00000   0.00000   0.00000   0.01278
           D15          0.00000   0.00000   0.00000   0.00000   0.02914
           D16          0.00000   0.00000   0.00000   0.00000   0.00000
           D17          0.00000   0.00000   0.00000   0.00000   0.00000
           D18          0.00000   0.00000   0.00000   0.00000   0.00000
                          D16       D17       D18
           D16          0.02914
           D17          0.00000   0.02914
           D18          0.00000   0.00000   0.02914
 ITU=  0
 Eigenvectors of the second derivative matrix:
                           1         2         3         4         5
     Eigenvalues --     0.00770   0.01278   0.01631   0.02098   0.02102
   1         R1         0.00000   0.00000  -0.00000   0.00000  -0.00000
   2         R2         0.00000   0.00000   0.00000   0.00000  -0.00000
   3         R3         0.00000  -0.00000   0.00000   0.00000   0.00000
   4         R4         0.00000   0.00000  -0.00000   0.00000   0.00000
   5         R5         0.00000   0.00000   0.00000   0.00000   0.00000
   6         R6         0.00000  -0.00000  -0.00000  -0.00000  -0.00000
   7         R7         0.00000   0.00000  -0.00000   0.00000  -0.00000
   8         R8        -0.00000   0.00000   0.00000   0.00000  -0.00000
   9         R9        -0.00000   0.00000  -0.00000  -0.00000  -0.00000
  10         R10        0.00000  -0.00000   0.00000   0.00000   0.00000
  11         R11        0.00000   0.00000   0.00000  -0.00000  -0.00000
  12         R12       -0.00000  -0.00000   0.00000  -0.00000   0.00000
  13         A1         0.00000   0.00000  -0.00000  -0.00000  -0.00000
  14         A2        -0.00000  -0.00000   0.00000   0.00000   0.00000
  15         A3         0.00000  -0.00000   0.00000   0.00000  -0.00000
  16         A4         0.00000   0.00000  -0.00000  -0.00000  -0.00000
  17         A5         0.00000  -0.00000   0.00000  -0.00000  -0.00000
  18         A6        -0.00000   0.00000  -0.00000   0.00000   0.00000
  19         A7        -0.00000   0.00000   0.00000  -0.00000   0.00000
  20         A8        -0.00000  -0.00000   0.00000  -0.00000  -0.00000
  21         A9         0.00000  -0.00000   0.00000   0.00000   0.00000
  22         A10        0.00000  -0.00000  -0.00000   0.00000  -0.00000
  23         A11        0.00000   0.00000  -0.00000   0.00000   0.00000
  24         A12       -0.00000   0.00000   0.00000   0.00000  -0.00000
  25         A13       -0.00000   0.00000   0.00000  -0.00000  -0.00000
  26         A14        0.00000   0.00000  -0.00000   0.00000  -0.00000
  27         A15       -0.00000  -0.00000   0.00000  -0.00000  -0.00000
  28         A16       -0.00000   0.00000  -0.00000   0.00000   0.00000
  29         A17       -0.00000  -0.00000  -0.00000   0.00000  -0.00000
  30         A18        0.00000  -0.00000   0.00000  -0.00000   0.00000
  31         D1         0.40825   0.00000  -0.31421   0.00000   0.00000
  32         D2         0.40825   0.00000   0.31421  -0.00000  -0.00000
  33         D3         0.40825   0.00000  -0.31421   0.00000   0.00000
  34         D4         0.40825   0.00000   0.31421  -0.00000  -0.00000
  35         D5         0.40825   0.00000  -0.31421   0.00000   0.00000
  36         D6         0.40825   0.00000   0.31421  -0.00000  -0.00000
  37         D7         0.00000   0.00000   0.31923   0.35747   0.00000
  38         D8        -0.00000   0.00000   0.31923  -0.35747  -0.00000
  39         D9        -0.00000   0.00000  -0.31923   0.35747   0.00000
  40         D10       -0.00000   0.00000  -0.31923  -0.35747  -0.00000
  41         D11        0.00000  -0.50000  -0.00000  -0.34959   0.35241
  42         D12        0.00000  -0.50000  -0.00000  -0.34959  -0.35241
  43         D13        0.00000  -0.50000   0.00000   0.34959   0.35241
  44         D14        0.00000  -0.50000  -0.00000   0.34959  -0.35241
  45         D15        0.00000  -0.00000  -0.00000   0.00000  -0.35470
  46         D16        0.00000  -0.00000  -0.00000   0.00000  -0.35470
  47         D17        0.00000  -0.00000   0.00000  -0.00000   0.35470
  48         D18        0.00000   0.00000   0.00000  -0.00000   0.35470
                           6         7         8         9        10
     Eigenvalues --     0.02882   0.02914   0.02914   0.07004   0.07359
   1         R1        -0.00000  -0.00000  -0.00000   0.00000   0.00000
   2         R2        -0.00000   0.00000  -0.00000   0.00000  -0.00000
   3         R3        -0.00000  -0.00000  -0.00000  -0.00000  -0.00000
   4         R4         0.00000   0.00000   0.00000  -0.00000   0.00000
   5         R5         0.00000  -0.00000   0.00000   0.00000  -0.00000
   6         R6         0.00000  -0.00000   0.00000  -0.00000   0.00000
   7         R7         0.00000  -0.00000   0.00000  -0.00000   0.00000
   8         R8        -0.00000  -0.00000  -0.00000  -0.00000  -0.00000
   9         R9        -0.00000   0.00000   0.00000  -0.00000  -0.00000
  10         R10        0.00000  -0.00000   0.00000   0.00000   0.00000
  11         R11       -0.00000  -0.00000  -0.00000  -0.00000   0.00000
  12         R12        0.00000  -0.00000  -0.00000  -0.00000  -0.00000
  13         A1        -0.00000   0.00000   0.00000  -0.22017  -0.11924
  14         A2        -0.00000   0.00000  -0.00000   0.22018  -0.11923
  15         A3        -0.00000  -0.00000   0.00000  -0.00001   0.24467
  16         A4         0.00000  -0.00000  -0.00000   0.00001  -0.48989
  17         A5         0.00000  -0.00000   0.00000  -0.39522   0.22843
  18         A6         0.00000   0.00000  -0.00000   0.39521   0.22845
  19         A7        -0.00000  -0.00000   0.00000  -0.00000   0.00000
  20         A8         0.00000   0.00000  -0.00000  -0.00000  -0.00000
  21         A9        -0.00000  -0.00000   0.00000   0.00000   0.00000
  22         A10        0.00000   0.00000  -0.00000  -0.00000  -0.00000
  23         A11        0.00000   0.00000  -0.00000  -0.00000   0.00000
  24         A12       -0.00000  -0.00000   0.00000   0.00000  -0.00000
  25         A13        0.00000  -0.00000   0.00000  -0.00000  -0.00000
  26         A14       -0.00000  -0.00000  -0.00000  -0.00000   0.00000
  27         A15        0.00000  -0.00000  -0.00000   0.00000   0.00000
  28         A16       -0.00000   0.00000  -0.00000  -0.00000   0.00000
  29         A17        0.00000   0.00000  -0.00000  -0.00000  -0.00000
  30         A18       -0.00000   0.00000  -0.00000   0.00000  -0.00000
  31         D1        -0.00000   0.00000   0.00000  -0.22187   0.37661
  32         D2        -0.00000   0.00000   0.00000  -0.22187   0.37661
  33         D3        -0.00000   0.00000   0.00000  -0.22185  -0.37662
  34         D4        -0.00000   0.00000   0.00000  -0.22185  -0.37662
  35         D5        -0.00000   0.00000   0.00000   0.44372   0.00001
  36         D6        -0.00000   0.00000   0.00000   0.44372   0.00001
  37         D7        -0.50000  -0.00000   0.00000  -0.00000  -0.00000
  38         D8        -0.50000  -0.00000   0.00000   0.00000  -0.00000
  39         D9        -0.50000  -0.00000   0.00000  -0.00000   0.00000
  40         D10       -0.50000  -0.00000   0.00000   0.00000   0.00000
  41         D11       -0.00000   0.00000   0.00000   0.00000  -0.00000
  42         D12       -0.00000   0.00000   0.00000   0.00000  -0.00000
  43         D13       -0.00000   0.00000  -0.00000  -0.00000  -0.00000
  44         D14       -0.00000   0.00000  -0.00000  -0.00000  -0.00000
  45         D15        0.00000  -0.68954  -0.15666   0.00000   0.00000
  46         D16       -0.00000   0.15666  -0.68954  -0.00000  -0.00000
  47         D17        0.00000  -0.68954  -0.15666   0.00000   0.00000
  48         D18       -0.00000   0.15666  -0.68954  -0.00000  -0.00000
                          11        12        13        14        15
     Eigenvalues --     0.16000   0.16000   0.16000   0.16000   0.16000
   1         R1        -0.00000  -0.00000  -0.00000  -0.00000  -0.00000
   2         R2         0.00000   0.00000   0.00000  -0.00000  -0.00000
   3         R3         0.00000   0.00000  -0.00000  -0.00000  -0.00000
   4         R4        -0.00000  -0.00000   0.00000   0.00000   0.00000
   5         R5        -0.00000   0.00000   0.00000  -0.00000   0.00000
   6         R6        -0.00000   0.00000   0.00000  -0.00000   0.00000
   7         R7        -0.00000   0.00000   0.00000   0.00000   0.00000
   8         R8        -0.00000   0.00000   0.00000  -0.00000  -0.00000
   9         R9        -0.00000   0.00000  -0.00000   0.00000  -0.00000
  10         R10       -0.00000   0.00000  -0.00000  -0.00000   0.00000
  11         R11        0.00000  -0.00000   0.00000   0.00000  -0.00000
  12         R12        0.00000   0.00000   0.00000  -0.00000   0.00000
  13         A1        -0.00052  -0.00249   0.63647  -0.11152  -0.15991
  14         A2        -0.00125  -0.00260   0.29715  -0.12512  -0.14249
  15         A3         0.00078  -0.00411  -0.03508   0.00618   0.51476
  16         A4         0.00089   0.00256  -0.46978   0.11907   0.15216
  17         A5        -0.00013   0.00359  -0.33580   0.05882  -0.18657
  18         A6         0.00028   0.00365  -0.14676   0.06640  -0.19628
  19         A7         0.00000  -0.00000  -0.00000   0.00000  -0.00000
  20         A8        -0.00186  -0.70706  -0.00140   0.00486  -0.00040
  21         A9         0.00186   0.70706   0.00140  -0.00486   0.00040
  22         A10       -0.00000   0.00000  -0.00000  -0.00000   0.00000
  23         A11        0.70710  -0.00186   0.00064   0.00032  -0.00099
  24         A12       -0.70710   0.00186  -0.00064  -0.00032   0.00099
  25         A13       -0.00000  -0.00000  -0.00000  -0.00000  -0.00000
  26         A14        0.00075  -0.00261  -0.05471  -0.59228   0.29835
  27         A15       -0.00075   0.00261   0.05471   0.59228  -0.29835
  28         A16        0.00004   0.00295   0.16015   0.39805   0.50893
  29         A17       -0.00069  -0.00621  -0.31021  -0.27157  -0.36874
  30         A18        0.00065   0.00326   0.15007  -0.12648  -0.14019
  31         D1        -0.00000  -0.00000  -0.00000   0.00000  -0.00000
  32         D2         0.00000   0.00000   0.00000  -0.00000   0.00000
  33         D3        -0.00000  -0.00000  -0.00000   0.00000  -0.00000
  34         D4         0.00000   0.00000   0.00000  -0.00000   0.00000
  35         D5        -0.00000  -0.00000  -0.00000   0.00000  -0.00000
  36         D6         0.00000   0.00000   0.00000  -0.00000   0.00000
  37         D7        -0.00000  -0.00000  -0.00000   0.00000   0.00000
  38         D8         0.00000  -0.00000  -0.00000   0.00000  -0.00000
  39         D9        -0.00000   0.00000   0.00000  -0.00000   0.00000
  40         D10        0.00000   0.00000   0.00000  -0.00000  -0.00000
  41         D11       -0.00000   0.00000  -0.00000  -0.00000   0.00000
  42         D12       -0.00000   0.00000   0.00000   0.00000  -0.00000
  43         D13        0.00000  -0.00000  -0.00000  -0.00000   0.00000
  44         D14        0.00000  -0.00000   0.00000   0.00000  -0.00000
  45         D15        0.00000  -0.00000  -0.00000  -0.00000   0.00000
  46         D16        0.00000  -0.00000  -0.00000  -0.00000   0.00000
  47         D17       -0.00000   0.00000   0.00000   0.00000  -0.00000
  48         D18       -0.00000   0.00000   0.00000   0.00000  -0.00000
                          16        17        18        19        20
     Eigenvalues --     0.16000   0.16000   0.16000   0.22000   0.22000
   1         R1         0.00000  -0.00000  -0.00000  -0.00000   0.00000
   2         R2        -0.00000  -0.00000  -0.00000   0.00000  -0.00000
   3         R3         0.00000  -0.00000   0.00000   0.00000   0.00000
   4         R4         0.00000   0.00000   0.00000   0.00000  -0.00000
   5         R5         0.00000  -0.00000   0.00000  -0.00000   0.00000
   6         R6        -0.00000   0.00000  -0.00000   0.00000  -0.00000
   7         R7        -0.00000   0.00000   0.00000  -0.00000   0.00000
   8         R8        -0.00000  -0.00000   0.00000   0.00000   0.00000
   9         R9        -0.00000   0.00000   0.00000  -0.00000   0.00000
  10         R10       -0.00000  -0.00000   0.00000   0.00000   0.00000
  11         R11        0.00000   0.00000  -0.00000  -0.00000  -0.00000
  12         R12       -0.00000   0.00000  -0.00000   0.00000  -0.00000
  13         A1         0.38833   0.28476   0.00850  -0.00000   0.00000
  14         A2        -0.39840  -0.56715   0.26535  -0.00000   0.00000
  15         A3        -0.34335   0.43774   0.31929  -0.00000   0.00000
  16         A4         0.00507   0.14210  -0.13780   0.00000  -0.00000
  17         A5        -0.03247  -0.39306  -0.17572   0.00000  -0.00000
  18         A6         0.40582   0.08155  -0.31881   0.00000  -0.00000
  19         A7         0.00000  -0.00000  -0.00000  -0.00668   0.81647
  20         A8         0.00029  -0.00158  -0.00622   0.00334  -0.40823
  21         A9        -0.00029   0.00158   0.00622   0.00334  -0.40823
  22         A10       -0.00000   0.00000   0.00000  -0.00357  -0.00239
  23         A11        0.00003  -0.00066   0.00085   0.00179   0.00119
  24         A12       -0.00003   0.00066  -0.00085   0.00179   0.00119
  25         A13        0.00000   0.00000   0.00000  -0.81646  -0.00667
  26         A14        0.14559  -0.13675  -0.13153   0.40823   0.00333
  27         A15       -0.14559   0.13675   0.13153   0.40823   0.00333
  28         A16        0.31778  -0.34992   0.01088  -0.00000  -0.00000
  29         A17        0.16742   0.13482   0.56078   0.00000   0.00000
  30         A18       -0.48520   0.21510  -0.57166  -0.00000  -0.00000
  31         D1         0.00000  -0.00000  -0.00000   0.00000  -0.00000
  32         D2        -0.00000   0.00000   0.00000  -0.00000   0.00000
  33         D3         0.00000  -0.00000  -0.00000   0.00000  -0.00000
  34         D4        -0.00000   0.00000   0.00000  -0.00000   0.00000
  35         D5         0.00000  -0.00000  -0.00000   0.00000  -0.00000
  36         D6        -0.00000   0.00000   0.00000  -0.00000   0.00000
  37         D7         0.00000  -0.00000  -0.00000  -0.00000   0.00000
  38         D8         0.00000  -0.00000  -0.00000   0.00000   0.00000
  39         D9        -0.00000   0.00000   0.00000  -0.00000  -0.00000
  40         D10       -0.00000   0.00000   0.00000   0.00000  -0.00000
  41         D11        0.00000  -0.00000  -0.00000   0.00000   0.00000
  42         D12       -0.00000   0.00000   0.00000  -0.00000   0.00000
  43         D13        0.00000  -0.00000  -0.00000   0.00000  -0.00000
  44         D14       -0.00000   0.00000   0.00000  -0.00000  -0.00000
  45         D15        0.00000  -0.00000  -0.00000  -0.00000  -0.00000
  46         D16        0.00000  -0.00000  -0.00000  -0.00000  -0.00000
  47         D17       -0.00000   0.00000   0.00000   0.00000   0.00000
  48         D18       -0.00000   0.00000   0.00000   0.00000   0.00000
                          21        22        23        24        25
     Eigenvalues --     0.22000   0.32406   0.34607   0.34607   0.35136
   1         R1         0.00000   1.00000   0.00000  -0.00000   0.00000
   2         R2         0.00000  -0.00000   0.00000  -1.00000  -0.00000
   3         R3        -0.00000  -0.00000   1.00000   0.00000  -0.00000
   4         R4         0.00000   0.00000  -0.00000   0.00000  -1.00000
   5         R5         0.00000   0.00000   0.00000   0.00000  -0.00000
   6         R6         0.00000   0.00000   0.00000   0.00000  -0.00000
   7         R7        -0.00000   0.00000   0.00000  -0.00000   0.00000
   8         R8        -0.00000  -0.00000  -0.00000  -0.00000  -0.00000
   9         R9         0.00000  -0.00000   0.00000  -0.00000  -0.00000
  10         R10       -0.00000  -0.00000   0.00000  -0.00000  -0.00000
  11         R11        0.00000  -0.00000   0.00000   0.00000  -0.00000
  12         R12        0.00000   0.00000   0.00000   0.00000  -0.00000
  13         A1        -0.00000   0.00000   0.00000  -0.00000   0.00000
  14         A2         0.00000  -0.00000  -0.00000   0.00000  -0.00000
  15         A3        -0.00000   0.00000  -0.00000  -0.00000   0.00000
  16         A4         0.00000   0.00000  -0.00000  -0.00000  -0.00000
  17         A5         0.00000  -0.00000  -0.00000   0.00000  -0.00000
  18         A6         0.00000  -0.00000   0.00000  -0.00000  -0.00000
  19         A7         0.00236  -0.00000  -0.00000   0.00000  -0.00000
  20         A8        -0.00118  -0.00000   0.00000  -0.00000   0.00000
  21         A9        -0.00118   0.00000  -0.00000   0.00000   0.00000
  22         A10        0.81649  -0.00000   0.00000   0.00000   0.00000
  23         A11       -0.40824   0.00000  -0.00000   0.00000   0.00000
  24         A12       -0.40824  -0.00000   0.00000  -0.00000   0.00000
  25         A13       -0.00359  -0.00000   0.00000  -0.00000  -0.00000
  26         A14        0.00180  -0.00000  -0.00000   0.00000   0.00000
  27         A15        0.00180   0.00000  -0.00000   0.00000   0.00000
  28         A16        0.00000   0.00000   0.00000  -0.00000   0.00000
  29         A17       -0.00000  -0.00000  -0.00000  -0.00000  -0.00000
  30         A18        0.00000   0.00000   0.00000   0.00000  -0.00000
  31         D1        -0.00000  -0.00000   0.00000  -0.00000   0.00000
  32         D2         0.00000  -0.00000  -0.00000  -0.00000   0.00000
  33         D3        -0.00000   0.00000  -0.00000   0.00000   0.00000
  34         D4         0.00000   0.00000  -0.00000   0.00000  -0.00000
  35         D5        -0.00000  -0.00000  -0.00000  -0.00000  -0.00000
  36         D6         0.00000  -0.00000  -0.00000  -0.00000  -0.00000
  37         D7         0.00000  -0.00000  -0.00000   0.00000  -0.00000
  38         D8        -0.00000   0.00000  -0.00000  -0.00000   0.00000
  39         D9         0.00000  -0.00000  -0.00000  -0.00000   0.00000
  40         D10       -0.00000  -0.00000  -0.00000   0.00000  -0.00000
  41         D11       -0.00000   0.00000   0.00000   0.00000  -0.00000
  42         D12       -0.00000   0.00000  -0.00000   0.00000  -0.00000
  43         D13        0.00000  -0.00000  -0.00000  -0.00000  -0.00000
  44         D14        0.00000  -0.00000  -0.00000   0.00000  -0.00000
  45         D15       -0.00000  -0.00000  -0.00000  -0.00000  -0.00000
  46         D16       -0.00000  -0.00000  -0.00000   0.00000   0.00000
  47         D17        0.00000  -0.00000  -0.00000  -0.00000  -0.00000
  48         D18        0.00000   0.00000  -0.00000   0.00000   0.00000
                          26        27        28        29        30
     Eigenvalues --     0.35436   0.35460   0.35664   0.35703   0.35934
   1         R1        -0.00000  -0.00000   0.00000  -0.00000  -0.00000
   2         R2         0.00000   0.00000  -0.00000  -0.00000  -0.00000
   3         R3        -0.00000  -0.00000   0.00000  -0.00000   0.00000
   4         R4         0.00000  -0.00000   0.00000  -0.00000   0.00000
   5         R5        -0.00000  -0.00000  -0.00000  -0.00000   0.00000
   6         R6         0.00000   1.00000  -0.00000   0.00000  -0.00000
   7         R7        -0.00000  -0.00000   0.00000   0.00000   0.00000
   8         R8        -1.00000   0.00000  -0.00000  -0.00000   0.00000
   9         R9        -0.00000  -0.00000  -0.00000   0.00000  -0.00000
  10         R10       -0.00000  -0.00000  -0.00000   1.00000   0.00000
  11         R11       -0.00000  -0.00000   0.00000   0.00000  -1.00000
  12         R12        0.00000  -0.00000  -1.00000  -0.00000  -0.00000
  13         A1        -0.00000  -0.00000   0.00000   0.00000   0.00000
  14         A2         0.00000   0.00000  -0.00000  -0.00000  -0.00000
  15         A3         0.00000  -0.00000   0.00000  -0.00000  -0.00000
  16         A4        -0.00000  -0.00000   0.00000  -0.00000   0.00000
  17         A5        -0.00000   0.00000  -0.00000   0.00000   0.00000
  18         A6        -0.00000   0.00000  -0.00000   0.00000   0.00000
[...]
   A13        2.16036   0.00007   0.00026   0.00019   0.00045   2.16082
   A14        2.05181  -0.00002   0.00012  -0.00016  -0.00004   2.05177
   A15        2.07101  -0.00006  -0.00038  -0.00003  -0.00041   2.07060
   A16        2.12708  -0.00001   0.00006  -0.00011  -0.00005   2.12703
   A17        2.11946   0.00002   0.00001   0.00016   0.00017   2.11963
   A18        2.03664  -0.00001  -0.00007  -0.00006  -0.00012   2.03652
    D1        2.11384   0.00000   0.00007  -0.00003   0.00005   2.11388
    D2       -1.02776   0.00000   0.00007  -0.00003   0.00005  -1.02771
    D3       -2.11384  -0.00000  -0.00007   0.00003  -0.00005  -2.11389
    D4        1.02775  -0.00000  -0.00007   0.00003  -0.00005   1.02770
    D5       -0.00000   0.00000   0.00000   0.00000   0.00000  -0.00000
    D6        3.14159   0.00000   0.00000   0.00000   0.00000   3.14159
    D7       -0.00000   0.00000   0.00000   0.00000   0.00000   0.00000
    D8       -3.14159  -0.00000  -0.00000  -0.00000  -0.00000  -3.14159
    D9        3.14159   0.00000   0.00000   0.00000   0.00000   3.14159
   D10       -0.00000  -0.00000  -0.00000  -0.00000  -0.00000  -0.00000
   D11       -3.14159  -0.00000  -0.00000  -0.00000  -0.00000  -3.14159
   D12        0.00000  -0.00000  -0.00000  -0.00000  -0.00000   0.00000
   D13        0.00000  -0.00000  -0.00000  -0.00000  -0.00000   0.00000
   D14       -3.14159  -0.00000  -0.00000  -0.00000  -0.00000  -3.14159
   D15        3.14159   0.00000   0.00000   0.00000   0.00000  -3.14159
   D16       -0.00000   0.00000   0.00000   0.00000   0.00000   0.00000
   D17       -0.00000   0.00000   0.00000   0.00000   0.00000   0.00000
   D18        3.14159   0.00000   0.00000   0.00000   0.00000  -3.14159
         Item               Value     Threshold  Converged?
 Maximum Force            0.000109     0.000450     YES
 RMS     Force            0.000030     0.000300     YES
 Maximum Displacement     0.001285     0.001800     YES
 RMS     Displacement     0.000316     0.001200     YES
 Predicted change in Energy=-9.512700D-08
 Optimization completed.
    -- Stationary point found.
                           ----------------------------
                           !   Optimized Parameters   !
                           ! (Angstroms and Degrees)  !
 --------------------------                            --------------------------
 ! Name  Definition              Value          Derivative Info.                !
 --------------------------------------------------------------------------------
 ! R1    R(1,2)                  1.509          -DE/DX =    0.0                 !
 ! R2    R(1,6)                  1.1062         -DE/DX =    0.0                 !
 ! R3    R(1,7)                  1.1062         -DE/DX =    0.0                 !
 ! R4    R(1,8)                  1.1001         -DE/DX =    0.0                 !
 ! R5    R(2,3)                  1.3577         -DE/DX =    0.0001              !
 ! R6    R(2,9)                  1.0971         -DE/DX =    0.0                 !
 ! R7    R(3,4)                  1.4596         -DE/DX =    0.0                 !
 ! R8    R(3,10)                 1.0975         -DE/DX =    0.0                 !
 ! R9    R(4,5)                  1.3532         -DE/DX =    0.0001              !
 ! R10   R(4,11)                 1.0957         -DE/DX =    0.0                 !
 ! R11   R(5,12)                 1.0928         -DE/DX =    0.0                 !
 ! R12   R(5,13)                 1.0951         -DE/DX =    0.0                 !
 ! A1    A(2,1,6)              110.7778         -DE/DX =    0.0                 !
 ! A2    A(2,1,7)              110.7778         -DE/DX =    0.0                 !
 ! A3    A(2,1,8)              113.0224         -DE/DX =    0.0                 !
 ! A4    A(6,1,7)              106.348          -DE/DX =    0.0                 !
 ! A5    A(6,1,8)              107.8134         -DE/DX =    0.0                 !
 ! A6    A(7,1,8)              107.8135         -DE/DX =    0.0                 !
 ! A7    A(1,2,3)              127.4758         -DE/DX =    0.0                 !
 ! A8    A(1,2,9)              115.0904         -DE/DX =    0.0                 !
 ! A9    A(3,2,9)              117.4338         -DE/DX =    0.0                 !
 ! A10   A(2,3,4)              126.9314         -DE/DX =    0.0                 !
 ! A11   A(2,3,10)             117.8563         -DE/DX =    0.0                 !
 ! A12   A(4,3,10)             115.2122         -DE/DX =    0.0                 !
 ! A13   A(3,4,5)              123.7797         -DE/DX =    0.0001              !
 ! A14   A(3,4,11)             117.5602         -DE/DX =    0.0                 !
 ! A15   A(5,4,11)             118.6601         -DE/DX =   -0.0001              !
 ! A16   A(4,5,12)             121.8728         -DE/DX =    0.0                 !
 ! A17   A(4,5,13)             121.4361         -DE/DX =    0.0                 !
 ! A18   A(12,5,13)            116.6912         -DE/DX =    0.0                 !
 ! D1    D(6,1,2,3)            121.1139         -DE/DX =    0.0                 !
 ! D2    D(6,1,2,9)            -58.8861         -DE/DX =    0.0                 !
 ! D3    D(7,1,2,3)           -121.1144         -DE/DX =    0.0                 !
 ! D4    D(7,1,2,9)             58.8857         -DE/DX =    0.0                 !
 ! D5    D(8,1,2,3)             -0.0002         -DE/DX =    0.0                 !
 ! D6    D(8,1,2,9)            179.9998         -DE/DX =    0.0                 !
 ! D7    D(1,2,3,4)              0.0            -DE/DX =    0.0                 !
 ! D8    D(1,2,3,10)          -180.0            -DE/DX =    0.0                 !
 ! D9    D(9,2,3,4)            180.0            -DE/DX =    0.0                 !
 ! D10   D(9,2,3,10)             0.0            -DE/DX =    0.0                 !
 ! D11   D(2,3,4,5)           -179.9999         -DE/DX =    0.0                 !
 ! D12   D(2,3,4,11)             0.0001         -DE/DX =    0.0                 !
 ! D13   D(10,3,4,5)             0.0001         -DE/DX =    0.0                 !
 ! D14   D(10,3,4,11)         -179.9999         -DE/DX =    0.0                 !
 ! D15   D(3,4,5,12)          -180.0            -DE/DX =    0.0                 !
 ! D16   D(3,4,5,13)             0.0            -DE/DX =    0.0                 !
 ! D17   D(11,4,5,12)            0.0            -DE/DX =    0.0                 !
 ! D18   D(11,4,5,13)         -180.0            -DE/DX =    0.0                 !
 --------------------------------------------------------------------------------
 Lowest energy point so far.  Saving SCF results.
 Largest change from initial coordinates is atom   13       0.042 Angstoms.
 GradGradGradGradGradGradGradGradGradGradGradGradGradGradGradGradGradGrad

 Leave Link  103 at Wed Oct  7 12:23:52 2020, MaxMem=  2684354560 cpu:               5.3 elap:               0.9
 (Enter /udrive/faculty/rpeverati/g16/g16/l202.exe)
                          Input orientation:                          
 ---------------------------------------------------------------------
 Center     Atomic      Atomic             Coordinates (Angstroms)
 Number     Number       Type             X           Y           Z
 ---------------------------------------------------------------------
      1          6           0       -2.074978   -0.615789    0.000002
      2          6           0       -1.242161    0.642532    0.000051
      3          6           0        0.112220    0.736700    0.000035
      4          6           0        1.068025   -0.366375   -0.000034
      5          6           0        2.410769   -0.198437   -0.000043
      6          1           0       -2.737203   -0.648102    0.885460
      7          1           0       -2.737236   -0.648011   -0.885435
      8          1           0       -1.468123   -1.533374   -0.000056
      9          1           0       -1.813919    1.578816    0.000105
     10          1           0        0.556503    1.740271    0.000077
     11          1           0        0.665887   -1.385637   -0.000080
     12          1           0        3.098505   -1.047665   -0.000095
     13          1           0        2.861522    0.799541    0.000001
 ---------------------------------------------------------------------
                    Distance matrix (angstroms):
                    1          2          3          4          5
     1  C    0.000000
     2  C    1.508958   0.000000
     3  C    2.571587   1.357650   0.000000
     4  C    3.152884   2.520883   1.459567   0.000000
     5  C    4.505121   3.748483   2.481494   1.353205   0.000000
     6  H    1.106175   2.164448   3.289508   3.917043   5.242893
     7  H    1.106174   2.164448   3.289510   3.917048   5.242899
     8  H    1.100107   2.187607   2.765993   2.791762   4.102178
     9  H    2.210077   1.097058   2.102183   3.476977   4.583298
    10  H    3.532097   2.107183   1.097517   2.167859   2.682703
    11  H    2.846930   2.784622   2.193368   1.095724   2.110464
    12  H    5.191478   4.658127   3.478772   2.141729   1.092780
    13  H    5.135386   4.106685   2.750020   2.139156   1.095051
                    6          7          8          9         10
     6  H    0.000000
     7  H    1.770895   0.000000
     8  H    1.782809   1.782809   0.000000
     9  H    2.568164   2.568161   3.131341   0.000000
    10  H    4.163739   4.163741   3.849138   2.375914   0.000000
    11  H    3.592932   3.592937   2.139118   3.864896   3.127821
    12  H    5.916024   5.916030   4.592385   5.570486   3.772845
    13  H    5.850250   5.850256   4.918162   4.739939   2.489596
                   11         12         13
    11  H    0.000000
    12  H    2.455983   0.000000
    13  H    3.097711   1.862346   0.000000
 Stoichiometry    C5H8
 Framework group  C1[X(C5H8)]
 Deg. of freedom    33
 Full point group                 C1      NOp   1
 RotChk:  IX=0 Diff= 1.30D-15
 Largest Abelian subgroup         C1      NOp   1
 Largest concise Abelian subgroup C1      NOp   1
                         Standard orientation:                         
 ---------------------------------------------------------------------
 Center     Atomic      Atomic             Coordinates (Angstroms)
 Number     Number       Type             X           Y           Z
 ---------------------------------------------------------------------
      1          6           0       -2.077959   -0.613123    0.000001
      2          6           0       -1.242770    0.643624    0.000050
      3          6           0        0.111786    0.735237    0.000034
      4          6           0        1.065509   -0.369639   -0.000035
      5          6           0        2.408568   -0.204234   -0.000044
      6          1           0       -2.740244   -0.644187    0.885459
      7          1           0       -2.740276   -0.644096   -0.885436
      8          1           0       -1.472837   -1.531851   -0.000057
      9          1           0       -1.812761    1.580985    0.000105
     10          1           0        0.557962    1.737968    0.000076
     11          1           0        0.661449   -1.388141   -0.000081
     12          1           0        3.094700   -1.054759   -0.000096
     13          1           0        2.861202    0.792892   -0.000000
 ---------------------------------------------------------------------
 Rotational constants (GHZ):          15.7403490           2.5970719           2.2607756
 Leave Link  202 at Wed Oct  7 12:23:52 2020, MaxMem=  2684354560 cpu:               1.2 elap:               0.4
 (Enter /udrive/faculty/rpeverati/g16/g16/l601.exe)
 Copying SCF densities to generalized density rwf, IOpCl= 0 IROHF=0.

 **********************************************************************

            Population analysis using the SCF density.

 **********************************************************************

 Orbital symmetries:
       Occupied  (A) (A) (A) (A) (A) (A) (A) (A) (A) (A) (A) (A)
                 (A) (A) (A) (A) (A) (A) (A)
       Virtual   (A) (A) (A) (A) (A) (A) (A) (A) (A) (A) (A) (A)
                 (A) (A) (A) (A) (A) (A) (A) (A) (A) (A) (A) (A)
                 (A) (A) (A) (A) (A) (A) (A) (A) (A) (A) (A) (A)
                 (A) (A) (A) (A) (A) (A) (A) (A) (A) (A) (A) (A)
                 (A) (A) (A) (A) (A) (A) (A) (A) (A) (A) (A) (A)
                 (A) (A) (A) (A) (A) (A) (A)
 The electronic state is 1-A.
 Alpha  occ. eigenvalues --   -9.91894  -9.91757  -9.91371  -9.91318  -9.90779
 Alpha  occ. eigenvalues --   -0.71478  -0.66569  -0.60140  -0.51898  -0.46326
 Alpha  occ. eigenvalues --   -0.41302  -0.38466  -0.35630  -0.34543  -0.32538
 Alpha  occ. eigenvalues --   -0.31412  -0.28123  -0.26181  -0.18040
 Alpha virt. eigenvalues --   -0.03965   0.05925   0.07969   0.08606   0.10899
 Alpha virt. eigenvalues --    0.13582   0.14618   0.14803   0.16603   0.20153
 Alpha virt. eigenvalues --    0.22295   0.30252   0.34812   0.40181   0.44367
 Alpha virt. eigenvalues --    0.48408   0.48500   0.53557   0.54346   0.58064
 Alpha virt. eigenvalues --    0.59090   0.59137   0.63329   0.63341   0.64719
 Alpha virt. eigenvalues --    0.68025   0.72393   0.79503   0.81053   0.81658
 Alpha virt. eigenvalues --    0.83590   0.84641   0.87258   0.89020   0.92218
 Alpha virt. eigenvalues --    0.94159   1.03662   1.07315   1.10877   1.23264
 Alpha virt. eigenvalues --    1.28089   1.28780   1.36995   1.44030   1.48613
 Alpha virt. eigenvalues --    1.49843   1.66425   1.69762   1.76904   1.80569
 Alpha virt. eigenvalues --    1.88819   1.91421   1.96116   1.98153   2.02921
 Alpha virt. eigenvalues --    2.09802   2.16856   2.21842   2.24176   2.33643
 Alpha virt. eigenvalues --    2.39715   2.41730   2.45071   2.57588   2.68777
 Alpha virt. eigenvalues --    2.87940   2.98079
          Condensed to atoms (all electrons):
               1          2          3          4          5          6
     1  C    5.079451   0.386217  -0.033425  -0.018327   0.000592   0.361692
     2  C    0.386217   4.862587   0.640846  -0.020838   0.004534  -0.027760
     3  C   -0.033425   0.640846   4.787133   0.453509  -0.014382   0.000172
     4  C   -0.018327  -0.020838   0.453509   4.730933   0.622516   0.000382
     5  C    0.000592   0.004534  -0.014382   0.622516   5.061395  -0.000001
     6  H    0.361692  -0.027760   0.000172   0.000382  -0.000001   0.589714
     7  H    0.361692  -0.027760   0.000172   0.000382  -0.000001  -0.036240
     8  H    0.363306  -0.026427  -0.010119   0.004269  -0.000113  -0.030018
     9  H   -0.066048   0.346959  -0.026049   0.006157  -0.000225  -0.001153
    10  H    0.007024  -0.045488   0.347079  -0.059596  -0.009532  -0.000158
    11  H    0.003466  -0.010649  -0.051073   0.351254  -0.055941  -0.000124
    12  H    0.000002  -0.000233   0.003968  -0.015886   0.352662  -0.000000
    13  H   -0.000001   0.000268  -0.013322  -0.031333   0.357615   0.000000
               7          8          9         10         11         12
     1  C    0.361692   0.363306  -0.066048   0.007024   0.003466   0.000002
     2  C   -0.027760  -0.026427   0.346959  -0.045488  -0.010649  -0.000233
     3  C    0.000172  -0.010119  -0.026049   0.347079  -0.051073   0.003968
     4  C    0.000382   0.004269   0.006157  -0.059596   0.351254  -0.015886
     5  C   -0.000001  -0.000113  -0.000225  -0.009532  -0.055941   0.352662
     6  H   -0.036240  -0.030018  -0.001153  -0.000158  -0.000124  -0.000000
     7  H    0.589714  -0.030018  -0.001153  -0.000158  -0.000124  -0.000000
     8  H   -0.030018   0.575208   0.005125  -0.000037   0.006803   0.000008
     9  H   -0.001153   0.005125   0.647580  -0.011974  -0.000049   0.000003
    10  H   -0.000158  -0.000037  -0.011974   0.667775   0.006439   0.000006
    11  H   -0.000124   0.006803  -0.000049   0.006439   0.655405  -0.008127
    12  H   -0.000000   0.000008   0.000003   0.000006  -0.008127   0.596112
    13  H    0.000000   0.000004  -0.000011   0.007311   0.006414  -0.047728
              13
     1  C   -0.000001
     2  C    0.000268
     3  C   -0.013322
     4  C   -0.031333
     5  C    0.357615
     6  H    0.000000
     7  H    0.000000
     8  H    0.000004
     9  H   -0.000011
    10  H    0.007311
    11  H    0.006414
    12  H   -0.047728
    13  H    0.602503
 Mulliken charges:
               1
     1  C   -0.445641
     2  C   -0.082256
     3  C   -0.084509
     4  C   -0.023421
     5  C   -0.319118
     6  H    0.143494
     7  H    0.143494
     8  H    0.142010
     9  H    0.100839
    10  H    0.091309
    11  H    0.096305
    12  H    0.119213
    13  H    0.118280
 Sum of Mulliken charges =  -0.00000
 Mulliken charges with hydrogens summed into heavy atoms:
               1
     1  C   -0.016643
     2  C    0.018583
     3  C    0.006800
     4  C    0.072884
     5  C   -0.081625
 Electronic spatial extent (au):  <R**2>=            564.9597
 Charge=              0.0000 electrons
 Dipole moment (field-independent basis, Debye):
    X=             -0.5357    Y=             -0.1434    Z=              0.0000  Tot=              0.5546
 Quadrupole moment (field-independent basis, Debye-Ang):
   XX=            -29.2110   YY=            -29.7031   ZZ=            -34.0924
   XY=              0.0794   XZ=             -0.0001   YZ=              0.0002
 Traceless Quadrupole moment (field-independent basis, Debye-Ang):
   XX=              1.7912   YY=              1.2991   ZZ=             -3.0903
   XY=              0.0794   XZ=             -0.0001   YZ=              0.0002
 Octapole moment (field-independent basis, Debye-Ang**2):
  XXX=             -0.8471  YYY=              0.6811  ZZZ=              0.0001  XYY=              1.5553
  XXY=              0.3117  XXZ=             -0.0001  XZZ=             -3.2961  YZZ=             -0.6851
  YYZ=              0.0001  XYZ=              0.0002
 Hexadecapole moment (field-independent basis, Debye-Ang**3):
 XXXX=           -580.9237 YYYY=           -128.5370 ZZZZ=            -41.9333 XXXY=             -3.7066
 XXXZ=              0.0035 YYYX=             -2.5858 YYYZ=             -0.0017 ZZZX=              0.0045
 ZZZY=             -0.0026 XXYY=           -117.0051 XXZZ=           -111.4224 YYZZ=            -31.1379
 XXYZ=             -0.0002 YYXZ=              0.0009 ZZXY=              1.8048
 N-N= 1.543677608445D+02 E-N=-7.606770689818D+02  KE= 1.938710691422D+02
 No NMR shielding tensors so no spin-rotation constants.
 Leave Link  601 at Wed Oct  7 12:23:53 2020, MaxMem=  2684354560 cpu:               3.3 elap:               0.7
 (Enter /udrive/faculty/rpeverati/g16/g16/l9999.exe)

 Test job not archived.
 1\1\GINC-NODE59\FOpt\RBLYP\6-31G(d)\C5H8\RPEVERATI\07-Oct-2020\0\\#P O
 pt(MaxCyc=100) BLYP/6-31G* 5D 7F Integral=UltraFineGrid SCF=(NoSymm,XQ
 C,MaxCyc=120) EmpiricalDispersion=GD3BJ IOp(1/33=1)\\TS search on BH76
 .\\0,1\C,-2.0749781103,-0.6157885996,0.0000017254\C,-1.2421607849,0.64
 25319576,0.0000506772\C,0.1122197839,0.7366996492,0.0000346719\C,1.068
 0252856,-0.3663745816,-0.0000338497\C,2.4107693778,-0.1984369805,-0.00
 00434687\H,-2.7372026972,-0.6481017051,0.8854601383\H,-2.7372357534,-0
 .6480109029,-0.8854352016\H,-1.4681234114,-1.5333736805,-0.0000564664\
 H,-1.8139192762,1.5788158773,0.0001054933\H,0.556502907,1.7402710711,0
 .0000772723\H,0.6658872775,-1.3856371487,-0.0000799125\H,3.0985045393,
 -1.0476654573,-0.0000954909\H,2.861521926,0.7995408942,0.0000007462\\V
 ersion=ES64L-G16RevA.03\State=1-A\HF=-195.208072\RMSD=8.600e-09\RMSF=4
 .863e-05\Dipole=-0.2106731,-0.0568162,0.0000006\Quadrupole=1.3314954,0
 .9660481,-2.2975435,0.0597422,-0.0000502,0.0001617\PG=C01 [X(C5H8)]\\@


 AN AIRPLANE IS A COLLECTION OF SPARE PARTS
 FLYING IN CLOSE FORMATION.
 Job cpu time:       0 days  0 hours 10 minutes  9.8 seconds.
 Elapsed time:       0 days  0 hours  1 minutes 12.2 seconds.
 File lengths (MBytes):  RWF=      9 Int=      0 D2E=      0 Chk=      2 Scr=      1
 Normal termination of Gaussian 16 at Wed Oct  7 12:23:55 2020.
