 Entering Gaussian System, Link 0=g16
 Input=MN_39_fch3fts_BH76_BLYPDBJ_631Gs.in
 Output=MN_39_fch3fts_BH76_BLYPDBJ_631Gs.log
 Initial command:
 /udrive/faculty/rpeverati/g16/g16/l1.exe "/udrive/scratch-directories/gaussian09/rpeverati/Gau-23334.inp" -scrdir="/udrive/scratch-directories/gaussian09/rpeverati/"
 Entering Link 1 = /udrive/faculty/rpeverati/g16/g16/l1.exe PID=     23335.
  
 Copyright (c) 1988,1990,1992,1993,1995,1998,2003,2009,2016,
            Gaussian, Inc.  All Rights Reserved.
  
 This is part of the Gaussian(R) 16 program.  It is based on
 the Gaussian(R) 09 system (copyright 2009, Gaussian, Inc.),
 the Gaussian(R) 03 system (copyright 2003, Gaussian, Inc.),
 the Gaussian(R) 98 system (copyright 1998, Gaussian, Inc.),
 the Gaussian(R) 94 system (copyright 1995, Gaussian, Inc.),
 the Gaussian 92(TM) system (copyright 1992, Gaussian, Inc.),
 the Gaussian 90(TM) system (copyright 1990, Gaussian, Inc.),
 the Gaussian 88(TM) system (copyright 1988, Gaussian, Inc.),
 the Gaussian 86(TM) system (copyright 1986, Carnegie Mellon
 University), and the Gaussian 82(TM) system (copyright 1983,
 Carnegie Mellon University). Gaussian is a federally registered
 trademark of Gaussian, Inc.
  
 This software contains proprietary and confidential information,
 including trade secrets, belonging to Gaussian, Inc.
  
 This software is provided under written license and may be
 used, copied, transmitted, or stored only in accord with that
 written license.
  
 The following legend is applicable only to US Government
 contracts under FAR:
  
                    RESTRICTED RIGHTS LEGEND
  
 Use, reproduction and disclosure by the US Government is
 subject to restrictions as set forth in subparagraphs (a)
 and (c) of the Commercial Computer Software - Restricted
 Rights clause in FAR 52.227-19.
  
 Gaussian, Inc.
 340 Quinnipiac St., Bldg. 40, Wallingford CT 06492
  
  
 ---------------------------------------------------------------
 Warning -- This program may not be used in any manner that
 competes with the business of Gaussian, Inc. or will provide
 assistance to any competitor of Gaussian, Inc.  The licensee
 of this program is prohibited from giving any competitor of
 Gaussian, Inc. access to this program.  By using this program,
 the user acknowledges that Gaussian, Inc. is engaged in the
 business of creating and licensing software in the field of
 computational chemistry and represents and warrants to the
 licensee that it is not a competitor of Gaussian, Inc. and that
 it will not use this program in any manner prohibited above.
 ---------------------------------------------------------------
  

 Cite this work as:
 Gaussian 16, Revision A.03,
 M. J. Frisch, G. W. Trucks, H. B. Schlegel, G. E. Scuseria, 
 M. A. Robb, J. R. Cheeseman, G. Scalmani, V. Barone, 
 G. A. Petersson, H. Nakatsuji, X. Li, M. Caricato, A. V. Marenich, 
 J. Bloino, B. G. Janesko, R. Gomperts, B. Mennucci, H. P. Hratchian, 
 J. V. Ortiz, A. F. Izmaylov, J. L. Sonnenberg, D. Williams-Young, 
 F. Ding, F. Lipparini, F. Egidi, J. Goings, B. Peng, A. Petrone, 
 T. Henderson, D. Ranasinghe, V. G. Zakrzewski, J. Gao, N. Rega, 
 G. Zheng, W. Liang, M. Hada, M. Ehara, K. Toyota, R. Fukuda, 
 J. Hasegawa, M. Ishida, T. Nakajima, Y. Honda, O. Kitao, H. Nakai, 
 T. Vreven, K. Throssell, J. A. Montgomery, Jr., J. E. Peralta, 
 F. Ogliaro, M. J. Bearpark, J. J. Heyd, E. N. Brothers, K. N. Kudin, 
 V. N. Staroverov, T. A. Keith, R. Kobayashi, J. Normand, 
 K. Raghavachari, A. P. Rendell, J. C. Burant, S. S. Iyengar, 
 J. Tomasi, M. Cossi, J. M. Millam, M. Klene, C. Adamo, R. Cammi, 
 J. W. Ochterski, R. L. Martin, K. Morokuma, O. Farkas, 
 J. B. Foresman, and D. J. Fox, Gaussian, Inc., Wallingford CT, 2016.
 
 ******************************************
 Gaussian 16:  ES64L-G16RevA.03 25-Dec-2016
                 7-Oct-2020 
 ******************************************
 %NoSave
 %nproc=12
 Will use up to   12 processors via shared memory.
 %mem=20GB
 %chk=MN_39_fch3fts_BH76_BLYPDBJ_631Gs
 ----------------------------------------------------------------------
 #P Opt(TS,MaxCyc=50,NoEigenTest,MaxStep=10,AddRedundant) BLYP/6-31G* 5
 D 7F Integral=UltraFineGrid SCF=(NoSymm,XQC,MaxCyc=120) EmpiricalDispe
 rsion=GD3BJ IOp(1/33=1)
 ----------------------------------------------------------------------
 1/5=1,6=50,8=10,11=1,18=120,26=4,33=1,38=1/1,3;
 2/9=110,12=2,17=6,18=5,40=1/2;
 3/5=1,6=6,7=1,8=11,11=2,25=1,30=1,71=1,74=402,75=-5,124=41/1,2,3;
 4/9=2/1;
 5/5=2,7=120,8=3,13=1,38=5/2,8;
 6/7=2,8=2,9=2,10=2,28=1/1;
 7//1,2,3,16;
 1/5=1,6=50,8=10,11=1,18=20,26=4,33=1/3(2);
 2/9=110/2;
 99//99;
 2/9=110/2;
 3/5=1,6=6,7=1,8=11,11=2,25=1,30=1,71=1,74=402,75=-5,124=41/1,2,3;
 4/5=5,9=2,16=3,69=1/1;
 5/5=2,7=120,8=3,13=1,38=5/2,8;
 7//1,2,3,16;
 1/5=1,6=50,8=10,11=1,18=20,26=4,33=1/3(-5);
 2/9=110/2;
 6/7=2,8=2,9=2,10=2,19=2,28=1/1;
 99/9=1/99;
 Leave Link    1 at Wed Oct  7 12:23:51 2020, MaxMem=  2684354560 cpu:               7.8 elap:               0.8
 (Enter /udrive/faculty/rpeverati/g16/g16/l101.exe)
 ONIOM data not found on unit 2.
 ------------------
 TS search on BH76.
 ------------------
 TstMul:  ICh=    -1
 TstMul:  Mul=     1
 TstMul:  ICh=    -1
 TstMul:  Mul=     1
 Symbolic Z-matrix:
 Charge = -1 Multiplicity = 1
 F                     1.82365   0.00022   0.00008 
 C                     0.00024  -0.00039  -0.00021 
 H                     0.00016  -0.30519   1.02504 
 H                     0.00038   1.03988  -0.24896 
 H                    0.        -0.73656  -0.77621 
 F                    -1.82387   0.00024   0.00008 
 
 RdStrC is calling ZToCFu for IStruc=1 NZ=     6.
 PrtBox:  NBox=     1 Levels=  1 BoxLen=    8.00 SMaxX=        6.89
          Shift=            3.446610            1.391890            1.466820
 Box      1 Number                   0 centers from      1 to      6:
 After GenITR:
 ITRead=  0  0  0  0  0  0
 MicOpt= -1 -1 -1 -1 -1 -1
 Add virtual bond connecting atoms C2         and F1         Dist= 3.45D+00.
 Add virtual bond connecting atoms F6         and C2         Dist= 3.45D+00.
 The following ModRedundant input section has been read:
 
 ITRead=  0  0  0  0  0  0
 MicOpt= -1 -1 -1 -1 -1 -1
 NAtoms=      6 NQM=        6 NQMF=       0 NMMI=      0 NMMIF=      0
                NMic=       0 NMicF=      0.
                    Isotopes and Nuclear Properties:
 (Nuclear quadrupole moments (NQMom) in fm**2, nuclear magnetic moments (NMagM)
  in nuclear magnetons)

  Atom         1           2           3           4           5           6
 IAtWgt=          19          12           1           1           1          19
 AtmWgt=  18.9984033  12.0000000   1.0078250   1.0078250   1.0078250  18.9984033
 NucSpn=           1           0           1           1           1           1
 AtZEff=   0.0000000   0.0000000   0.0000000   0.0000000   0.0000000   0.0000000
 NQMom=    0.0000000   0.0000000   0.0000000   0.0000000   0.0000000   0.0000000
 NMagM=    2.6288670   0.0000000   2.7928460   2.7928460   2.7928460   2.6288670
 AtZNuc=   9.0000000   6.0000000   1.0000000   1.0000000   1.0000000   9.0000000
 No MM parameters found.
 Leave Link  101 at Wed Oct  7 12:23:52 2020, MaxMem=  2684354560 cpu:              14.5 elap:               1.4
 (Enter /udrive/faculty/rpeverati/g16/g16/l103.exe)

 GradGradGradGradGradGradGradGradGradGradGradGradGradGradGradGradGradGrad
 Berny optimization.
 Optmz: redundant internal coordinate code flag= 1
 Initialization pass.
                           ----------------------------
                           !    Initial Parameters    !
                           ! (Angstroms and Degrees)  !
 --------------------------                            --------------------------
 ! Name  Definition              Value          Derivative Info.                !
 --------------------------------------------------------------------------------
 ! R1    R(1,2)                  1.8234         estimate D2E/DX2                !
 ! R2    R(2,3)                  1.0696         estimate D2E/DX2                !
 ! R3    R(2,4)                  1.0696         estimate D2E/DX2                !
 ! R4    R(2,5)                  1.0696         estimate D2E/DX2                !
 ! R5    R(2,6)                  1.8241         estimate D2E/DX2                !
 ! A1    A(1,2,3)               90.001          estimate D2E/DX2                !
 ! A2    A(1,2,4)               89.9759         estimate D2E/DX2                !
 ! A3    A(1,2,5)               90.0326         estimate D2E/DX2                !
 ! A4    A(3,2,4)              120.0049         estimate D2E/DX2                !
 ! A5    A(3,2,5)              119.9518         estimate D2E/DX2                !
 ! A6    A(3,2,6)               89.9925         estimate D2E/DX2                !
 ! A7    A(4,2,5)              120.0433         estimate D2E/DX2                !
 ! A8    A(4,2,6)               89.9906         estimate D2E/DX2                !
 ! A9    A(5,2,6)               90.0075         estimate D2E/DX2                !
 ! A10   L(1,2,6,3,-1)         179.9934         estimate D2E/DX2                !
 ! A11   L(1,2,6,3,-2)         179.9574         estimate D2E/DX2                !
 ! D1    D(3,2,5,4)            179.9891         estimate D2E/DX2                !
 ! D2    D(3,2,6,4)            120.0049         estimate D2E/DX2                !
 ! D3    D(3,2,6,5)           -119.9518         estimate D2E/DX2                !
 ! D4    D(4,2,6,5)            120.0433         estimate D2E/DX2                !
 --------------------------------------------------------------------------------
 Maximum allowed force set to 1.00D+20.
 Trust Radius=1.00D-01 FncErr=1.00D-07 GrdErr=1.00D-06 EigMax=2.50D+02 EigMin=1.00D-04
 Number of steps in this run=     50 maximum allowed number of steps=    100.
 Search for a saddle point of order  1.
 GradGradGradGradGradGradGradGradGradGradGradGradGradGradGradGradGradGrad

 Leave Link  103 at Wed Oct  7 12:23:53 2020, MaxMem=  2684354560 cpu:               1.2 elap:               0.5
 (Enter /udrive/faculty/rpeverati/g16/g16/l202.exe)
                          Input orientation:                          
 ---------------------------------------------------------------------
 Center     Atomic      Atomic             Coordinates (Angstroms)
 Number     Number       Type             X           Y           Z
 ---------------------------------------------------------------------
      1          9           0        1.823651    0.000222    0.000077
      2          6           0        0.000236   -0.000387   -0.000214
      3          1           0        0.000156   -0.305186    1.025037
      4          1           0        0.000379    1.039881   -0.248964
      5          1           0       -0.000003   -0.736556   -0.776208
      6          9           0       -1.823867    0.000243    0.000081
 ---------------------------------------------------------------------
                    Distance matrix (angstroms):
                    1          2          3          4          5
     1  F    0.000000
     2  C    1.823415   0.000000
     3  H    2.113989   1.069599   0.000000
     4  H    2.113582   1.069595   1.852643   0.000000
     5  H    2.114515   1.069632   1.852178   1.853029   0.000000
     6  F    3.647518   1.824104   2.114447   2.114414   2.114705
                    6
     6  F    0.000000
 Stoichiometry    CH3F2(1-)
 Framework group  C1[X(CH3F2)]
 Deg. of freedom    12
 Full point group                 C1      NOp   1
 Largest Abelian subgroup         C1      NOp   1
 Largest concise Abelian subgroup C1      NOp   1
                         Standard orientation:                         
 ---------------------------------------------------------------------
 Center     Atomic      Atomic             Coordinates (Angstroms)
 Number     Number       Type             X           Y           Z
 ---------------------------------------------------------------------
      1          9           0        1.823651    0.000222    0.000077
      2          6           0        0.000236   -0.000387   -0.000214
      3          1           0        0.000156   -0.304327    1.025293
      4          1           0        0.000379    1.039672   -0.249835
      5          1           0       -0.000003   -0.737207   -0.775590
      6          9           0       -1.823867    0.000243    0.000081
 ---------------------------------------------------------------------
 Rotational constants (GHZ):         146.1033732           3.9448937           3.9448370
 Leave Link  202 at Wed Oct  7 12:23:54 2020, MaxMem=  2684354560 cpu:               1.8 elap:               0.7
 (Enter /udrive/faculty/rpeverati/g16/g16/l301.exe)
 Standard basis: 6-31G(d) (5D, 7F)
 Ernie: Thresh=  0.10000D-02 Tol=  0.10000D-05 Strict=F.
 There are    51 symmetry adapted cartesian basis functions of A   symmetry.
 There are    48 symmetry adapted basis functions of A   symmetry.
    48 basis functions,    96 primitive gaussians,    51 cartesian basis functions
    14 alpha electrons       14 beta electrons
       nuclear repulsion energy        66.3661313160 Hartrees.
 IExCor=  402 DFT=T Ex=B Corr=LYP ExCW=0 ScaHFX=  0.000000
 ScaDFX=  1.000000  1.000000  1.000000  1.000000 ScalE2=  1.000000  1.000000
 IRadAn=      5 IRanWt=     -1 IRanGd=            0 ICorTp=0 IEmpDi=141
 NAtoms=    6 NActive=    6 NUniq=    6 SFac= 1.00D+00 NAtFMM=   60 NAOKFM=F Big=F
 Integral buffers will be    131072 words long.
 Raffenetti 2 integral format.
 Two-electron integral symmetry is turned on.
 R6Disp:  Grimme-D3(BJ) Dispersion energy=       -0.0039622751 Hartrees.
 Nuclear repulsion after empirical dispersion term =       66.3621690409 Hartrees.
 Leave Link  301 at Wed Oct  7 12:23:56 2020, MaxMem=  2684354560 cpu:               2.4 elap:               0.8
 (Enter /udrive/faculty/rpeverati/g16/g16/l302.exe)
 NPDir=0 NMtPBC=     1 NCelOv=     1 NCel=       1 NClECP=     1 NCelD=      1
         NCelK=      1 NCelE2=     1 NClLst=     1 CellRange=     0.0.
 One-electron integrals computed using PRISM.
 One-electron integral symmetry used in STVInt
 NBasis=    48 RedAO= T EigKep=  1.71D-02  NBF=    48
 NBsUse=    48 1.00D-06 EigRej= -1.00D+00 NBFU=    48
 Precomputing XC quadrature grid using
 IXCGrd= 4 IRadAn=           5 IRanWt=          -1 IRanGd=           0 AccXCQ= 0.00D+00.
 Generated NRdTot=       0 NPtTot=           0 NUsed=           0 NTot=          32
 NSgBfM=    51    51    51    51    51 MxSgAt=     6 MxSgA2=     6.
 Leave Link  302 at Wed Oct  7 12:23:56 2020, MaxMem=  2684354560 cpu:               3.3 elap:               0.6
 (Enter /udrive/faculty/rpeverati/g16/g16/l303.exe)
 DipDrv:  MaxL=1.
 Leave Link  303 at Wed Oct  7 12:23:57 2020, MaxMem=  2684354560 cpu:               2.1 elap:               0.6
 (Enter /udrive/faculty/rpeverati/g16/g16/l401.exe)
 SCF N**3 symmetry information disabled.
 ExpMin= 1.61D-01 ExpMax= 7.00D+03 ExpMxC= 1.05D+03 IAcc=3 IRadAn=         5 AccDes= 0.00D+00
 Harris functional with IExCor=  402 and IRadAn=       5 diagonalized for initial guess.
 HarFok:  IExCor=  402 AccDes= 0.00D+00 IRadAn=         5 IDoV= 1 UseB2=F ITyADJ=14
 ICtDFT=  3500011 ScaDFX=  1.000000  1.000000  1.000000  1.000000
 FoFCou: FMM=F IPFlag=           0 FMFlag=      100000 FMFlg1=           0
         NFxFlg=           0 DoJE=T BraDBF=F KetDBF=T FulRan=T
         wScrn=  0.000000 ICntrl=       500 IOpCl=  0 I1Cent=   200000004 NGrid=           0
         NMat0=    1 NMatS0=      1 NMatT0=    0 NMatD0=    1 NMtDS0=    0 NMtDT0=    0
 Petite list used in FoFCou.
 Harris En= -239.757034967577    
 JPrj=0 DoOrth=F DoCkMO=F.
 Leave Link  401 at Wed Oct  7 12:23:59 2020, MaxMem=  2684354560 cpu:               6.8 elap:               1.2
 (Enter /udrive/faculty/rpeverati/g16/g16/l502.exe)
 Keep J ints in memory in canonical form, NReq=11149966.
 FoFCou: FMM=F IPFlag=           0 FMFlag=           0 FMFlg1=           0
         NFxFlg=           0 DoJE=F BraDBF=F KetDBF=F FulRan=T
         wScrn=  0.000000 ICntrl=       600 IOpCl=  0 I1Cent=           0 NGrid=           0
         NMat0=    1 NMatS0=   1176 NMatT0=    0 NMatD0=    1 NMtDS0=    0 NMtDT0=    0
 Symmetry not used in FoFCou.
 Two-electron integral symmetry not used.
 Closed shell SCF:
 Using DIIS extrapolation, IDIIS=  1040.
 NGot=  2684354560 LenX=  2683655928 LenY=  2683652886
 Requested convergence on RMS density matrix=1.00D-08 within 120 cycles.
 Requested convergence on MAX density matrix=1.00D-06.
 Requested convergence on             energy=1.00D-06.
 No special actions if energy rises.
 Integral accuracy reduced to 1.0D-05 until final iterations.

 Cycle   1  Pass 0  IDiag  1:
 E= -239.343869504179    
 DIIS: error= 6.42D-02 at cycle   1 NSaved=   1.
 NSaved= 1 IEnMin= 1 EnMin= -239.343869504179     IErMin= 1 ErrMin= 6.42D-02
 ErrMax= 6.42D-02  0.00D+00 EMaxC= 1.00D-01 BMatC= 1.81D-01 BMatP= 1.81D-01
 IDIUse=3 WtCom= 3.58D-01 WtEn= 6.42D-01
 Coeff-Com:  0.100D+01
 Coeff-En:   0.100D+01
 Coeff:      0.100D+01
 Gap=     0.174 Goal=   None    Shift=    0.000
 GapD=    0.174 DampG=1.000 DampE=0.500 DampFc=0.5000 IDamp=-1.
 Damping current iteration by 5.00D-01
 RMSDP=2.71D-02 MaxDP=2.93D-01              OVMax= 2.90D-01

 Cycle   2  Pass 0  IDiag  1:
 E= -239.366888379527     Delta-E=       -0.023018875348 Rises=F Damp=T
 DIIS: error= 2.29D-02 at cycle   2 NSaved=   2.
 NSaved= 2 IEnMin= 2 EnMin= -239.366888379527     IErMin= 2 ErrMin= 2.29D-02
 ErrMax= 2.29D-02  0.00D+00 EMaxC= 1.00D-01 BMatC= 2.72D-02 BMatP= 1.81D-01
 IDIUse=3 WtCom= 7.71D-01 WtEn= 2.29D-01
 Coeff-Com:  0.264D+00 0.736D+00
 Coeff-En:   0.415D+00 0.585D+00
 Coeff:      0.298D+00 0.702D+00
 Gap=     0.237 Goal=   None    Shift=    0.000
 RMSDP=8.99D-03 MaxDP=1.90D-01 DE=-2.30D-02 OVMax= 2.16D-01

 Cycle   3  Pass 0  IDiag  1:
 E= -239.459555425763     Delta-E=       -0.092667046236 Rises=F Damp=F
 DIIS: error= 1.98D-02 at cycle   3 NSaved=   3.
 NSaved= 3 IEnMin= 3 EnMin= -239.459555425763     IErMin= 3 ErrMin= 1.98D-02
 ErrMax= 1.98D-02  0.00D+00 EMaxC= 1.00D-01 BMatC= 1.05D-02 BMatP= 2.72D-02
 IDIUse=3 WtCom= 8.02D-01 WtEn= 1.98D-01
 Coeff-Com:  0.153D+00 0.456D+00 0.392D+00
 Coeff-En:   0.000D+00 0.000D+00 0.100D+01
 Coeff:      0.123D+00 0.366D+00 0.512D+00
 Gap=     0.239 Goal=   None    Shift=    0.000
 RMSDP=2.57D-03 MaxDP=3.43D-02 DE=-9.27D-02 OVMax= 6.50D-02

 Cycle   4  Pass 0  IDiag  1:
 E= -239.468886123481     Delta-E=       -0.009330697719 Rises=F Damp=F
 DIIS: error= 7.98D-03 at cycle   4 NSaved=   4.
 NSaved= 4 IEnMin= 4 EnMin= -239.468886123481     IErMin= 4 ErrMin= 7.98D-03
 ErrMax= 7.98D-03  0.00D+00 EMaxC= 1.00D-01 BMatC= 2.37D-03 BMatP= 1.05D-02
 IDIUse=3 WtCom= 9.20D-01 WtEn= 7.98D-02
 Coeff-Com:  0.279D-01 0.358D-01 0.315D+00 0.622D+00
 Coeff-En:   0.000D+00 0.000D+00 0.202D+00 0.798D+00
 Coeff:      0.256D-01 0.329D-01 0.306D+00 0.636D+00
 Gap=     0.231 Goal=   None    Shift=    0.000
 RMSDP=7.73D-04 MaxDP=1.11D-02 DE=-9.33D-03 OVMax= 2.00D-02

 Cycle   5  Pass 0  IDiag  1:
 E= -239.471170758630     Delta-E=       -0.002284635149 Rises=F Damp=F
 DIIS: error= 2.55D-04 at cycle   5 NSaved=   5.
 NSaved= 5 IEnMin= 5 EnMin= -239.471170758630     IErMin= 5 ErrMin= 2.55D-04
 ErrMax= 2.55D-04  0.00D+00 EMaxC= 1.00D-01 BMatC= 2.65D-06 BMatP= 2.37D-03
 IDIUse=3 WtCom= 9.97D-01 WtEn= 2.55D-03
 Coeff-Com:  0.175D-02-0.156D-02 0.374D-01 0.108D+00 0.854D+00
 Coeff-En:   0.000D+00 0.000D+00 0.000D+00 0.000D+00 0.100D+01
 Coeff:      0.174D-02-0.155D-02 0.373D-01 0.108D+00 0.854D+00
 Gap=     0.231 Goal=   None    Shift=    0.000
 RMSDP=3.25D-05 MaxDP=3.75D-04 DE=-2.28D-03 OVMax= 6.56D-04

 Cycle   6  Pass 0  IDiag  1:
 E= -239.471172630425     Delta-E=       -0.000001871795 Rises=F Damp=F
 DIIS: error= 1.30D-04 at cycle   6 NSaved=   6.
 NSaved= 6 IEnMin= 6 EnMin= -239.471172630425     IErMin= 6 ErrMin= 1.30D-04
 ErrMax= 1.30D-04  0.00D+00 EMaxC= 1.00D-01 BMatC= 6.97D-07 BMatP= 2.65D-06
 IDIUse=3 WtCom= 9.99D-01 WtEn= 1.30D-03
 Coeff-Com:  0.103D-02-0.151D-02 0.239D-01 0.714D-01 0.613D+00 0.292D+00
 Coeff-En:   0.000D+00 0.000D+00 0.000D+00 0.000D+00 0.787D-01 0.921D+00
 Coeff:      0.103D-02-0.150D-02 0.239D-01 0.713D-01 0.612D+00 0.293D+00
 Gap=     0.231 Goal=   None    Shift=    0.000
 RMSDP=1.40D-05 MaxDP=1.93D-04 DE=-1.87D-06 OVMax= 4.68D-04

 Cycle   7  Pass 0  IDiag  1:
 E= -239.471173150913     Delta-E=       -0.000000520489 Rises=F Damp=F
 DIIS: error= 1.31D-05 at cycle   7 NSaved=   7.
 NSaved= 7 IEnMin= 7 EnMin= -239.471173150913     IErMin= 7 ErrMin= 1.31D-05
 ErrMax= 1.31D-05  0.00D+00 EMaxC= 1.00D-01 BMatC= 1.24D-08 BMatP= 6.97D-07
 IDIUse=1 WtCom= 1.00D+00 WtEn= 0.00D+00
 Coeff-Com:  0.142D-03-0.145D-03 0.127D-02 0.265D-02 0.259D-01 0.990D-01
 Coeff-Com:  0.871D+00
 Coeff:      0.142D-03-0.145D-03 0.127D-02 0.265D-02 0.259D-01 0.990D-01
 Coeff:      0.871D+00
 Gap=     0.231 Goal=   None    Shift=    0.000
 RMSDP=1.54D-06 MaxDP=2.65D-05 DE=-5.20D-07 OVMax= 4.25D-05

 Initial convergence to 1.0D-05 achieved.  Increase integral accuracy.
 Cycle   8  Pass 1  IDiag  1:
 E= -239.471176953259     Delta-E=       -0.000003802345 Rises=F Damp=F
 DIIS: error= 1.99D-06 at cycle   1 NSaved=   1.
 NSaved= 1 IEnMin= 1 EnMin= -239.471176953259     IErMin= 1 ErrMin= 1.99D-06
 ErrMax= 1.99D-06  0.00D+00 EMaxC= 1.00D-01 BMatC= 2.35D-10 BMatP= 2.35D-10
 IDIUse=1 WtCom= 1.00D+00 WtEn= 0.00D+00
 Coeff-Com:  0.100D+01
 Coeff:      0.100D+01
 Gap=     0.231 Goal=   None    Shift=    0.000
 RMSDP=1.54D-06 MaxDP=2.65D-05 DE=-3.80D-06 OVMax= 1.11D-05

 Cycle   9  Pass 1  IDiag  1:
 E= -239.471176953024     Delta-E=        0.000000000235 Rises=F Damp=F
 DIIS: error= 3.34D-06 at cycle   2 NSaved=   2.
 NSaved= 2 IEnMin= 1 EnMin= -239.471176953259     IErMin= 1 ErrMin= 1.99D-06
 ErrMax= 3.34D-06  0.00D+00 EMaxC= 1.00D-01 BMatC= 5.90D-10 BMatP= 2.35D-10
 IDIUse=1 WtCom= 1.00D+00 WtEn= 0.00D+00
 Coeff-Com:  0.624D+00 0.376D+00
 Coeff:      0.624D+00 0.376D+00
 Gap=     0.231 Goal=   None    Shift=    0.000
 RMSDP=4.02D-07 MaxDP=5.36D-06 DE= 2.35D-10 OVMax= 1.15D-05

 Cycle  10  Pass 1  IDiag  1:
 E= -239.471176953435     Delta-E=       -0.000000000411 Rises=F Damp=F
 DIIS: error= 7.98D-07 at cycle   3 NSaved=   3.
 NSaved= 3 IEnMin= 3 EnMin= -239.471176953435     IErMin= 3 ErrMin= 7.98D-07
 ErrMax= 7.98D-07  0.00D+00 EMaxC= 1.00D-01 BMatC= 2.84D-11 BMatP= 2.35D-10
 IDIUse=1 WtCom= 1.00D+00 WtEn= 0.00D+00
 Coeff-Com:  0.674D-01 0.192D+00 0.741D+00
 Coeff:      0.674D-01 0.192D+00 0.741D+00
 Gap=     0.231 Goal=   None    Shift=    0.000
 RMSDP=9.04D-08 MaxDP=1.29D-06 DE=-4.11D-10 OVMax= 2.60D-06

 Cycle  11  Pass 1  IDiag  1:
 E= -239.471176953457     Delta-E=       -0.000000000022 Rises=F Damp=F
 DIIS: error= 2.00D-07 at cycle   4 NSaved=   4.
 NSaved= 4 IEnMin= 4 EnMin= -239.471176953457     IErMin= 4 ErrMin= 2.00D-07
 ErrMax= 2.00D-07  0.00D+00 EMaxC= 1.00D-01 BMatC= 1.62D-12 BMatP= 2.84D-11
 IDIUse=1 WtCom= 1.00D+00 WtEn= 0.00D+00
 Coeff-Com:  0.168D-01 0.911D-01 0.408D+00 0.484D+00
 Coeff:      0.168D-01 0.911D-01 0.408D+00 0.484D+00
 Gap=     0.231 Goal=   None    Shift=    0.000
 RMSDP=2.75D-08 MaxDP=2.62D-07 DE=-2.22D-11 OVMax= 6.26D-07

 Cycle  12  Pass 1  IDiag  1:
 E= -239.471176953458     Delta-E=       -0.000000000001 Rises=F Damp=F
 DIIS: error= 8.12D-08 at cycle   5 NSaved=   5.
 NSaved= 5 IEnMin= 5 EnMin= -239.471176953458     IErMin= 5 ErrMin= 8.12D-08
 ErrMax= 8.12D-08  0.00D+00 EMaxC= 1.00D-01 BMatC= 2.78D-13 BMatP= 1.62D-12
 IDIUse=1 WtCom= 1.00D+00 WtEn= 0.00D+00
 Coeff-Com:  0.671D-02 0.473D-01 0.218D+00 0.337D+00 0.391D+00
 Coeff:      0.671D-02 0.473D-01 0.218D+00 0.337D+00 0.391D+00
 Gap=     0.231 Goal=   None    Shift=    0.000
 RMSDP=1.05D-08 MaxDP=1.43D-07 DE=-1.19D-12 OVMax= 3.50D-07

 Cycle  13  Pass 1  IDiag  1:
 E= -239.471176953457     Delta-E=        0.000000000001 Rises=F Damp=F
 DIIS: error= 2.32D-08 at cycle   6 NSaved=   6.
 NSaved= 6 IEnMin= 5 EnMin= -239.471176953458     IErMin= 6 ErrMin= 2.32D-08
 ErrMax= 2.32D-08  0.00D+00 EMaxC= 1.00D-01 BMatC= 3.39D-14 BMatP= 2.78D-13
 IDIUse=1 WtCom= 1.00D+00 WtEn= 0.00D+00
 Coeff-Com:  0.835D-03 0.144D-01 0.679D-01 0.141D+00 0.279D+00 0.497D+00
 Coeff:      0.835D-03 0.144D-01 0.679D-01 0.141D+00 0.279D+00 0.497D+00
 Gap=     0.231 Goal=   None    Shift=    0.000
 RMSDP=3.16D-09 MaxDP=3.17D-08 DE= 5.68D-13 OVMax= 7.41D-08

 SCF Done:  E(RB-LYP) =  -239.471176953     A.U. after   13 cycles
            NFock= 13  Conv=0.32D-08     -V/T= 2.0037
 KE= 2.385955422628D+02 PE=-7.117688374232D+02 EE= 1.673399491661D+02
 Leave Link  502 at Wed Oct  7 12:24:03 2020, MaxMem=  2684354560 cpu:              31.1 elap:               3.3
 (Enter /udrive/faculty/rpeverati/g16/g16/l508.exe)
 QCSCF skips out because SCF is already converged.
 Leave Link  508 at Wed Oct  7 12:24:04 2020, MaxMem=  2684354560 cpu:               0.3 elap:               0.4
 (Enter /udrive/faculty/rpeverati/g16/g16/l601.exe)
 Copying SCF densities to generalized density rwf, IOpCl= 0 IROHF=0.

 **********************************************************************

            Population analysis using the SCF density.

 **********************************************************************

 Orbital symmetries:
       Occupied  (A) (A) (A) (A) (A) (A) (A) (A) (A) (A) (A) (A)
                 (A) (A)
       Virtual   (A) (A) (A) (A) (A) (A) (A) (A) (A) (A) (A) (A)
                 (A) (A) (A) (A) (A) (A) (A) (A) (A) (A) (A) (A)
                 (A) (A) (A) (A) (A) (A) (A) (A) (A) (A)
 The electronic state is 1-A.
 Alpha  occ. eigenvalues --  -23.89433 -23.89414  -9.72976  -0.65136  -0.64518
 Alpha  occ. eigenvalues --   -0.36475  -0.15365  -0.15352  -0.04768   0.04520
 Alpha  occ. eigenvalues --    0.04520   0.05183   0.05866   0.05867
 Alpha virt. eigenvalues --    0.28964   0.30072   0.35823   0.35830   0.74575
 Alpha virt. eigenvalues --    0.74596   0.82079   0.98786   1.06878   1.06900
 Alpha virt. eigenvalues --    1.30551   1.37700   1.37702   1.50666   1.50907
 Alpha virt. eigenvalues --    1.50910   1.51243   1.78741   1.78744   1.86664
 Alpha virt. eigenvalues --    1.98741   2.09753   2.11448   2.11464   2.13401
 Alpha virt. eigenvalues --    2.13401   2.15454   2.15460   2.32162   2.32164
 Alpha virt. eigenvalues --    2.40852   2.48123   2.48160   3.13030
          Condensed to atoms (all electrons):
               1          2          3          4          5          6
     1  F    9.563348   0.124160  -0.026989  -0.027016  -0.026981   0.000505
     2  C    0.124160   4.696054   0.371264   0.371308   0.371209   0.124163
     3  H   -0.026989   0.371264   0.633892  -0.020960  -0.021074  -0.026943
     4  H   -0.027016   0.371308  -0.020960   0.633753  -0.020965  -0.026972
     5  H   -0.026981   0.371209  -0.021074  -0.020965   0.633986  -0.026933
     6  F    0.000505   0.124163  -0.026943  -0.026972  -0.026933   9.563415
 Mulliken charges:
               1
     1  F   -0.607028
     2  C   -0.058158
     3  H    0.090811
     4  H    0.090852
     5  H    0.090759
     6  F   -0.607236
 Sum of Mulliken charges =  -1.00000
 Mulliken charges with hydrogens summed into heavy atoms:
               1
     1  F   -0.607028
     2  C    0.214264
     6  F   -0.607236
 Electronic spatial extent (au):  <R**2>=            280.1130
 Charge=             -1.0000 electrons
 Dipole moment (field-independent basis, Debye):
    X=              0.0037    Y=             -0.0016    Z=             -0.0004  Tot=              0.0041
 Quadrupole moment (field-independent basis, Debye-Ang):
   XX=            -37.3724   YY=            -17.6674   ZZ=            -17.6696
   XY=              0.0004   XZ=              0.0001   YZ=             -0.0000
 Traceless Quadrupole moment (field-independent basis, Debye-Ang):
   XX=            -13.1359   YY=              6.5690   ZZ=              6.5669
   XY=              0.0004   XZ=              0.0001   YZ=             -0.0000
 Octapole moment (field-independent basis, Debye-Ang**2):
  XXX=              0.0148  YYY=              0.3342  ZZZ=              0.2844  XYY=              0.0006
  XXY=             -0.0024  XXZ=             -0.0006  XZZ=              0.0005  YZZ=             -0.3301
  YYZ=             -0.2826  XYZ=             -0.0001
 Hexadecapole moment (field-independent basis, Debye-Ang**3):
 XXXX=           -280.1724 YYYY=            -20.4582 ZZZZ=            -20.4544 XXXY=              0.0005
 XXXZ=              0.0001 YYYX=              0.0002 YYYZ=              0.0005 ZZZX=              0.0001
 ZZZY=             -0.0005 XXYY=            -40.8258 XXZZ=            -40.8247 YYZZ=             -6.8183
 XXYZ=              0.0000 YYXZ=             -0.0001 ZZXY=             -0.0000
 N-N= 6.636216904087D+01 E-N=-7.117688365572D+02  KE= 2.385955422628D+02
 No NMR shielding tensors so no spin-rotation constants.
 Leave Link  601 at Wed Oct  7 12:24:05 2020, MaxMem=  2684354560 cpu:               3.6 elap:               0.9
 (Enter /udrive/faculty/rpeverati/g16/g16/l701.exe)
 ... and contract with generalized density number  0.
 Compute integral first derivatives.
 R6Disp: Adding Grimme-D3(BJ) dispersion energy 1st derivatives to the gradient.
 Leave Link  701 at Wed Oct  7 12:24:06 2020, MaxMem=  2684354560 cpu:               3.7 elap:               1.0
 (Enter /udrive/faculty/rpeverati/g16/g16/l702.exe)
 L702 exits ... SP integral derivatives will be done elsewhere.
 Leave Link  702 at Wed Oct  7 12:24:07 2020, MaxMem=  2684354560 cpu:               3.0 elap:               0.7
 (Enter /udrive/faculty/rpeverati/g16/g16/l703.exe)
 Integral derivatives from FoFJK, PRISM(SPDF).
 Compute integral first derivatives, UseDBF=F ICtDFT=           0.
 Calling FoFJK, ICntrl=      2527 FMM=F ISym2X=0 I1Cent= 0 IOpClX= 0 NMat=1 NMatS=1 NMatT=0.
 FoFJK:  IHMeth= 1 ICntrl=    2527 DoSepK=F KAlg= 0 I1Cent=           0 FoldK=F
 IRaf=         0 NMat=       1 IRICut=       1 DoRegI=T DoRafI=F ISym2E= 0 IDoP0=0 IntGTp=1.
 FoFCou: FMM=F IPFlag=           0 FMFlag=      100000 FMFlg1=         800
         NFxFlg=           0 DoJE=F BraDBF=F KetDBF=F FulRan=T
         wScrn=  0.000000 ICntrl=      2527 IOpCl=  0 I1Cent=           0 NGrid=           0
         NMat0=    1 NMatS0=      1 NMatT0=    0 NMatD0=    1 NMtDS0=    0 NMtDT0=    0
 Symmetry not used in FoFCou.
 Leave Link  703 at Wed Oct  7 12:24:09 2020, MaxMem=  2684354560 cpu:               6.9 elap:               1.0
 (Enter /udrive/faculty/rpeverati/g16/g16/l716.exe)
 Dipole        = 1.46456944D-03-6.17821351D-04-1.57929287D-04
 ***** Axes restored to original set *****
 -------------------------------------------------------------------
 Center     Atomic                   Forces (Hartrees/Bohr)
 Number     Number              X              Y              Z
 -------------------------------------------------------------------
      1        9           0.004988887   -0.000025118   -0.000012937
      2        6           0.000032176   -0.000017081    0.000066728
      3        1          -0.000025153   -0.003187317    0.010841105
      4        1          -0.000036643    0.010960697   -0.002654418
      5        1          -0.000016948   -0.007717980   -0.008229873
      6        9          -0.004942319   -0.000013201   -0.000010605
 -------------------------------------------------------------------
 Cartesian Forces:  Max     0.010960697 RMS     0.004896110
 Leave Link  716 at Wed Oct  7 12:24:10 2020, MaxMem=  2684354560 cpu:               2.2 elap:               0.6
 (Enter /udrive/faculty/rpeverati/g16/g16/l103.exe)

 GradGradGradGradGradGradGradGradGradGradGradGradGradGradGradGradGradGrad
 Berny optimization.
 Optmz: redundant internal coordinate code flag= 1
 FormGI is forming the generalized inverse of G from B-inverse, IUseBI=4.
 Internal  Forces:  Max     0.011299886 RMS     0.004644828
 Search for a saddle point.
 Step number   1 out of a maximum of   50
 All quantities printed in internal units (Hartrees-Bohrs-Radians)
 Swapping is turned off.
 Second derivative matrix not updated -- first step.
 The second derivative matrix:
                          R1        R2        R3        R4        R5
           R1           0.13179
           R2           0.00000   0.37281
           R3           0.00000   0.00000   0.37281
           R4           0.00000   0.00000   0.00000   0.37277
           R5           0.00000   0.00000   0.00000   0.00000   0.13158
           A1           0.00000   0.00000   0.00000   0.00000   0.00000
           A2           0.00000   0.00000   0.00000   0.00000   0.00000
           A3           0.00000   0.00000   0.00000   0.00000   0.00000
           A4           0.00000   0.00000   0.00000   0.00000   0.00000
           A5           0.00000   0.00000   0.00000   0.00000   0.00000
           A6           0.00000   0.00000   0.00000   0.00000   0.00000
           A7           0.00000   0.00000   0.00000   0.00000   0.00000
           A8           0.00000   0.00000   0.00000   0.00000   0.00000
           A9           0.00000   0.00000   0.00000   0.00000   0.00000
           A10          0.00000   0.00000   0.00000   0.00000   0.00000
           A11          0.00000   0.00000   0.00000   0.00000   0.00000
           D1           0.00000   0.00000   0.00000   0.00000   0.00000
           D2           0.00000   0.00000   0.00000   0.00000   0.00000
           D3           0.00000   0.00000   0.00000   0.00000   0.00000
           D4           0.00000   0.00000   0.00000   0.00000   0.00000
                          A1        A2        A3        A4        A5
           A1           0.16000
           A2           0.00000   0.16000
           A3           0.00000   0.00000   0.16000
           A4           0.00000   0.00000   0.00000   0.16000
           A5           0.00000   0.00000   0.00000   0.00000   0.16000
           A6           0.00000   0.00000   0.00000   0.00000   0.00000
           A7           0.00000   0.00000   0.00000   0.00000   0.00000
           A8           0.00000   0.00000   0.00000   0.00000   0.00000
           A9           0.00000   0.00000   0.00000   0.00000   0.00000
           A10          0.00000   0.00000   0.00000   0.00000   0.00000
           A11          0.00000   0.00000   0.00000   0.00000   0.00000
           D1           0.00000   0.00000   0.00000   0.00000   0.00000
           D2           0.00000   0.00000   0.00000   0.00000   0.00000
           D3           0.00000   0.00000   0.00000   0.00000   0.00000
           D4           0.00000   0.00000   0.00000   0.00000   0.00000
                          A6        A7        A8        A9        A10
           A6           0.16000
           A7           0.00000   0.16000
           A8           0.00000   0.00000   0.16000
           A9           0.00000   0.00000   0.00000   0.16000
           A10          0.00000   0.00000   0.00000   0.00000   0.00230
           A11          0.00000   0.00000   0.00000   0.00000   0.00000
           D1           0.00000   0.00000   0.00000   0.00000   0.00000
           D2           0.00000   0.00000   0.00000   0.00000   0.00000
           D3           0.00000   0.00000   0.00000   0.00000   0.00000
           D4           0.00000   0.00000   0.00000   0.00000   0.00000
                          A11       D1        D2        D3        D4
           A11          0.00230
           D1           0.00000   0.00504
           D2           0.00000   0.00000   0.00230
           D3           0.00000   0.00000   0.00000   0.00230
           D4           0.00000   0.00000   0.00000   0.00000   0.00230
 ITU=  0
 Eigenvectors of the second derivative matrix:
                           1         2         3         4         5
     Eigenvalues --     0.05670   0.06987   0.06991   0.08115   0.08115
   1         R1         0.00000  -0.00000  -0.00000  -0.00000  -0.00000
   2         R2         0.00000  -0.00000   0.00000   0.00000   0.00000
   3         R3         0.00000   0.00000   0.00000  -0.00000  -0.00000
   4         R4        -0.00000   0.00000  -0.00000   0.00000   0.00000
   5         R5        -0.00000  -0.00000  -0.00000  -0.00000  -0.00000
   6         A1         0.23561  -0.36015  -0.11479   0.00004  -0.00002
   7         A2         0.23582   0.08067   0.36922   0.00010  -0.00055
   8         A3         0.23570   0.27930  -0.25466   0.00014   0.00035
   9         A4        -0.00012   0.00003  -0.00055   0.21524  -0.53573
  10         A5         0.00004   0.00011   0.00008  -0.57158   0.08146
  11         A6        -0.23561  -0.36015  -0.11479  -0.00012   0.00010
  12         A7        -0.00006  -0.00013   0.00047   0.35633   0.45427
  13         A8        -0.23582   0.08067   0.36922   0.00001  -0.00041
  14         A9        -0.23570   0.27930  -0.25466   0.00009   0.00026
  15         A10       -0.00000  -0.72030  -0.22959  -0.00008   0.00008
  16         A11       -0.00000  -0.22964   0.72013  -0.00003  -0.00077
  17         D1        -0.81648   0.00000  -0.00000  -0.00005  -0.00002
  18         D2         0.00000   0.00010  -0.00061   0.21524  -0.53573
  19         D3        -0.00004  -0.00006  -0.00009   0.57158  -0.08146
  20         D4        -0.00005  -0.00016   0.00052   0.35633   0.45427
                           6         7         8         9        10
     Eigenvalues --     0.13158   0.13179   0.16000   0.16000   0.37277
   1         R1        -0.00000  -1.00000   0.00000   0.00000   0.00000
   2         R2         0.00000  -0.00000  -0.00000   0.00000  -0.00000
   3         R3         0.00000  -0.00000   0.00000  -0.00000   0.00000
   4         R4         0.00000  -0.00000  -0.00000   0.00000  -1.00000
   5         R5        -1.00000   0.00000   0.00000   0.00000   0.00000
   6         A1        -0.00000  -0.00000  -0.09474  -0.56965  -0.00000
   7         A2         0.00000   0.00000  -0.44574   0.36672   0.00000
   8         A3         0.00000   0.00000   0.54068   0.20251   0.00000
   9         A4         0.00000   0.00000   0.00014   0.00006   0.00000
  10         A5         0.00000   0.00000  -0.00005  -0.00006  -0.00000
  11         A6         0.00000   0.00000   0.09474   0.56965   0.00000
  12         A7        -0.00000  -0.00000  -0.00009  -0.00000  -0.00000
  13         A8        -0.00000  -0.00000   0.44574  -0.36672  -0.00000
  14         A9        -0.00000  -0.00000  -0.54068  -0.20251   0.00000
  15         A10        0.00000   0.00000   0.00000   0.00000  -0.00000
  16         A11       -0.00000   0.00000  -0.00000  -0.00000  -0.00000
  17         D1         0.00000  -0.00000   0.00000  -0.00000   0.00000
  18         D2         0.00000   0.00000   0.00000   0.00000   0.00000
  19         D3        -0.00000  -0.00000   0.00000  -0.00000   0.00000
  20         D4        -0.00000  -0.00000  -0.00000  -0.00000  -0.00000
                          11        12
     Eigenvalues --     0.37281   0.37281
   1         R1        -0.00000  -0.00000
   2         R2        -1.00000  -0.00000
   3         R3        -0.00000   1.00000
   4         R4         0.00000   0.00000
   5         R5        -0.00000   0.00000
   6         A1        -0.00000  -0.00000
   7         A2         0.00000   0.00000
   8         A3        -0.00000   0.00000
   9         A4        -0.00000   0.00000
  10         A5         0.00000  -0.00000
  11         A6         0.00000   0.00000
  12         A7         0.00000   0.00000
  13         A8        -0.00000  -0.00000
  14         A9        -0.00000   0.00000
  15         A10       -0.00000   0.00000
  16         A11        0.00000  -0.00000
  17         D1        -0.00000   0.00000
  18         D2        -0.00000  -0.00000
  19         D3         0.00000   0.00000
  20         D4         0.00000   0.00000
 Eigenvalue     1 is   5.67D-02 should be less than     0.000000 Eigenvector:
                          D1        A8        A2        A3        A9
   1                   -0.81648  -0.23582   0.23582   0.23570  -0.23570
                          A6        A1        A4        A7        D4
   1                   -0.23561   0.23561  -0.00012  -0.00006  -0.00005
 RLam0= 5.67D-02.
 Iter=   1 RLamda= 0.00000000D+00 Sum=-1.39973233D-03.
 Iter=   2 RLamda=-1.39973233D-03 Sum=-1.39195692D-03.
 Iter=   3 RLamda=-1.39195692D-03 Sum=-1.39199980D-03.
 Iter=   4 RLamda=-1.39199980D-03 Sum=-1.39199956D-03.
 RFO step:  Lambda0=5.669847657D-02 Lambda=-1.39199980D-03.
 Linear search not attempted -- option 19 set.
 Iteration  1 RMS(Cart)=  0.01921489 RMS(Int)=  0.00034069
 Iteration  2 RMS(Cart)=  0.00018818 RMS(Int)=  0.00020557
 Iteration  3 RMS(Cart)=  0.00000006 RMS(Int)=  0.00020557
 ITry= 1 IFail=0 DXMaxC= 5.52D-02 DCOld= 1.00D+10 DXMaxT= 1.00D-01 DXLimC= 3.00D+00 Rises=F
 Variable       Old X    -DE/DX   Delta X   Delta X   Delta X     New X
                                 (Linear)    (Quad)   (Total)
    R1        3.44575   0.00499   0.00000   0.03746   0.03746   3.48321
    R2        2.02125   0.01130   0.00000   0.03020   0.03020   2.05145
    R3        2.02124   0.01128   0.00000   0.03014   0.03014   2.05138
    R4        2.02131   0.01128   0.00000   0.03015   0.03015   2.05146
    R5        3.44706   0.00494   0.00000   0.03717   0.03717   3.48423
    A1        1.57081   0.00001   0.00000  -0.01742  -0.01742   1.55339
    A2        1.57037   0.00004   0.00000  -0.01720  -0.01719   1.55318
    A3        1.57137  -0.00003   0.00000  -0.01790  -0.01790   1.55347
    A4        2.09448  -0.00000   0.00000   0.00000  -0.00053   2.09395
    A5        2.09355   0.00003   0.00000   0.00040  -0.00013   2.09343
    A6        1.57066  -0.00000   0.00000   0.01759   0.01759   1.58825
    A7        2.09515  -0.00003   0.00000  -0.00039  -0.00092   2.09423
    A8        1.57063  -0.00000   0.00000   0.01768   0.01767   1.58831
    A9        1.57093  -0.00002   0.00000   0.01725   0.01725   1.58818
   A10        3.14148   0.00001   0.00000   0.00017   0.00017   3.14165
   A11        3.14085   0.00005   0.00000   0.00065   0.00065   3.14150
    D1        3.14140  -0.00003   0.00000   0.06064   0.06061  -3.08117
    D2        2.09448  -0.00000   0.00000  -0.00001  -0.00000   2.09448
    D3       -2.09355  -0.00003   0.00000  -0.00040  -0.00040  -2.09395
    D4        2.09515  -0.00003   0.00000  -0.00039  -0.00040   2.09476
         Item               Value     Threshold  Converged?
 Maximum Force            0.011300     0.000450     NO 
 RMS     Force            0.004645     0.000300     NO 
 Maximum Displacement     0.055170     0.001800     NO 
 RMS     Displacement     0.019214     0.001200     NO 
 Predicted change in Energy=-5.407198D-04
 Lowest energy point so far.  Saving SCF results.
 Largest change from initial coordinates is atom    6       0.029 Angstoms.
 GradGradGradGradGradGradGradGradGradGradGradGradGradGradGradGradGradGrad

 Leave Link  103 at Wed Oct  7 12:24:11 2020, MaxMem=  2684354560 cpu:               6.9 elap:               0.9
 (Enter /udrive/faculty/rpeverati/g16/g16/l202.exe)
                          Input orientation:                          
 ---------------------------------------------------------------------
 Center     Atomic      Atomic             Coordinates (Angstroms)
 Number     Number       Type             X           Y           Z
 ---------------------------------------------------------------------
      1          9           0        1.833947   -0.000208   -0.000099
      2          6           0       -0.009290   -0.000260   -0.000064
      3          1           0        0.009630   -0.309427    1.040387
      4          1           0        0.009798    1.055323   -0.252623
      5          1           0        0.009527   -0.747091   -0.787713
      6          9           0       -1.853062   -0.000120   -0.000078
 ---------------------------------------------------------------------
                    Distance matrix (angstroms):
                    1          2          3          4          5
     1  F    0.000000
     2  C    1.843236   0.000000
     3  H    2.122819   1.085579   0.000000
     4  H    2.122600   1.085543   1.880004   0.000000
     5  H    2.122894   1.085589   1.879761   1.880164   0.000000
     6  F    3.687009   1.843773   2.155890   2.155919   2.155823
                    6
     6  F    0.000000
 Stoichiometry    CH3F2(1-)
 Framework group  C1[X(CH3F2)]
 Deg. of freedom    12
 Full point group                 C1      NOp   1
 RotChk:  IX=0 Diff= 4.73D-02
 Largest Abelian subgroup         C1      NOp   1
 Largest concise Abelian subgroup C1      NOp   1
                         Standard orientation:                         
 ---------------------------------------------------------------------
 Center     Atomic      Atomic             Coordinates (Angstroms)
 Number     Number       Type             X           Y           Z
 ---------------------------------------------------------------------
      1          9           0        1.841311    0.000042   -0.000017
      2          6           0       -0.001926   -0.000049    0.000005
      3          1           0        0.016995   -0.342982    1.029821
      4          1           0        0.017142    1.063209   -0.217994
      5          1           0        0.016910   -0.720796   -0.811580
      6          9           0       -1.845699    0.000054   -0.000014
 ---------------------------------------------------------------------
 Rotational constants (GHZ):         141.8819457           3.8603871           3.8603609
 Leave Link  202 at Wed Oct  7 12:24:11 2020, MaxMem=  2684354560 cpu:               1.3 elap:               0.4
 (Enter /udrive/faculty/rpeverati/g16/g16/l301.exe)
 Standard basis: 6-31G(d) (5D, 7F)
 Ernie: Thresh=  0.10000D-02 Tol=  0.10000D-05 Strict=F.
 There are    51 symmetry adapted cartesian basis functions of A   symmetry.
 There are    48 symmetry adapted basis functions of A   symmetry.
    48 basis functions,    96 primitive gaussians,    51 cartesian basis functions
    14 alpha electrons       14 beta electrons
       nuclear repulsion energy        65.6037586421 Hartrees.
 IExCor=  402 DFT=T Ex=B Corr=LYP ExCW=0 ScaHFX=  0.000000
 ScaDFX=  1.000000  1.000000  1.000000  1.000000 ScalE2=  1.000000  1.000000
 IRadAn=      5 IRanWt=     -1 IRanGd=            0 ICorTp=0 IEmpDi=141
 NAtoms=    6 NActive=    6 NUniq=    6 SFac= 1.00D+00 NAtFMM=   60 NAOKFM=F Big=F
 Integral buffers will be    131072 words long.
 Raffenetti 2 integral format.
 Two-electron integral symmetry is turned on.
 R6Disp:  Grimme-D3(BJ) Dispersion energy=       -0.0039888811 Hartrees.
 Nuclear repulsion after empirical dispersion term =       65.5997697610 Hartrees.
 Leave Link  301 at Wed Oct  7 12:24:13 2020, MaxMem=  2684354560 cpu:               5.2 elap:               1.0
 (Enter /udrive/faculty/rpeverati/g16/g16/l302.exe)
 NPDir=0 NMtPBC=     1 NCelOv=     1 NCel=       1 NClECP=     1 NCelD=      1
         NCelK=      1 NCelE2=     1 NClLst=     1 CellRange=     0.0.
 One-electron integrals computed using PRISM.
 One-electron integral symmetry used in STVInt
 NBasis=    48 RedAO= T EigKep=  1.82D-02  NBF=    48
 NBsUse=    48 1.00D-06 EigRej= -1.00D+00 NBFU=    48
 Precomputing XC quadrature grid using
 IXCGrd= 4 IRadAn=           5 IRanWt=          -1 IRanGd=           0 AccXCQ= 0.00D+00.
 Generated NRdTot=       0 NPtTot=           0 NUsed=           0 NTot=          32
 NSgBfM=    51    51    51    51    51 MxSgAt=     6 MxSgA2=     6.
 Leave Link  302 at Wed Oct  7 12:24:14 2020, MaxMem=  2684354560 cpu:               3.8 elap:               0.7
 (Enter /udrive/faculty/rpeverati/g16/g16/l303.exe)
 DipDrv:  MaxL=1.
 Leave Link  303 at Wed Oct  7 12:24:15 2020, MaxMem=  2684354560 cpu:               2.5 elap:               0.7
 (Enter /udrive/faculty/rpeverati/g16/g16/l401.exe)
 Initial guess from the checkpoint file:  "MN_39_fch3fts_BH76_BLYPDBJ_631Gs.chk"
 SCF N**3 symmetry information disabled.
 B after Tr=    -0.000000    0.000000   -0.000000
         Rot=    0.999860   -0.016727    0.000001   -0.000003 Ang=  -1.92 deg.
 Guess basis will be translated and rotated to current coordinates.
 JPrj=2 DoOrth=T DoCkMO=T.
 Generating alternative initial guess.
 ExpMin= 1.61D-01 ExpMax= 7.00D+03 ExpMxC= 1.05D+03 IAcc=2 IRadAn=         4 AccDes= 0.00D+00
 Harris functional with IExCor=  402 and IRadAn=       4 diagonalized for initial guess.
 HarFok:  IExCor=  402 AccDes= 0.00D+00 IRadAn=         4 IDoV= 1 UseB2=F ITyADJ=14
 ICtDFT=  3500011 ScaDFX=  1.000000  1.000000  1.000000  1.000000
 FoFCou: FMM=F IPFlag=           0 FMFlag=      100000 FMFlg1=           0
         NFxFlg=           0 DoJE=T BraDBF=F KetDBF=T FulRan=T
         wScrn=  0.000000 ICntrl=       500 IOpCl=  0 I1Cent=   200000004 NGrid=           0
         NMat0=    1 NMatS0=      1 NMatT0=    0 NMatD0=    1 NMtDS0=    0 NMtDT0=    0
 Petite list used in FoFCou.
 Harris En= -239.756786388951    
 Leave Link  401 at Wed Oct  7 12:24:17 2020, MaxMem=  2684354560 cpu:               8.1 elap:               1.2
 (Enter /udrive/faculty/rpeverati/g16/g16/l502.exe)
 Keep J ints in memory in canonical form, NReq=11149966.
 FoFCou: FMM=F IPFlag=           0 FMFlag=           0 FMFlg1=           0
         NFxFlg=           0 DoJE=F BraDBF=F KetDBF=F FulRan=T
         wScrn=  0.000000 ICntrl=       600 IOpCl=  0 I1Cent=           0 NGrid=           0
         NMat0=    1 NMatS0=   1176 NMatT0=    0 NMatD0=    1 NMtDS0=    0 NMtDT0=    0
 Symmetry not used in FoFCou.
 Two-electron integral symmetry not used.
 Closed shell SCF:
 Using DIIS extrapolation, IDIIS=  1040.
 NGot=  2684354560 LenX=  2683655928 LenY=  2683652886
 Requested convergence on RMS density matrix=1.00D-08 within 120 cycles.
 Requested convergence on MAX density matrix=1.00D-06.
 Requested convergence on             energy=1.00D-06.
 No special actions if energy rises.
 Integral accuracy reduced to 1.0D-05 until final iterations.

 Cycle   1  Pass 0  IDiag  1:
 E= -239.471607095555    
 DIIS: error= 1.76D-03 at cycle   1 NSaved=   1.
 NSaved= 1 IEnMin= 1 EnMin= -239.471607095555     IErMin= 1 ErrMin= 1.76D-03
 ErrMax= 1.76D-03  0.00D+00 EMaxC= 1.00D-01 BMatC= 1.47D-04 BMatP= 1.47D-04
 IDIUse=3 WtCom= 9.82D-01 WtEn= 1.76D-02
 Coeff-Com:  0.100D+01
 Coeff-En:   0.100D+01
 Coeff:      0.100D+01
 Gap=     0.618 Goal=   None    Shift=    0.000
 GapD=    0.618 DampG=2.000 DampE=1.000 DampFc=2.0000 IDamp=-1.
 RMSDP=6.41D-04 MaxDP=4.83D-03              OVMax= 4.39D-03

 Cycle   2  Pass 0  IDiag  1:
 E= -239.471751196579     Delta-E=       -0.000144101025 Rises=F Damp=F
 DIIS: error= 1.49D-03 at cycle   2 NSaved=   2.
 NSaved= 2 IEnMin= 2 EnMin= -239.471751196579     IErMin= 2 ErrMin= 1.49D-03
 ErrMax= 1.49D-03  0.00D+00 EMaxC= 1.00D-01 BMatC= 6.24D-05 BMatP= 1.47D-04
 IDIUse=3 WtCom= 9.85D-01 WtEn= 1.49D-02
 Coeff-Com:  0.361D+00 0.639D+00
 Coeff-En:   0.000D+00 0.100D+01
 Coeff:      0.356D+00 0.644D+00
 Gap=     0.221 Goal=   None    Shift=    0.000
 RMSDP=2.49D-04 MaxDP=3.32D-03 DE=-1.44D-04 OVMax= 6.19D-03

 Cycle   3  Pass 0  IDiag  1:
 E= -239.471754502104     Delta-E=       -0.000003305524 Rises=F Damp=F
 DIIS: error= 1.10D-03 at cycle   3 NSaved=   3.
 NSaved= 3 IEnMin= 3 EnMin= -239.471754502104     IErMin= 3 ErrMin= 1.10D-03
 ErrMax= 1.10D-03  0.00D+00 EMaxC= 1.00D-01 BMatC= 6.61D-05 BMatP= 6.24D-05
 IDIUse=3 WtCom= 9.89D-01 WtEn= 1.10D-02
 Coeff-Com:  0.773D-01 0.494D+00 0.428D+00
 Coeff-En:   0.000D+00 0.490D+00 0.510D+00
 Coeff:      0.765D-01 0.494D+00 0.429D+00
 Gap=     0.222 Goal=   None    Shift=    0.000
 RMSDP=1.35D-04 MaxDP=2.17D-03 DE=-3.31D-06 OVMax= 3.48D-03

 Cycle   4  Pass 0  IDiag  1:
 E= -239.471811410990     Delta-E=       -0.000056908887 Rises=F Damp=F
 DIIS: error= 3.10D-04 at cycle   4 NSaved=   4.
 NSaved= 4 IEnMin= 4 EnMin= -239.471811410990     IErMin= 4 ErrMin= 3.10D-04
 ErrMax= 3.10D-04  0.00D+00 EMaxC= 1.00D-01 BMatC= 4.55D-06 BMatP= 6.24D-05
 IDIUse=3 WtCom= 9.97D-01 WtEn= 3.10D-03
 Coeff-Com:  0.171D-01 0.270D+00 0.274D+00 0.439D+00
 Coeff-En:   0.000D+00 0.000D+00 0.000D+00 0.100D+01
 Coeff:      0.170D-01 0.270D+00 0.273D+00 0.440D+00
 Gap=     0.222 Goal=   None    Shift=    0.000
 RMSDP=4.18D-05 MaxDP=5.33D-04 DE=-5.69D-05 OVMax= 1.06D-03

 Cycle   5  Pass 0  IDiag  1:
 E= -239.471814525495     Delta-E=       -0.000003114505 Rises=F Damp=F
 DIIS: error= 9.43D-05 at cycle   5 NSaved=   5.
 NSaved= 5 IEnMin= 5 EnMin= -239.471814525495     IErMin= 5 ErrMin= 9.43D-05
 ErrMax= 9.43D-05  0.00D+00 EMaxC= 1.00D-01 BMatC= 4.40D-07 BMatP= 4.55D-06
 IDIUse=1 WtCom= 1.00D+00 WtEn= 0.00D+00
 Coeff-Com:  0.719D-02 0.159D+00 0.163D+00 0.283D+00 0.387D+00
 Coeff:      0.719D-02 0.159D+00 0.163D+00 0.283D+00 0.387D+00
 Gap=     0.222 Goal=   None    Shift=    0.000
 RMSDP=1.26D-05 MaxDP=2.17D-04 DE=-3.11D-06 OVMax= 3.81D-04

 Cycle   6  Pass 0  IDiag  1:
 E= -239.471814789786     Delta-E=       -0.000000264292 Rises=F Damp=F
 DIIS: error= 3.64D-05 at cycle   6 NSaved=   6.
 NSaved= 6 IEnMin= 6 EnMin= -239.471814789786     IErMin= 6 ErrMin= 3.64D-05
 ErrMax= 3.64D-05  0.00D+00 EMaxC= 1.00D-01 BMatC= 5.68D-08 BMatP= 4.40D-07
 IDIUse=1 WtCom= 1.00D+00 WtEn= 0.00D+00
 Coeff-Com:  0.496D-03 0.426D-01 0.455D-01 0.865D-01 0.278D+00 0.547D+00
 Coeff:      0.496D-03 0.426D-01 0.455D-01 0.865D-01 0.278D+00 0.547D+00
 Gap=     0.222 Goal=   None    Shift=    0.000
 RMSDP=4.73D-06 MaxDP=7.01D-05 DE=-2.64D-07 OVMax= 1.54D-04

 Initial convergence to 1.0D-05 achieved.  Increase integral accuracy.
 Cycle   7  Pass 1  IDiag  1:
 E= -239.471818275510     Delta-E=       -0.000003485723 Rises=F Damp=F
 DIIS: error= 5.19D-06 at cycle   1 NSaved=   1.
 NSaved= 1 IEnMin= 1 EnMin= -239.471818275510     IErMin= 1 ErrMin= 5.19D-06
 ErrMax= 5.19D-06  0.00D+00 EMaxC= 1.00D-01 BMatC= 9.92D-10 BMatP= 9.92D-10
 IDIUse=1 WtCom= 1.00D+00 WtEn= 0.00D+00
 Coeff-Com:  0.100D+01
 Coeff:      0.100D+01
 Gap=     0.222 Goal=   None    Shift=    0.000
 RMSDP=4.73D-06 MaxDP=7.01D-05 DE=-3.49D-06 OVMax= 6.75D-05

 Cycle   8  Pass 1  IDiag  1:
 E= -239.471818270966     Delta-E=        0.000000004543 Rises=F Damp=F
 DIIS: error= 1.32D-05 at cycle   2 NSaved=   2.
 NSaved= 2 IEnMin= 1 EnMin= -239.471818275510     IErMin= 1 ErrMin= 5.19D-06
 ErrMax= 1.32D-05  0.00D+00 EMaxC= 1.00D-01 BMatC= 6.86D-09 BMatP= 9.92D-10
 IDIUse=1 WtCom= 1.00D+00 WtEn= 0.00D+00
 Coeff-Com:  0.737D+00 0.263D+00
 Coeff:      0.737D+00 0.263D+00
 Gap=     0.222 Goal=   None    Shift=    0.000
 RMSDP=1.35D-06 MaxDP=1.85D-05 DE= 4.54D-09 OVMax= 4.63D-05

 Cycle   9  Pass 1  IDiag  1:
 E= -239.471818276518     Delta-E=       -0.000000005552 Rises=F Damp=F
 DIIS: error= 7.47D-07 at cycle   3 NSaved=   3.
 NSaved= 3 IEnMin= 3 EnMin= -239.471818276518     IErMin= 3 ErrMin= 7.47D-07
 ErrMax= 7.47D-07  0.00D+00 EMaxC= 1.00D-01 BMatC= 5.91D-11 BMatP= 9.92D-10
 IDIUse=1 WtCom= 1.00D+00 WtEn= 0.00D+00
 Coeff-Com:  0.276D+00 0.105D+00 0.619D+00
 Coeff:      0.276D+00 0.105D+00 0.619D+00
 Gap=     0.222 Goal=   None    Shift=    0.000
 RMSDP=1.58D-07 MaxDP=1.49D-06 DE=-5.55D-09 OVMax= 2.15D-06

 Cycle  10  Pass 1  IDiag  1:
 E= -239.471818276560     Delta-E=       -0.000000000042 Rises=F Damp=F
 DIIS: error= 3.75D-07 at cycle   4 NSaved=   4.
 NSaved= 4 IEnMin= 4 EnMin= -239.471818276560     IErMin= 4 ErrMin= 3.75D-07
 ErrMax= 3.75D-07  0.00D+00 EMaxC= 1.00D-01 BMatC= 5.42D-12 BMatP= 5.91D-11
 IDIUse=1 WtCom= 1.00D+00 WtEn= 0.00D+00
 Coeff-Com:  0.810D-01 0.303D-01 0.280D+00 0.609D+00
 Coeff:      0.810D-01 0.303D-01 0.280D+00 0.609D+00
 Gap=     0.222 Goal=   None    Shift=    0.000
 RMSDP=5.07D-08 MaxDP=5.98D-07 DE=-4.19D-11 OVMax= 8.79D-07

 Cycle  11  Pass 1  IDiag  1:
 E= -239.471818276562     Delta-E=       -0.000000000002 Rises=F Damp=F
 DIIS: error= 1.33D-07 at cycle   5 NSaved=   5.
 NSaved= 5 IEnMin= 5 EnMin= -239.471818276562     IErMin= 5 ErrMin= 1.33D-07
 ErrMax= 1.33D-07  0.00D+00 EMaxC= 1.00D-01 BMatC= 8.09D-13 BMatP= 5.42D-12
 IDIUse=1 WtCom= 1.00D+00 WtEn= 0.00D+00
 Coeff-Com:  0.707D-02 0.452D-02 0.622D-01 0.317D+00 0.609D+00
 Coeff:      0.707D-02 0.452D-02 0.622D-01 0.317D+00 0.609D+00
 Gap=     0.222 Goal=   None    Shift=    0.000
 RMSDP=1.77D-08 MaxDP=2.45D-07 DE=-2.33D-12 OVMax= 4.08D-07

 Cycle  12  Pass 1  IDiag  1:
 E= -239.471818276564     Delta-E=       -0.000000000001 Rises=F Damp=F
 DIIS: error= 6.01D-08 at cycle   6 NSaved=   6.
 NSaved= 6 IEnMin= 6 EnMin= -239.471818276564     IErMin= 6 ErrMin= 6.01D-08
 ErrMax= 6.01D-08  0.00D+00 EMaxC= 1.00D-01 BMatC= 1.66D-13 BMatP= 8.09D-13
 IDIUse=1 WtCom= 1.00D+00 WtEn= 0.00D+00
 Coeff-Com:  0.272D-02 0.262D-02 0.328D-01 0.187D+00 0.425D+00 0.350D+00
 Coeff:      0.272D-02 0.262D-02 0.328D-01 0.187D+00 0.425D+00 0.350D+00
 Gap=     0.222 Goal=   None    Shift=    0.000
 RMSDP=6.40D-09 MaxDP=9.54D-08 DE=-1.25D-12 OVMax= 1.85D-07

 SCF Done:  E(RB-LYP) =  -239.471818277     A.U. after   12 cycles
            NFock= 12  Conv=0.64D-08     -V/T= 2.0041
 KE= 2.385048087840D+02 PE=-7.101559471805D+02 EE= 1.665795503589D+02
 Leave Link  502 at Wed Oct  7 12:24:21 2020, MaxMem=  2684354560 cpu:              30.8 elap:               3.3
 (Enter /udrive/faculty/rpeverati/g16/g16/l508.exe)
 QCSCF skips out because SCF is already converged.
 Leave Link  508 at Wed Oct  7 12:24:22 2020, MaxMem=  2684354560 cpu:               0.4 elap:               0.7
 (Enter /udrive/faculty/rpeverati/g16/g16/l701.exe)
 ... and contract with generalized density number  0.
 Compute integral first derivatives.
 R6Disp: Adding Grimme-D3(BJ) dispersion energy 1st derivatives to the gradient.
 Leave Link  701 at Wed Oct  7 12:24:23 2020, MaxMem=  2684354560 cpu:               4.0 elap:               1.0
 (Enter /udrive/faculty/rpeverati/g16/g16/l702.exe)
 L702 exits ... SP integral derivatives will be done elsewhere.
 Leave Link  702 at Wed Oct  7 12:24:25 2020, MaxMem=  2684354560 cpu:               1.8 elap:               0.6
 (Enter /udrive/faculty/rpeverati/g16/g16/l703.exe)
 Integral derivatives from FoFJK, PRISM(SPDF).
 Compute integral first derivatives, UseDBF=F ICtDFT=           0.
 Calling FoFJK, ICntrl=      2527 FMM=F ISym2X=0 I1Cent= 0 IOpClX= 0 NMat=1 NMatS=1 NMatT=0.
 FoFJK:  IHMeth= 1 ICntrl=    2527 DoSepK=F KAlg= 0 I1Cent=           0 FoldK=F
 IRaf=         0 NMat=       1 IRICut=       1 DoRegI=T DoRafI=F ISym2E= 0 IDoP0=0 IntGTp=1.
 FoFCou: FMM=F IPFlag=           0 FMFlag=      100000 FMFlg1=         800
         NFxFlg=           0 DoJE=F BraDBF=F KetDBF=F FulRan=T
         wScrn=  0.000000 ICntrl=      2527 IOpCl=  0 I1Cent=           0 NGrid=           0
         NMat0=    1 NMatS0=      1 NMatT0=    0 NMatD0=    1 NMtDS0=    0 NMtDT0=    0
 Symmetry not used in FoFCou.
 Leave Link  703 at Wed Oct  7 12:24:26 2020, MaxMem=  2684354560 cpu:               8.1 elap:               1.0
 (Enter /udrive/faculty/rpeverati/g16/g16/l716.exe)
 Dipole        =-3.20598072D-03-1.24527593D-04 5.05429452D-05
 ***** Axes restored to original set *****
 -------------------------------------------------------------------
 Center     Atomic                   Forces (Hartrees/Bohr)
 Number     Number              X              Y              Z
 -------------------------------------------------------------------
      1        9           0.003572287   -0.000004927    0.000000174
      2        6          -0.000681139   -0.000055410    0.000023076
      3        1          -0.001331161    0.000116877   -0.000316892
      4        1          -0.001339031   -0.000317582    0.000063927
      5        1          -0.001326403    0.000259389    0.000228373
      6        9           0.001105447    0.000001653    0.000001343
 -------------------------------------------------------------------
 Cartesian Forces:  Max     0.003572287 RMS     0.001057083
 Leave Link  716 at Wed Oct  7 12:24:27 2020, MaxMem=  2684354560 cpu:               1.5 elap:               0.4
 (Enter /udrive/faculty/rpeverati/g16/g16/l103.exe)

 GradGradGradGradGradGradGradGradGradGradGradGradGradGradGradGradGradGrad
 Berny optimization.
 Optmz: redundant internal coordinate code flag= 1
 Red2BG:  D1=  3.91D-01 OD1=  7.54D-02 B2RMS=  0.00D+00 IAprox=0
 FormGI is forming the generalized inverse of G from B-inverse, IUseBI=4.
 Internal  Forces:  Max     0.003572287 RMS     0.000950653
 Search for a saddle point.
 Step number   2 out of a maximum of   50
 All quantities printed in internal units (Hartrees-Bohrs-Radians)
 Swapping is turned off.
 Update second derivatives using D2CorX and points    1    2
 The second derivative matrix:
                          R1        R2        R3        R4        R5
           R1           0.10732
           R2          -0.00501   0.37627
           R3          -0.00505   0.00342   0.37620
           R4          -0.00497   0.00347   0.00344   0.37625
           R5          -0.00316   0.00579   0.00575   0.00580   0.14041
           A1           0.01462   0.00398   0.00400   0.00395   0.00330
           A2           0.01446   0.00394   0.00396   0.00392   0.00328
           A3           0.01491   0.00403   0.00405   0.00401   0.00333
           A4           0.00048   0.00014   0.00014   0.00014   0.00012
           A5           0.00002  -0.00001  -0.00001  -0.00001  -0.00002
           A6          -0.01471  -0.00399  -0.00401  -0.00397  -0.00330
           A7           0.00063   0.00014   0.00014   0.00014   0.00009
           A8          -0.01478  -0.00401  -0.00403  -0.00399  -0.00332
           A9          -0.01450  -0.00395  -0.00397  -0.00393  -0.00328
           A10          0.00003   0.00005   0.00005   0.00005   0.00006
           A11          0.00004   0.00015   0.00015   0.00015   0.00021
           D1          -0.00811   0.00793   0.00786   0.00795   0.01272
           D2           0.00010   0.00005   0.00005   0.00005   0.00005
           D3           0.00007  -0.00005  -0.00005  -0.00005  -0.00008
           D4          -0.00003  -0.00009  -0.00009  -0.00009  -0.00013
                          A1        A2        A3        A4        A5
           A1           0.15149
           A2          -0.00842   0.15167
           A3          -0.00869  -0.00860   0.15113
           A4          -0.00028  -0.00027  -0.00028   0.15999
           A5          -0.00002  -0.00002  -0.00002  -0.00000   0.16000
           A6           0.00857   0.00848   0.00875   0.00028   0.00002
           A7          -0.00037  -0.00037  -0.00038  -0.00001  -0.00000
           A8           0.00861   0.00852   0.00879   0.00028   0.00002
           A9           0.00844   0.00835   0.00862   0.00027   0.00002
           A10         -0.00001  -0.00001  -0.00001  -0.00000  -0.00000
           A11          0.00001   0.00001   0.00001   0.00000  -0.00000
           D1           0.00695   0.00690   0.00704   0.00024  -0.00003
           D2          -0.00005  -0.00005  -0.00005  -0.00000  -0.00000
           D3          -0.00005  -0.00005  -0.00005  -0.00000   0.00000
           D4          -0.00000  -0.00000  -0.00000  -0.00000   0.00000
                          A6        A7        A8        A9        A10
           A6           0.15137
           A7           0.00038   0.15998
           A8          -0.00867   0.00038   0.15129
           A9          -0.00850   0.00037  -0.00854   0.15163
           A10          0.00001  -0.00000   0.00001   0.00001   0.00230
           A11         -0.00001  -0.00000  -0.00001  -0.00001   0.00000
           D1          -0.00697   0.00023  -0.00701  -0.00691   0.00010
           D2           0.00005  -0.00000   0.00005   0.00005   0.00000
           D3           0.00005  -0.00000   0.00005   0.00005  -0.00000
           D4           0.00000   0.00000   0.00000   0.00000  -0.00000
                          A11       D1        D2        D3        D4
           A11          0.00230
           D1           0.00032   0.02287
           D2           0.00000   0.00009   0.00230
           D3          -0.00000  -0.00010  -0.00000   0.00230
           D4          -0.00000  -0.00020  -0.00000   0.00000   0.00230
 ITU=  0  0
 Eigenvectors of the second derivative matrix:
                           1         2         3         4         5
     Eigenvalues --     0.02600   0.06982   0.06983   0.08113   0.08115
   1         R1        -0.31800  -0.00250  -0.00157   0.00927  -0.00867
   2         R2        -0.00288   0.00012   0.00006   0.00027  -0.00028
   3         R3        -0.00316   0.00012   0.00006   0.00027  -0.00028
   4         R4        -0.00270   0.00012   0.00007   0.00027  -0.00027
   5         R5         0.03892   0.00124   0.00071   0.00070  -0.00087
   6         A1         0.22328  -0.30254   0.22413  -0.03586   0.00658
   7         A2         0.22186  -0.04370  -0.37447   0.01678   0.03577
   8         A3         0.22479   0.34519   0.14900   0.01594  -0.02477
   9         A4         0.01974  -0.03163  -0.01376   0.27904  -0.50337
  10         A5         0.00710   0.00405   0.03394   0.29670   0.49396
  11         A6        -0.22327  -0.30270   0.22573  -0.01639  -0.00551
  12         A7         0.01363   0.02752  -0.02028  -0.57593   0.01048
  13         A8        -0.22394  -0.04314  -0.37450   0.00990   0.00915
  14         A9        -0.22272   0.34682   0.15040   0.00958  -0.02129
  15         A10        0.00001  -0.60524   0.44986  -0.05224   0.00108
  16         A11       -0.00239  -0.44985  -0.60519   0.00064   0.05250
  17         D1        -0.77293   0.00227   0.00219  -0.00618  -0.00283
  18         D2         0.00621  -0.04213  -0.01826   0.27901  -0.50356
  19         D3         0.00635  -0.00540  -0.04531  -0.29668  -0.49345
  20         D4         0.00013   0.03673  -0.02704  -0.57569   0.01011
                           6         7         8         9        10
     Eigenvalues --     0.11547   0.14097   0.16000   0.16000   0.37278
   1         R1         0.93457   0.15565  -0.00152  -0.00000  -0.00023
   2         R2         0.01458   0.02702   0.00005  -0.00000   0.44485
   3         R3         0.01467   0.02685   0.00005  -0.00000   0.37262
   4         R4         0.01448   0.02706   0.00005  -0.00000  -0.81441
   5         R5         0.17828  -0.98233  -0.00030   0.00004  -0.00003
   6         A1         0.07239   0.02162   0.05539  -0.57454   0.00005
   7         A2         0.07207   0.02132   0.46974   0.33533   0.00005
   8         A3         0.07257   0.02275  -0.52540   0.23923   0.00005
   9         A4        -0.00101   0.00117   0.01589  -0.00725   0.00000
  10         A5         0.00396   0.00081  -0.01418  -0.01009   0.00000
  11         A6        -0.07263  -0.02214  -0.05539   0.57454  -0.00005
  12         A7         0.01015   0.00199  -0.00171   0.01736   0.00000
  13         A8        -0.07392  -0.02240  -0.46975  -0.33532  -0.00005
  14         A9        -0.07047  -0.02115   0.52540  -0.23924  -0.00005
  15         A10       -0.00024  -0.00052  -0.00000   0.00000  -0.00000
  16         A11       -0.00229  -0.00155  -0.00000   0.00000  -0.00000
  17         D1        -0.25013  -0.07576  -0.00040   0.00001  -0.00016
  18         D2        -0.00544  -0.00018  -0.00000   0.00000  -0.00000
  19         D3         0.00035   0.00050   0.00000  -0.00000   0.00000
  20         D4         0.00579   0.00067   0.00001  -0.00000   0.00000
                          11        12
     Eigenvalues --     0.37281   0.38384
   1         R1         0.00024   0.03253
   2         R2         0.68310  -0.57838
   3         R3        -0.72925  -0.57306
   4         R4         0.03947  -0.57813
   5         R5        -0.00003  -0.04165
   6         A1        -0.00004   0.00167
   7         A2        -0.00004   0.00168
   8         A3        -0.00004   0.00182
   9         A4        -0.00000   0.00030
  10         A5        -0.00000   0.00001
  11         A6         0.00004  -0.00179
  12         A7        -0.00000   0.00001
  13         A8         0.00004  -0.00188
  14         A9         0.00004  -0.00150
  15         A10       -0.00000  -0.00013
  16         A11        0.00000  -0.00030
  17         D1         0.00013  -0.00596
  18         D2         0.00000   0.00018
  19         D3        -0.00000   0.00009
  20         D4        -0.00000  -0.00009
 Eigenvalue     1 is   2.60D-02 should be less than     0.000000 Eigenvector:
                          D1        R1        A3        A8        A1
   1                   -0.77293  -0.31800   0.22479  -0.22394   0.22328
                          A6        A9        A2        R5        A4
   1                   -0.22327  -0.22272   0.22186   0.03892   0.01974
 RLam0= 2.60D-02.
 Iter=   1 RLamda= 0.00000000D+00 Sum=-1.44065578D-04.
 Iter=   2 RLamda=-1.44065578D-04 Sum=-1.43892595D-04.
 Iter=   3 RLamda=-1.43892595D-04 Sum=-1.43892802D-04.
 RFO step:  Lambda0=2.601916952D-02 Lambda=-1.43892595D-04.
 Linear search not attempted -- option 19 set.
 Iteration  1 RMS(Cart)=  0.00746550 RMS(Int)=  0.00002049
 Iteration  2 RMS(Cart)=  0.00001051 RMS(Int)=  0.00001758
 Iteration  3 RMS(Cart)=  0.00000000 RMS(Int)=  0.00001758
 ITry= 1 IFail=0 DXMaxC= 2.93D-02 DCOld= 1.00D+10 DXMaxT= 1.00D-01 DXLimC= 3.00D+00 Rises=F
 Variable       Old X    -DE/DX   Delta X   Delta X   Delta X     New X
                                 (Linear)    (Quad)   (Total)
    R1        3.48321   0.00357   0.00000   0.04310   0.04310   3.52631
    R2        2.05145  -0.00036   0.00000  -0.00029  -0.00029   2.05116
    R3        2.05138  -0.00035   0.00000  -0.00024  -0.00024   2.05114
    R4        2.05146  -0.00037   0.00000  -0.00032  -0.00032   2.05115
    R5        3.48423  -0.00111   0.00000  -0.00818  -0.00818   3.47605
    A1        1.55339   0.00045   0.00000  -0.00514  -0.00514   1.54825
    A2        1.55318   0.00046   0.00000  -0.00496  -0.00496   1.54822
    A3        1.55347   0.00045   0.00000  -0.00527  -0.00527   1.54819
    A4        2.09395   0.00001   0.00000  -0.00077  -0.00081   2.09314
    A5        2.09343   0.00005   0.00000   0.00031   0.00026   2.09369
    A6        1.58825  -0.00045   0.00000   0.00512   0.00512   1.59338
    A7        2.09423   0.00002   0.00000  -0.00047  -0.00051   2.09372
    A8        1.58831  -0.00046   0.00000   0.00515   0.00515   1.59346
    A9        1.58818  -0.00045   0.00000   0.00510   0.00510   1.59327
   A10        3.14165  -0.00000   0.00000  -0.00002  -0.00002   3.14163
   A11        3.14150   0.00000   0.00000   0.00022   0.00022   3.14172
    D1       -3.08117  -0.00157   0.00000   0.01775   0.01774  -3.06343
    D2        2.09448  -0.00002   0.00000  -0.00046  -0.00046   2.09402
    D3       -2.09395  -0.00003   0.00000  -0.00061  -0.00061  -2.09457
    D4        2.09476  -0.00001   0.00000  -0.00016  -0.00016   2.09460
         Item               Value     Threshold  Converged?
 Maximum Force            0.003572     0.000450     NO 
 RMS     Force            0.000951     0.000300     NO 
 Maximum Displacement     0.029300     0.001800     NO 
 RMS     Displacement     0.007466     0.001200     NO 
 Predicted change in Energy=-3.405252D-05
 Lowest energy point so far.  Saving SCF results.
 Largest change from initial coordinates is atom    5       0.025 Angstoms.
 GradGradGradGradGradGradGradGradGradGradGradGradGradGradGradGradGradGrad

 Leave Link  103 at Wed Oct  7 12:24:28 2020, MaxMem=  2684354560 cpu:               3.3 elap:               1.1
 (Enter /udrive/faculty/rpeverati/g16/g16/l202.exe)
                          Input orientation:                          
 ---------------------------------------------------------------------
 Center     Atomic      Atomic             Coordinates (Angstroms)
 Number     Number       Type             X           Y           Z
 ---------------------------------------------------------------------
      1          9           0        1.849452   -0.000475   -0.000137
      2          6           0       -0.016591   -0.000300   -0.000056
      3          1           0        0.007893   -0.309020    1.040253
      4          1           0        0.007997    1.055074   -0.252452
      5          1           0        0.007836   -0.746737   -0.787695
      6          9           0       -1.856037   -0.000326   -0.000104
 ---------------------------------------------------------------------
                    Distance matrix (angstroms):
                    1          2          3          4          5
     1  F    0.000000
     2  C    1.866042   0.000000
     3  H    2.137510   1.085426   0.000000
     4  H    2.137476   1.085414   1.879319   0.000000
     5  H    2.137453   1.085421   1.879625   1.879630   0.000000
     6  F    3.705489   1.839446   2.156819   2.156889   2.156722
                    6
     6  F    0.000000
 Stoichiometry    CH3F2(1-)
 Framework group  C1[X(CH3F2)]
 Deg. of freedom    12
 Full point group                 C1      NOp   1
 RotChk:  IX=3 Diff= 1.15D+00
 Largest Abelian subgroup         C1      NOp   1
 Largest concise Abelian subgroup C1      NOp   1
                         Standard orientation:                         
 ---------------------------------------------------------------------
 Center     Atomic      Atomic             Coordinates (Angstroms)
 Number     Number       Type             X           Y           Z
 ---------------------------------------------------------------------
      1          9           0        1.854455   -0.000053    0.000010
      2          6           0       -0.011588    0.000064   -0.000019
      3          1           0        0.012899    0.536833    0.943077
      4          1           0        0.012961    0.548771   -0.936204
      5          1           0        0.012875   -1.085060   -0.006900
      6          9           0       -1.851034   -0.000050    0.000006
 ---------------------------------------------------------------------
 Rotational constants (GHZ):         141.9501904           3.8224866           3.8224640
 Leave Link  202 at Wed Oct  7 12:24:29 2020, MaxMem=  2684354560 cpu:               1.3 elap:               0.7
 (Enter /udrive/faculty/rpeverati/g16/g16/l301.exe)
 Standard basis: 6-31G(d) (5D, 7F)
 Ernie: Thresh=  0.10000D-02 Tol=  0.10000D-05 Strict=F.
 There are    51 symmetry adapted cartesian basis functions of A   symmetry.
 There are    48 symmetry adapted basis functions of A   symmetry.
    48 basis functions,    96 primitive gaussians,    51 cartesian basis functions
    14 alpha electrons       14 beta electrons
       nuclear repulsion energy        65.3449962968 Hartrees.
 IExCor=  402 DFT=T Ex=B Corr=LYP ExCW=0 ScaHFX=  0.000000
 ScaDFX=  1.000000  1.000000  1.000000  1.000000 ScalE2=  1.000000  1.000000
 IRadAn=      5 IRanWt=     -1 IRanGd=            0 ICorTp=0 IEmpDi=141
 NAtoms=    6 NActive=    6 NUniq=    6 SFac= 1.00D+00 NAtFMM=   60 NAOKFM=F Big=F
 Integral buffers will be    131072 words long.
 Raffenetti 2 integral format.
 Two-electron integral symmetry is turned on.
 R6Disp:  Grimme-D3(BJ) Dispersion energy=       -0.0040040408 Hartrees.
 Nuclear repulsion after empirical dispersion term =       65.3409922560 Hartrees.
 Leave Link  301 at Wed Oct  7 12:24:30 2020, MaxMem=  2684354560 cpu:               2.2 elap:               0.8
 (Enter /udrive/faculty/rpeverati/g16/g16/l302.exe)
 NPDir=0 NMtPBC=     1 NCelOv=     1 NCel=       1 NClECP=     1 NCelD=      1
         NCelK=      1 NCelE2=     1 NClLst=     1 CellRange=     0.0.
 One-electron integrals computed using PRISM.
 One-electron integral symmetry used in STVInt
 NBasis=    48 RedAO= T EigKep=  1.84D-02  NBF=    48
 NBsUse=    48 1.00D-06 EigRej= -1.00D+00 NBFU=    48
 Precomputing XC quadrature grid using
 IXCGrd= 4 IRadAn=           5 IRanWt=          -1 IRanGd=           0 AccXCQ= 0.00D+00.
 Generated NRdTot=       0 NPtTot=           0 NUsed=           0 NTot=          32
 NSgBfM=    51    51    51    51    51 MxSgAt=     6 MxSgA2=     6.
 Leave Link  302 at Wed Oct  7 12:24:32 2020, MaxMem=  2684354560 cpu:               3.5 elap:               1.0
 (Enter /udrive/faculty/rpeverati/g16/g16/l303.exe)
 DipDrv:  MaxL=1.
 Leave Link  303 at Wed Oct  7 12:24:33 2020, MaxMem=  2684354560 cpu:               1.8 elap:               0.8
 (Enter /udrive/faculty/rpeverati/g16/g16/l401.exe)
 Initial guess from the checkpoint file:  "MN_39_fch3fts_BH76_BLYPDBJ_631Gs.chk"
 SCF N**3 symmetry information disabled.
 B after Tr=     0.000000    0.000000   -0.000000
         Rot=    0.913389    0.407088   -0.000000   -0.000002 Ang=  48.04 deg.
 Guess basis will be translated and rotated to current coordinates.
 JPrj=2 DoOrth=T DoCkMO=T.
 Generating alternative initial guess.
 ExpMin= 1.61D-01 ExpMax= 7.00D+03 ExpMxC= 1.05D+03 IAcc=2 IRadAn=         4 AccDes= 0.00D+00
 Harris functional with IExCor=  402 and IRadAn=       4 diagonalized for initial guess.
 HarFok:  IExCor=  402 AccDes= 0.00D+00 IRadAn=         4 IDoV= 1 UseB2=F ITyADJ=14
 ICtDFT=  3500011 ScaDFX=  1.000000  1.000000  1.000000  1.000000
 FoFCou: FMM=F IPFlag=           0 FMFlag=      100000 FMFlg1=           0
         NFxFlg=           0 DoJE=T BraDBF=F KetDBF=T FulRan=T
         wScrn=  0.000000 ICntrl=       500 IOpCl=  0 I1Cent=   200000004 NGrid=           0
         NMat0=    1 NMatS0=      1 NMatT0=    0 NMatD0=    1 NMtDS0=    0 NMtDT0=    0
 Petite list used in FoFCou.
 Harris En= -239.756895644873    
 Leave Link  401 at Wed Oct  7 12:24:35 2020, MaxMem=  2684354560 cpu:               9.1 elap:               1.3
 (Enter /udrive/faculty/rpeverati/g16/g16/l502.exe)
 Keep J ints in memory in canonical form, NReq=11149966.
 FoFCou: FMM=F IPFlag=           0 FMFlag=           0 FMFlg1=           0
         NFxFlg=           0 DoJE=F BraDBF=F KetDBF=F FulRan=T
         wScrn=  0.000000 ICntrl=       600 IOpCl=  0 I1Cent=           0 NGrid=           0
         NMat0=    1 NMatS0=   1176 NMatT0=    0 NMatD0=    1 NMtDS0=    0 NMtDT0=    0
 Symmetry not used in FoFCou.
 Two-electron integral symmetry not used.
 Closed shell SCF:
 Using DIIS extrapolation, IDIIS=  1040.
 NGot=  2684354560 LenX=  2683655928 LenY=  2683652886
 Requested convergence on RMS density matrix=1.00D-08 within 120 cycles.
 Requested convergence on MAX density matrix=1.00D-06.
 Requested convergence on             energy=1.00D-06.
 No special actions if energy rises.
 Integral accuracy reduced to 1.0D-05 until final iterations.

 Cycle   1  Pass 0  IDiag  1:
 E= -239.471843953253    
 DIIS: error= 1.02D-03 at cycle   1 NSaved=   1.
 NSaved= 1 IEnMin= 1 EnMin= -239.471843953253     IErMin= 1 ErrMin= 1.02D-03
 ErrMax= 1.02D-03  0.00D+00 EMaxC= 1.00D-01 BMatC= 4.22D-05 BMatP= 4.22D-05
 IDIUse=3 WtCom= 9.90D-01 WtEn= 1.02D-02
 Coeff-Com:  0.100D+01
 Coeff-En:   0.100D+01
 Coeff:      0.100D+01
 Gap=     0.606 Goal=   None    Shift=    0.000
 GapD=    0.606 DampG=2.000 DampE=1.000 DampFc=2.0000 IDamp=-1.
 RMSDP=3.48D-04 MaxDP=2.66D-03              OVMax= 4.78D-03

 Cycle   2  Pass 0  IDiag  1:
 E= -239.471907228499     Delta-E=       -0.000063275246 Rises=F Damp=F
 DIIS: error= 3.46D-04 at cycle   2 NSaved=   2.
 NSaved= 2 IEnMin= 2 EnMin= -239.471907228499     IErMin= 2 ErrMin= 3.46D-04
 ErrMax= 3.46D-04  0.00D+00 EMaxC= 1.00D-01 BMatC= 7.50D-06 BMatP= 4.22D-05
 IDIUse=3 WtCom= 9.97D-01 WtEn= 3.46D-03
 Coeff-Com:  0.219D+00 0.781D+00
 Coeff-En:   0.000D+00 0.100D+01
 Coeff:      0.219D+00 0.781D+00
 Gap=     0.218 Goal=   None    Shift=    0.000
 RMSDP=9.30D-05 MaxDP=1.30D-03 DE=-6.33D-05 OVMax= 2.65D-03

 Cycle   3  Pass 0  IDiag  1:
 E= -239.471902986262     Delta-E=        0.000004242237 Rises=F Damp=F
 DIIS: error= 5.42D-04 at cycle   3 NSaved=   3.
 NSaved= 3 IEnMin= 2 EnMin= -239.471907228499     IErMin= 2 ErrMin= 3.46D-04
 ErrMax= 5.42D-04  0.00D+00 EMaxC= 1.00D-01 BMatC= 1.32D-05 BMatP= 7.50D-06
 IDIUse=3 WtCom= 3.01D-01 WtEn= 6.99D-01
 Coeff-Com:  0.622D-01 0.556D+00 0.382D+00
 Coeff-En:   0.000D+00 0.594D+00 0.406D+00
 Coeff:      0.187D-01 0.582D+00 0.399D+00
 Gap=     0.217 Goal=   None    Shift=    0.000
 RMSDP=5.76D-05 MaxDP=8.50D-04 DE= 4.24D-06 OVMax= 1.76D-03

 Cycle   4  Pass 0  IDiag  1:
 E= -239.471914239171     Delta-E=       -0.000011252909 Rises=F Damp=F
 DIIS: error= 8.69D-05 at cycle   4 NSaved=   4.
 NSaved= 4 IEnMin= 4 EnMin= -239.471914239171     IErMin= 4 ErrMin= 8.69D-05
[...]
 Red2BG is reusing G-inverse.
 Internal  Forces:  Max     0.000017265 RMS     0.000007538
 Search for a local minimum.
 Step number   1 out of a maximum of    2
 All quantities printed in internal units (Hartrees-Bohrs-Radians)
 Second derivative matrix not updated -- analytic derivatives used.
 The second derivative matrix:
                          R1        R2        R3        R4        R5
           R1           0.06043
           R2           0.00579   0.35383
           R3           0.00579   0.00087   0.35382
           R4           0.00579   0.00087   0.00087   0.35384
           R5           0.01923   0.00579   0.00579   0.00578   0.06042
           A1           0.00724  -0.00409   0.00204   0.00204  -0.00724
           A2           0.00724   0.00204  -0.00408   0.00204  -0.00723
           A3           0.00723   0.00204   0.00205  -0.00409  -0.00724
           A4          -0.00000   0.00209   0.00210  -0.00419   0.00000
           A5          -0.00000   0.00210  -0.00419   0.00209   0.00000
           A6          -0.00724  -0.00409   0.00204   0.00205   0.00724
           A7          -0.00000  -0.00419   0.00209   0.00209   0.00000
           A8          -0.00724   0.00205  -0.00409   0.00205   0.00723
           A9          -0.00724   0.00205   0.00205  -0.00409   0.00724
           A10          0.00000  -0.00818   0.00408   0.00409   0.00000
           A11          0.00000  -0.00000  -0.00708   0.00708  -0.00000
           D1          -0.02507  -0.00000   0.00000  -0.00000   0.02507
           D2           0.00000   0.00209   0.00210  -0.00419  -0.00000
           D3           0.00000  -0.00210   0.00419  -0.00210  -0.00000
           D4          -0.00000  -0.00419   0.00209   0.00209   0.00000
                          A1        A2        A3        A4        A5
           A1           0.03197
           A2          -0.01391   0.03197
           A3          -0.01390  -0.01390   0.03197
           A4           0.00061   0.00062  -0.00123   0.01424
           A5           0.00061  -0.00123   0.00061  -0.00712   0.01424
           A6          -0.01319   0.00451   0.00451   0.00062   0.00062
           A7          -0.00123   0.00061   0.00061  -0.00712  -0.00712
           A8           0.00451  -0.01319   0.00451   0.00062  -0.00123
           A9           0.00451   0.00451  -0.01319  -0.00124   0.00062
           A10          0.01879  -0.00940  -0.00939   0.00123   0.00123
           A11         -0.00001   0.01627  -0.01626   0.00214  -0.00214
           D1          -0.00481  -0.00482  -0.00482   0.00000   0.00000
           D2           0.00062   0.00062  -0.00123   0.01424  -0.00712
           D3          -0.00062   0.00123  -0.00062   0.00712  -0.01424
           D4          -0.00123   0.00061   0.00062  -0.00712  -0.00712
                          A6        A7        A8        A9        A10
           A6           0.03196
           A7          -0.00123   0.01424
           A8          -0.01390   0.00062   0.03196
           A9          -0.01389   0.00062  -0.01389   0.03195
           A10          0.01877  -0.00246  -0.00939  -0.00938   0.03756
           A11         -0.00001  -0.00000   0.01625  -0.01625  -0.00001
           D1           0.00481   0.00000   0.00482   0.00482   0.00000
           D2           0.00061  -0.00712   0.00062  -0.00123   0.00123
           D3          -0.00061   0.00712   0.00123  -0.00062  -0.00123
           D4          -0.00123   0.01424   0.00061   0.00062  -0.00246
                          A11       D1        D2        D3        D4
           A11          0.03755
           D1           0.00000   0.01668
           D2           0.00214   0.00000   0.01424
           D3           0.00213   0.00000   0.00712   0.01424
           D4          -0.00000   0.00000  -0.00712   0.00712   0.01424
 ITU=  0
 Eigenvectors of the second derivative matrix:
                           1         2         3         4         5
     Eigenvalues --    -0.01105   0.04096   0.04097   0.06355   0.06356
   1         R1        -0.45190   0.00002   0.00003   0.00010  -0.00017
   2         R2         0.00000   0.01536  -0.02684   0.00012   0.00014
   3         R3         0.00000   0.01559   0.02670   0.00005  -0.00016
   4         R4         0.00000  -0.03093   0.00012  -0.00018   0.00004
   5         R5         0.45191  -0.00010   0.00003   0.00014  -0.00012
   6         A1         0.18130   0.04523  -0.07892  -0.38950  -0.42333
   7         A2         0.18129   0.04598   0.07856  -0.17187   0.54903
   8         A3         0.18127  -0.09122   0.00035   0.56136  -0.12572
   9         A4        -0.00005  -0.55979   0.00209   0.00098  -0.00021
  10         A5        -0.00007   0.28168   0.48384  -0.00028   0.00096
  11         A6        -0.18130   0.04540  -0.07921   0.39236   0.42638
  12         A7        -0.00007   0.27811  -0.48593  -0.00069  -0.00076
  13         A8        -0.18128   0.04614   0.07885   0.17306  -0.55292
  14         A9        -0.18129  -0.09153   0.00037  -0.56543   0.12656
  15         A10       -0.00000   0.09063  -0.15814   0.00286   0.00305
  16         A11        0.00002   0.15869   0.09046   0.00304  -0.00273
  17         D1        -0.62799  -0.00011   0.00000  -0.00000   0.00000
  18         D2         0.00000  -0.55980   0.00209   0.00090  -0.00018
  19         D3        -0.00000  -0.28169  -0.48385   0.00026  -0.00085
  20         D4        -0.00000   0.27811  -0.48594  -0.00064  -0.00067
                           6         7         8         9        10
     Eigenvalues --     0.06660   0.06664   0.07727   0.07892   0.35381
   1         R1        -0.00036  -0.00010  -0.54300   0.70684   0.00001
   2         R2         0.01995  -0.02306  -0.00003  -0.02954  -0.66762
   3         R3         0.01001   0.02875  -0.00004  -0.02955   0.73921
   4         R4        -0.02991  -0.00574  -0.00002  -0.02954  -0.07094
   5         R5        -0.00009   0.00013   0.54472   0.70552   0.00001
   6         A1         0.24194  -0.27960  -0.15061   0.00025   0.01403
   7         A2         0.12101   0.34922  -0.15075   0.00035  -0.01553
   8         A3        -0.36306  -0.06973  -0.15054  -0.00006   0.00150
   9         A4         0.13784   0.02663  -0.00006   0.00001   0.00140
  10         A5        -0.04602  -0.13235   0.00013  -0.00002  -0.01450
  11         A6         0.23759  -0.27454   0.15062  -0.00008   0.01404
  12         A7        -0.09182   0.10572   0.00009   0.00000   0.01310
  13         A8         0.11899   0.34314   0.15055  -0.00030  -0.01554
  14         A9        -0.35647  -0.06852   0.15074  -0.00018   0.00150
  15         A10        0.47953  -0.55414   0.00001   0.00018   0.02808
  16         A11        0.55399   0.47954  -0.00023   0.00017  -0.01967
  17         D1         0.00016   0.00013   0.52181  -0.00063   0.00000
  18         D2         0.13780   0.02661  -0.00010   0.00001   0.00140
  19         D3         0.04601   0.13228  -0.00007   0.00002   0.01450
  20         D4        -0.09179   0.10567   0.00003   0.00000   0.01310
                          11        12
     Eigenvalues --     0.35381   0.35629
   1         R1        -0.00010  -0.03619
   2         R2        -0.46913  -0.57571
   3         R3        -0.34588  -0.57549
   4         R4         0.81083  -0.57858
   5         R5        -0.00010  -0.03617
   6         A1         0.00984  -0.00001
   7         A2         0.00724  -0.00003
   8         A3        -0.01708   0.00004
   9         A4        -0.01593   0.00004
  10         A5         0.00676  -0.00002
  11         A6         0.00986  -0.00001
  12         A7         0.00918  -0.00001
  13         A8         0.00724  -0.00003
  14         A9        -0.01710   0.00004
  15         A10        0.01970  -0.00001
  16         A11        0.02810  -0.00008
  17         D1        -0.00000   0.00000
  18         D2        -0.01594   0.00004
  19         D3        -0.00676   0.00002
  20         D4         0.00918  -0.00001
 Eigenvalue     1 is  -1.11D-02 should be greater than     0.000000 Eigenvector:
                          D1        R5        R1        A6        A1
   1                   -0.62799   0.45191  -0.45190  -0.18130   0.18130
                          A2        A9        A8        A3        A5
   1                    0.18129  -0.18129  -0.18128   0.18127  -0.00007
 Angle between quadratic step and forces=  57.78 degrees.
 Linear search not attempted -- first point.
 Iteration  1 RMS(Cart)=  0.00008166 RMS(Int)=  0.00000001
 Iteration  2 RMS(Cart)=  0.00000000 RMS(Int)=  0.00000001
 ITry= 1 IFail=0 DXMaxC= 2.54D-04 DCOld= 1.00D+10 DXMaxT= 3.00D-01 DXLimC= 3.00D+00 Rises=F
 Variable       Old X    -DE/DX   Delta X   Delta X   Delta X     New X
                                 (Linear)    (Quad)   (Total)
    R1        3.49832   0.00001   0.00000  -0.00009  -0.00009   3.49824
    R2        2.04997  -0.00002   0.00000  -0.00006  -0.00006   2.04992
    R3        2.04997  -0.00002   0.00000  -0.00005  -0.00005   2.04992
    R4        2.04997  -0.00001   0.00000  -0.00004  -0.00004   2.04993
    R5        3.49872   0.00002   0.00000   0.00042   0.00042   3.49915
    A1        1.57091  -0.00000   0.00000   0.00006   0.00006   1.57096
    A2        1.57087   0.00000   0.00000   0.00011   0.00011   1.57098
    A3        1.57091   0.00000   0.00000   0.00009   0.00009   1.57099
    A4        2.09440  -0.00000   0.00000  -0.00001  -0.00001   2.09439
    A5        2.09435   0.00000   0.00000   0.00004   0.00004   2.09440
    A6        1.57070  -0.00000   0.00000  -0.00011  -0.00011   1.57060
    A7        2.09443  -0.00000   0.00000  -0.00004  -0.00004   2.09440
    A8        1.57073  -0.00000   0.00000  -0.00011  -0.00011   1.57062
    A9        1.57066   0.00000   0.00000  -0.00003  -0.00003   1.57063
   A10        3.14161  -0.00000   0.00000  -0.00005  -0.00005   3.14156
   A11        3.14161  -0.00000   0.00000  -0.00003  -0.00003   3.14158
    D1        3.14125  -0.00000   0.00000  -0.00029  -0.00029   3.14096
    D2        2.09440  -0.00000   0.00000  -0.00001  -0.00001   2.09439
    D3       -2.09435  -0.00000   0.00000  -0.00004  -0.00004  -2.09440
    D4        2.09443  -0.00000   0.00000  -0.00004  -0.00004   2.09440
         Item               Value     Threshold  Converged?
 Maximum Force            0.000017     0.000450     YES
 RMS     Force            0.000008     0.000300     YES
 Maximum Displacement     0.000254     0.001800     YES
 RMS     Displacement     0.000082     0.001200     YES
 Predicted change in Energy=-8.025665D-09
 Optimization completed.
    -- Stationary point found.
                           ----------------------------
                           !   Optimized Parameters   !
                           ! (Angstroms and Degrees)  !
 --------------------------                            --------------------------
 ! Name  Definition              Value          Derivative Info.                !
 --------------------------------------------------------------------------------
 ! R1    R(1,2)                  1.8512         -DE/DX =    0.0                 !
 ! R2    R(2,3)                  1.0848         -DE/DX =    0.0                 !
 ! R3    R(2,4)                  1.0848         -DE/DX =    0.0                 !
 ! R4    R(2,5)                  1.0848         -DE/DX =    0.0                 !
 ! R5    R(2,6)                  1.8514         -DE/DX =    0.0                 !
 ! A1    A(1,2,3)               90.0065         -DE/DX =    0.0                 !
 ! A2    A(1,2,4)               90.0042         -DE/DX =    0.0                 !
 ! A3    A(1,2,5)               90.0063         -DE/DX =    0.0                 !
 ! A4    A(3,2,4)              120.0002         -DE/DX =    0.0                 !
 ! A5    A(3,2,5)              119.9976         -DE/DX =    0.0                 !
 ! A6    A(3,2,6)               89.9948         -DE/DX =    0.0                 !
 ! A7    A(4,2,5)              120.0023         -DE/DX =    0.0                 !
 ! A8    A(4,2,6)               89.9962         -DE/DX =    0.0                 !
 ! A9    A(5,2,6)               89.9921         -DE/DX =    0.0                 !
 ! A10   L(1,2,6,3,-1)         180.0013         -DE/DX =    0.0                 !
 ! A11   L(1,2,6,3,-2)         180.0012         -DE/DX =    0.0                 !
 ! D1    D(3,2,5,4)            179.9804         -DE/DX =    0.0                 !
 ! D2    D(3,2,6,4)            120.0002         -DE/DX =    0.0                 !
 ! D3    D(3,2,6,5)           -119.9976         -DE/DX =    0.0                 !
 ! D4    D(4,2,6,5)            120.0023         -DE/DX =    0.0                 !
 --------------------------------------------------------------------------------
 GradGradGradGradGradGradGradGradGradGradGradGradGradGradGradGradGradGrad

 Leave Link  103 at Wed Oct  7 12:26:07 2020, MaxMem=  2684354560 cpu:               2.5 elap:               0.6
 (Enter /udrive/faculty/rpeverati/g16/g16/l9999.exe)

 ----------------------------------------------------------------------

 Electric dipole moment (input orientation):
 (Debye = 10**-18 statcoulomb cm , SI units = C m)
                  (au)            (Debye)         (10**-30 SI)
   Tot        0.464925D-03      0.118172D-02      0.394180D-02
   x          0.464299D-03      0.118013D-02      0.393649D-02
   y          0.000000D+00      0.000000D+00      0.000000D+00
   z          0.241181D-04      0.613022D-04      0.204482D-03

 Dipole polarizability, Alpha (input orientation).
 (esu units = cm**3 , SI units = C**2 m**2 J**-1)
 Alpha(0;0):
               (au)            (10**-24 esu)      (10**-40 SI)
   iso        0.208884D+02      0.309534D+01      0.344403D+01
   aniso      0.176469D+02      0.261500D+01      0.290958D+01
   xx         0.326530D+02      0.483868D+01      0.538376D+01
   yx        -0.545087D-03     -0.807735D-04     -0.898726D-04
   yy         0.150062D+02      0.222369D+01      0.247419D+01
   zx        -0.111169D-03     -0.164736D-04     -0.183294D-04
   zy        -0.167809D-03     -0.248667D-04     -0.276680D-04
   zz         0.150060D+02      0.222366D+01      0.247416D+01

 ----------------------------------------------------------------------

 Dipole orientation:
     9          0.18202133         -0.03719199          3.49372636
     6          0.00007712         -0.00054621          0.00033244
     1         -1.95623249         -0.60565429          0.09564133
     1          0.45578752          1.99812863         -0.00258729
     1          1.50058879         -1.39417118         -0.09266107
     9         -0.18179368          0.03605791         -3.49346760

 Electric dipole moment (dipole orientation):
 (Debye = 10**-18 statcoulomb cm , SI units = C m)
                  (au)            (Debye)         (10**-30 SI)
   Tot        0.464953D-03      0.118179D-02      0.394204D-02
   x          0.000000D+00      0.000000D+00      0.000000D+00
   y          0.000000D+00      0.000000D+00      0.000000D+00
   z          0.464953D-03      0.118179D-02      0.394204D-02

 Dipole polarizability, Alpha (dipole orientation).
 (esu units = cm**3 , SI units = C**2 m**2 J**-1)
 Alpha(0;0):
               (au)            (10**-24 esu)      (10**-40 SI)
   iso        0.208884D+02      0.309534D+01      0.344403D+01
   aniso      0.176469D+02      0.261500D+01      0.290958D+01
   xx         0.150537D+02      0.223073D+01      0.248202D+01
   yx        -0.942918D-02     -0.139726D-02     -0.155466D-02
   yy         0.150081D+02      0.222398D+01      0.247451D+01
   zx         0.916239D+00      0.135773D+00      0.151067D+00
   zy        -0.184287D+00     -0.273086D-01     -0.303849D-01
   zz         0.326034D+02      0.483132D+01      0.537557D+01

 ----------------------------------------------------------------------

 Test job not archived.
 1\1\GINC-NODE61\Freq\RBLYP\6-31G(d)\C1H3F2(1-)\RPEVERATI\07-Oct-2020\0
 \\#P Freq BLYP/6-31G* 5D 7F Integral=UltraFineGrid SCF=(NoSymm,XQC,Max
 Cyc=120) EmpiricalDispersion=GD3BJ IOp(1/33=1) Geom=Check Guess=Read\\
 TS search on BH76.\\-1,1\F,1.8514123916,-0.0003781783,-0.0000685972\C,
 0.0001808067,-0.0002874998,-0.0000284539\H,0.0000652443,-0.3091123814,
 1.0398827718\H,0.0001470026,1.0547130514,-0.2525369397\H,0.0000087275,
 -0.7464970042,-0.7874011837\F,-1.8512631352,-0.0002216329,-0.000038008
 5\\Version=ES64L-G16RevA.03\State=1-A\HF=-239.4719092\RMSD=5.258e-10\R
 MSF=8.535e-06\ZeroPoint=0.03633\Thermal=0.0405553\Dipole=0.0004643,0.0
 000051,0.0000241\DipoleDeriv=-1.4306232,0.0000424,0.0000151,0.000045,-
 0.5541982,0.0000026,0.0000182,-0.0000034,-0.5541959,2.0902736,-0.00006
 67,-0.0000132,-0.0000813,0.3231405,-0.0000336,-0.0000157,-0.0000367,0.
 3231181,-0.0763978,-0.0000002,0.00002,0.0000062,0.022346,0.0611731,0.0
 000051,0.0611656,-0.1654544,-0.0763995,0.0000043,0.0000013,-0.0000018,
 -0.1714632,0.0507304,0.0000035,0.050745,0.0283794,-0.0763972,-0.000018
 ,-0.0000237,-0.0000018,-0.0655111,-0.111874,-0.0000082,-0.1118657,-0.0
 775333,-1.4304559,0.0000381,0.0000005,0.0000337,-0.5543139,0.0000013,-
 0.000003,-0.0000047,-0.5543138\Polar=32.6530165,-0.0005451,15.0062024,
 -0.0001112,-0.0001678,15.0060271\Quadrupole=-10.06925,5.0346688,5.0345
 812,0.0006714,0.0001304,-0.0000003\PG=C01 [X(C1H3F2)]\NImag=1\\0.06042
 631,-0.00000513,0.01329413,-0.00000287,-0.00000597,0.01329032,0.022340
 26,-0.00000145,-0.00000115,-0.06454974,-0.00000247,-0.02805416,-0.0000
 0117,0.00004537,0.66369177,-0.00000270,-0.00000009,-0.02805007,0.00000
 848,0.00001403,0.66366676,-0.02117950,-0.00252390,0.00850035,0.0066253
 4,-0.00001281,0.00003181,0.03207848,-0.00164547,0.00224492,-0.00054877
 ,-0.00001414,-0.07852640,0.08077416,0.00001155,0.06604712,0.00554834,-
 0.00054871,0.00392859,0.00003410,0.08077247,-0.32653396,-0.00003530,-0
 .08545898,0.32844715,-0.02118109,0.00862542,-0.00206396,0.00662411,0.0
 0000778,-0.00000324,0.00182588,-0.00000227,-0.00000008,0.03208151,0.00
 563019,0.00397955,-0.00044977,0.00000910,-0.33447517,0.06699955,-0.000
 00003,-0.00101391,-0.00091121,-0.00001260,0.33685429,-0.00134676,-0.00
 044859,0.00218894,-0.00000381,0.06699718,-0.07057207,-0.00000110,0.022
 07410,0.00012457,0.00000344,-0.07089754,0.05763522,-0.02118014,-0.0060
 9575,-0.00643255,0.00662223,-0.00003716,-0.00003641,0.00182736,0.00000
 225,0.00000163,0.00182700,0.00000066,0.00000113,0.03208284,-0.00397806
 ,0.00303315,0.00100554,-0.00003974,-0.19459638,-0.14778749,0.00000167,
 0.00900487,0.00669507,-0.00000295,-0.00932569,-0.01727633,0.00003744,0
 .18885241,-0.00419620,0.00100322,0.00313987,-0.00003857,-0.14778128,-0
 .21047498,-0.00000318,-0.01629237,-0.00989520,0.00000148,0.00570920,0.
 00843581,0.00003857,0.15635791,0.20565524,-0.01922584,0.00000081,0.000
 00017,0.02233779,-0.00000072,0.00000205,-0.02117756,0.00164808,-0.0055
 4868,-0.02117741,-0.00562732,0.00134710,-0.02117928,0.00398163,0.00419
 791,0.06042230,0.00000095,0.00550241,0.00000015,0.00000085,-0.02803966
 ,-0.00000016,0.00252350,0.00224341,-0.00054864,-0.00861539,0.00398093,
 -0.00044882,0.00609256,0.00303164,0.00100331,-0.00000249,0.01328128,0.
 00000018,0.00000015,0.00550235,0.00000095,-0.00000124,-0.02803568,-0.0
 0849258,-0.00054813,0.00392885,0.00206235,-0.00045023,0.00218753,0.006
 42763,0.00100530,0.00313927,0.00000146,-0.00000585,0.01327768\\-0.0000
 0806,0.00000011,-0.00000161,-0.00001300,0.00000448,-0.00000049,0.00000
 104,-0.00000785,0.00001487,0.00000303,0.00001598,-0.00000243,-0.000000
 27,-0.00001117,-0.00000844,0.00001727,-0.00000155,-0.00000190\\\@


 THIS CURIOUS WORLD WHICH WE INHABIT IS MORE WONDERFUL THAN IT IS CONVENIENT;
 MORE BEAUTIFUL THAN IT IS USEFUL;
 IT IS MORE TO BE ADMIRED THAN IT IS TO BE USED.

                                                                 -- THOREAU
 Job cpu time:       0 days  0 hours  2 minutes 37.5 seconds.
 Elapsed time:       0 days  0 hours  0 minutes 23.6 seconds.
 File lengths (MBytes):  RWF=      7 Int=      0 D2E=      0 Chk=      1 Scr=      1
 Normal termination of Gaussian 16 at Wed Oct  7 12:26:09 2020.
