 Entering Gaussian System, Link 0=g16
 Input=MN_61_hoch3fcomp1_BH76_BLYPDBJ_631Gs.in
 Output=MN_61_hoch3fcomp1_BH76_BLYPDBJ_631Gs.log
 Initial command:
 /udrive/faculty/rpeverati/g16/g16/l1.exe "/udrive/scratch-directories/gaussian09/rpeverati/Gau-25154.inp" -scrdir="/udrive/scratch-directories/gaussian09/rpeverati/"
 Entering Link 1 = /udrive/faculty/rpeverati/g16/g16/l1.exe PID=     25172.
  
 Copyright (c) 1988,1990,1992,1993,1995,1998,2003,2009,2016,
            Gaussian, Inc.  All Rights Reserved.
  
 This is part of the Gaussian(R) 16 program.  It is based on
 the Gaussian(R) 09 system (copyright 2009, Gaussian, Inc.),
 the Gaussian(R) 03 system (copyright 2003, Gaussian, Inc.),
 the Gaussian(R) 98 system (copyright 1998, Gaussian, Inc.),
 the Gaussian(R) 94 system (copyright 1995, Gaussian, Inc.),
 the Gaussian 92(TM) system (copyright 1992, Gaussian, Inc.),
 the Gaussian 90(TM) system (copyright 1990, Gaussian, Inc.),
 the Gaussian 88(TM) system (copyright 1988, Gaussian, Inc.),
 the Gaussian 86(TM) system (copyright 1986, Carnegie Mellon
 University), and the Gaussian 82(TM) system (copyright 1983,
 Carnegie Mellon University). Gaussian is a federally registered
 trademark of Gaussian, Inc.
  
 This software contains proprietary and confidential information,
 including trade secrets, belonging to Gaussian, Inc.
  
 This software is provided under written license and may be
 used, copied, transmitted, or stored only in accord with that
 written license.
  
 The following legend is applicable only to US Government
 contracts under FAR:
  
                    RESTRICTED RIGHTS LEGEND
  
 Use, reproduction and disclosure by the US Government is
 subject to restrictions as set forth in subparagraphs (a)
 and (c) of the Commercial Computer Software - Restricted
 Rights clause in FAR 52.227-19.
  
 Gaussian, Inc.
 340 Quinnipiac St., Bldg. 40, Wallingford CT 06492
  
  
 ---------------------------------------------------------------
 Warning -- This program may not be used in any manner that
 competes with the business of Gaussian, Inc. or will provide
 assistance to any competitor of Gaussian, Inc.  The licensee
 of this program is prohibited from giving any competitor of
 Gaussian, Inc. access to this program.  By using this program,
 the user acknowledges that Gaussian, Inc. is engaged in the
 business of creating and licensing software in the field of
 computational chemistry and represents and warrants to the
 licensee that it is not a competitor of Gaussian, Inc. and that
 it will not use this program in any manner prohibited above.
 ---------------------------------------------------------------
  

 Cite this work as:
 Gaussian 16, Revision A.03,
 M. J. Frisch, G. W. Trucks, H. B. Schlegel, G. E. Scuseria, 
 M. A. Robb, J. R. Cheeseman, G. Scalmani, V. Barone, 
 G. A. Petersson, H. Nakatsuji, X. Li, M. Caricato, A. V. Marenich, 
 J. Bloino, B. G. Janesko, R. Gomperts, B. Mennucci, H. P. Hratchian, 
 J. V. Ortiz, A. F. Izmaylov, J. L. Sonnenberg, D. Williams-Young, 
 F. Ding, F. Lipparini, F. Egidi, J. Goings, B. Peng, A. Petrone, 
 T. Henderson, D. Ranasinghe, V. G. Zakrzewski, J. Gao, N. Rega, 
 G. Zheng, W. Liang, M. Hada, M. Ehara, K. Toyota, R. Fukuda, 
 J. Hasegawa, M. Ishida, T. Nakajima, Y. Honda, O. Kitao, H. Nakai, 
 T. Vreven, K. Throssell, J. A. Montgomery, Jr., J. E. Peralta, 
 F. Ogliaro, M. J. Bearpark, J. J. Heyd, E. N. Brothers, K. N. Kudin, 
 V. N. Staroverov, T. A. Keith, R. Kobayashi, J. Normand, 
 K. Raghavachari, A. P. Rendell, J. C. Burant, S. S. Iyengar, 
 J. Tomasi, M. Cossi, J. M. Millam, M. Klene, C. Adamo, R. Cammi, 
 J. W. Ochterski, R. L. Martin, K. Morokuma, O. Farkas, 
 J. B. Foresman, and D. J. Fox, Gaussian, Inc., Wallingford CT, 2016.
 
 ******************************************
 Gaussian 16:  ES64L-G16RevA.03 25-Dec-2016
                 7-Oct-2020 
 ******************************************
 %NoSave
 %nproc=12
 Will use up to   12 processors via shared memory.
 %mem=20GB
 %chk=MN_61_hoch3fcomp1_BH76_BLYPDBJ_631Gs
 ----------------------------------------------------------------------
 #P Opt(MaxCyc=100) BLYP/6-31G* 5D 7F Integral=UltraFineGrid SCF=(NoSym
 m,XQC,MaxCyc=120) EmpiricalDispersion=GD3BJ IOp(1/33=1)
 ----------------------------------------------------------------------
 1/6=100,18=20,19=15,26=4,33=1,38=1/1,3;
 2/9=110,12=2,17=6,18=5,40=1/2;
 3/5=1,6=6,7=1,8=11,11=2,25=1,30=1,71=1,74=402,75=-5,124=41/1,2,3;
 4/9=2/1;
 5/5=2,7=120,8=3,13=1,38=5/2,8;
 6/7=2,8=2,9=2,10=2,28=1/1;
 7//1,2,3,16;
 1/6=100,18=20,19=15,26=4,33=1/3(2);
 2/9=110/2;
 99//99;
 2/9=110/2;
 3/5=1,6=6,7=1,8=11,11=2,25=1,30=1,71=1,74=402,75=-5,124=41/1,2,3;
 4/5=5,9=2,16=3,69=1/1;
 5/5=2,7=120,8=3,13=1,38=5/2,8;
 7//1,2,3,16;
 1/6=100,18=20,19=15,26=4,33=1/3(-5);
 2/9=110/2;
 6/7=2,8=2,9=2,10=2,19=2,28=1/1;
 99/9=1/99;
 Leave Link    1 at Wed Oct  7 12:25:15 2020, MaxMem=  2684354560 cpu:               5.8 elap:               0.6
 (Enter /udrive/faculty/rpeverati/g16/g16/l101.exe)
 ONIOM data not found on unit 2.
 ------------------
 TS search on BH76.
 ------------------
 TstMul:  ICh=    -1
 TstMul:  Mul=     1
 TstMul:  ICh=    -1
 TstMul:  Mul=     1
 Symbolic Z-matrix:
 Charge = -1 Multiplicity = 1
 C                    -1.298    -0.38952  -0.00003 
 O                    -0.47722   0.72802   0.00005 
 H                    -2.35192  -0.08023  -0.00864 
 H                    -1.14085  -1.03582  -0.8781 
 H                    -1.15318  -1.02751   0.88636 
 H                     0.51058   0.37116   0.00024 
 F                     1.74902  -0.19052  -0.00001 
 
 RdStrC is calling ZToCFu for IStruc=1 NZ=     7.
 PrtBox:  NBox=     1 Levels=  1 BoxLen=    8.00 SMaxX=        7.75
          Shift=            4.444490            1.957420            1.659370
 Box      1 Number                   0 centers from      1 to      7:
 After GenITR:
 ITRead=  0  0  0  0  0  0  0
 MicOpt= -1 -1 -1 -1 -1 -1 -1
 Add virtual bond connecting atoms F7         and H6         Dist= 2.57D+00.
 ITRead=  0  0  0  0  0  0  0
 MicOpt= -1 -1 -1 -1 -1 -1 -1
 NAtoms=      7 NQM=        7 NQMF=       0 NMMI=      0 NMMIF=      0
                NMic=       0 NMicF=      0.
                    Isotopes and Nuclear Properties:
 (Nuclear quadrupole moments (NQMom) in fm**2, nuclear magnetic moments (NMagM)
  in nuclear magnetons)

  Atom         1           2           3           4           5           6           7
 IAtWgt=          12          16           1           1           1           1          19
 AtmWgt=  12.0000000  15.9949146   1.0078250   1.0078250   1.0078250   1.0078250  18.9984033
 NucSpn=           0           0           1           1           1           1           1
 AtZEff=   0.0000000   0.0000000   0.0000000   0.0000000   0.0000000   0.0000000   0.0000000
 NQMom=    0.0000000   0.0000000   0.0000000   0.0000000   0.0000000   0.0000000   0.0000000
 NMagM=    0.0000000   0.0000000   2.7928460   2.7928460   2.7928460   2.7928460   2.6288670
 AtZNuc=   6.0000000   8.0000000   1.0000000   1.0000000   1.0000000   1.0000000   9.0000000
 No MM parameters found.
 Leave Link  101 at Wed Oct  7 12:25:17 2020, MaxMem=  2684354560 cpu:               9.0 elap:               0.9
 (Enter /udrive/faculty/rpeverati/g16/g16/l103.exe)

 GradGradGradGradGradGradGradGradGradGradGradGradGradGradGradGradGradGrad
 Berny optimization.
 Optmz: redundant internal coordinate code flag= 1
 Initialization pass.
                           ----------------------------
                           !    Initial Parameters    !
                           ! (Angstroms and Degrees)  !
 --------------------------                            --------------------------
 ! Name  Definition              Value          Derivative Info.                !
 --------------------------------------------------------------------------------
 ! R1    R(1,2)                  1.3866         estimate D2E/DX2                !
 ! R2    R(1,3)                  1.0984         estimate D2E/DX2                !
 ! R3    R(1,4)                  1.1015         estimate D2E/DX2                !
 ! R4    R(1,5)                  1.1017         estimate D2E/DX2                !
 ! R5    R(2,6)                  1.0503         estimate D2E/DX2                !
 ! R6    R(6,7)                  1.3599         estimate D2E/DX2                !
 ! A1    A(2,1,3)              109.9398         estimate D2E/DX2                !
 ! A2    A(2,1,4)              112.8606         estimate D2E/DX2                !
 ! A3    A(2,1,5)              112.8851         estimate D2E/DX2                !
 ! A4    A(3,1,4)              107.2082         estimate D2E/DX2                !
 ! A5    A(3,1,5)              107.1874         estimate D2E/DX2                !
 ! A6    A(4,1,5)              106.4286         estimate D2E/DX2                !
 ! A7    A(1,2,6)              106.4322         estimate D2E/DX2                !
 ! A8    L(2,6,7,4,-1)         175.8675         estimate D2E/DX2                !
 ! A9    L(2,6,7,4,-2)         182.0611         estimate D2E/DX2                !
 ! D1    D(3,1,2,6)           -179.5335         estimate D2E/DX2                !
 ! D2    D(4,1,2,6)            -59.8974         estimate D2E/DX2                !
 ! D3    D(5,1,2,6)             60.8407         estimate D2E/DX2                !
 --------------------------------------------------------------------------------
 Maximum allowed force set to 1.00D+20.
 Trust Radius=3.00D-01 FncErr=1.00D-07 GrdErr=1.00D-06 EigMax=2.50D+02 EigMin=1.00D-04
 Number of steps in this run=    100 maximum allowed number of steps=    100.
 GradGradGradGradGradGradGradGradGradGradGradGradGradGradGradGradGradGrad

 Leave Link  103 at Wed Oct  7 12:25:18 2020, MaxMem=  2684354560 cpu:               1.2 elap:               0.6
 (Enter /udrive/faculty/rpeverati/g16/g16/l202.exe)
                          Input orientation:                          
 ---------------------------------------------------------------------
 Center     Atomic      Atomic             Coordinates (Angstroms)
 Number     Number       Type             X           Y           Z
 ---------------------------------------------------------------------
      1          6           0       -1.297998   -0.389518   -0.000034
      2          8           0       -0.477223    0.728021    0.000054
      3          1           0       -2.351923   -0.080232   -0.008639
      4          1           0       -1.140853   -1.035822   -0.878101
      5          1           0       -1.153178   -1.027514    0.886361
      6          1           0        0.510580    0.371160    0.000243
      7          9           0        1.749015   -0.190517   -0.000010
 ---------------------------------------------------------------------
                    Distance matrix (angstroms):
                    1          2          3          4          5
     1  C    0.000000
     2  O    1.386566   0.000000
     3  H    1.098404   2.041531   0.000000
     4  H    1.101546   2.079111   1.770821   0.000000
     5  H    1.101684   2.079509   1.770694   1.764525   0.000000
     6  H    1.962036   1.050288   2.897889   2.340581   2.347251
     7  F    3.053504   2.408288   4.102430   3.136387   3.147847
                    6          7
     6  H    0.000000
     7  F    1.359854   0.000000
 Stoichiometry    CH4FO(1-)
 Framework group  C1[X(CH4FO)]
 Deg. of freedom    15
 Full point group                 C1      NOp   1
 Largest Abelian subgroup         C1      NOp   1
 Largest concise Abelian subgroup C1      NOp   1
                         Standard orientation:                         
 ---------------------------------------------------------------------
 Center     Atomic      Atomic             Coordinates (Angstroms)
 Number     Number       Type             X           Y           Z
 ---------------------------------------------------------------------
      1          6           0       -1.297998   -0.389518   -0.000034
      2          8           0       -0.477223    0.728021    0.000054
      3          1           0       -2.351923   -0.080231   -0.008639
      4          1           0       -1.140853   -1.035821   -0.878101
      5          1           0       -1.153178   -1.027513    0.886361
      6          1           0        0.510581    0.371160    0.000243
      7          9           0        1.749015   -0.190518   -0.000010
 ---------------------------------------------------------------------
 Rotational constants (GHZ):          34.4659208           5.5231983           4.9053352
 Leave Link  202 at Wed Oct  7 12:25:18 2020, MaxMem=  2684354560 cpu:               1.6 elap:               0.6
 (Enter /udrive/faculty/rpeverati/g16/g16/l301.exe)
 Standard basis: 6-31G(d) (5D, 7F)
 Ernie: Thresh=  0.10000D-02 Tol=  0.10000D-05 Strict=F.
 There are    53 symmetry adapted cartesian basis functions of A   symmetry.
 There are    50 symmetry adapted basis functions of A   symmetry.
    50 basis functions,   100 primitive gaussians,    53 cartesian basis functions
    14 alpha electrons       14 beta electrons
       nuclear repulsion energy        73.1739287742 Hartrees.
 IExCor=  402 DFT=T Ex=B Corr=LYP ExCW=0 ScaHFX=  0.000000
 ScaDFX=  1.000000  1.000000  1.000000  1.000000 ScalE2=  1.000000  1.000000
 IRadAn=      5 IRanWt=     -1 IRanGd=            0 ICorTp=0 IEmpDi=141
 NAtoms=    7 NActive=    7 NUniq=    7 SFac= 1.00D+00 NAtFMM=   60 NAOKFM=F Big=F
 Integral buffers will be    131072 words long.
 Raffenetti 2 integral format.
 Two-electron integral symmetry is turned on.
 R6Disp:  Grimme-D3(BJ) Dispersion energy=       -0.0051522404 Hartrees.
 Nuclear repulsion after empirical dispersion term =       73.1687765338 Hartrees.
 Leave Link  301 at Wed Oct  7 12:25:19 2020, MaxMem=  2684354560 cpu:               2.5 elap:               0.6
 (Enter /udrive/faculty/rpeverati/g16/g16/l302.exe)
 NPDir=0 NMtPBC=     1 NCelOv=     1 NCel=       1 NClECP=     1 NCelD=      1
         NCelK=      1 NCelE2=     1 NClLst=     1 CellRange=     0.0.
 One-electron integrals computed using PRISM.
 One-electron integral symmetry used in STVInt
 NBasis=    50 RedAO= T EigKep=  1.44D-02  NBF=    50
 NBsUse=    50 1.00D-06 EigRej= -1.00D+00 NBFU=    50
 Precomputing XC quadrature grid using
 IXCGrd= 4 IRadAn=           5 IRanWt=          -1 IRanGd=           0 AccXCQ= 0.00D+00.
 Generated NRdTot=       0 NPtTot=           0 NUsed=           0 NTot=          32
 NSgBfM=    53    53    53    53    53 MxSgAt=     7 MxSgA2=     7.
 Leave Link  302 at Wed Oct  7 12:25:20 2020, MaxMem=  2684354560 cpu:               3.6 elap:               0.7
 (Enter /udrive/faculty/rpeverati/g16/g16/l303.exe)
 DipDrv:  MaxL=1.
 Leave Link  303 at Wed Oct  7 12:25:21 2020, MaxMem=  2684354560 cpu:               1.7 elap:               0.5
 (Enter /udrive/faculty/rpeverati/g16/g16/l401.exe)
 SCF N**3 symmetry information disabled.
 ExpMin= 1.61D-01 ExpMax= 7.00D+03 ExpMxC= 1.05D+03 IAcc=3 IRadAn=         5 AccDes= 0.00D+00
 Harris functional with IExCor=  402 and IRadAn=       5 diagonalized for initial guess.
 HarFok:  IExCor=  402 AccDes= 0.00D+00 IRadAn=         5 IDoV= 1 UseB2=F ITyADJ=14
 ICtDFT=  3500011 ScaDFX=  1.000000  1.000000  1.000000  1.000000
 FoFCou: FMM=F IPFlag=           0 FMFlag=      100000 FMFlg1=           0
         NFxFlg=           0 DoJE=T BraDBF=F KetDBF=T FulRan=T
         wScrn=  0.000000 ICntrl=       500 IOpCl=  0 I1Cent=   200000004 NGrid=           0
         NMat0=    1 NMatS0=      1 NMatT0=    0 NMatD0=    1 NMtDS0=    0 NMtDT0=    0
 Petite list used in FoFCou.
 Harris En= -215.812298815274    
 JPrj=0 DoOrth=F DoCkMO=F.
 Leave Link  401 at Wed Oct  7 12:25:22 2020, MaxMem=  2684354560 cpu:               7.0 elap:               1.0
 (Enter /udrive/faculty/rpeverati/g16/g16/l502.exe)
 Keep J ints in memory in canonical form, NReq=11319949.
 FoFCou: FMM=F IPFlag=           0 FMFlag=           0 FMFlg1=           0
         NFxFlg=           0 DoJE=F BraDBF=F KetDBF=F FulRan=T
         wScrn=  0.000000 ICntrl=       600 IOpCl=  0 I1Cent=           0 NGrid=           0
         NMat0=    1 NMatS0=   1275 NMatT0=    0 NMatD0=    1 NMtDS0=    0 NMtDT0=    0
 Symmetry not used in FoFCou.
 Two-electron integral symmetry not used.
 Closed shell SCF:
 Using DIIS extrapolation, IDIIS=  1040.
 NGot=  2684354560 LenX=  2683534079 LenY=  2683530829
 Requested convergence on RMS density matrix=1.00D-08 within 120 cycles.
 Requested convergence on MAX density matrix=1.00D-06.
 Requested convergence on             energy=1.00D-06.
 No special actions if energy rises.
 Integral accuracy reduced to 1.0D-05 until final iterations.

 Cycle   1  Pass 0  IDiag  1:
 E= -215.320368139374    
 DIIS: error= 8.39D-02 at cycle   1 NSaved=   1.
 NSaved= 1 IEnMin= 1 EnMin= -215.320368139374     IErMin= 1 ErrMin= 8.39D-02
 ErrMax= 8.39D-02  0.00D+00 EMaxC= 1.00D-01 BMatC= 2.18D-01 BMatP= 2.18D-01
 IDIUse=3 WtCom= 1.61D-01 WtEn= 8.39D-01
 Coeff-Com:  0.100D+01
 Coeff-En:   0.100D+01
 Coeff:      0.100D+01
 Gap=     0.172 Goal=   None    Shift=    0.000
 GapD=    0.172 DampG=1.000 DampE=0.500 DampFc=0.5000 IDamp=-1.
 Damping current iteration by 5.00D-01
 RMSDP=8.72D-02 MaxDP=1.89D+00              OVMax= 5.56D-01

 Cycle   2  Pass 0  IDiag  1:
 E= -215.238176300667     Delta-E=        0.082191838707 Rises=F Damp=T
 DIIS: error= 5.83D-02 at cycle   2 NSaved=   2.
 NSaved= 2 IEnMin= 1 EnMin= -215.320368139374     IErMin= 2 ErrMin= 5.83D-02
 ErrMax= 5.83D-02  0.00D+00 EMaxC= 1.00D-01 BMatC= 8.88D-02 BMatP= 2.18D-01
 IDIUse=3 WtCom= 4.17D-01 WtEn= 5.83D-01
 Coeff-Com:  0.375D+00 0.625D+00
 Coeff-En:   0.632D+00 0.368D+00
 Coeff:      0.525D+00 0.475D+00
 Gap=     0.158 Goal=   None    Shift=    0.000
 RMSDP=4.08D-02 MaxDP=9.77D-01 DE= 8.22D-02 OVMax= 5.26D-01

 Cycle   3  Pass 0  IDiag  1:
 E= -215.454008327733     Delta-E=       -0.215832027066 Rises=F Damp=F
 DIIS: error= 3.75D-02 at cycle   3 NSaved=   3.
 NSaved= 3 IEnMin= 3 EnMin= -215.454008327733     IErMin= 3 ErrMin= 3.75D-02
 ErrMax= 3.75D-02  0.00D+00 EMaxC= 1.00D-01 BMatC= 4.34D-02 BMatP= 8.88D-02
 IDIUse=3 WtCom= 6.25D-01 WtEn= 3.75D-01
 Coeff-Com:  0.285D+00 0.316D+00 0.398D+00
 Coeff-En:   0.156D+00 0.000D+00 0.844D+00
 Coeff:      0.237D+00 0.198D+00 0.565D+00
 Gap=     0.243 Goal=   None    Shift=    0.000
 RMSDP=6.52D-03 MaxDP=9.44D-02 DE=-2.16D-01 OVMax= 6.87D-02

 Cycle   4  Pass 0  IDiag  1:
 E= -215.487439121141     Delta-E=       -0.033430793408 Rises=F Damp=F
 DIIS: error= 1.49D-02 at cycle   4 NSaved=   4.
 NSaved= 4 IEnMin= 4 EnMin= -215.487439121141     IErMin= 4 ErrMin= 1.49D-02
 ErrMax= 1.49D-02  0.00D+00 EMaxC= 1.00D-01 BMatC= 1.00D-02 BMatP= 4.34D-02
 IDIUse=3 WtCom= 8.51D-01 WtEn= 1.49D-01
 Coeff-Com:  0.959D-01 0.668D-01 0.340D+00 0.497D+00
 Coeff-En:   0.000D+00 0.000D+00 0.182D+00 0.818D+00
 Coeff:      0.816D-01 0.569D-01 0.316D+00 0.545D+00
 Gap=     0.179 Goal=   None    Shift=    0.000
 RMSDP=2.59D-03 MaxDP=3.08D-02 DE=-3.34D-02 OVMax= 3.12D-02

 Cycle   5  Pass 0  IDiag  1:
 E= -215.495549153774     Delta-E=       -0.008110032633 Rises=F Damp=F
 DIIS: error= 4.28D-03 at cycle   5 NSaved=   5.
 NSaved= 5 IEnMin= 5 EnMin= -215.495549153774     IErMin= 5 ErrMin= 4.28D-03
 ErrMax= 4.28D-03  0.00D+00 EMaxC= 1.00D-01 BMatC= 1.01D-03 BMatP= 1.00D-02
 IDIUse=3 WtCom= 9.57D-01 WtEn= 4.28D-02
 Coeff-Com:  0.263D-01 0.147D-01 0.154D+00 0.349D+00 0.455D+00
 Coeff-En:   0.000D+00 0.000D+00 0.000D+00 0.136D-01 0.986D+00
 Coeff:      0.252D-01 0.140D-01 0.148D+00 0.335D+00 0.478D+00
 Gap=     0.172 Goal=   None    Shift=    0.000
 RMSDP=7.13D-04 MaxDP=6.37D-03 DE=-8.11D-03 OVMax= 1.01D-02

 Cycle   6  Pass 0  IDiag  1:
 E= -215.496219451550     Delta-E=       -0.000670297776 Rises=F Damp=F
 DIIS: error= 9.43D-04 at cycle   6 NSaved=   6.
 NSaved= 6 IEnMin= 6 EnMin= -215.496219451550     IErMin= 6 ErrMin= 9.43D-04
 ErrMax= 9.43D-04  0.00D+00 EMaxC= 1.00D-01 BMatC= 7.99D-05 BMatP= 1.01D-03
 IDIUse=3 WtCom= 9.91D-01 WtEn= 9.43D-03
 Coeff-Com:  0.361D-03-0.136D-03 0.203D-01 0.874D-01 0.287D+00 0.606D+00
 Coeff-En:   0.000D+00 0.000D+00 0.000D+00 0.000D+00 0.561D-01 0.944D+00
 Coeff:      0.358D-03-0.134D-03 0.201D-01 0.866D-01 0.284D+00 0.609D+00
 Gap=     0.174 Goal=   None    Shift=    0.000
 RMSDP=1.33D-04 MaxDP=1.44D-03 DE=-6.70D-04 OVMax= 1.86D-03

 Cycle   7  Pass 0  IDiag  1:
 E= -215.496279590287     Delta-E=       -0.000060138737 Rises=F Damp=F
 DIIS: error= 1.08D-04 at cycle   7 NSaved=   7.
 NSaved= 7 IEnMin= 7 EnMin= -215.496279590287     IErMin= 7 ErrMin= 1.08D-04
 ErrMax= 1.08D-04  0.00D+00 EMaxC= 1.00D-01 BMatC= 5.19D-07 BMatP= 7.99D-05
 IDIUse=3 WtCom= 9.99D-01 WtEn= 1.08D-03
 Coeff-Com:  0.277D-03-0.485D-03 0.339D-02 0.171D-01 0.761D-01 0.170D+00
 Coeff-Com:  0.734D+00
 Coeff-En:   0.000D+00 0.000D+00 0.000D+00 0.000D+00 0.000D+00 0.000D+00
 Coeff-En:   0.100D+01
 Coeff:      0.277D-03-0.485D-03 0.338D-02 0.171D-01 0.760D-01 0.170D+00
 Coeff:      0.734D+00
 Gap=     0.174 Goal=   None    Shift=    0.000
 RMSDP=1.80D-05 MaxDP=1.48D-04 DE=-6.01D-05 OVMax= 2.44D-04

 Cycle   8  Pass 0  IDiag  1:
 E= -215.496280036832     Delta-E=       -0.000000446544 Rises=F Damp=F
 DIIS: error= 2.13D-05 at cycle   8 NSaved=   8.
 NSaved= 8 IEnMin= 8 EnMin= -215.496280036832     IErMin= 8 ErrMin= 2.13D-05
 ErrMax= 2.13D-05  0.00D+00 EMaxC= 1.00D-01 BMatC= 2.04D-08 BMatP= 5.19D-07
 IDIUse=1 WtCom= 1.00D+00 WtEn= 0.00D+00
 Coeff-Com:  0.255D-03-0.979D-04 0.397D-03 0.157D-02 0.106D-01 0.210D-01
 Coeff-Com:  0.204D+00 0.762D+00
 Coeff:      0.255D-03-0.979D-04 0.397D-03 0.157D-02 0.106D-01 0.210D-01
 Coeff:      0.204D+00 0.762D+00
 Gap=     0.174 Goal=   None    Shift=    0.000
 RMSDP=4.05D-06 MaxDP=5.30D-05 DE=-4.47D-07 OVMax= 4.04D-05

 Initial convergence to 1.0D-05 achieved.  Increase integral accuracy.
 Cycle   9  Pass 1  IDiag  1:
 E= -215.496278835575     Delta-E=        0.000001201257 Rises=F Damp=F
 DIIS: error= 2.62D-06 at cycle   1 NSaved=   1.
 NSaved= 1 IEnMin= 1 EnMin= -215.496278835575     IErMin= 1 ErrMin= 2.62D-06
 ErrMax= 2.62D-06  0.00D+00 EMaxC= 1.00D-01 BMatC= 3.97D-10 BMatP= 3.97D-10
 IDIUse=1 WtCom= 1.00D+00 WtEn= 0.00D+00
 Coeff-Com:  0.100D+01
 Coeff:      0.100D+01
 Gap=     0.174 Goal=   None    Shift=    0.000
 RMSDP=4.05D-06 MaxDP=5.30D-05 DE= 1.20D-06 OVMax= 8.40D-06

 Cycle  10  Pass 1  IDiag  1:
 E= -215.496278835561     Delta-E=        0.000000000014 Rises=F Damp=F
 DIIS: error= 2.84D-06 at cycle   2 NSaved=   2.
 NSaved= 2 IEnMin= 1 EnMin= -215.496278835575     IErMin= 1 ErrMin= 2.62D-06
 ErrMax= 2.84D-06  0.00D+00 EMaxC= 1.00D-01 BMatC= 5.61D-10 BMatP= 3.97D-10
 IDIUse=1 WtCom= 1.00D+00 WtEn= 0.00D+00
 Coeff-Com:  0.549D+00 0.451D+00
 Coeff:      0.549D+00 0.451D+00
 Gap=     0.174 Goal=   None    Shift=    0.000
 RMSDP=6.08D-07 MaxDP=6.96D-06 DE= 1.42D-11 OVMax= 7.75D-06

 Cycle  11  Pass 1  IDiag  1:
 E= -215.496278835960     Delta-E=       -0.000000000399 Rises=F Damp=F
 DIIS: error= 1.00D-06 at cycle   3 NSaved=   3.
 NSaved= 3 IEnMin= 3 EnMin= -215.496278835960     IErMin= 3 ErrMin= 1.00D-06
 ErrMax= 1.00D-06  0.00D+00 EMaxC= 1.00D-01 BMatC= 4.69D-11 BMatP= 3.97D-10
 IDIUse=1 WtCom= 1.00D+00 WtEn= 0.00D+00
 Coeff-Com:  0.157D+00 0.247D+00 0.597D+00
 Coeff:      0.157D+00 0.247D+00 0.597D+00
 Gap=     0.174 Goal=   None    Shift=    0.000
 RMSDP=1.42D-07 MaxDP=1.71D-06 DE=-3.99D-10 OVMax= 1.78D-06

 Cycle  12  Pass 1  IDiag  1:
 E= -215.496278835990     Delta-E=       -0.000000000030 Rises=F Damp=F
 DIIS: error= 4.59D-07 at cycle   4 NSaved=   4.
 NSaved= 4 IEnMin= 4 EnMin= -215.496278835990     IErMin= 4 ErrMin= 4.59D-07
 ErrMax= 4.59D-07  0.00D+00 EMaxC= 1.00D-01 BMatC= 7.43D-12 BMatP= 4.69D-11
 IDIUse=1 WtCom= 1.00D+00 WtEn= 0.00D+00
 Coeff-Com:  0.454D-01 0.111D+00 0.355D+00 0.488D+00
 Coeff:      0.454D-01 0.111D+00 0.355D+00 0.488D+00
 Gap=     0.174 Goal=   None    Shift=    0.000
 RMSDP=5.33D-08 MaxDP=5.30D-07 DE=-2.97D-11 OVMax= 8.11D-07

 Cycle  13  Pass 1  IDiag  1:
 E= -215.496278835995     Delta-E=       -0.000000000005 Rises=F Damp=F
 DIIS: error= 1.34D-07 at cycle   5 NSaved=   5.
 NSaved= 5 IEnMin= 5 EnMin= -215.496278835995     IErMin= 5 ErrMin= 1.34D-07
 ErrMax= 1.34D-07  0.00D+00 EMaxC= 1.00D-01 BMatC= 5.02D-13 BMatP= 7.43D-12
 IDIUse=1 WtCom= 1.00D+00 WtEn= 0.00D+00
 Coeff-Com:  0.507D-02 0.279D-01 0.100D+00 0.259D+00 0.608D+00
 Coeff:      0.507D-02 0.279D-01 0.100D+00 0.259D+00 0.608D+00
 Gap=     0.174 Goal=   None    Shift=    0.000
 RMSDP=1.42D-08 MaxDP=1.37D-07 DE=-4.60D-12 OVMax= 2.15D-07

 Cycle  14  Pass 1  IDiag  1:
 E= -215.496278835995     Delta-E=       -0.000000000001 Rises=F Damp=F
 DIIS: error= 2.41D-08 at cycle   6 NSaved=   6.
 NSaved= 6 IEnMin= 6 EnMin= -215.496278835995     IErMin= 6 ErrMin= 2.41D-08
 ErrMax= 2.41D-08  0.00D+00 EMaxC= 1.00D-01 BMatC= 2.08D-14 BMatP= 5.02D-13
 IDIUse=1 WtCom= 1.00D+00 WtEn= 0.00D+00
 Coeff-Com:  0.729D-03 0.110D-01 0.411D-01 0.124D+00 0.321D+00 0.502D+00
 Coeff:      0.729D-03 0.110D-01 0.411D-01 0.124D+00 0.321D+00 0.502D+00
 Gap=     0.174 Goal=   None    Shift=    0.000
 RMSDP=3.23D-09 MaxDP=3.61D-08 DE=-7.96D-13 OVMax= 4.28D-08

 SCF Done:  E(RB-LYP) =  -215.496278836     A.U. after   14 cycles
            NFock= 14  Conv=0.32D-08     -V/T= 2.0039
 KE= 2.146560419495D+02 PE=-6.651340804467D+02 EE= 1.618129831274D+02
 Leave Link  502 at Wed Oct  7 12:25:26 2020, MaxMem=  2684354560 cpu:              31.0 elap:               3.1
 (Enter /udrive/faculty/rpeverati/g16/g16/l508.exe)
 QCSCF skips out because SCF is already converged.
 Leave Link  508 at Wed Oct  7 12:25:26 2020, MaxMem=  2684354560 cpu:               0.3 elap:               0.3
 (Enter /udrive/faculty/rpeverati/g16/g16/l601.exe)
 Copying SCF densities to generalized density rwf, IOpCl= 0 IROHF=0.

 **********************************************************************

            Population analysis using the SCF density.

 **********************************************************************

 Orbital symmetries:
       Occupied  (A) (A) (A) (A) (A) (A) (A) (A) (A) (A) (A) (A)
                 (A) (A)
       Virtual   (A) (A) (A) (A) (A) (A) (A) (A) (A) (A) (A) (A)
                 (A) (A) (A) (A) (A) (A) (A) (A) (A) (A) (A) (A)
                 (A) (A) (A) (A) (A) (A) (A) (A) (A) (A) (A) (A)
 The electronic state is 1-A.
 Alpha  occ. eigenvalues --  -23.84007 -18.50950  -9.74986  -0.65678  -0.59135
 Alpha  occ. eigenvalues --   -0.38451  -0.20191  -0.17042  -0.14727  -0.04197
 Alpha  occ. eigenvalues --    0.03886   0.07816   0.09351   0.09606
 Alpha virt. eigenvalues --    0.26984   0.32305   0.33499   0.35758   0.52164
 Alpha virt. eigenvalues --    0.70426   0.72956   0.75351   0.91452   0.98436
 Alpha virt. eigenvalues --    1.00065   1.04526   1.15052   1.17484   1.19714
 Alpha virt. eigenvalues --    1.35828   1.48266   1.50658   1.58369   1.66985
 Alpha virt. eigenvalues --    1.69753   1.81594   1.93812   2.08260   2.16138
 Alpha virt. eigenvalues --    2.16209   2.17946   2.17952   2.18347   2.25497
 Alpha virt. eigenvalues --    2.29666   2.29752   2.55460   2.58422   2.87255
 Alpha virt. eigenvalues --    3.17666
          Condensed to atoms (all electrons):
               1          2          3          4          5          6
     1  C    4.790119   0.347952   0.320579   0.329127   0.328903  -0.027863
     2  O    0.347952   8.422672  -0.046636  -0.057925  -0.058052   0.115682
     3  H    0.320579  -0.046636   0.826273  -0.063200  -0.063885   0.001419
     4  H    0.329127  -0.057925  -0.063200   0.825820  -0.076416   0.002150
     5  H    0.328903  -0.058052  -0.063885  -0.076416   0.827720   0.002194
     6  H   -0.027863   0.115682   0.001419   0.002150   0.002194   0.375057
     7  F    0.010433  -0.065412   0.000046   0.002403   0.002234   0.143200
               7
     1  C    0.010433
     2  O   -0.065412
     3  H    0.000046
     4  H    0.002403
     5  H    0.002234
     6  H    0.143200
     7  F    9.638475
 Mulliken charges:
               1
     1  C   -0.099250
     2  O   -0.658280
     3  H    0.025405
     4  H    0.038041
     5  H    0.037302
     6  H    0.388162
     7  F   -0.731380
 Sum of Mulliken charges =  -1.00000
 Mulliken charges with hydrogens summed into heavy atoms:
               1
     1  C    0.001498
     2  O   -0.270118
     7  F   -0.731380
 Electronic spatial extent (au):  <R**2>=            259.1904
 Charge=             -1.0000 electrons
 Dipole moment (field-independent basis, Debye):
    X=             -3.7128    Y=             -0.7643    Z=             -0.0018  Tot=              3.7906
 Quadrupole moment (field-independent basis, Debye-Ang):
   XX=            -31.5914   YY=            -22.0848   ZZ=            -20.2359
   XY=              2.0464   XZ=              0.0038   YZ=              0.0031
 Traceless Quadrupole moment (field-independent basis, Debye-Ang):
   XX=             -6.9541   YY=              2.5525   ZZ=              4.4015
   XY=              2.0464   XZ=              0.0038   YZ=              0.0031
 Octapole moment (field-independent basis, Debye-Ang**2):
  XXX=             -2.9298  YYY=              1.1579  ZZZ=             -0.0090  XYY=              5.8368
  XXY=              3.1087  XXZ=             -0.0031  XZZ=              4.5559  YZZ=              0.8279
  YYZ=             -0.0037  XYZ=             -0.0051
 Hexadecapole moment (field-independent basis, Debye-Ang**3):
 XXXX=           -259.9289 YYYY=            -54.4564 ZZZZ=            -24.9319 XXXY=             -2.9208
 XXXZ=              0.0011 YYYX=             -3.5290 YYYZ=              0.0054 ZZZX=              0.0135
 ZZZY=              0.0111 XXYY=            -47.2790 XXZZ=            -41.9332 YYZZ=            -13.5304
 XXYZ=              0.0087 YYXZ=              0.0070 ZZXY=             -1.7502
 N-N= 7.316877653376D+01 E-N=-6.651340802013D+02  KE= 2.146560419495D+02
 No NMR shielding tensors so no spin-rotation constants.
 Leave Link  601 at Wed Oct  7 12:25:27 2020, MaxMem=  2684354560 cpu:               3.4 elap:               0.6
 (Enter /udrive/faculty/rpeverati/g16/g16/l701.exe)
 ... and contract with generalized density number  0.
 Compute integral first derivatives.
 R6Disp: Adding Grimme-D3(BJ) dispersion energy 1st derivatives to the gradient.
 Leave Link  701 at Wed Oct  7 12:25:28 2020, MaxMem=  2684354560 cpu:               3.5 elap:               0.6
 (Enter /udrive/faculty/rpeverati/g16/g16/l702.exe)
 L702 exits ... SP integral derivatives will be done elsewhere.
 Leave Link  702 at Wed Oct  7 12:25:29 2020, MaxMem=  2684354560 cpu:               1.2 elap:               0.4
 (Enter /udrive/faculty/rpeverati/g16/g16/l703.exe)
 Integral derivatives from FoFJK, PRISM(SPDF).
 Compute integral first derivatives, UseDBF=F ICtDFT=           0.
 Calling FoFJK, ICntrl=      2527 FMM=F ISym2X=0 I1Cent= 0 IOpClX= 0 NMat=1 NMatS=1 NMatT=0.
 FoFJK:  IHMeth= 1 ICntrl=    2527 DoSepK=F KAlg= 0 I1Cent=           0 FoldK=F
 IRaf=         0 NMat=       1 IRICut=       1 DoRegI=T DoRafI=F ISym2E= 0 IDoP0=0 IntGTp=1.
 FoFCou: FMM=F IPFlag=           0 FMFlag=      100000 FMFlg1=         800
         NFxFlg=           0 DoJE=F BraDBF=F KetDBF=F FulRan=T
         wScrn=  0.000000 ICntrl=      2527 IOpCl=  0 I1Cent=           0 NGrid=           0
         NMat0=    1 NMatS0=      1 NMatT0=    0 NMatD0=    1 NMtDS0=    0 NMtDT0=    0
 Symmetry not used in FoFCou.
 Leave Link  703 at Wed Oct  7 12:25:30 2020, MaxMem=  2684354560 cpu:              10.4 elap:               1.2
 (Enter /udrive/faculty/rpeverati/g16/g16/l716.exe)
 Dipole        =-1.46071462D+00-3.00696439D-01-7.26998656D-04
 ***** Axes restored to original set *****
 -------------------------------------------------------------------
 Center     Atomic                   Forces (Hartrees/Bohr)
 Number     Number              X              Y              Z
 -------------------------------------------------------------------
      1        6           0.013738358    0.013158631   -0.000021748
      2        8          -0.028790392    0.019401988   -0.000036311
      3        1          -0.011832363    0.000829738   -0.000068921
      4        1          -0.000465262   -0.010582050   -0.009301090
      5        1          -0.000649593   -0.010531986    0.009423112
      6        1           0.032372853   -0.011449473    0.000016369
      7        9          -0.004373602   -0.000826848   -0.000011409
 -------------------------------------------------------------------
 Cartesian Forces:  Max     0.032372853 RMS     0.012546421
 Leave Link  716 at Wed Oct  7 12:25:31 2020, MaxMem=  2684354560 cpu:               2.1 elap:               0.6
 (Enter /udrive/faculty/rpeverati/g16/g16/l103.exe)

 GradGradGradGradGradGradGradGradGradGradGradGradGradGradGradGradGradGrad
 Berny optimization.
 Optmz: redundant internal coordinate code flag= 1
 FormGI is forming the generalized inverse of G from B-inverse, IUseBI=4.
 Internal  Forces:  Max     0.030496216 RMS     0.009726938
 Search for a local minimum.
 Step number   1 out of a maximum of  100
 All quantities printed in internal units (Hartrees-Bohrs-Radians)
 RMS Force = .97269D-02 SwitMx=.10000D-02 MixMth= 1
 Mixed Optimization -- RFO/linear search
 Second derivative matrix not updated -- first step.
 The second derivative matrix:
                          R1        R2        R3        R4        R5
           R1           0.47921
           R2           0.00000   0.33859
           R3           0.00000   0.00000   0.33512
           R4           0.00000   0.00000   0.00000   0.33497
           R5           0.00000   0.00000   0.00000   0.00000   0.39837
           R6           0.00000   0.00000   0.00000   0.00000   0.00000
           A1           0.00000   0.00000   0.00000   0.00000   0.00000
           A2           0.00000   0.00000   0.00000   0.00000   0.00000
           A3           0.00000   0.00000   0.00000   0.00000   0.00000
           A4           0.00000   0.00000   0.00000   0.00000   0.00000
           A5           0.00000   0.00000   0.00000   0.00000   0.00000
           A6           0.00000   0.00000   0.00000   0.00000   0.00000
           A7           0.00000   0.00000   0.00000   0.00000   0.00000
           A8           0.00000   0.00000   0.00000   0.00000   0.00000
           A9           0.00000   0.00000   0.00000   0.00000   0.00000
           D1           0.00000   0.00000   0.00000   0.00000   0.00000
           D2           0.00000   0.00000   0.00000   0.00000   0.00000
           D3           0.00000   0.00000   0.00000   0.00000   0.00000
                          R6        A1        A2        A3        A4
           R6           0.15897
           A1           0.00000   0.16000
           A2           0.00000   0.00000   0.16000
           A3           0.00000   0.00000   0.00000   0.16000
           A4           0.00000   0.00000   0.00000   0.00000   0.16000
           A5           0.00000   0.00000   0.00000   0.00000   0.00000
           A6           0.00000   0.00000   0.00000   0.00000   0.00000
           A7           0.00000   0.00000   0.00000   0.00000   0.00000
           A8           0.00000   0.00000   0.00000   0.00000   0.00000
           A9           0.00000   0.00000   0.00000   0.00000   0.00000
           D1           0.00000   0.00000   0.00000   0.00000   0.00000
           D2           0.00000   0.00000   0.00000   0.00000   0.00000
           D3           0.00000   0.00000   0.00000   0.00000   0.00000
                          A5        A6        A7        A8        A9
           A5           0.16000
           A6           0.00000   0.16000
           A7           0.00000   0.00000   0.16000
           A8           0.00000   0.00000   0.00000   0.00230
           A9           0.00000   0.00000   0.00000   0.00000   0.00230
           D1           0.00000   0.00000   0.00000   0.00000   0.00000
           D2           0.00000   0.00000   0.00000   0.00000   0.00000
           D3           0.00000   0.00000   0.00000   0.00000   0.00000
                          D1        D2        D3
           D1           0.01869
           D2           0.00000   0.01869
           D3           0.00000   0.00000   0.01869
 ITU=  0
 Eigenvectors of the second derivative matrix:
                           1         2         3         4         5
     Eigenvalues --     0.00230   0.00230   0.01869   0.09977   0.10277
   1         R1         0.00000   0.00000  -0.00000  -0.00000  -0.00000
   2         R2         0.00000  -0.00000  -0.00000   0.00000   0.00000
   3         R3        -0.00000  -0.00000  -0.00000   0.00000  -0.00000
   4         R4        -0.00000  -0.00000   0.00000   0.00000   0.00000
   5         R5         0.00000  -0.00000  -0.00000   0.00000  -0.00000
   6         R6         0.00000   0.00000   0.00000   0.00000   0.00000
   7         A1         0.00000   0.00000  -0.00000   0.30338   0.00072
   8         A2         0.00000  -0.00000   0.00000  -0.15473   0.25050
   9         A3        -0.00000  -0.00000  -0.00000  -0.15338  -0.25127
  10         A4         0.00000  -0.00000  -0.00000   0.27708   0.48508
  11         A5        -0.00000  -0.00000   0.00000   0.27946  -0.48353
  12         A6         0.00000   0.00000   0.00000  -0.52855  -0.00138
  13         A7        -0.00000  -0.00000  -0.00000  -0.00000   0.00000
  14         A8        -0.68433  -0.72918  -0.00000  -0.00000   0.00000
  15         A9         0.72918  -0.68433   0.00000  -0.00000  -0.00000
  16         D1        -0.00000   0.00000   0.57735   0.00136  -0.51962
  17         D2        -0.00000   0.00000   0.57735   0.46098   0.26096
  18         D3        -0.00000   0.00000   0.57735  -0.46234   0.25866
                           6         7         8         9        10
     Eigenvalues --     0.15897   0.16000   0.16000   0.16000   0.16000
   1         R1         0.00000   0.00000  -0.00000  -0.00000  -0.00000
   2         R2         0.00000  -0.00000  -0.00000   0.00000  -0.00000
   3         R3        -0.00000  -0.00000   0.00000  -0.00000   0.00000
   4         R4        -0.00000  -0.00000   0.00000  -0.00000   0.00000
   5         R5         0.00000  -0.00000  -0.00000  -0.00000  -0.00000
   6         R6         1.00000   0.00000  -0.00000  -0.00000  -0.00000
   7         A1         0.00000  -0.19984   0.71388   0.22173   0.25154
   8         A2        -0.00000   0.43436   0.25166  -0.60766  -0.22342
   9         A3         0.00000  -0.71054  -0.16664  -0.30607  -0.21207
  10         A4         0.00000  -0.11610  -0.51942   0.19394  -0.02135
  11         A5        -0.00000   0.47704  -0.30291   0.03766  -0.02728
  12         A6         0.00000   0.15570  -0.04801   0.51556   0.24571
  13         A7         0.00000   0.03520   0.18819   0.42788  -0.88333
  14         A8         0.00000   0.00000   0.00000   0.00000   0.00000
  15         A9         0.00000   0.00000  -0.00000   0.00000   0.00000
  16         D1         0.00000  -0.00000   0.00000   0.00000  -0.00000
  17         D2        -0.00000  -0.00000   0.00000   0.00000   0.00000
  18         D3         0.00000  -0.00000  -0.00000  -0.00000  -0.00000
                          11        12        13        14        15
     Eigenvalues --     0.33497   0.33512   0.33859   0.39837   0.47921
   1         R1         0.00000   0.00000  -0.00000   0.00000  -1.00000
   2         R2         0.00000  -0.00000   1.00000  -0.00000  -0.00000
   3         R3         0.00000   1.00000   0.00000  -0.00000   0.00000
   4         R4        -1.00000   0.00000   0.00000  -0.00000  -0.00000
   5         R5         0.00000  -0.00000  -0.00000  -1.00000  -0.00000
   6         R6        -0.00000   0.00000  -0.00000  -0.00000   0.00000
   7         A1         0.00000  -0.00000  -0.00000  -0.00000  -0.00000
   8         A2         0.00000  -0.00000   0.00000  -0.00000   0.00000
   9         A3         0.00000  -0.00000  -0.00000   0.00000  -0.00000
  10         A4         0.00000   0.00000  -0.00000   0.00000   0.00000
  11         A5        -0.00000   0.00000   0.00000  -0.00000   0.00000
  12         A6        -0.00000   0.00000   0.00000  -0.00000   0.00000
  13         A7        -0.00000   0.00000  -0.00000   0.00000   0.00000
  14         A8         0.00000  -0.00000   0.00000  -0.00000  -0.00000
  15         A9        -0.00000  -0.00000   0.00000   0.00000  -0.00000
  16         D1        -0.00000   0.00000   0.00000   0.00000   0.00000
  17         D2         0.00000   0.00000  -0.00000  -0.00000  -0.00000
  18         D3        -0.00000   0.00000   0.00000  -0.00000   0.00000
 Iter=   1 RLamda= 0.00000000D+00 Sum=-2.34706650D-02.
 Iter=   2 RLamda=-2.34706650D-02 Sum=-6.38591443D-03.
 Iter=   3 RLamda=-6.38591443D-03 Sum=-9.88063073D-03.
 Iter=   4 RLamda=-9.88063073D-03 Sum=-8.42836319D-03.
 Iter=   5 RLamda=-8.42836319D-03 Sum=-8.92149243D-03.
 Iter=   6 RLamda=-8.92149243D-03 Sum=-8.74041606D-03.
 Iter=   7 RLamda=-8.74041606D-03 Sum=-8.80511087D-03.
 Iter=   8 RLamda=-8.80511087D-03 Sum=-8.78176553D-03.
 Iter=   9 RLamda=-8.78176553D-03 Sum=-8.79015976D-03.
 Iter=  10 RLamda=-8.79015976D-03 Sum=-8.78713758D-03.
 Iter=  11 RLamda=-8.78713758D-03 Sum=-8.78822515D-03.
 Iter=  12 RLamda=-8.78822515D-03 Sum=-8.78783371D-03.
 Iter=  13 RLamda=-8.78783371D-03 Sum=-8.78797459D-03.
 Iter=  14 RLamda=-8.78797459D-03 Sum=-8.78792388D-03.
 Iter=  15 RLamda=-8.78792388D-03 Sum=-8.78794213D-03.
 Iter=  16 RLamda=-8.78794213D-03 Sum=-8.78793557D-03.
 RFO step:  Lambda=-8.78794213D-03 EMin= 2.30000000D-03
 Linear search not attempted -- first point.
 Maximum step size (   0.300) exceeded in Quadratic search.
    -- Step size scaled by   0.500
 Iteration  1 RMS(Cart)=  0.10933844 RMS(Int)=  0.02098508
 Iteration  2 RMS(Cart)=  0.03970863 RMS(Int)=  0.00124738
 Iteration  3 RMS(Cart)=  0.00105556 RMS(Int)=  0.00002490
 Iteration  4 RMS(Cart)=  0.00000068 RMS(Int)=  0.00002490
 ITry= 1 IFail=0 DXMaxC= 3.52D-01 DCOld= 1.00D+10 DXMaxT= 3.00D-01 DXLimC= 3.00D+00 Rises=F
 Variable       Old X    -DE/DX   Delta X   Delta X   Delta X     New X
                                 (Linear)    (Quad)   (Total)
    R1        2.62023   0.00528   0.00000   0.00541   0.00541   2.62564
    R2        2.07568   0.01159   0.00000   0.01668   0.01668   2.09236
    R3        2.08162   0.01356   0.00000   0.01972   0.01972   2.10134
    R4        2.08188   0.01360   0.00000   0.01978   0.01978   2.10166
    R5        1.98476   0.03050   0.00000   0.03746   0.03746   2.02221
    R6        2.56975  -0.00364   0.00000  -0.01086  -0.01086   2.55890
    A1        1.91881   0.00186   0.00000   0.00544   0.00541   1.92422
    A2        1.96979   0.00392   0.00000   0.01166   0.01161   1.98140
    A3        1.97022   0.00401   0.00000   0.01190   0.01186   1.98207
    A4        1.87114  -0.00309   0.00000  -0.00923  -0.00926   1.86187
    A5        1.87077  -0.00315   0.00000  -0.00939  -0.00943   1.86135
    A6        1.85753  -0.00437   0.00000  -0.01282  -0.01288   1.84465
    A7        1.85759  -0.01064   0.00000  -0.03152  -0.03152   1.82607
    A8        3.06947  -0.00602   0.00000  -0.27132  -0.27132   2.79814
    A9        3.17756   0.00244   0.00000   0.11016   0.11016   3.28773
    D1       -3.13345   0.00001   0.00000   0.00025   0.00025  -3.13320
    D2       -1.04541  -0.00005   0.00000  -0.00004  -0.00005  -1.04546
    D3        1.06187   0.00008   0.00000   0.00058   0.00060   1.06247
         Item               Value     Threshold  Converged?
 Maximum Force            0.030496     0.000450     NO 
 RMS     Force            0.009727     0.000300     NO 
 Maximum Displacement     0.352183     0.001800     NO 
 RMS     Displacement     0.145065     0.001200     NO 
 Predicted change in Energy=-3.691218D-03
 Lowest energy point so far.  Saving SCF results.
 Largest change from initial coordinates is atom    7       0.253 Angstoms.
 GradGradGradGradGradGradGradGradGradGradGradGradGradGradGradGradGradGrad

 Leave Link  103 at Wed Oct  7 12:25:32 2020, MaxMem=  2684354560 cpu:               4.3 elap:               0.9
 (Enter /udrive/faculty/rpeverati/g16/g16/l202.exe)
                          Input orientation:                          
 ---------------------------------------------------------------------
 Center     Atomic      Atomic             Coordinates (Angstroms)
 Number     Number       Type             X           Y           Z
 ---------------------------------------------------------------------
      1          6           0       -1.253144   -0.372540    0.000352
      2          8           0       -0.515392    0.804842    0.000502
      3          1           0       -2.336836   -0.145736   -0.011087
      4          1           0       -1.053567   -1.021282   -0.880447
      5          1           0       -1.070779   -1.011614    0.892095
      6          1           0        0.505491    0.484029    0.003201
      7          9           0        1.562648   -0.362121   -0.004742
 ---------------------------------------------------------------------
                    Distance matrix (angstroms):
                    1          2          3          4          5
     1  C    0.000000
     2  O    1.389427   0.000000
     3  H    1.107230   2.054602   0.000000
     4  H    1.111982   2.097721   1.780210   0.000000
     5  H    1.112150   2.098310   1.779996   1.772652   0.000000
     6  H    1.956149   1.070109   2.911294   2.340397   2.347702
     7  F    2.815816   2.383292   3.905488   2.836536   2.856763
                    6          7
     6  H    0.000000
     7  F    1.354109   0.000000
 Stoichiometry    CH4FO(1-)
 Framework group  C1[X(CH4FO)]
 Deg. of freedom    15
 Full point group                 C1      NOp   1
 RotChk:  IX=0 Diff= 1.27D-01
 Largest Abelian subgroup         C1      NOp   1
 Largest concise Abelian subgroup C1      NOp   1
                         Standard orientation:                         
 ---------------------------------------------------------------------
 Center     Atomic      Atomic             Coordinates (Angstroms)
 Number     Number       Type             X           Y           Z
 ---------------------------------------------------------------------
      1          6           0       -1.160443   -0.451052    0.000009
      2          8           0       -0.531678    0.787964   -0.000323
      3          1           0       -2.260129   -0.322743   -0.013647
      4          1           0       -0.901637   -1.080366   -0.879473
      5          1           0       -0.922946   -1.069924    0.893021
      6          1           0        0.513935    0.560362    0.004625
      7          9           0        1.642984   -0.187192   -0.000222
 ---------------------------------------------------------------------
 Rotational constants (GHZ):          29.5047405           6.2935604           5.3613842
 Leave Link  202 at Wed Oct  7 12:25:33 2020, MaxMem=  2684354560 cpu:               1.7 elap:               0.6
 (Enter /udrive/faculty/rpeverati/g16/g16/l301.exe)
 Standard basis: 6-31G(d) (5D, 7F)
 Ernie: Thresh=  0.10000D-02 Tol=  0.10000D-05 Strict=F.
 There are    53 symmetry adapted cartesian basis functions of A   symmetry.
 There are    50 symmetry adapted basis functions of A   symmetry.
    50 basis functions,   100 primitive gaussians,    53 cartesian basis functions
    14 alpha electrons       14 beta electrons
       nuclear repulsion energy        74.2782807727 Hartrees.
 IExCor=  402 DFT=T Ex=B Corr=LYP ExCW=0 ScaHFX=  0.000000
 ScaDFX=  1.000000  1.000000  1.000000  1.000000 ScalE2=  1.000000  1.000000
 IRadAn=      5 IRanWt=     -1 IRanGd=            0 ICorTp=0 IEmpDi=141
 NAtoms=    7 NActive=    7 NUniq=    7 SFac= 1.00D+00 NAtFMM=   60 NAOKFM=F Big=F
 Integral buffers will be    131072 words long.
 Raffenetti 2 integral format.
 Two-electron integral symmetry is turned on.
 R6Disp:  Grimme-D3(BJ) Dispersion energy=       -0.0053128754 Hartrees.
 Nuclear repulsion after empirical dispersion term =       74.2729678973 Hartrees.
 Leave Link  301 at Wed Oct  7 12:25:34 2020, MaxMem=  2684354560 cpu:               2.3 elap:               0.7
 (Enter /udrive/faculty/rpeverati/g16/g16/l302.exe)
 NPDir=0 NMtPBC=     1 NCelOv=     1 NCel=       1 NClECP=     1 NCelD=      1
         NCelK=      1 NCelE2=     1 NClLst=     1 CellRange=     0.0.
 One-electron integrals computed using PRISM.
 One-electron integral symmetry used in STVInt
 NBasis=    50 RedAO= T EigKep=  1.49D-02  NBF=    50
 NBsUse=    50 1.00D-06 EigRej= -1.00D+00 NBFU=    50
 Precomputing XC quadrature grid using
 IXCGrd= 4 IRadAn=           5 IRanWt=          -1 IRanGd=           0 AccXCQ= 0.00D+00.
 Generated NRdTot=       0 NPtTot=           0 NUsed=           0 NTot=          32
 NSgBfM=    53    53    53    53    53 MxSgAt=     7 MxSgA2=     7.
 Leave Link  302 at Wed Oct  7 12:25:35 2020, MaxMem=  2684354560 cpu:               3.7 elap:               0.7
 (Enter /udrive/faculty/rpeverati/g16/g16/l303.exe)
 DipDrv:  MaxL=1.
 Leave Link  303 at Wed Oct  7 12:25:36 2020, MaxMem=  2684354560 cpu:               2.0 elap:               0.7
 (Enter /udrive/faculty/rpeverati/g16/g16/l401.exe)
 Initial guess from the checkpoint file:  "MN_61_hoch3fcomp1_BH76_BLYPDBJ_631Gs.chk"
 SCF N**3 symmetry information disabled.
 B after Tr=     0.000000    0.000000   -0.000000
         Rot=    0.999819    0.000453    0.000136   -0.019009 Ang=   2.18 deg.
 Guess basis will be translated and rotated to current coordinates.
 JPrj=2 DoOrth=T DoCkMO=T.
 Generating alternative initial guess.
 ExpMin= 1.61D-01 ExpMax= 7.00D+03 ExpMxC= 1.05D+03 IAcc=2 IRadAn=         4 AccDes= 0.00D+00
 Harris functional with IExCor=  402 and IRadAn=       4 diagonalized for initial guess.
 HarFok:  IExCor=  402 AccDes= 0.00D+00 IRadAn=         4 IDoV= 1 UseB2=F ITyADJ=14
 ICtDFT=  3500011 ScaDFX=  1.000000  1.000000  1.000000  1.000000
 FoFCou: FMM=F IPFlag=           0 FMFlag=      100000 FMFlg1=           0
         NFxFlg=           0 DoJE=T BraDBF=F KetDBF=T FulRan=T
         wScrn=  0.000000 ICntrl=       500 IOpCl=  0 I1Cent=   200000004 NGrid=           0
         NMat0=    1 NMatS0=      1 NMatT0=    0 NMatD0=    1 NMtDS0=    0 NMtDT0=    0
 Petite list used in FoFCou.
 Harris En= -215.808357797734    
 Leave Link  401 at Wed Oct  7 12:25:37 2020, MaxMem=  2684354560 cpu:               8.7 elap:               1.2
 (Enter /udrive/faculty/rpeverati/g16/g16/l502.exe)
 Keep J ints in memory in canonical form, NReq=11319949.
 FoFCou: FMM=F IPFlag=           0 FMFlag=           0 FMFlg1=           0
         NFxFlg=           0 DoJE=F BraDBF=F KetDBF=F FulRan=T
         wScrn=  0.000000 ICntrl=       600 IOpCl=  0 I1Cent=           0 NGrid=           0
         NMat0=    1 NMatS0=   1275 NMatT0=    0 NMatD0=    1 NMtDS0=    0 NMtDT0=    0
 Symmetry not used in FoFCou.
 Two-electron integral symmetry not used.
 Closed shell SCF:
 Using DIIS extrapolation, IDIIS=  1040.
 NGot=  2684354560 LenX=  2683534079 LenY=  2683530829
 Requested convergence on RMS density matrix=1.00D-08 within 120 cycles.
 Requested convergence on MAX density matrix=1.00D-06.
 Requested convergence on             energy=1.00D-06.
 No special actions if energy rises.
 Integral accuracy reduced to 1.0D-05 until final iterations.

 Cycle   1  Pass 0  IDiag  1:
 E= -215.485836822481    
 DIIS: error= 9.63D-03 at cycle   1 NSaved=   1.
 NSaved= 1 IEnMin= 1 EnMin= -215.485836822481     IErMin= 1 ErrMin= 9.63D-03
 ErrMax= 9.63D-03  0.00D+00 EMaxC= 1.00D-01 BMatC= 6.70D-03 BMatP= 6.70D-03
 IDIUse=3 WtCom= 9.04D-01 WtEn= 9.63D-02
 Coeff-Com:  0.100D+01
 Coeff-En:   0.100D+01
 Coeff:      0.100D+01
 Gap=     0.504 Goal=   None    Shift=    0.000
 GapD=    0.504 DampG=2.000 DampE=1.000 DampFc=2.0000 IDamp=-1.
 RMSDP=4.50D-03 MaxDP=5.46D-02              OVMax= 5.19D-02

 Cycle   2  Pass 0  IDiag  1:
 E= -215.497944446600     Delta-E=       -0.012107624118 Rises=F Damp=F
 DIIS: error= 2.52D-03 at cycle   2 NSaved=   2.
 NSaved= 2 IEnMin= 2 EnMin= -215.497944446600     IErMin= 2 ErrMin= 2.52D-03
 ErrMax= 2.52D-03  0.00D+00 EMaxC= 1.00D-01 BMatC= 3.67D-04 BMatP= 6.70D-03
 IDIUse=3 WtCom= 9.75D-01 WtEn= 2.52D-02
 Coeff-Com:  0.835D-01 0.916D+00
 Coeff-En:   0.000D+00 0.100D+01
 Coeff:      0.814D-01 0.919D+00
 Gap=     0.187 Goal=   None    Shift=    0.000
 RMSDP=7.69D-04 MaxDP=9.89D-03 DE=-1.21D-02 OVMax= 1.00D-02

 Cycle   3  Pass 0  IDiag  1:
 E= -215.497786281414     Delta-E=        0.000158165185 Rises=F Damp=F
 DIIS: error= 3.60D-03 at cycle   3 NSaved=   3.
 NSaved= 3 IEnMin= 2 EnMin= -215.497944446600     IErMin= 2 ErrMin= 2.52D-03
 ErrMax= 3.60D-03  0.00D+00 EMaxC= 1.00D-01 BMatC= 5.49D-04 BMatP= 3.67D-04
 IDIUse=3 WtCom= 1.43D-01 WtEn= 8.57D-01
 Coeff-Com:  0.628D-02 0.552D+00 0.442D+00
 Coeff-En:   0.000D+00 0.588D+00 0.412D+00
 Coeff:      0.898D-03 0.583D+00 0.416D+00
 Gap=     0.192 Goal=   None    Shift=    0.000
 RMSDP=5.15D-04 MaxDP=5.40D-03 DE= 1.58D-04 OVMax= 6.05D-03

 Cycle   4  Pass 0  IDiag  1:
 E= -215.498258835118     Delta-E=       -0.000472553704 Rises=F Damp=F
 DIIS: error= 6.89D-04 at cycle   4 NSaved=   4.
 NSaved= 4 IEnMin= 4 EnMin= -215.498258835118     IErMin= 4 ErrMin= 6.89D-04
 ErrMax= 6.89D-04  0.00D+00 EMaxC= 1.00D-01 BMatC= 1.80D-05 BMatP= 3.67D-04
 IDIUse=3 WtCom= 9.93D-01 WtEn= 6.89D-03
 Coeff-Com:  0.573D-03 0.241D+00 0.215D+00 0.544D+00
 Coeff-En:   0.000D+00 0.000D+00 0.000D+00 0.100D+01
 Coeff:      0.570D-03 0.239D+00 0.214D+00 0.547D+00
 Gap=     0.190 Goal=   None    Shift=    0.000
 RMSDP=1.12D-04 MaxDP=1.15D-03 DE=-4.73D-04 OVMax= 1.36D-03

 Cycle   5  Pass 0  IDiag  1:
 E= -215.498269920004     Delta-E=       -0.000011084886 Rises=F Damp=F
 DIIS: error= 3.03D-04 at cycle   5 NSaved=   5.
 NSaved= 5 IEnMin= 5 EnMin= -215.498269920004     IErMin= 5 ErrMin= 3.03D-04
 ErrMax= 3.03D-04  0.00D+00 EMaxC= 1.00D-01 BMatC= 3.59D-06 BMatP= 1.80D-05
 IDIUse=3 WtCom= 9.97D-01 WtEn= 3.03D-03
 Coeff-Com: -0.680D-04 0.109D+00 0.103D+00 0.340D+00 0.449D+00
 Coeff-En:   0.000D+00 0.000D+00 0.000D+00 0.124D+00 0.876D+00
 Coeff:     -0.678D-04 0.108D+00 0.103D+00 0.339D+00 0.450D+00
 Gap=     0.190 Goal=   None    Shift=    0.000
 RMSDP=3.11D-05 MaxDP=3.83D-04 DE=-1.11D-05 OVMax= 4.67D-04

 Cycle   6  Pass 0  IDiag  1:
 E= -215.498272816228     Delta-E=       -0.000002896224 Rises=F Damp=F
 DIIS: error= 2.74D-05 at cycle   6 NSaved=   6.
 NSaved= 6 IEnMin= 6 EnMin= -215.498272816228     IErMin= 6 ErrMin= 2.74D-05
 ErrMax= 2.74D-05  0.00D+00 EMaxC= 1.00D-01 BMatC= 6.98D-08 BMatP= 3.59D-06
 IDIUse=1 WtCom= 1.00D+00 WtEn= 0.00D+00
 Coeff-Com: -0.301D-04 0.332D-01 0.329D-01 0.114D+00 0.201D+00 0.619D+00
 Coeff:     -0.301D-04 0.332D-01 0.329D-01 0.114D+00 0.201D+00 0.619D+00
 Gap=     0.191 Goal=   None    Shift=    0.000
 RMSDP=6.35D-06 MaxDP=6.14D-05 DE=-2.90D-06 OVMax= 6.15D-05

 Initial convergence to 1.0D-05 achieved.  Increase integral accuracy.
 Cycle   7  Pass 1  IDiag  1:
 E= -215.498268193720     Delta-E=        0.000004622508 Rises=F Damp=F
 DIIS: error= 1.85D-05 at cycle   1 NSaved=   1.
 NSaved= 1 IEnMin= 1 EnMin= -215.498268193720     IErMin= 1 ErrMin= 1.85D-05
 ErrMax= 1.85D-05  0.00D+00 EMaxC= 1.00D-01 BMatC= 1.37D-08 BMatP= 1.37D-08
 IDIUse=1 WtCom= 1.00D+00 WtEn= 0.00D+00
 Coeff-Com:  0.100D+01
 Coeff:      0.100D+01
 Gap=     0.190 Goal=   None    Shift=    0.000
 RMSDP=6.35D-06 MaxDP=6.14D-05 DE= 4.62D-06 OVMax= 6.76D-05

 Cycle   8  Pass 1  IDiag  1:
 E= -215.498268173289     Delta-E=        0.000000020431 Rises=F Damp=F
 DIIS: error= 3.08D-05 at cycle   2 NSaved=   2.
 NSaved= 2 IEnMin= 1 EnMin= -215.498268193720     IErMin= 1 ErrMin= 1.85D-05
 ErrMax= 3.08D-05  0.00D+00 EMaxC= 1.00D-01 BMatC= 4.37D-08 BMatP= 1.37D-08
 IDIUse=1 WtCom= 1.00D+00 WtEn= 0.00D+00
 Coeff-Com:  0.642D+00 0.358D+00
 Coeff:      0.642D+00 0.358D+00
 Gap=     0.191 Goal=   None    Shift=    0.000
 RMSDP=4.03D-06 MaxDP=3.71D-05 DE= 2.04D-08 OVMax= 4.28D-05

 Cycle   9  Pass 1  IDiag  1:
 E= -215.498268203578     Delta-E=       -0.000000030289 Rises=F Damp=F
 DIIS: error= 2.14D-06 at cycle   3 NSaved=   3.
 NSaved= 3 IEnMin= 3 EnMin= -215.498268203578     IErMin= 3 ErrMin= 2.14D-06
 ErrMax= 2.14D-06  0.00D+00 EMaxC= 1.00D-01 BMatC= 1.81D-10 BMatP= 1.37D-08
 IDIUse=1 WtCom= 1.00D+00 WtEn= 0.00D+00
 Coeff-Com:  0.344D+00 0.191D+00 0.464D+00
 Coeff:      0.344D+00 0.191D+00 0.464D+00
 Gap=     0.191 Goal=   None    Shift=    0.000
 RMSDP=3.06D-07 MaxDP=2.92D-06 DE=-3.03D-08 OVMax= 4.50D-06

 Cycle  10  Pass 1  IDiag  1:
 E= -215.498268203693     Delta-E=       -0.000000000116 Rises=F Damp=F
 DIIS: error= 7.90D-07 at cycle   4 NSaved=   4.
 NSaved= 4 IEnMin= 4 EnMin= -215.498268203693     IErMin= 4 ErrMin= 7.90D-07
 ErrMax= 7.90D-07  0.00D+00 EMaxC= 1.00D-01 BMatC= 2.89D-11 BMatP= 1.81D-10
 IDIUse=1 WtCom= 1.00D+00 WtEn= 0.00D+00
 Coeff-Com:  0.843D-01 0.438D-01 0.286D+00 0.585D+00
 Coeff:      0.843D-01 0.438D-01 0.286D+00 0.585D+00
 Gap=     0.191 Goal=   None    Shift=    0.000
 RMSDP=1.14D-07 MaxDP=8.68D-07 DE=-1.16D-10 OVMax= 1.33D-06

 Cycle  11  Pass 1  IDiag  1:
 E= -215.498268203712     Delta-E=       -0.000000000019 Rises=F Damp=F
 DIIS: error= 2.15D-07 at cycle   5 NSaved=   5.
 NSaved= 5 IEnMin= 5 EnMin= -215.498268203712     IErMin= 5 ErrMin= 2.15D-07
 ErrMax= 2.15D-07  0.00D+00 EMaxC= 1.00D-01 BMatC= 1.47D-12 BMatP= 2.89D-11
 IDIUse=1 WtCom= 1.00D+00 WtEn= 0.00D+00
 Coeff-Com:  0.237D-01 0.115D-01 0.119D+00 0.300D+00 0.545D+00
 Coeff:      0.237D-01 0.115D-01 0.119D+00 0.300D+00 0.545D+00
 Gap=     0.191 Goal=   None    Shift=    0.000
 RMSDP=3.50D-08 MaxDP=4.24D-07 DE=-1.89D-11 OVMax= 4.04D-07

 Cycle  12  Pass 1  IDiag  1:
 E= -215.498268203713     Delta-E=       -0.000000000001 Rises=F Damp=F
 DIIS: error= 8.15D-08 at cycle   6 NSaved=   6.
 NSaved= 6 IEnMin= 6 EnMin= -215.498268203713     IErMin= 6 ErrMin= 8.15D-08
 ErrMax= 8.15D-08  0.00D+00 EMaxC= 1.00D-01 BMatC= 2.04D-13 BMatP= 1.47D-12
 IDIUse=1 WtCom= 1.00D+00 WtEn= 0.00D+00
 Coeff-Com:  0.138D-02 0.361D-03 0.261D-01 0.809D-01 0.307D+00 0.585D+00
 Coeff:      0.138D-02 0.361D-03 0.261D-01 0.809D-01 0.307D+00 0.585D+00
 Gap=     0.191 Goal=   None    Shift=    0.000
 RMSDP=8.57D-09 MaxDP=9.08D-08 DE=-1.14D-12 OVMax= 1.08D-07

 SCF Done:  E(RB-LYP) =  -215.498268204     A.U. after   12 cycles
            NFock= 12  Conv=0.86D-08     -V/T= 2.0043
 KE= 2.145813550298D+02 PE=-6.673345376621D+02 EE= 1.629819465312D+02
 Leave Link  502 at Wed Oct  7 12:25:41 2020, MaxMem=  2684354560 cpu:              29.7 elap:               3.1
 (Enter /udrive/faculty/rpeverati/g16/g16/l508.exe)
 QCSCF skips out because SCF is already converged.
 Leave Link  508 at Wed Oct  7 12:25:41 2020, MaxMem=  2684354560 cpu:               0.6 elap:               0.6
 (Enter /udrive/faculty/rpeverati/g16/g16/l701.exe)
 ... and contract with generalized density number  0.
 Compute integral first derivatives.
 R6Disp: Adding Grimme-D3(BJ) dispersion energy 1st derivatives to the gradient.
 Leave Link  701 at Wed Oct  7 12:25:43 2020, MaxMem=  2684354560 cpu:               4.6 elap:               0.8
 (Enter /udrive/faculty/rpeverati/g16/g16/l702.exe)
 L702 exits ... SP integral derivatives will be done elsewhere.
 Leave Link  702 at Wed Oct  7 12:25:43 2020, MaxMem=  2684354560 cpu:               1.7 elap:               0.5
 (Enter /udrive/faculty/rpeverati/g16/g16/l703.exe)
 Integral derivatives from FoFJK, PRISM(SPDF).
 Compute integral first derivatives, UseDBF=F ICtDFT=           0.
 Calling FoFJK, ICntrl=      2527 FMM=F ISym2X=0 I1Cent= 0 IOpClX= 0 NMat=1 NMatS=1 NMatT=0.
 FoFJK:  IHMeth= 1 ICntrl=    2527 DoSepK=F KAlg= 0 I1Cent=           0 FoldK=F
 IRaf=         0 NMat=       1 IRICut=       1 DoRegI=T DoRafI=F ISym2E= 0 IDoP0=0 IntGTp=1.
 FoFCou: FMM=F IPFlag=           0 FMFlag=      100000 FMFlg1=         800
         NFxFlg=           0 DoJE=F BraDBF=F KetDBF=F FulRan=T
         wScrn=  0.000000 ICntrl=      2527 IOpCl=  0 I1Cent=           0 NGrid=           0
         NMat0=    1 NMatS0=      1 NMatT0=    0 NMatD0=    1 NMtDS0=    0 NMtDT0=    0
 Symmetry not used in FoFCou.
 Leave Link  703 at Wed Oct  7 12:25:45 2020, MaxMem=  2684354560 cpu:              10.1 elap:               1.2
 (Enter /udrive/faculty/rpeverati/g16/g16/l716.exe)
 Dipole        =-1.16982574D+00-2.79585095D-01 1.53361149D-03
 ***** Axes restored to original set *****
 -------------------------------------------------------------------
 Center     Atomic                   Forces (Hartrees/Bohr)
 Number     Number              X              Y              Z
 -------------------------------------------------------------------
      1        6           0.009895975    0.006147493   -0.000143342
      2        8          -0.020735928    0.019368283    0.000152667
      3        1          -0.006951163    0.001298968   -0.000016556
      4        1           0.001015970   -0.004997127   -0.003710386
      5        1           0.000806674   -0.005080788    0.003910022
      6        1           0.014942778   -0.020635250   -0.000357027
      7        9           0.001025694    0.003898421    0.000164623
 -------------------------------------------------------------------
 Cartesian Forces:  Max     0.020735928 RMS     0.009097120
 Leave Link  716 at Wed Oct  7 12:25:46 2020, MaxMem=  2684354560 cpu:               0.9 elap:               0.6
 (Enter /udrive/faculty/rpeverati/g16/g16/l103.exe)

 GradGradGradGradGradGradGradGradGradGradGradGradGradGradGradGradGradGrad
 Berny optimization.
 Optmz: redundant internal coordinate code flag= 1
 Using GEDIIS/GDIIS optimizer.
 Red2BG:  D1=  6.94D-02 OD1=  1.54D-01 B2RMS=  0.00D+00 IAprox=0
 FormGI is forming the generalized inverse of G from B-inverse, IUseBI=4.
 Internal  Forces:  Max     0.020281220 RMS     0.006706705
 Search for a local minimum.
 Step number   2 out of a maximum of  100
 All quantities printed in internal units (Hartrees-Bohrs-Radians)
 RMS Force = .67067D-02 SwitMx=.10000D-02 MixMth= 1
 Mixed Optimization -- RFO/linear search
 Update second derivatives using D2CorX and points    1    2
 DE= -1.99D-03 DEPred=-3.69D-03 R= 5.39D-01
 TightC=F SS=  1.41D+00  RLast= 3.00D-01 DXNew= 5.0454D-01 9.0000D-01
 Trust test= 5.39D-01 RLast= 3.00D-01 DXMaxT set to 5.05D-01
 The second derivative matrix:
                          R1        R2        R3        R4        R5
           R1           0.48006
           R2          -0.00585   0.31960
           R3          -0.00456  -0.02037   0.31438
           R4          -0.00474  -0.02055  -0.02101   0.31368
           R5          -0.01719  -0.05157  -0.05616  -0.05660   0.25895
           R6           0.00116   0.00529   0.00537   0.00544   0.01460
           A1           0.00034  -0.00191  -0.00145  -0.00151  -0.00564
           A2          -0.00088  -0.00540  -0.00529  -0.00538  -0.01505
           A3          -0.00104  -0.00563  -0.00558  -0.00567  -0.01562
           A4          -0.00012   0.00364   0.00310   0.00320   0.01050
           A5           0.00002   0.00382   0.00335   0.00344   0.01094
           A6           0.00191   0.00674   0.00712   0.00719   0.01840
           A7           0.01174   0.02224   0.02702   0.02701   0.05799
           A8          -0.01385  -0.00965  -0.01739  -0.01699  -0.02085
           A9           0.00522   0.00359   0.00652   0.00636   0.00773
           D1           0.00000  -0.00001  -0.00000  -0.00000  -0.00003
           D2          -0.00061  -0.00049  -0.00082  -0.00081  -0.00111
           D3           0.00056   0.00043   0.00074   0.00072   0.00095
                          R6        A1        A2        A3        A4
           R6           0.15758
           A1           0.00037   0.16013
           A2           0.00137  -0.00027   0.15869
           A3           0.00144  -0.00032  -0.00140   0.15852
           A4          -0.00079  -0.00007   0.00067   0.00075   0.15988
           A5          -0.00086  -0.00002   0.00074   0.00083  -0.00019
           A6          -0.00185   0.00062   0.00187   0.00195  -0.00121
           A7          -0.00707   0.00394   0.00777   0.00787  -0.00656
           A8           0.00463  -0.00477  -0.00595  -0.00571   0.00694
           A9          -0.00173   0.00180   0.00224   0.00214  -0.00262
           D1           0.00000   0.00000  -0.00000  -0.00000  -0.00000
           D2           0.00022  -0.00021  -0.00027  -0.00027   0.00031
           D3          -0.00020   0.00019   0.00025   0.00024  -0.00028
                          A5        A6        A7        A8        A9
           A5           0.15974
           A6          -0.00128   0.15762
           A7          -0.00661  -0.00821   0.14298
           A8           0.00670   0.00413  -0.00877   0.04206
           A9          -0.00252  -0.00154   0.00339  -0.01507   0.00801
           D1          -0.00000   0.00000   0.00002  -0.00003   0.00001
           D2           0.00030   0.00020  -0.00027   0.00163  -0.00062
           D3          -0.00027  -0.00018   0.00029  -0.00155   0.00059
                          D1        D2        D3
           D1           0.01869
           D2          -0.00000   0.01876
           D3           0.00000  -0.00006   0.01876
 ITU=  1  0
 Use linear search instead of GDIIS.
 Eigenvectors of the second derivative matrix:
                           1         2         3         4         5
     Eigenvalues --     0.00230   0.01869   0.02749   0.07577   0.09915
   1         R1         0.00031   0.00037  -0.05122   0.02413  -0.00131
   2         R2         0.00101   0.00114  -0.13645   0.15963   0.01179
   3         R3         0.00118   0.00136  -0.16919   0.16553   0.00908
   4         R4         0.00119   0.00136  -0.16911   0.16777   0.00947
   5         R5         0.00229   0.00254  -0.29754   0.35805   0.02788
   6         R6        -0.00065  -0.00080   0.10362  -0.13368  -0.00908
   7         A1         0.00031   0.00040  -0.05524   0.06585  -0.30913
   8         A2         0.00069   0.00086  -0.11436   0.11676   0.16493
   9         A3         0.00071   0.00088  -0.11581   0.12241   0.16019
  10         A4        -0.00054  -0.00070   0.10023  -0.05022  -0.26850
  11         A5        -0.00055  -0.00071   0.10068  -0.05887  -0.28074
  12         A6        -0.00079  -0.00094   0.11422  -0.22346   0.50661
  13         A7        -0.00204  -0.00227   0.23512  -0.65320  -0.09582
  14         A8         0.35680   0.00332  -0.78299  -0.46842  -0.07280
  15         A9         0.93417  -0.00133   0.30136   0.17545   0.02745
  16         D1         0.00002   0.57734   0.00302  -0.00349  -0.00648
  17         D2         0.00001   0.57731   0.01533   0.05741  -0.45925
  18         D3         0.00003   0.57738  -0.00885  -0.05717   0.46546
                           6         7         8         9        10
     Eigenvalues --     0.10193   0.15908   0.16000   0.16000   0.16813
   1         R1        -0.00002  -0.00077  -0.00000  -0.00000   0.02169
   2         R2         0.00065  -0.00163   0.00000   0.00000   0.03048
   3         R3         0.00056  -0.00236   0.00000  -0.00000   0.05334
   4         R4         0.00057  -0.00234   0.00000  -0.00000   0.05228
   5         R5         0.00150  -0.00301   0.00000  -0.00000   0.05030
   6         R6        -0.00058  -0.94617   0.00000   0.00000   0.25819
   7         A1        -0.00359  -0.10555   0.10980  -0.71351  -0.33507
   8         A2        -0.24977  -0.13251   0.56397   0.42107  -0.33794
   9         A3         0.25441  -0.13023  -0.67261   0.22364  -0.32260
  10         A4        -0.48398   0.12777  -0.35670   0.17491   0.37191
  11         A5         0.47710   0.12665   0.29186   0.27874   0.36317
  12         A6         0.00531   0.15157   0.06226  -0.37076   0.36371
  13         A7        -0.00486   0.06105  -0.03434   0.13352  -0.41992
  14         A8        -0.00306  -0.00313   0.00000  -0.00000   0.11154
  15         A9         0.00115   0.00119   0.00000   0.00000  -0.04229
  16         D1         0.52338   0.00001   0.00000   0.00000  -0.00031
  17         D2        -0.26696  -0.00034  -0.00000  -0.00000   0.01097
  18         D3        -0.25643   0.00033  -0.00000   0.00000  -0.01052
                          11        12        13        14        15
     Eigenvalues --     0.24093   0.33504   0.33829   0.36237   0.48200
   1         R1        -0.02098  -0.00026   0.01185   0.04432   0.99688
   2         R2        -0.31858   0.02436   0.83231  -0.39987  -0.01034
   3         R3        -0.32274   0.69651  -0.41091  -0.42765   0.00344
   4         R4        -0.32873  -0.71712  -0.37090  -0.42489   0.00232
   5         R5        -0.55102   0.00420  -0.00157   0.68687  -0.06713
   6         R6        -0.09580   0.00007   0.00198   0.01500  -0.00051
   7         A1         0.01565   0.00008  -0.00343  -0.00878   0.00313
   8         A2         0.09451  -0.00004  -0.00287  -0.01643   0.00151
   9         A3         0.10128  -0.00006  -0.00258  -0.01663   0.00112
  10         A4        -0.05044  -0.00007   0.00429   0.01406  -0.00373
  11         A5        -0.05502  -0.00005   0.00405   0.01415  -0.00340
  12         A6        -0.12662   0.00013   0.00153   0.01792   0.00067
  13         A7        -0.55478   0.00125  -0.01482   0.03453   0.02392
  14         A8         0.14517  -0.00092   0.01908   0.01222  -0.02924
  15         A9        -0.05452   0.00035  -0.00722  -0.00470   0.01105
  16         D1        -0.00020   0.00000  -0.00003  -0.00003   0.00003
  17         D2         0.00980  -0.00005   0.00110   0.00071  -0.00150
  18         D3        -0.00891   0.00005  -0.00104  -0.00074   0.00141
 Iter=   1 RLamda= 0.00000000D+00 Sum=-1.87363940D-02.
 Iter=   2 RLamda=-1.87363940D-02 Sum=-1.22685648D-02.
 Iter=   3 RLamda=-1.22685648D-02 Sum=-1.38622236D-02.
 Iter=   4 RLamda=-1.38622236D-02 Sum=-1.34276914D-02.
 Iter=   5 RLamda=-1.34276914D-02 Sum=-1.35431208D-02.
 Iter=   6 RLamda=-1.35431208D-02 Sum=-1.35122416D-02.
 Iter=   7 RLamda=-1.35122416D-02 Sum=-1.35204868D-02.
 Iter=   8 RLamda=-1.35204868D-02 Sum=-1.35182841D-02.
 Iter=   9 RLamda=-1.35182841D-02 Sum=-1.35188725D-02.
 Iter=  10 RLamda=-1.35188725D-02 Sum=-1.35187153D-02.
 Iter=  11 RLamda=-1.35187153D-02 Sum=-1.35187573D-02.
 Iter=  12 RLamda=-1.35187573D-02 Sum=-1.35187461D-02.
 Iter=  13 RLamda=-1.35187461D-02 Sum=-1.35187491D-02.
 RFO step:  Lambda=-1.35187461D-02 EMin= 2.29902307D-03
 Quartic linear search produced a step of -0.15281.
 Maximum step size (   0.505) exceeded in Quadratic search.
    -- Step size scaled by   0.976
 Iteration  1 RMS(Cart)=  0.07780534 RMS(Int)=  0.03085552
 Iteration  2 RMS(Cart)=  0.03629284 RMS(Int)=  0.00201625
 Iteration  3 RMS(Cart)=  0.00209241 RMS(Int)=  0.00060018
 Iteration  4 RMS(Cart)=  0.00000085 RMS(Int)=  0.00060018
 ITry= 1 IFail=0 DXMaxC= 2.60D-01 DCOld= 1.00D+10 DXMaxT= 5.05D-01 DXLimC= 3.00D+00 Rises=F
 Variable       Old X    -DE/DX   Delta X   Delta X   Delta X     New X
                                 (Linear)    (Quad)   (Total)
    R1        2.62564  -0.00030  -0.00083   0.02761   0.02678   2.65242
    R2        2.09236   0.00707  -0.00255   0.10536   0.10281   2.19518
    R3        2.10134   0.00601  -0.00301   0.11827   0.11526   2.21660
    R4        2.10166   0.00619  -0.00302   0.11907   0.11604   2.21770
    R5        2.02221   0.02028  -0.00572   0.24165   0.23593   2.25814
    R6        2.55890  -0.00164   0.00166  -0.06291  -0.06125   2.49764
    A1        1.92422  -0.00006  -0.00083   0.02739   0.02562   1.94984
    A2        1.98140   0.00140  -0.00177   0.06457   0.06162   2.04302
    A3        1.98207   0.00157  -0.00181   0.06667   0.06367   2.04575
    A4        1.86187  -0.00027   0.00142  -0.04655  -0.04590   1.81597
    A5        1.86135  -0.00041   0.00144  -0.04823  -0.04757   1.81378
    A6        1.84465  -0.00250   0.00197  -0.07975  -0.07899   1.76566
    A7        1.82607  -0.01307   0.00482  -0.22874  -0.22392   1.60215
    A8        2.79814   0.00887   0.04146   0.26909   0.31055   3.10869
    A9        3.28773  -0.00320  -0.01683  -0.08501  -0.10184   3.18589
    D1       -3.13320  -0.00000  -0.00004   0.00120   0.00117  -3.13202
    D2       -1.04546   0.00056   0.00001   0.00442   0.00416  -1.04130
    D3        1.06247  -0.00049  -0.00009  -0.00129  -0.00112   1.06135
         Item               Value     Threshold  Converged?
 Maximum Force            0.020281     0.000450     NO 
 RMS     Force            0.006707     0.000300     NO 
 Maximum Displacement     0.260091     0.001800     NO 
 RMS     Displacement     0.096853     0.001200     NO 
 Predicted change in Energy=-8.765169D-03
 Lowest energy point so far.  Saving SCF results.
 Largest change from initial coordinates is atom    3       0.059 Angstoms.
 GradGradGradGradGradGradGradGradGradGradGradGradGradGradGradGradGradGrad

 Leave Link  103 at Wed Oct  7 12:25:47 2020, MaxMem=  2684354560 cpu:               3.2 elap:               0.9
 (Enter /udrive/faculty/rpeverati/g16/g16/l202.exe)
                          Input orientation:                          
 ---------------------------------------------------------------------
 Center     Atomic      Atomic             Coordinates (Angstroms)
 Number     Number       Type             X           Y           Z
 ---------------------------------------------------------------------
      1          6           0       -1.245131   -0.316664   -0.000309
      2          8           0       -0.551848    0.903764   -0.002746
      3          1           0       -2.395793   -0.157375   -0.002466
      4          1           0       -1.056070   -1.039492   -0.904544
      5          1           0       -1.061423   -1.036414    0.908233
      6          1           0        0.505125    0.346394   -0.011024
      7          9           0        1.643560   -0.324636    0.012731
 ---------------------------------------------------------------------
                    Distance matrix (angstroms):
                    1          2          3          4          5
     1  C    0.000000
     2  O    1.403599   0.000000
     3  H    1.161638   2.127476   0.000000
     4  H    1.172973   2.200846   1.840308   0.000000
     5  H    1.173557   2.203143   1.839192   1.812787   0.000000
     6  H    1.871672   1.194957   2.944348   2.270768   2.282820
     7  F    2.888731   2.515755   4.042844   2.939458   2.936918
                    6          7
     6  H    0.000000
     7  F    1.321696   0.000000
 Stoichiometry    CH4FO(1-)
 Framework group  C1[X(CH4FO)]
 Deg. of freedom    15
 Full point group                 C1      NOp   1
 RotChk:  IX=2 Diff= 2.62D-02
 Largest Abelian subgroup         C1      NOp   1
 Largest concise Abelian subgroup C1      NOp   1
                         Standard orientation:                         
 ---------------------------------------------------------------------
 Center     Atomic      Atomic             Coordinates (Angstroms)
 Number     Number       Type             X           Y           Z
 ---------------------------------------------------------------------
      1          6           0       -1.161887   -0.461863   -0.000097
      2          8           0       -0.602017    0.825241    0.001175
      3          1           0       -2.322952   -0.425571    0.003411
      4          1           0       -0.901480   -1.156074   -0.909010
      5          1           0       -0.898563   -1.162531    0.903763
      6          1           0        0.508073    0.383230   -0.014532
      7          9           0        1.711375   -0.163312    0.000839
 ---------------------------------------------------------------------
 Rotational constants (GHZ):          27.5333998           5.8571622           4.9876207
 Leave Link  202 at Wed Oct  7 12:25:48 2020, MaxMem=  2684354560 cpu:               1.2 elap:               0.5
 (Enter /udrive/faculty/rpeverati/g16/g16/l301.exe)
 Standard basis: 6-31G(d) (5D, 7F)
 Ernie: Thresh=  0.10000D-02 Tol=  0.10000D-05 Strict=F.
 There are    53 symmetry adapted cartesian basis functions of A   symmetry.
 There are    50 symmetry adapted basis functions of A   symmetry.
    50 basis functions,   100 primitive gaussians,    53 cartesian basis functions
    14 alpha electrons       14 beta electrons
       nuclear repulsion energy        71.8883723392 Hartrees.
 IExCor=  402 DFT=T Ex=B Corr=LYP ExCW=0 ScaHFX=  0.000000
 ScaDFX=  1.000000  1.000000  1.000000  1.000000 ScalE2=  1.000000  1.000000
 IRadAn=      5 IRanWt=     -1 IRanGd=            0 ICorTp=0 IEmpDi=141
 NAtoms=    7 NActive=    7 NUniq=    7 SFac= 1.00D+00 NAtFMM=   60 NAOKFM=F Big=F
 Integral buffers will be    131072 words long.
 Raffenetti 2 integral format.
 Two-electron integral symmetry is turned on.
 R6Disp:  Grimme-D3(BJ) Dispersion energy=       -0.0052429496 Hartrees.
 Nuclear repulsion after empirical dispersion term =       71.8831293896 Hartrees.
 Leave Link  301 at Wed Oct  7 12:25:48 2020, MaxMem=  2684354560 cpu:               2.2 elap:               0.6
 (Enter /udrive/faculty/rpeverati/g16/g16/l302.exe)
 NPDir=0 NMtPBC=     1 NCelOv=     1 NCel=       1 NClECP=     1 NCelD=      1
         NCelK=      1 NCelE2=     1 NClLst=     1 CellRange=     0.0.
 One-electron integrals computed using PRISM.
 One-electron integral symmetry used in STVInt
 NBasis=    50 RedAO= T EigKep=  1.77D-02  NBF=    50
 NBsUse=    50 1.00D-06 EigRej= -1.00D+00 NBFU=    50
 Precomputing XC quadrature grid using
 IXCGrd= 4 IRadAn=           5 IRanWt=          -1 IRanGd=           0 AccXCQ= 0.00D+00.
 Generated NRdTot=       0 NPtTot=           0 NUsed=           0 NTot=          32
 NSgBfM=    53    53    53    53    53 MxSgAt=     7 MxSgA2=     7.
 Leave Link  302 at Wed Oct  7 12:25:49 2020, MaxMem=  2684354560 cpu:               4.3 elap:               0.8
 (Enter /udrive/faculty/rpeverati/g16/g16/l303.exe)
 DipDrv:  MaxL=1.
 Leave Link  303 at Wed Oct  7 12:25:50 2020, MaxMem=  2684354560 cpu:               1.3 elap:               0.5
 (Enter /udrive/faculty/rpeverati/g16/g16/l401.exe)
 Initial guess from the checkpoint file:  "MN_61_hoch3fcomp1_BH76_BLYPDBJ_631Gs.chk"
 SCF N**3 symmetry information disabled.
 B after Tr=     0.000000   -0.000000    0.000000
         Rot=    0.999942   -0.001243   -0.000493   -0.010713 Ang=  -1.24 deg.
 Guess basis will be translated and rotated to current coordinates.
 JPrj=2 DoOrth=T DoCkMO=T.
 Generating alternative initial guess.
 ExpMin= 1.61D-01 ExpMax= 7.00D+03 ExpMxC= 1.05D+03 IAcc=2 IRadAn=         4 AccDes= 0.00D+00
 Harris functional with IExCor=  402 and IRadAn=       4 diagonalized for initial guess.
 HarFok:  IExCor=  402 AccDes= 0.00D+00 IRadAn=         4 IDoV= 1 UseB2=F ITyADJ=14
 ICtDFT=  3500011 ScaDFX=  1.000000  1.000000  1.000000  1.000000
 FoFCou: FMM=F IPFlag=           0 FMFlag=      100000 FMFlg1=           0
         NFxFlg=           0 DoJE=T BraDBF=F KetDBF=T FulRan=T
         wScrn=  0.000000 ICntrl=       500 IOpCl=  0 I1Cent=   200000004 NGrid=           0
         NMat0=    1 NMatS0=      1 NMatT0=    0 NMatD0=    1 NMtDS0=    0 NMtDT0=    0
 Petite list used in FoFCou.
 Harris En= -215.775427568530    
 Leave Link  401 at Wed Oct  7 12:25:52 2020, MaxMem=  2684354560 cpu:               8.7 elap:               1.2
 (Enter /udrive/faculty/rpeverati/g16/g16/l502.exe)
 Keep J ints in memory in canonical form, NReq=11319949.
 FoFCou: FMM=F IPFlag=           0 FMFlag=           0 FMFlg1=           0
         NFxFlg=           0 DoJE=F BraDBF=F KetDBF=F FulRan=T
         wScrn=  0.000000 ICntrl=       600 IOpCl=  0 I1Cent=           0 NGrid=           0
         NMat0=    1 NMatS0=   1275 NMatT0=    0 NMatD0=    1 NMtDS0=    0 NMtDT0=    0
 Symmetry not used in FoFCou.
 Two-electron integral symmetry not used.
 Closed shell SCF:
 Using DIIS extrapolation, IDIIS=  1040.
 NGot=  2684354560 LenX=  2683534079 LenY=  2683530829
 Requested convergence on RMS density matrix=1.00D-08 within 120 cycles.
 Requested convergence on MAX density matrix=1.00D-06.
 Requested convergence on             energy=1.00D-06.
 No special actions if energy rises.
 Integral accuracy reduced to 1.0D-05 until final iterations.

[...]
           A5           0.14973
           A6           0.00216   0.14536
           A7           0.00207  -0.01238   0.14612
           A8           0.00529   0.00362  -0.00450   0.07079
           A9          -0.00236   0.00355   0.00028  -0.00279   0.05568
           D1           0.00271  -0.00389   0.00409  -0.00911  -0.00340
           D2           0.00379  -0.00269  -0.00722   0.00687   0.00506
           D3          -0.00597   0.00059   0.00602   0.00199  -0.00329
                          D1        D2        D3
           D1           0.01793
           D2          -0.00923   0.02246
           D3          -0.00647  -0.01296   0.02056
 ITU=  0  0  0  1  1  0  1 -1  0 -1  0 -1  1  1  1  0  0  0  0
 Eigenvectors of the second derivative matrix:
                           1         2         3         4         5
     Eigenvalues --     0.00065   0.02312   0.05393   0.06844   0.09006
   1         R1         0.00366  -0.08106  -0.00137  -0.03642   0.00681
   2         R2         0.01562   0.05914   0.03802  -0.00656  -0.02373
   3         R3        -0.00276   0.07901   0.00644   0.05216  -0.04277
   4         R4        -0.01721   0.01451  -0.01646   0.00984   0.13374
   5         R5        -0.01237   0.76230   0.03194  -0.20103   0.00302
   6         R6         0.01052  -0.58566   0.01024   0.06016  -0.03782
   7         A1         0.02460   0.10495  -0.04530   0.04028   0.03749
   8         A2        -0.00425   0.05836   0.01875   0.03804   0.10928
   9         A3        -0.02718   0.00891   0.03720   0.04887  -0.14875
  10         A4        -0.01487  -0.11488  -0.05858  -0.16342   0.56711
  11         A5        -0.00012  -0.03614   0.03727   0.02472  -0.34507
  12         A6         0.02301  -0.05003   0.00822  -0.01032  -0.21684
  13         A7        -0.00429   0.03555   0.00287   0.12344  -0.09274
  14         A8        -0.00168   0.15032   0.19079   0.92340   0.21611
  15         A9         0.01610  -0.05391   0.97308  -0.19482   0.06064
  16         D1         0.57715   0.03121   0.03908   0.08830  -0.47221
  17         D2         0.57272   0.00371  -0.05984  -0.07053   0.40688
  18         D3         0.57938  -0.01051  -0.00524  -0.01660   0.08689
                           6         7         8         9        10
     Eigenvalues --     0.10538   0.11924   0.14975   0.17233   0.19849
   1         R1         0.03051   0.21076   0.04064   0.06586  -0.03404
   2         R2        -0.01402  -0.12723  -0.03378   0.07523  -0.06045
   3         R3        -0.04072  -0.12663  -0.06663   0.03296   0.06052
   4         R4        -0.01795  -0.02789  -0.10131  -0.22360  -0.08077
   5         R5         0.07829   0.19988   0.09089  -0.03816   0.34802
   6         R6         0.01923   0.09277  -0.03957   0.05526   0.41872
   7         A1        -0.19369  -0.28680  -0.19954   0.08568  -0.54843
   8         A2         0.01843  -0.13888  -0.19975   0.67051   0.35061
   9         A3        -0.02074   0.02958  -0.54862  -0.53021   0.27278
  10         A4        -0.00710   0.15028   0.30642  -0.32910   0.09111
  11         A5        -0.38671   0.26715   0.47917   0.10711   0.08013
  12         A6         0.62677   0.04281   0.31615  -0.05069  -0.26372
  13         A7        -0.03035  -0.79342   0.38784  -0.22137   0.30328
  14         A8         0.04572   0.17108   0.07434  -0.02895  -0.00159
  15         A9        -0.02082  -0.05255   0.00007  -0.00498  -0.05500
  16         D1        -0.19170   0.10051  -0.02153  -0.13545  -0.01151
  17         D2        -0.33597  -0.02834   0.07886   0.01909  -0.03365
  18         D3         0.50656  -0.05802  -0.07676   0.07373   0.09954
                          11        12        13        14        15
     Eigenvalues --     0.24605   0.26511   0.29448   0.33461   0.46569
   1         R1        -0.25982  -0.07473  -0.07367   0.03437   0.92728
   2         R2         0.11570   0.02315   0.79398   0.55857   0.10503
   3         R3         0.22997  -0.15308   0.47882  -0.79405   0.16178
   4         R4         0.19451   0.91754   0.00087  -0.09478   0.15703
   5         R5        -0.40800   0.12272   0.10680  -0.04785  -0.07185
   6         R6        -0.55989   0.20034   0.25883  -0.11048  -0.17319
   7         A1        -0.48482   0.03378   0.03255  -0.09527  -0.06260
   8         A2         0.19606   0.10526  -0.14726   0.05511   0.06047
   9         A3         0.08161  -0.16352  -0.04042   0.09922   0.07243
  10         A4         0.10225  -0.13343   0.09381  -0.00050  -0.01592
  11         A5         0.17910   0.10251   0.01420   0.00235  -0.01377
  12         A6        -0.04430   0.05698   0.07442  -0.07139  -0.05281
  13         A7        -0.09087   0.00017  -0.12171   0.05952   0.16253
  14         A8        -0.04956  -0.01859   0.01793   0.02665  -0.00848
  15         A9        -0.00785   0.00292  -0.03166  -0.03125  -0.00379
  16         D1         0.01278   0.03907  -0.01578   0.00966   0.00616
  17         D2        -0.06785  -0.03109   0.01886  -0.02075  -0.01559
  18         D3         0.09087   0.00303  -0.02885   0.00331   0.01708
 DoSqrt=T IScMMF=    -3 MM Scaling Factor =       0.00000
 En-DIIS/RFO-DIIS/Sim-DIIS IScMMF=       -3 using points:    30   29   28   27   26   25
 Iter=   1 RLamda=-4.93525058D-02 Sum=-5.61093569D-10.
 Iter=   2 RLamda=-5.61093569D-10 Sum=-8.03505402D-10.
 RFO step:  Lambda=-5.61093569D-10.
 NNeg= 0 NGDIIS= 6 SimSw=  2.50D-01 Rises=F DC= -8.39D-09 SmlDif=  1.00D-05
 NRisDI= 0 DoIntr=F SqrtH=F CThrHd= 10.0 CDAdj=  3.0
 RMS Error=  0.4811834473D-04 NUsed= 6 OKEnD=F EnDIS=F
 Total RFO-DIIS matrix:
                 1             2             3             4             5 
      1   0.000000D+00 -0.100000D+01 -0.100000D+01 -0.100000D+01 -0.100000D+01
      2  -0.100000D+01  0.416768D-07  0.636171D-06 -0.212533D-06  0.555448D-05
      3  -0.100000D+01  0.636171D-06  0.117918D-04 -0.409459D-05  0.109234D-03
      4  -0.100000D+01 -0.212533D-06 -0.409459D-05  0.276005D-05 -0.339152D-04
      5  -0.100000D+01  0.555448D-05  0.109234D-03 -0.339152D-04  0.105138D-02
      6  -0.100000D+01  0.399764D-05  0.911125D-04 -0.216026D-04  0.956381D-03
      7  -0.100000D+01  0.617081D-04  0.118490D-02 -0.415075D-03  0.111366D-01
                 6             7 
      1  -0.100000D+01 -0.100000D+01
      2   0.399764D-05  0.617081D-04
      3   0.911125D-04  0.118490D-02
      4  -0.216026D-04 -0.415075D-03
      5   0.956381D-03  0.111366D-01
      6   0.105169D-02  0.965481D-02
      7   0.965481D-02  0.120276D+00
 InvSVX:  RCond= 1.35D-09 Info=           0 Equed=N FErr=  8.74D-13 BErr=  8.44D-17
 DIIS inversion failure, remove point   6.
 InvSVX:  RCond= 2.07D-09 Info=           0 Equed=N FErr=  4.52D-13 BErr=  1.01D-16
 DIIS inversion failure, remove point   5.
 InvSVX:  RCond= 1.04D-08 Info=           0 Equed=N FErr=  5.20D-14 BErr=  8.08D-17
 DIIS inversion failure, remove point   4.
 InvSVX:  RCond= 1.03D-07 Info=           0 Equed=N FErr=  1.98D-15 BErr=  8.94D-17
 RFO-DIIS uses    3 points instead of    6
 DidBck=F Rises=F RFO-DIIS coefs:    1.05391   -0.05558    0.00167    0.00000    0.00000
                  RFO-DIIS coefs:    0.00000
 Iteration  1 RMS(Cart)=  0.00005528 RMS(Int)=  0.00000000
 Iteration  2 RMS(Cart)=  0.00000000 RMS(Int)=  0.00000000
 ITry= 1 IFail=0 DXMaxC= 9.77D-05 DCOld= 1.00D+10 DXMaxT= 3.00D-01 DXLimC= 3.00D+00 Rises=F
 Variable       Old X    -DE/DX   Delta X   Delta X   Delta X     New X
                                 (Linear)    (Quad)   (Total)
    R1        2.58910   0.00000   0.00000   0.00001   0.00001   2.58911
    R2        2.15665   0.00000   0.00000   0.00000   0.00001   2.15666
    R3        2.12625   0.00000  -0.00000  -0.00000  -0.00001   2.12624
    R4        2.15668  -0.00000  -0.00000  -0.00001  -0.00001   2.15667
    R5        2.42516   0.00000  -0.00000  -0.00004  -0.00005   2.42512
    R6        2.12563   0.00000   0.00000   0.00004   0.00004   2.12567
    A1        2.00808   0.00001   0.00001   0.00002   0.00002   2.00810
    A2        1.97624  -0.00001  -0.00001  -0.00003  -0.00003   1.97621
    A3        2.00813  -0.00000  -0.00000  -0.00001  -0.00002   2.00812
    A4        1.82700  -0.00000  -0.00000  -0.00000  -0.00001   1.82700
    A5        1.79531  -0.00000  -0.00000   0.00000  -0.00000   1.79531
    A6        1.82695   0.00000   0.00001   0.00003   0.00004   1.82699
    A7        1.79687  -0.00000   0.00001  -0.00002  -0.00001   1.79686
    A8        3.01188  -0.00000  -0.00000  -0.00003  -0.00003   3.01185
    A9        3.14156   0.00000  -0.00000   0.00003   0.00003   3.14159
    D1       -2.10027   0.00000   0.00011   0.00000   0.00011  -2.10016
    D2       -0.00002  -0.00000   0.00010  -0.00001   0.00009   0.00007
    D3        2.10020  -0.00000   0.00010   0.00000   0.00011   2.10031
         Item               Value     Threshold  Converged?
 Maximum Force            0.000007     0.000450     YES
 RMS     Force            0.000003     0.000300     YES
 Maximum Displacement     0.000098     0.001800     YES
 RMS     Displacement     0.000055     0.001200     YES
 Predicted change in Energy=-4.017521D-10
 Optimization completed.
    -- Stationary point found.
                           ----------------------------
                           !   Optimized Parameters   !
                           ! (Angstroms and Degrees)  !
 --------------------------                            --------------------------
 ! Name  Definition              Value          Derivative Info.                !
 --------------------------------------------------------------------------------
 ! R1    R(1,2)                  1.3701         -DE/DX =    0.0                 !
 ! R2    R(1,3)                  1.1413         -DE/DX =    0.0                 !
 ! R3    R(1,4)                  1.1252         -DE/DX =    0.0                 !
 ! R4    R(1,5)                  1.1413         -DE/DX =    0.0                 !
 ! R5    R(2,6)                  1.2833         -DE/DX =    0.0                 !
 ! R6    R(6,7)                  1.1248         -DE/DX =    0.0                 !
 ! A1    A(2,1,3)              115.0545         -DE/DX =    0.0                 !
 ! A2    A(2,1,4)              113.2302         -DE/DX =    0.0                 !
 ! A3    A(2,1,5)              115.0576         -DE/DX =    0.0                 !
 ! A4    A(3,1,4)              104.6797         -DE/DX =    0.0                 !
 ! A5    A(3,1,5)              102.8637         -DE/DX =    0.0                 !
 ! A6    A(4,1,5)              104.6766         -DE/DX =    0.0                 !
 ! A7    A(1,2,6)              102.9531         -DE/DX =    0.0                 !
 ! A8    L(2,6,7,4,-1)         172.5678         -DE/DX =    0.0                 !
 ! A9    L(2,6,7,4,-2)         179.9982         -DE/DX =    0.0                 !
 ! D1    D(3,1,2,6)           -120.3368         -DE/DX =    0.0                 !
 ! D2    D(4,1,2,6)             -0.0012         -DE/DX =    0.0                 !
 ! D3    D(5,1,2,6)            120.3327         -DE/DX =    0.0                 !
 --------------------------------------------------------------------------------
 Lowest energy point so far.  Saving SCF results.
 Largest change from initial coordinates is atom    3       0.046 Angstoms.
 GradGradGradGradGradGradGradGradGradGradGradGradGradGradGradGradGradGrad

 Leave Link  103 at Wed Oct  7 12:32:05 2020, MaxMem=  2684354560 cpu:               2.9 elap:               0.6
 (Enter /udrive/faculty/rpeverati/g16/g16/l202.exe)
                          Input orientation:                          
 ---------------------------------------------------------------------
 Center     Atomic      Atomic             Coordinates (Angstroms)
 Number     Number       Type             X           Y           Z
 ---------------------------------------------------------------------
      1          6           0       -1.273048   -0.381763    0.129773
      2          8           0       -0.449510    0.643145    0.515125
      3          1           0       -2.197158   -0.063706   -0.459561
      4          1           0       -0.762032   -1.138425   -0.527731
      5          1           0       -1.715548   -0.994005    0.985251
      6          1           0        0.664226    0.344619   -0.048294
      7          9           0        1.571491   -0.034288   -0.594689
 ---------------------------------------------------------------------
                    Distance matrix (angstroms):
                    1          2          3          4          5
     1  C    0.000000
     2  O    1.370091   0.000000
     3  H    1.141251   2.122245   0.000000
     4  H    1.125161   2.087873   1.794228   0.000000
     5  H    1.141267   2.122294   1.784625   1.794204   0.000000
     6  H    2.076625   1.283342   2.919484   2.112698   2.919496
     7  F    2.955840   2.403133   3.771185   2.582427   3.771193
                    6          7
     6  H    0.000000
     7  F    1.124833   0.000000
 Stoichiometry    CH4FO(1-)
 Framework group  C1[X(CH4FO)]
 Deg. of freedom    15
 Full point group                 C1      NOp   1
 RotChk:  IX=2 Diff= 5.82D-16
 Largest Abelian subgroup         C1      NOp   1
 Largest concise Abelian subgroup C1      NOp   1
                         Standard orientation:                         
 ---------------------------------------------------------------------
 Center     Atomic      Atomic             Coordinates (Angstroms)
 Number     Number       Type             X           Y           Z
 ---------------------------------------------------------------------
      1          6           0       -1.246339   -0.391349   -0.000004
      2          8           0       -0.504613    0.760602    0.000006
      3          1           0       -1.947017   -0.515001   -0.892313
      4          1           0       -0.617274   -1.324228   -0.000018
      5          1           0       -1.947015   -0.515093    0.892313
      6          1           0        0.702677    0.325384    0.000021
      7          9           0        1.702618   -0.189754   -0.000002
 ---------------------------------------------------------------------
 Rotational constants (GHZ):          32.5024122           5.7756557           5.0618515
 Leave Link  202 at Wed Oct  7 12:32:06 2020, MaxMem=  2684354560 cpu:               0.9 elap:               0.4
 (Enter /udrive/faculty/rpeverati/g16/g16/l601.exe)
 Copying SCF densities to generalized density rwf, IOpCl= 0 IROHF=0.

 **********************************************************************

            Population analysis using the SCF density.

 **********************************************************************

 Orbital symmetries:
       Occupied  (A) (A) (A) (A) (A) (A) (A) (A) (A) (A) (A) (A)
                 (A) (A)
       Virtual   (A) (A) (A) (A) (A) (A) (A) (A) (A) (A) (A) (A)
                 (A) (A) (A) (A) (A) (A) (A) (A) (A) (A) (A) (A)
                 (A) (A) (A) (A) (A) (A) (A) (A) (A) (A) (A) (A)
 The electronic state is 1-A.
 Alpha  occ. eigenvalues --  -23.91910 -18.48451  -9.73698  -0.69210  -0.60846
 Alpha  occ. eigenvalues --   -0.34740  -0.17068  -0.14047  -0.11916  -0.05947
 Alpha  occ. eigenvalues --    0.01999   0.02016   0.05489   0.06775
 Alpha virt. eigenvalues --    0.27913   0.33889   0.34293   0.38112   0.50664
 Alpha virt. eigenvalues --    0.73972   0.75931   0.76752   0.89642   0.97092
 Alpha virt. eigenvalues --    0.98414   1.03446   1.16491   1.17760   1.20582
 Alpha virt. eigenvalues --    1.40072   1.42183   1.45620   1.52269   1.69516
 Alpha virt. eigenvalues --    1.69987   1.82702   1.97145   2.03097   2.07375
 Alpha virt. eigenvalues --    2.07971   2.11372   2.11583   2.16623   2.27893
 Alpha virt. eigenvalues --    2.29821   2.32622   2.61009   2.62848   2.93067
 Alpha virt. eigenvalues --    3.17770
          Condensed to atoms (all electrons):
               1          2          3          4          5          6
     1  C    4.812353   0.378019   0.291900   0.323729   0.291881  -0.026034
     2  O    0.378019   8.374266  -0.057827  -0.057061  -0.057823   0.157211
     3  H    0.291900  -0.057827   0.956656  -0.067241  -0.103337   0.003372
     4  H    0.323729  -0.057061  -0.067241   0.837500  -0.067248  -0.019998
     5  H    0.291881  -0.057823  -0.103337  -0.067248   0.956693   0.003371
     6  H   -0.026034   0.157211   0.003372  -0.019998   0.003371   0.335705
     7  F    0.002579  -0.062576  -0.000175   0.020533  -0.000175   0.118126
               7
     1  C    0.002579
     2  O   -0.062576
     3  H   -0.000175
     4  H    0.020533
     5  H   -0.000175
     6  H    0.118126
     7  F    9.584374
 Mulliken charges:
               1
     1  C   -0.074427
     2  O   -0.674208
     3  H   -0.023349
     4  H    0.029785
     5  H   -0.023363
     6  H    0.428248
     7  F   -0.662685
 Sum of Mulliken charges =  -1.00000
 Mulliken charges with hydrogens summed into heavy atoms:
               1
     1  C   -0.091354
     2  O   -0.674208
     7  F   -0.234438
 Electronic spatial extent (au):  <R**2>=            254.6186
 Charge=             -1.0000 electrons
 Dipole moment (field-independent basis, Debye):
    X=             -1.3040    Y=             -0.9080    Z=             -0.0000  Tot=              1.5890
 Quadrupole moment (field-independent basis, Debye-Ang):
   XX=            -31.0099   YY=            -22.7255   ZZ=            -20.9206
   XY=              1.6331   XZ=              0.0002   YZ=              0.0000
 Traceless Quadrupole moment (field-independent basis, Debye-Ang):
   XX=             -6.1246   YY=              2.1598   ZZ=              3.9648
   XY=              1.6331   XZ=              0.0002   YZ=              0.0000
 Octapole moment (field-independent basis, Debye-Ang**2):
  XXX=              7.3800  YYY=              1.4267  ZZZ=             -0.0002  XYY=              6.9327
  XXY=              3.6429  XXZ=             -0.0003  XZZ=              6.5691  YZZ=              1.0622
  YYZ=             -0.0000  XYZ=             -0.0001
 Hexadecapole moment (field-independent basis, Debye-Ang**3):
 XXXX=           -252.9450 YYYY=            -58.5840 ZZZZ=            -27.3263 XXXY=             -6.7324
 XXXZ=              0.0008 YYYX=             -4.2545 YYYZ=              0.0001 ZZZX=              0.0003
 ZZZY=              0.0001 XXYY=            -47.3021 XXZZ=            -44.2471 YYZZ=            -14.3234
 XXYZ=              0.0002 YYXZ=              0.0001 ZZXY=             -2.5589
 N-N= 7.339058766450D+01 E-N=-6.651958154824D+02  KE= 2.144710087700D+02
 No NMR shielding tensors so no spin-rotation constants.
 Leave Link  601 at Wed Oct  7 12:32:07 2020, MaxMem=  2684354560 cpu:               3.9 elap:               0.7
 (Enter /udrive/faculty/rpeverati/g16/g16/l9999.exe)

 Test job not archived.
 1\1\GINC-NODE17\FOpt\RBLYP\6-31G(d)\C1H4F1O1(1-)\RPEVERATI\07-Oct-2020
 \0\\#P Opt(MaxCyc=100) BLYP/6-31G* 5D 7F Integral=UltraFineGrid SCF=(N
 oSymm,XQC,MaxCyc=120) EmpiricalDispersion=GD3BJ IOp(1/33=1)\\TS search
  on BH76.\\-1,1\C,-1.2730483133,-0.3817633821,0.129773123\O,-0.4495098
 185,0.6431452477,0.5151252241\H,-2.1971577947,-0.0637058904,-0.4595609
 637\H,-0.7620317991,-1.1384248698,-0.5277312331\H,-1.7155479034,-0.994
 0053657,0.9852514419\H,0.6642257496,0.3446193948,-0.0482941201\F,1.571
 4911744,-0.0342878271,-0.5946890454\\Version=ES64L-G16RevA.03\State=1-
 A\HF=-215.5045328\RMSD=2.073e-09\RMSF=2.309e-06\Dipole=-0.5264743,-0.3
 347187,-0.0400233\Quadrupole=-3.7195098,2.0717304,1.6477793,0.4565867,
 2.5164987,-0.7161538\PG=C01 [X(C1H4F1O1)]\\@


 I take a simple view of life: keep your eyes open and get on with it.
 -- Laurence Olivier
 Job cpu time:       0 days  0 hours 32 minutes  1.2 seconds.
 Elapsed time:       0 days  0 hours  5 minutes 23.5 seconds.
 File lengths (MBytes):  RWF=      5 Int=      0 D2E=      0 Chk=      1 Scr=      1
 Normal termination of Gaussian 16 at Wed Oct  7 12:32:08 2020.
