 Entering Gaussian System, Link 0=g16
 Input=MN_91_RKT17_BH76_BLYPDBJ_631Gs.in
 Output=MN_91_RKT17_BH76_BLYPDBJ_631Gs.log
 Initial command:
 /udrive/faculty/rpeverati/g16/g16/l1.exe "/udrive/scratch-directories/gaussian09/rpeverati/Gau-11898.inp" -scrdir="/udrive/scratch-directories/gaussian09/rpeverati/"
 Entering Link 1 = /udrive/faculty/rpeverati/g16/g16/l1.exe PID=     11899.
  
 Copyright (c) 1988,1990,1992,1993,1995,1998,2003,2009,2016,
            Gaussian, Inc.  All Rights Reserved.
  
 This is part of the Gaussian(R) 16 program.  It is based on
 the Gaussian(R) 09 system (copyright 2009, Gaussian, Inc.),
 the Gaussian(R) 03 system (copyright 2003, Gaussian, Inc.),
 the Gaussian(R) 98 system (copyright 1998, Gaussian, Inc.),
 the Gaussian(R) 94 system (copyright 1995, Gaussian, Inc.),
 the Gaussian 92(TM) system (copyright 1992, Gaussian, Inc.),
 the Gaussian 90(TM) system (copyright 1990, Gaussian, Inc.),
 the Gaussian 88(TM) system (copyright 1988, Gaussian, Inc.),
 the Gaussian 86(TM) system (copyright 1986, Carnegie Mellon
 University), and the Gaussian 82(TM) system (copyright 1983,
 Carnegie Mellon University). Gaussian is a federally registered
 trademark of Gaussian, Inc.
  
 This software contains proprietary and confidential information,
 including trade secrets, belonging to Gaussian, Inc.
  
 This software is provided under written license and may be
 used, copied, transmitted, or stored only in accord with that
 written license.
  
 The following legend is applicable only to US Government
 contracts under FAR:
  
                    RESTRICTED RIGHTS LEGEND
  
 Use, reproduction and disclosure by the US Government is
 subject to restrictions as set forth in subparagraphs (a)
 and (c) of the Commercial Computer Software - Restricted
 Rights clause in FAR 52.227-19.
  
 Gaussian, Inc.
 340 Quinnipiac St., Bldg. 40, Wallingford CT 06492
  
  
 ---------------------------------------------------------------
 Warning -- This program may not be used in any manner that
 competes with the business of Gaussian, Inc. or will provide
 assistance to any competitor of Gaussian, Inc.  The licensee
 of this program is prohibited from giving any competitor of
 Gaussian, Inc. access to this program.  By using this program,
 the user acknowledges that Gaussian, Inc. is engaged in the
 business of creating and licensing software in the field of
 computational chemistry and represents and warrants to the
 licensee that it is not a competitor of Gaussian, Inc. and that
 it will not use this program in any manner prohibited above.
 ---------------------------------------------------------------
  

 Cite this work as:
 Gaussian 16, Revision A.03,
 M. J. Frisch, G. W. Trucks, H. B. Schlegel, G. E. Scuseria, 
 M. A. Robb, J. R. Cheeseman, G. Scalmani, V. Barone, 
 G. A. Petersson, H. Nakatsuji, X. Li, M. Caricato, A. V. Marenich, 
 J. Bloino, B. G. Janesko, R. Gomperts, B. Mennucci, H. P. Hratchian, 
 J. V. Ortiz, A. F. Izmaylov, J. L. Sonnenberg, D. Williams-Young, 
 F. Ding, F. Lipparini, F. Egidi, J. Goings, B. Peng, A. Petrone, 
 T. Henderson, D. Ranasinghe, V. G. Zakrzewski, J. Gao, N. Rega, 
 G. Zheng, W. Liang, M. Hada, M. Ehara, K. Toyota, R. Fukuda, 
 J. Hasegawa, M. Ishida, T. Nakajima, Y. Honda, O. Kitao, H. Nakai, 
 T. Vreven, K. Throssell, J. A. Montgomery, Jr., J. E. Peralta, 
 F. Ogliaro, M. J. Bearpark, J. J. Heyd, E. N. Brothers, K. N. Kudin, 
 V. N. Staroverov, T. A. Keith, R. Kobayashi, J. Normand, 
 K. Raghavachari, A. P. Rendell, J. C. Burant, S. S. Iyengar, 
 J. Tomasi, M. Cossi, J. M. Millam, M. Klene, C. Adamo, R. Cammi, 
 J. W. Ochterski, R. L. Martin, K. Morokuma, O. Farkas, 
 J. B. Foresman, and D. J. Fox, Gaussian, Inc., Wallingford CT, 2016.
 
 ******************************************
 Gaussian 16:  ES64L-G16RevA.03 25-Dec-2016
                 7-Oct-2020 
 ******************************************
 %NoSave
 %nproc=12
 Will use up to   12 processors via shared memory.
 %mem=20GB
 %chk=MN_91_RKT17_BH76_BLYPDBJ_631Gs
 ----------------------------------------------------------------------
 #P Opt(TS,MaxCyc=150,NoEigenTest,MaxStep=10,AddRedundant) BLYP/6-31G* 
 5D 7F Integral=UltraFineGrid SCF=(NoSymm,XQC,MaxCyc=120) EmpiricalDisp
 ersion=GD3BJ IOp(1/33=1)
 ----------------------------------------------------------------------
 1/5=1,6=150,8=10,11=1,18=120,26=4,33=1,38=1/1,3;
 2/9=110,12=2,17=6,18=5,40=1/2;
 3/5=1,6=6,7=1,8=11,11=2,25=1,30=1,71=1,74=402,75=-5,124=41/1,2,3;
 4/9=2/1;
 5/5=2,7=120,8=3,13=1,38=5/2,8;
 6/7=2,8=2,9=2,10=2,28=1/1;
 7//1,2,3,16;
 1/5=1,6=150,8=10,11=1,18=20,26=4,33=1/3(2);
 2/9=110/2;
 99//99;
 2/9=110/2;
 3/5=1,6=6,7=1,8=11,11=2,25=1,30=1,71=1,74=402,75=-5,124=41/1,2,3;
 4/5=5,9=2,16=3,69=1/1;
 5/5=2,7=120,8=3,13=1,38=5/2,8;
 7//1,2,3,16;
 1/5=1,6=150,8=10,11=1,18=20,26=4,33=1/3(-5);
 2/9=110/2;
 6/7=2,8=2,9=2,10=2,19=2,28=1/1;
 99/9=1/99;
 Leave Link    1 at Wed Oct  7 12:27:07 2020, MaxMem=  2684354560 cpu:               7.4 elap:               0.8
 (Enter /udrive/faculty/rpeverati/g16/g16/l101.exe)
 ONIOM data not found on unit 2.
 ------------------
 TS search on BH76.
 ------------------
 TstMul:  ICh=     0
 TstMul:  Mul=     3
 TstMul:  ICh=     0
 TstMul:  Mul=     3
 Symbolic Z-matrix:
 Charge =  0 Multiplicity = 3
 o
 cl                   1    clo2
 h                    2    hcl3     1    hclo3
       Variables:
  clo2                  2.48288                  
  hcl3                  1.47057                  
  hclo3                19.435                    
 
 RdStrC is calling ZToCFu for IStruc=1 NZ=     3.
 PrtBox:  NBox=     1 Levels=  1 BoxLen=    8.00 SMaxX=        4.69
          Shift=            0.000000            0.000000            0.000000
 Box      1 Number                   0 centers from      1 to      3:
 After GenITR:
 ITRead=  0  0  0
 MicOpt= -1 -1 -1
 Add virtual bond connecting atoms H3         and O1         Dist= 2.27D+00.
 The following ModRedundant input section has been read:
 B       1       2 D                                                           
 B       2       3 D                                                           
 
 ITRead=  0  0  0
 MicOpt= -1 -1 -1
 NAtoms=      3 NQM=        3 NQMF=       0 NMMI=      0 NMMIF=      0
                NMic=       0 NMicF=      0.
                    Isotopes and Nuclear Properties:
 (Nuclear quadrupole moments (NQMom) in fm**2, nuclear magnetic moments (NMagM)
  in nuclear magnetons)

  Atom         1           2           3
 IAtWgt=          16          35           1
 AtmWgt=  15.9949146  34.9688527   1.0078250
 NucSpn=           0           3           1
 AtZEff=   0.0000000   0.0000000   0.0000000
 NQMom=    0.0000000  -8.1650000   0.0000000
 NMagM=    0.0000000   0.8218740   2.7928460
 AtZNuc=   8.0000000  17.0000000   1.0000000
 No MM parameters found.
 Leave Link  101 at Wed Oct  7 12:27:09 2020, MaxMem=  2684354560 cpu:              18.3 elap:               1.7
 (Enter /udrive/faculty/rpeverati/g16/g16/l103.exe)

 GradGradGradGradGradGradGradGradGradGradGradGradGradGradGradGradGradGrad
 Berny optimization.
 Optmz: redundant internal coordinate code flag= 1
 Initialization pass.
                           ----------------------------
                           !    Initial Parameters    !
                           ! (Angstroms and Degrees)  !
 --------------------------                            --------------------------
 ! Name  Definition              Value          Derivative Info.                !
 --------------------------------------------------------------------------------
 ! R1    R(1,2)                  2.4829         calc D2E/DXDY, step=    0.0026  !
 ! R2    R(1,3)                  1.2004         estimate D2E/DX2                !
 ! R3    R(2,3)                  1.4706         calc D2E/DXDY, step=    0.0026  !
 ! A1    A(1,3,2)              136.5084         estimate D2E/DX2                !
 --------------------------------------------------------------------------------
 Maximum allowed force set to 1.00D+20.
 Trust Radius=1.00D-01 FncErr=1.00D-07 GrdErr=1.00D-06 EigMax=2.50D+02 EigMin=1.00D-04
 Number of steps in this run=    100 maximum allowed number of steps=    100.
 Search for a saddle point of order  1.
 GradGradGradGradGradGradGradGradGradGradGradGradGradGradGradGradGradGrad

 Leave Link  103 at Wed Oct  7 12:27:10 2020, MaxMem=  2684354560 cpu:               1.6 elap:               0.6
 (Enter /udrive/faculty/rpeverati/g16/g16/l202.exe)
                          Input orientation:                          
 ---------------------------------------------------------------------
 Center     Atomic      Atomic             Coordinates (Angstroms)
 Number     Number       Type             X           Y           Z
 ---------------------------------------------------------------------
      1          8           0        0.000000    0.000000    0.000000
      2         17           0        0.000000    0.000000    2.482884
      3          1           0        0.489315    0.000000    1.096104
 ---------------------------------------------------------------------
                    Distance matrix (angstroms):
                    1          2          3
     1  O    0.000000
     2  Cl   2.482884   0.000000
     3  H    1.200364   1.470574   0.000000
 Stoichiometry    ClHO(3)
 Framework group  CS[SG(ClHO)]
 Deg. of freedom     3
 Full point group                 CS      NOp   2
 Largest Abelian subgroup         CS      NOp   2
 Largest concise Abelian subgroup C1      NOp   1
                         Standard orientation:                         
 ---------------------------------------------------------------------
 Center     Atomic      Atomic             Coordinates (Angstroms)
 Number     Number       Type             X           Y           Z
 ---------------------------------------------------------------------
      1          8           0        0.018820    1.665582   -0.000000
      2         17           0        0.018820   -0.817302    0.000000
      3          1           0       -0.470495    0.569478   -0.000000
 ---------------------------------------------------------------------
 Rotational constants (GHZ):        2147.3519629           7.4294944           7.4038781
 Leave Link  202 at Wed Oct  7 12:27:11 2020, MaxMem=  2684354560 cpu:               1.7 elap:               0.6
 (Enter /udrive/faculty/rpeverati/g16/g16/l301.exe)
 Standard basis: 6-31G(d) (5D, 7F)
 Ernie: Thresh=  0.10000D-02 Tol=  0.10000D-05 Strict=F.
 There are    27 symmetry adapted cartesian basis functions of A'  symmetry.
 There are     9 symmetry adapted cartesian basis functions of A"  symmetry.
 There are    25 symmetry adapted basis functions of A'  symmetry.
 There are     9 symmetry adapted basis functions of A"  symmetry.
    34 basis functions,    84 primitive gaussians,    36 cartesian basis functions
    14 alpha electrons       12 beta electrons
       nuclear repulsion energy        38.6298151471 Hartrees.
 IExCor=  402 DFT=T Ex=B Corr=LYP ExCW=0 ScaHFX=  0.000000
 ScaDFX=  1.000000  1.000000  1.000000  1.000000 ScalE2=  1.000000  1.000000
 IRadAn=      5 IRanWt=     -1 IRanGd=            0 ICorTp=0 IEmpDi=141
 NAtoms=    3 NActive=    3 NUniq=    3 SFac= 1.00D+00 NAtFMM=   60 NAOKFM=F Big=F
 Integral buffers will be    131072 words long.
 Raffenetti 2 integral format.
 Two-electron integral symmetry is turned on.
 R6Disp:  Grimme-D3(BJ) Dispersion energy=       -0.0020941885 Hartrees.
 Nuclear repulsion after empirical dispersion term =       38.6277209586 Hartrees.
 Leave Link  301 at Wed Oct  7 12:27:12 2020, MaxMem=  2684354560 cpu:               2.6 elap:               0.7
 (Enter /udrive/faculty/rpeverati/g16/g16/l302.exe)
 NPDir=0 NMtPBC=     1 NCelOv=     1 NCel=       1 NClECP=     1 NCelD=      1
         NCelK=      1 NCelE2=     1 NClLst=     1 CellRange=     0.0.
 One-electron integrals computed using PRISM.
 One-electron integral symmetry used in STVInt
 NBasis=    34 RedAO= T EigKep=  3.39D-02  NBF=    25     9
 NBsUse=    34 1.00D-06 EigRej= -1.00D+00 NBFU=    25     9
 Precomputing XC quadrature grid using
 IXCGrd= 4 IRadAn=           5 IRanWt=          -1 IRanGd=           0 AccXCQ= 0.00D+00.
 Generated NRdTot=       0 NPtTot=           0 NUsed=           0 NTot=          32
 NSgBfM=    36    36    36    36    36 MxSgAt=     3 MxSgA2=     3.
 Leave Link  302 at Wed Oct  7 12:27:13 2020, MaxMem=  2684354560 cpu:               4.1 elap:               0.8
 (Enter /udrive/faculty/rpeverati/g16/g16/l303.exe)
 DipDrv:  MaxL=1.
 Leave Link  303 at Wed Oct  7 12:27:14 2020, MaxMem=  2684354560 cpu:               2.3 elap:               0.7
 (Enter /udrive/faculty/rpeverati/g16/g16/l401.exe)
 SCF N**3 symmetry information disabled.
 ExpMin= 1.43D-01 ExpMax= 2.52D+04 ExpMxC= 3.78D+03 IAcc=3 IRadAn=         5 AccDes= 0.00D+00
 Harris functional with IExCor=  402 and IRadAn=       5 diagonalized for initial guess.
 HarFok:  IExCor=  402 AccDes= 0.00D+00 IRadAn=         5 IDoV= 1 UseB2=F ITyADJ=14
 ICtDFT=  3500011 ScaDFX=  1.000000  1.000000  1.000000  1.000000
 FoFCou: FMM=F IPFlag=           0 FMFlag=      100000 FMFlg1=           0
         NFxFlg=           0 DoJE=T BraDBF=F KetDBF=T FulRan=T
         wScrn=  0.000000 ICntrl=       500 IOpCl=  0 I1Cent=   200000004 NGrid=           0
         NMat0=    1 NMatS0=      1 NMatT0=    0 NMatD0=    1 NMtDS0=    0 NMtDT0=    0
 Petite list used in FoFCou.
 Harris En= -535.767954288389    
 JPrj=0 DoOrth=F DoCkMO=F.
 Initial guess orbital symmetries:
 Alpha Orbitals:
       Occupied  (A') (A') (A') (A') (A') (A") (A') (A') (A') (A')
                 (A") (A') (A") (A')
       Virtual   (A') (A') (A") (A') (A') (A') (A") (A') (A') (A")
                 (A') (A") (A') (A') (A') (A") (A') (A") (A') (A')
 Beta  Orbitals:
       Occupied  (A') (A') (A') (A') (A') (A") (A') (A') (A') (A')
                 (A") (A')
       Virtual   (A") (A') (A') (A') (A") (A') (A') (A') (A") (A')
                 (A') (A") (A') (A") (A') (A') (A') (A") (A') (A")
                 (A') (A')
 The electronic state of the initial guess is 3-A".
 Initial guess <Sx>= 0.0000 <Sy>= 0.0000 <Sz>= 1.0000 <S**2>= 2.0000 S= 1.0000
 Leave Link  401 at Wed Oct  7 12:27:15 2020, MaxMem=  2684354560 cpu:               5.2 elap:               0.9
 (Enter /udrive/faculty/rpeverati/g16/g16/l502.exe)
 Keep J ints in memory in symmetry-blocked form, NReq=10531413.
 FoFCou: FMM=F IPFlag=           0 FMFlag=           0 FMFlg1=           0
         NFxFlg=           0 DoJE=F BraDBF=F KetDBF=F FulRan=T
         wScrn=  0.000000 ICntrl=       600 IOpCl=  0 I1Cent=           0 NGrid=           0
         NMat0=    1 NMatS0=    595 NMatT0=    0 NMatD0=    1 NMtDS0=    0 NMtDT0=    0
 Petite list used in FoFCou.
 UHF open shell SCF:
 Using DIIS extrapolation, IDIIS=  1040.
 NGot=  2684354560 LenX=  2684255249 LenY=  2684253512
 Requested convergence on RMS density matrix=1.00D-08 within 120 cycles.
 Requested convergence on MAX density matrix=1.00D-06.
 Requested convergence on             energy=1.00D-06.
 No special actions if energy rises.
 Integral accuracy reduced to 1.0D-05 until final iterations.

 Cycle   1  Pass 0  IDiag  1:
 E= -535.314367530531    
 DIIS: error= 1.05D-01 at cycle   1 NSaved=   1.
 NSaved= 1 IEnMin= 1 EnMin= -535.314367530531     IErMin= 1 ErrMin= 1.05D-01
 ErrMax= 1.05D-01  0.00D+00 EMaxC= 1.00D-01 BMatC= 1.43D+00 BMatP= 1.43D+00
 IDIUse=3 WtCom= 0.00D+00 WtEn= 1.00D+00
 Coeff-Com:  0.100D+01
 Coeff-En:   0.100D+01
 Coeff:      0.100D+01
 Gap=     0.457 Goal=   None    Shift=    0.000
 Gap=    -0.093 Goal=   None    Shift=    0.000
 GapD=   -0.093 DampG=0.250 DampE=0.250 DampFc=0.2500 IDamp=-1.
 Damping current iteration by 2.50D-01
 RMSDP=1.43D-01 MaxDP=2.43D+00              OVMax= 9.66D-01

 Cycle   2  Pass 0  IDiag  1:
 E= -535.355922165392     Delta-E=       -0.041554634861 Rises=F Damp=T
 DIIS: error= 3.01D-02 at cycle   2 NSaved=   2.
 NSaved= 2 IEnMin= 2 EnMin= -535.355922165392     IErMin= 2 ErrMin= 3.01D-02
 ErrMax= 3.01D-02  0.00D+00 EMaxC= 1.00D-01 BMatC= 6.95D-02 BMatP= 1.43D+00
 IDIUse=3 WtCom= 6.99D-01 WtEn= 3.01D-01
 Coeff-Com:  0.118D+00 0.882D+00
 Coeff-En:   0.461D+00 0.539D+00
 Coeff:      0.221D+00 0.779D+00
 Gap=    -0.187 Goal=   None    Shift=    0.000
 Gap=     0.460 Goal=   None    Shift=    0.000
 RMSDP=3.76D-02 MaxDP=6.24D-01 DE=-4.16D-02 OVMax= 9.40D-01

 Cycle   3  Pass 0  IDiag  1:
 E= -535.567749715629     Delta-E=       -0.211827550237 Rises=F Damp=F
 DIIS: error= 9.78D-02 at cycle   3 NSaved=   3.
 NSaved= 3 IEnMin= 3 EnMin= -535.567749715629     IErMin= 2 ErrMin= 3.01D-02
 ErrMax= 9.78D-02  0.00D+00 EMaxC= 1.00D-01 BMatC= 7.78D-01 BMatP= 6.95D-02
 IDIUse=2 WtCom= 0.00D+00 WtEn= 1.00D+00
 Coeff-En:   0.404D+00 0.000D+00 0.596D+00
 Coeff:      0.404D+00 0.000D+00 0.596D+00
 Gap=     0.404 Goal=   None    Shift=    0.000
 Gap=     0.034 Goal=   None    Shift=    0.000
 RMSDP=1.55D-02 MaxDP=2.30D-01 DE=-2.12D-01 OVMax= 3.10D-01

 Cycle   4  Pass 0  IDiag  1:
 E= -535.824311216842     Delta-E=       -0.256561501213 Rises=F Damp=F
 DIIS: error= 1.64D-02 at cycle   4 NSaved=   4.
 NSaved= 4 IEnMin= 4 EnMin= -535.824311216842     IErMin= 4 ErrMin= 1.64D-02
 ErrMax= 1.64D-02  0.00D+00 EMaxC= 1.00D-01 BMatC= 1.67D-02 BMatP= 6.95D-02
 IDIUse=3 WtCom= 8.36D-01 WtEn= 1.64D-01
 Coeff-Com:  0.845D-01 0.219D-02 0.130D-01 0.900D+00
 Coeff-En:   0.453D-01 0.000D+00 0.000D+00 0.955D+00
 Coeff:      0.781D-01 0.183D-02 0.109D-01 0.909D+00
 Gap=     0.374 Goal=   None    Shift=    0.000
 Gap=     0.031 Goal=   None    Shift=    0.000
 RMSDP=4.52D-03 MaxDP=4.77D-02 DE=-2.57D-01 OVMax= 1.09D-01

 Cycle   5  Pass 0  IDiag  1:
 E= -535.827337420359     Delta-E=       -0.003026203516 Rises=F Damp=F
 DIIS: error= 1.06D-02 at cycle   5 NSaved=   5.
 NSaved= 5 IEnMin= 5 EnMin= -535.827337420359     IErMin= 5 ErrMin= 1.06D-02
 ErrMax= 1.06D-02  0.00D+00 EMaxC= 1.00D-01 BMatC= 1.08D-02 BMatP= 1.67D-02
 IDIUse=3 WtCom= 8.94D-01 WtEn= 1.06D-01
 Coeff-Com: -0.143D-01 0.346D-01-0.933D-02 0.382D+00 0.607D+00
 Coeff-En:   0.000D+00 0.000D+00 0.000D+00 0.379D+00 0.621D+00
 Coeff:     -0.127D-01 0.309D-01-0.834D-02 0.381D+00 0.609D+00
 Gap=     0.367 Goal=   None    Shift=    0.000
 Gap=     0.030 Goal=   None    Shift=    0.000
 RMSDP=1.44D-03 MaxDP=1.44D-02 DE=-3.03D-03 OVMax= 3.64D-02

 Cycle   6  Pass 0  IDiag  1:
 E= -535.830036883625     Delta-E=       -0.002699463266 Rises=F Damp=F
 DIIS: error= 3.83D-03 at cycle   6 NSaved=   6.
 NSaved= 6 IEnMin= 6 EnMin= -535.830036883625     IErMin= 6 ErrMin= 3.83D-03
 ErrMax= 3.83D-03  0.00D+00 EMaxC= 1.00D-01 BMatC= 9.87D-04 BMatP= 1.08D-02
 IDIUse=3 WtCom= 9.62D-01 WtEn= 3.83D-02
 Coeff-Com: -0.161D-01-0.379D-02 0.765D-02 0.627D-01 0.547D-01 0.895D+00
 Coeff-En:   0.000D+00 0.000D+00 0.000D+00 0.443D-01 0.000D+00 0.956D+00
 Coeff:     -0.155D-01-0.364D-02 0.736D-02 0.620D-01 0.526D-01 0.897D+00
 Gap=     0.367 Goal=   None    Shift=    0.000
 Gap=     0.033 Goal=   None    Shift=    0.000
 RMSDP=1.01D-03 MaxDP=1.83D-02 DE=-2.70D-03 OVMax= 4.19D-02

 Cycle   7  Pass 0  IDiag  1:
 E= -535.830368609296     Delta-E=       -0.000331725671 Rises=F Damp=F
 DIIS: error= 1.46D-03 at cycle   7 NSaved=   7.
 NSaved= 7 IEnMin= 7 EnMin= -535.830368609296     IErMin= 7 ErrMin= 1.46D-03
 ErrMax= 1.46D-03  0.00D+00 EMaxC= 1.00D-01 BMatC= 2.28D-04 BMatP= 9.87D-04
 IDIUse=3 WtCom= 9.85D-01 WtEn= 1.46D-02
 Coeff-Com:  0.104D-02-0.955D-03-0.151D-02-0.353D-01-0.496D-01 0.309D+00
 Coeff-Com:  0.777D+00
 Coeff-En:   0.000D+00 0.000D+00 0.000D+00 0.000D+00 0.000D+00 0.261D+00
 Coeff-En:   0.739D+00
 Coeff:      0.103D-02-0.941D-03-0.149D-02-0.348D-01-0.489D-01 0.309D+00
 Coeff:      0.776D+00
 Gap=     0.366 Goal=   None    Shift=    0.000
 Gap=     0.033 Goal=   None    Shift=    0.000
 RMSDP=2.90D-04 MaxDP=5.11D-03 DE=-3.32D-04 OVMax= 8.48D-03

 Cycle   8  Pass 0  IDiag  1:
 E= -535.830444861144     Delta-E=       -0.000076251848 Rises=F Damp=F
 DIIS: error= 6.88D-04 at cycle   8 NSaved=   8.
 NSaved= 8 IEnMin= 8 EnMin= -535.830444861144     IErMin= 8 ErrMin= 6.88D-04
 ErrMax= 6.88D-04  0.00D+00 EMaxC= 1.00D-01 BMatC= 4.18D-05 BMatP= 2.28D-04
 IDIUse=3 WtCom= 9.93D-01 WtEn= 6.88D-03
 Coeff-Com:  0.190D-02 0.437D-03-0.131D-02-0.265D-01-0.224D-01 0.974D-01
 Coeff-Com:  0.129D+00 0.821D+00
 Coeff-En:   0.000D+00 0.000D+00 0.000D+00 0.000D+00 0.000D+00 0.327D-01
 Coeff-En:   0.000D+00 0.967D+00
 Coeff:      0.189D-02 0.434D-03-0.130D-02-0.263D-01-0.223D-01 0.969D-01
 Coeff:      0.128D+00 0.822D+00
 Gap=     0.367 Goal=   None    Shift=    0.000
 Gap=     0.033 Goal=   None    Shift=    0.000
 RMSDP=9.98D-05 MaxDP=1.16D-03 DE=-7.63D-05 OVMax= 2.83D-03

 Cycle   9  Pass 0  IDiag  1:
 E= -535.830444809789     Delta-E=        0.000000051355 Rises=F Damp=F
 DIIS: error= 6.44D-04 at cycle   9 NSaved=   9.
 NSaved= 9 IEnMin= 8 EnMin= -535.830444861144     IErMin= 9 ErrMin= 6.44D-04
 ErrMax= 6.44D-04  0.00D+00 EMaxC= 1.00D-01 BMatC= 4.17D-05 BMatP= 4.18D-05
 IDIUse=3 WtCom= 9.94D-01 WtEn= 6.44D-03
 EnCoef did     7 forward-backward iterations
 Coeff-Com:  0.415D-03 0.186D-03-0.535D-03 0.109D-02 0.159D-01 0.214D-01
 Coeff-Com: -0.395D+00 0.190D+00 0.117D+01
 Coeff-En:   0.000D+00 0.000D+00 0.000D+00 0.000D+00 0.000D+00 0.359D-01
 Coeff-En:   0.000D+00 0.361D+00 0.603D+00
 Coeff:      0.412D-03 0.184D-03-0.532D-03 0.108D-02 0.158D-01 0.215D-01
 Coeff:     -0.392D+00 0.191D+00 0.116D+01
 Gap=     0.366 Goal=   None    Shift=    0.000
 Gap=     0.033 Goal=   None    Shift=    0.000
 RMSDP=1.12D-04 MaxDP=1.79D-03 DE= 5.14D-08 OVMax= 3.58D-03

 Cycle  10  Pass 0  IDiag  1:
 E= -535.830459029447     Delta-E=       -0.000014219658 Rises=F Damp=F
 DIIS: error= 1.04D-04 at cycle  10 NSaved=  10.
 NSaved=10 IEnMin=10 EnMin= -535.830459029447     IErMin=10 ErrMin= 1.04D-04
 ErrMax= 1.04D-04  0.00D+00 EMaxC= 1.00D-01 BMatC= 1.13D-06 BMatP= 4.17D-05
 IDIUse=3 WtCom= 9.99D-01 WtEn= 1.04D-03
 Coeff-Com:  0.635D-04 0.586D-04-0.172D-03-0.124D-03 0.289D-02 0.169D-01
 Coeff-Com: -0.738D-01 0.187D-01 0.162D+00 0.873D+00
 Coeff-En:   0.000D+00 0.000D+00 0.000D+00 0.000D+00 0.000D+00 0.000D+00
 Coeff-En:   0.000D+00 0.000D+00 0.000D+00 0.100D+01
 Coeff:      0.634D-04 0.586D-04-0.172D-03-0.124D-03 0.289D-02 0.169D-01
 Coeff:     -0.737D-01 0.187D-01 0.162D+00 0.873D+00
 Gap=     0.366 Goal=   None    Shift=    0.000
 Gap=     0.033 Goal=   None    Shift=    0.000
 RMSDP=6.63D-06 MaxDP=7.97D-05 DE=-1.42D-05 OVMax= 1.75D-04

 Initial convergence to 1.0D-05 achieved.  Increase integral accuracy.
 Cycle  11  Pass 1  IDiag  1:
 E= -535.830461518394     Delta-E=       -0.000002488946 Rises=F Damp=F
 DIIS: error= 7.26D-05 at cycle   1 NSaved=   1.
 NSaved= 1 IEnMin= 1 EnMin= -535.830461518394     IErMin= 1 ErrMin= 7.26D-05
 ErrMax= 7.26D-05  0.00D+00 EMaxC= 1.00D-01 BMatC= 5.27D-07 BMatP= 5.27D-07
 IDIUse=1 WtCom= 1.00D+00 WtEn= 0.00D+00
 Coeff-Com:  0.100D+01
 Coeff:      0.100D+01
 Gap=     0.366 Goal=   None    Shift=    0.000
 Gap=     0.033 Goal=   None    Shift=    0.000
 RMSDP=6.63D-06 MaxDP=7.97D-05 DE=-2.49D-06 OVMax= 4.12D-03

 Cycle  12  Pass 1  IDiag  1:
 E= -535.830448823358     Delta-E=        0.000012695036 Rises=F Damp=F
 DIIS: error= 6.28D-04 at cycle   2 NSaved=   2.
 NSaved= 2 IEnMin= 1 EnMin= -535.830461518394     IErMin= 1 ErrMin= 7.26D-05
 ErrMax= 6.28D-04  0.00D+00 EMaxC= 1.00D-01 BMatC= 4.02D-05 BMatP= 5.27D-07
 IDIUse=3 WtCom= 2.85D-01 WtEn= 7.15D-01
 Coeff-Com:  0.898D+00 0.102D+00
 Coeff-En:   0.942D+00 0.580D-01
 Coeff:      0.929D+00 0.706D-01
 Gap=     0.366 Goal=   None    Shift=    0.000
 Gap=     0.033 Goal=   None    Shift=    0.000
 RMSDP=7.28D-05 MaxDP=1.09D-03 DE= 1.27D-05 OVMax= 2.51D-03

 Cycle  13  Pass 1  IDiag  1:
 E= -535.830460383522     Delta-E=       -0.000011560164 Rises=F Damp=F
 DIIS: error= 1.99D-04 at cycle   3 NSaved=   3.
 NSaved= 3 IEnMin= 1 EnMin= -535.830461518394     IErMin= 1 ErrMin= 7.26D-05
 ErrMax= 1.99D-04  0.00D+00 EMaxC= 1.00D-01 BMatC= 4.07D-06 BMatP= 5.27D-07
 IDIUse=3 WtCom= 4.15D-01 WtEn= 5.85D-01
 Coeff-Com:  0.276D+00-0.291D+00 0.102D+01
 Coeff-En:   0.760D+00 0.000D+00 0.240D+00
 Coeff:      0.559D+00-0.121D+00 0.561D+00
 Gap=     0.366 Goal=   None    Shift=    0.000
 Gap=     0.033 Goal=   None    Shift=    0.000
 RMSDP=2.81D-05 MaxDP=4.19D-04 DE=-1.16D-05 OVMax= 9.67D-04

 Cycle  14  Pass 1  IDiag  1:
 E= -535.830461650514     Delta-E=       -0.000001266993 Rises=F Damp=F
 DIIS: error= 3.59D-05 at cycle   4 NSaved=   4.
 NSaved= 4 IEnMin= 4 EnMin= -535.830461650514     IErMin= 4 ErrMin= 3.59D-05
 ErrMax= 3.59D-05  0.00D+00 EMaxC= 1.00D-01 BMatC= 1.31D-07 BMatP= 5.27D-07
 IDIUse=1 WtCom= 1.00D+00 WtEn= 0.00D+00
 Coeff-Com: -0.413D-03 0.860D-01-0.529D+00 0.144D+01
 Coeff:     -0.413D-03 0.860D-01-0.529D+00 0.144D+01
 Gap=     0.366 Goal=   None    Shift=    0.000
 Gap=     0.033 Goal=   None    Shift=    0.000
 RMSDP=6.37D-06 MaxDP=9.41D-05 DE=-1.27D-06 OVMax= 2.19D-04

 Cycle  15  Pass 1  IDiag  1:
 E= -535.830461693004     Delta-E=       -0.000000042490 Rises=F Damp=F
 DIIS: error= 8.70D-07 at cycle   5 NSaved=   5.
 NSaved= 5 IEnMin= 5 EnMin= -535.830461693004     IErMin= 5 ErrMin= 8.70D-07
 ErrMax= 8.70D-07  0.00D+00 EMaxC= 1.00D-01 BMatC= 6.15D-11 BMatP= 1.31D-07
 IDIUse=1 WtCom= 1.00D+00 WtEn= 0.00D+00
 Coeff-Com: -0.401D-01 0.567D-01-0.266D+00 0.424D+00 0.825D+00
 Coeff:     -0.401D-01 0.567D-01-0.266D+00 0.424D+00 0.825D+00
 Gap=     0.366 Goal=   None    Shift=    0.000
 Gap=     0.033 Goal=   None    Shift=    0.000
 RMSDP=1.33D-07 MaxDP=1.61D-06 DE=-4.25D-08 OVMax= 4.20D-06

 Cycle  16  Pass 1  IDiag  1:
 E= -535.830461693019     Delta-E=       -0.000000000015 Rises=F Damp=F
 DIIS: error= 3.42D-07 at cycle   6 NSaved=   6.
 NSaved= 6 IEnMin= 6 EnMin= -535.830461693019     IErMin= 6 ErrMin= 3.42D-07
 ErrMax= 3.42D-07  0.00D+00 EMaxC= 1.00D-01 BMatC= 1.04D-11 BMatP= 6.15D-11
 IDIUse=1 WtCom= 1.00D+00 WtEn= 0.00D+00
 Coeff-Com: -0.114D-01 0.523D-02-0.121D-01-0.352D-01 0.229D+00 0.824D+00
 Coeff:     -0.114D-01 0.523D-02-0.121D-01-0.352D-01 0.229D+00 0.824D+00
 Gap=     0.366 Goal=   None    Shift=    0.000
 Gap=     0.033 Goal=   None    Shift=    0.000
 RMSDP=9.08D-08 MaxDP=1.44D-06 DE=-1.52D-11 OVMax= 3.20D-06

 Cycle  17  Pass 1  IDiag  1:
 E= -535.830461693023     Delta-E=       -0.000000000004 Rises=F Damp=F
 DIIS: error= 1.33D-07 at cycle   7 NSaved=   7.
 NSaved= 7 IEnMin= 7 EnMin= -535.830461693023     IErMin= 7 ErrMin= 1.33D-07
 ErrMax= 1.33D-07  0.00D+00 EMaxC= 1.00D-01 BMatC= 1.81D-12 BMatP= 1.04D-11
 IDIUse=1 WtCom= 1.00D+00 WtEn= 0.00D+00
 Coeff-Com:  0.108D-02-0.330D-02 0.171D-01-0.373D-01-0.115D-01 0.180D+00
 Coeff-Com:  0.853D+00
 Coeff:      0.108D-02-0.330D-02 0.171D-01-0.373D-01-0.115D-01 0.180D+00
 Coeff:      0.853D+00
 Gap=     0.366 Goal=   None    Shift=    0.000
 Gap=     0.033 Goal=   None    Shift=    0.000
 RMSDP=2.13D-08 MaxDP=3.20D-07 DE=-3.64D-12 OVMax= 6.16D-07

 Cycle  18  Pass 1  IDiag  1:
 E= -535.830461693023     Delta-E=       -0.000000000001 Rises=F Damp=F
 DIIS: error= 2.34D-08 at cycle   8 NSaved=   8.
 NSaved= 8 IEnMin= 8 EnMin= -535.830461693023     IErMin= 8 ErrMin= 2.34D-08
 ErrMax= 2.34D-08  0.00D+00 EMaxC= 1.00D-01 BMatC= 5.72D-14 BMatP= 1.81D-12
 IDIUse=1 WtCom= 1.00D+00 WtEn= 0.00D+00
 Coeff-Com:  0.163D-02-0.137D-02 0.571D-02-0.674D-02-0.292D-01-0.469D-01
 Coeff-Com:  0.176D+00 0.900D+00
 Coeff:      0.163D-02-0.137D-02 0.571D-02-0.674D-02-0.292D-01-0.469D-01
 Coeff:      0.176D+00 0.900D+00
 Gap=     0.366 Goal=   None    Shift=    0.000
 Gap=     0.033 Goal=   None    Shift=    0.000
 RMSDP=6.94D-09 MaxDP=1.13D-07 DE=-5.68D-13 OVMax= 2.27D-07

 SCF Done:  E(UB-LYP) =  -535.830461693     A.U. after   18 cycles
            NFock= 18  Conv=0.69D-08     -V/T= 2.0023
 <Sx>= 0.0000 <Sy>= 0.0000 <Sz>= 1.0000 <S**2>= 2.0041 S= 1.0014
 <L.S>= 0.000000000000E+00
 KE= 5.345994942375D+02 PE=-1.350485369917D+03 EE= 2.414276930277D+02
 Annihilation of the first spin contaminant:
 S**2 before annihilation     2.0041,   after     2.0000
 Leave Link  502 at Wed Oct  7 12:27:18 2020, MaxMem=  2684354560 cpu:              26.1 elap:               2.8
 (Enter /udrive/faculty/rpeverati/g16/g16/l508.exe)
 QCSCF skips out because SCF is already converged.
 Leave Link  508 at Wed Oct  7 12:27:19 2020, MaxMem=  2684354560 cpu:               0.7 elap:               0.5
 (Enter /udrive/faculty/rpeverati/g16/g16/l601.exe)
 Copying SCF densities to generalized density rwf, IOpCl= 1 IROHF=0.

 **********************************************************************

            Population analysis using the SCF density.

 **********************************************************************

 Orbital symmetries:
 Alpha Orbitals:
       Occupied  (A') (A') (A') (A') (A") (A') (A') (A') (A') (A")
                 (A') (A') (A") (A')
       Virtual   (A') (A') (A") (A') (A') (A') (A") (A') (A') (A")
                 (A") (A') (A') (A') (A') (A") (A') (A") (A') (A')
 Beta  Orbitals:
       Occupied  (A') (A') (A') (A') (A") (A') (A') (A') (A') (A')
                 (A") (A')
       Virtual   (A") (A') (A') (A') (A") (A') (A') (A') (A") (A')
                 (A') (A") (A') (A") (A') (A') (A') (A") (A') (A")
                 (A') (A')
 The electronic state is 3-A".
 Alpha  occ. eigenvalues -- -100.75178 -18.93219  -9.19777  -7.03032  -7.02204
 Alpha  occ. eigenvalues --   -7.02065  -0.94011  -0.76277  -0.47443  -0.38237
 Alpha  occ. eigenvalues --   -0.35363  -0.30653  -0.30144  -0.29797
 Alpha virt. eigenvalues --    0.06841   0.34096   0.38577   0.39430   0.40845
 Alpha virt. eigenvalues --    0.56253   0.70945   0.73476   0.78101   0.78229
 Alpha virt. eigenvalues --    0.79174   0.80735   0.86066   0.98051   1.22365
 Alpha virt. eigenvalues --    1.60683   1.63355   1.63743   1.68077   2.01869
  Beta  occ. eigenvalues -- -100.74843 -18.89797  -9.19471  -7.02386  -7.01825
  Beta  occ. eigenvalues --   -7.01816  -0.86050  -0.73794  -0.44136  -0.30136
  Beta  occ. eigenvalues --   -0.29447  -0.28453
  Beta virt. eigenvalues --   -0.25134  -0.23990   0.08221   0.34959   0.39513
  Beta virt. eigenvalues --    0.40086   0.42284   0.58295   0.75883   0.76188
  Beta virt. eigenvalues --    0.79687   0.79714   0.83289   0.84987   0.90025
  Beta virt. eigenvalues --    1.01218   1.27276   1.68051   1.71068   1.71578
  Beta virt. eigenvalues --    1.73537   2.06207
          Condensed to atoms (all electrons):
               1          2          3
     1  O    8.152655  -0.046824   0.073586
     2  Cl  -0.046824  17.109973   0.109351
     3  H    0.073586   0.109351   0.465149
          Atomic-Atomic Spin Densities.
               1          2          3
     1  O    1.627498  -0.068972  -0.028858
     2  Cl  -0.068972   0.542969   0.026437
     3  H   -0.028858   0.026437  -0.027681
 Mulliken charges and spin densities:
               1          2
     1  O   -0.179416   1.529669
     2  Cl  -0.172499   0.500433
     3  H    0.351915  -0.030102
 Sum of Mulliken charges =  -0.00000   2.00000
 Mulliken charges and spin densities with hydrogens summed into heavy atoms:
               1          2
     1  O    0.172499   1.499567
     2  Cl  -0.172499   0.500433
 Electronic spatial extent (au):  <R**2>=            163.3906
 Charge=             -0.0000 electrons
 Dipole moment (field-independent basis, Debye):
    X=             -0.7308    Y=              0.4365    Z=             -0.0000  Tot=              0.8512
 Quadrupole moment (field-independent basis, Debye-Ang):
   XX=            -18.6559   YY=            -19.0164   ZZ=            -18.2874
   XY=             -0.5670   XZ=             -0.0000   YZ=             -0.0000
 Traceless Quadrupole moment (field-independent basis, Debye-Ang):
   XX=             -0.0027   YY=             -0.3631   ZZ=              0.3658
   XY=             -0.5670   XZ=             -0.0000   YZ=             -0.0000
 Octapole moment (field-independent basis, Debye-Ang**2):
  XXX=             -0.4080  YYY=              1.2483  ZZZ=             -0.0000  XYY=             -0.8045
  XXY=              1.2993  XXZ=             -0.0000  XZZ=             -0.1037  YZZ=              2.2831
  YYZ=             -0.0000  XYZ=             -0.0000
 Hexadecapole moment (field-independent basis, Debye-Ang**3):
 XXXX=            -19.4100 YYYY=           -152.1261 ZZZZ=            -17.9084 XXXY=              0.4369
 XXXZ=             -0.0000 YYYX=             -0.9822 YYYZ=             -0.0000 ZZZX=             -0.0000
 ZZZY=             -0.0000 XXYY=            -29.6310 XXZZ=             -6.2314 YYZZ=            -27.7917
 XXYZ=             -0.0000 YYXZ=             -0.0000 ZZXY=              0.1831
 N-N= 3.862772095857D+01 E-N=-1.350485370744D+03  KE= 5.345994942375D+02
                          Isotropic Fermi Contact Couplings
        Atom                 a.u.       MegaHertz       Gauss      10(-4) cm-1
     1  O(17)              0.20336     -61.63906     -21.99435     -20.56058
     2  Cl(35)             0.07572      16.59971       5.92319       5.53707
     3  H(1)              -0.01792     -40.06096     -14.29475     -13.36290
 --------------------------------------------------------
       Center         ----  Spin Dipole Couplings  ----
                      3XX-RR        3YY-RR        3ZZ-RR
 --------------------------------------------------------
     1   Atom       -1.920949     -0.034258      1.955207
     2   Atom       -1.195487      1.536491     -0.341005
     3   Atom       -0.050538      0.164678     -0.114140
 --------------------------------------------------------
                        XY            XZ            YZ
 --------------------------------------------------------
     1   Atom       -1.674728      0.000000     -0.000000
     2   Atom        1.402511      0.000000      0.000000
     3   Atom        0.105799      0.000000      0.000000
 --------------------------------------------------------


 ---------------------------------------------------------------------------------
              Anisotropic Spin Dipole Couplings in Principal Axis System
 ---------------------------------------------------------------------------------

       Atom             a.u.   MegaHertz   Gauss  10(-4) cm-1        Axes

              Baa    -2.8997   209.823    74.870    69.990  0.8634  0.5046  0.0000
     1 O(17)  Bbb     0.9445   -68.346   -24.387   -22.798 -0.5046  0.8634  0.0000
              Bcc     1.9552  -141.477   -50.483   -47.192  0.0000  0.0000  1.0000
 
              Baa    -1.7873   -93.543   -33.378   -31.202  0.9213 -0.3888  0.0000
     2 Cl(35) Bbb    -0.3410   -17.847    -6.368    -5.953  0.0000  0.0000  1.0000
              Bcc     2.1283   111.390    39.747    37.156  0.3888  0.9213  0.0000
 
              Baa    -0.1141   -60.900   -21.731   -20.314  0.0000  0.0000  1.0000
     3 H(1)   Bbb    -0.0938   -50.067   -17.865   -16.700  0.9255 -0.3788  0.0000
              Bcc     0.2080   110.967    39.596    37.014  0.3788  0.9255  0.0000
 

 ---------------------------------------------------------------------------------

 No NMR shielding tensors so no spin-rotation constants.
 Leave Link  601 at Wed Oct  7 12:27:20 2020, MaxMem=  2684354560 cpu:               6.5 elap:               1.0
 (Enter /udrive/faculty/rpeverati/g16/g16/l701.exe)
 ... and contract with generalized density number  0.
 Compute integral first derivatives.
 R6Disp: Adding Grimme-D3(BJ) dispersion energy 1st derivatives to the gradient.
 Leave Link  701 at Wed Oct  7 12:27:21 2020, MaxMem=  2684354560 cpu:               3.9 elap:               0.8
 (Enter /udrive/faculty/rpeverati/g16/g16/l702.exe)
 L702 exits ... SP integral derivatives will be done elsewhere.
 Leave Link  702 at Wed Oct  7 12:27:22 2020, MaxMem=  2684354560 cpu:               2.0 elap:               0.6
 (Enter /udrive/faculty/rpeverati/g16/g16/l703.exe)
 Integral derivatives from FoFJK, PRISM(SPDF).
 Compute integral first derivatives, UseDBF=F ICtDFT=           0.
 Calling FoFJK, ICntrl=      2527 FMM=F ISym2X=1 I1Cent= 0 IOpClX= 0 NMat=1 NMatS=1 NMatT=0.
 FoFJK:  IHMeth= 1 ICntrl=    2527 DoSepK=F KAlg= 0 I1Cent=           0 FoldK=F
 IRaf=         0 NMat=       1 IRICut=       1 DoRegI=T DoRafI=F ISym2E= 1 IDoP0=0 IntGTp=1.
 FoFCou: FMM=F IPFlag=           0 FMFlag=      100000 FMFlg1=         800
         NFxFlg=           0 DoJE=F BraDBF=F KetDBF=F FulRan=T
         wScrn=  0.000000 ICntrl=      2527 IOpCl=  0 I1Cent=           0 NGrid=           0
         NMat0=    1 NMatS0=      1 NMatT0=    0 NMatD0=    1 NMtDS0=    0 NMtDT0=    0
 Petite list used in FoFCou.
 Leave Link  703 at Wed Oct  7 12:27:23 2020, MaxMem=  2684354560 cpu:               7.1 elap:               1.0
 (Enter /udrive/faculty/rpeverati/g16/g16/l716.exe)
 Dipole        =-2.87507314D-01 1.71731353D-01-1.16663612D-32
 ***** Axes restored to original set *****
 -------------------------------------------------------------------
 Center     Atomic                   Forces (Hartrees/Bohr)
 Number     Number              X              Y              Z
 -------------------------------------------------------------------
      1        8           0.002141544    0.000000000    0.007624158
      2       17          -0.008144844    0.000000000    0.020258423
      3        1           0.006003299   -0.000000000   -0.027882581
 -------------------------------------------------------------------
 Cartesian Forces:  Max     0.027882581 RMS     0.012260751
 Leave Link  716 at Wed Oct  7 12:27:24 2020, MaxMem=  2684354560 cpu:               1.9 elap:               0.6
 (Enter /udrive/faculty/rpeverati/g16/g16/l103.exe)

 GradGradGradGradGradGradGradGradGradGradGradGradGradGradGradGradGradGrad
 Berny optimization.
 Optmz: redundant internal coordinate code flag= 1
 FormGI is forming the generalized inverse of G from B-inverse, IUseBI=4.
 Internal  Forces:  Max     0.018915101 RMS     0.011294464
 Numerically estimating second derivatives.
 Iteration  1 RMS(Cart)=  0.00133880 RMS(Int)=  0.00132173
 Iteration  2 RMS(Cart)=  0.00000023 RMS(Int)=  0.00132173
 Largest change from initial coordinates is atom    1       0.000 Angstoms.
 GradGradGradGradGradGradGradGradGradGradGradGradGradGradGradGradGradGrad

 Leave Link  103 at Wed Oct  7 12:27:25 2020, MaxMem=  2684354560 cpu:               2.3 elap:               0.6
 (Enter /udrive/faculty/rpeverati/g16/g16/l202.exe)
                          Input orientation:                          
 ---------------------------------------------------------------------
 Center     Atomic      Atomic             Coordinates (Angstroms)
 Number     Number       Type             X           Y           Z
 ---------------------------------------------------------------------
      1          8           0        0.000194   -0.000000   -0.000964
      2         17           0        0.000161    0.000000    2.483827
      3          1           0        0.488960   -0.000000    1.096125
 ---------------------------------------------------------------------
                    Distance matrix (angstroms):
                    1          2          3
     1  O    0.000000
     2  Cl   2.484790   0.000000
     3  H    1.201039   1.471272   0.000000
 Stoichiometry    ClHO(3)
 Framework group  CS[SG(ClHO)]
 Deg. of freedom     3
 Full point group                 CS      NOp   2
 RotChk:  IX=0 Diff= 1.89D-05
 Largest Abelian subgroup         CS      NOp   2
 Largest concise Abelian subgroup C1      NOp   1
                         Standard orientation:                         
 ---------------------------------------------------------------------
 Center     Atomic      Atomic             Coordinates (Angstroms)
 Number     Number       Type             X           Y           Z
 ---------------------------------------------------------------------
      1          8           0        0.018799    1.666866   -0.000000
      2         17           0        0.018799   -0.817924   -0.000000
      3          1           0       -0.469981    0.569784    0.000000
 ---------------------------------------------------------------------
 Rotational constants (GHZ):        2152.0462758           7.4181177           7.3926353
 Leave Link  202 at Wed Oct  7 12:27:26 2020, MaxMem=  2684354560 cpu:               1.1 elap:               0.4
 (Enter /udrive/faculty/rpeverati/g16/g16/l301.exe)
 Standard basis: 6-31G(d) (5D, 7F)
 Ernie: Thresh=  0.10000D-02 Tol=  0.10000D-05 Strict=F.
 There are    27 symmetry adapted cartesian basis functions of A'  symmetry.
 There are     9 symmetry adapted cartesian basis functions of A"  symmetry.
 There are    25 symmetry adapted basis functions of A'  symmetry.
 There are     9 symmetry adapted basis functions of A"  symmetry.
    34 basis functions,    84 primitive gaussians,    36 cartesian basis functions
    14 alpha electrons       12 beta electrons
       nuclear repulsion energy        38.6026935991 Hartrees.
 IExCor=  402 DFT=T Ex=B Corr=LYP ExCW=0 ScaHFX=  0.000000
 ScaDFX=  1.000000  1.000000  1.000000  1.000000 ScalE2=  1.000000  1.000000
 IRadAn=      5 IRanWt=     -1 IRanGd=            0 ICorTp=0 IEmpDi=141
 NAtoms=    3 NActive=    3 NUniq=    3 SFac= 1.00D+00 NAtFMM=   60 NAOKFM=F Big=F
 Integral buffers will be    131072 words long.
 Raffenetti 2 integral format.
 Two-electron integral symmetry is turned on.
 R6Disp:  Grimme-D3(BJ) Dispersion energy=       -0.0020939483 Hartrees.
 Nuclear repulsion after empirical dispersion term =       38.6005996508 Hartrees.
 Leave Link  301 at Wed Oct  7 12:27:27 2020, MaxMem=  2684354560 cpu:               2.7 elap:               0.8
 (Enter /udrive/faculty/rpeverati/g16/g16/l302.exe)
 NPDir=0 NMtPBC=     1 NCelOv=     1 NCel=       1 NClECP=     1 NCelD=      1
         NCelK=      1 NCelE2=     1 NClLst=     1 CellRange=     0.0.
 One-electron integrals computed using PRISM.
 One-electron integral symmetry used in STVInt
 NBasis=    34 RedAO= T EigKep=  3.39D-02  NBF=    25     9
 NBsUse=    34 1.00D-06 EigRej= -1.00D+00 NBFU=    25     9
 Precomputing XC quadrature grid using
 IXCGrd= 4 IRadAn=           5 IRanWt=          -1 IRanGd=           0 AccXCQ= 0.00D+00.
 Generated NRdTot=       0 NPtTot=           0 NUsed=           0 NTot=          32
 NSgBfM=    36    36    36    36    36 MxSgAt=     3 MxSgA2=     3.
 Leave Link  302 at Wed Oct  7 12:27:28 2020, MaxMem=  2684354560 cpu:               3.5 elap:               0.7
 (Enter /udrive/faculty/rpeverati/g16/g16/l303.exe)
 DipDrv:  MaxL=1.
 Leave Link  303 at Wed Oct  7 12:27:28 2020, MaxMem=  2684354560 cpu:               2.0 elap:               0.6
 (Enter /udrive/faculty/rpeverati/g16/g16/l401.exe)
 Initial guess from the checkpoint file:  "MN_91_RKT17_BH76_BLYPDBJ_631Gs.chk"
 SCF N**3 symmetry information disabled.
 B after Tr=     0.000000    0.000000    0.000000
         Rot=    1.000000   -0.000000    0.000000    0.000007 Ang=   0.00 deg.
 Guess basis will be translated and rotated to current coordinates.
 JPrj=2 DoOrth=T DoCkMO=T.
 Initial guess orbital symmetries:
 Alpha Orbitals:
       Occupied  (A') (A') (A') (A') (A") (A') (A') (A') (A') (A")
                 (A') (A') (A") (A')
       Virtual   (A') (A') (A") (A') (A') (A') (A") (A') (A') (A")
                 (A") (A') (A') (A') (A') (A") (A') (A") (A') (A')
 Beta  Orbitals:
       Occupied  (A') (A') (A') (A') (A") (A') (A') (A') (A') (A')
                 (A") (A')
       Virtual   (A") (A') (A') (A') (A") (A') (A') (A') (A") (A')
                 (A') (A") (A') (A") (A') (A') (A') (A") (A') (A")
                 (A') (A')
 The electronic state of the initial guess is 3-A".
 Initial guess <Sx>= 0.0000 <Sy>= 0.0000 <Sz>= 1.0000 <S**2>= 2.0041 S= 1.0014
 Generating alternative initial guess.
 ExpMin= 1.43D-01 ExpMax= 2.52D+04 ExpMxC= 3.78D+03 IAcc=2 IRadAn=         4 AccDes= 0.00D+00
 Harris functional with IExCor=  402 and IRadAn=       4 diagonalized for initial guess.
 HarFok:  IExCor=  402 AccDes= 0.00D+00 IRadAn=         4 IDoV= 1 UseB2=F ITyADJ=14
 ICtDFT=  3500011 ScaDFX=  1.000000  1.000000  1.000000  1.000000
 FoFCou: FMM=F IPFlag=           0 FMFlag=      100000 FMFlg1=           0
         NFxFlg=           0 DoJE=T BraDBF=F KetDBF=T FulRan=T
         wScrn=  0.000000 ICntrl=       500 IOpCl=  0 I1Cent=   200000004 NGrid=           0
         NMat0=    1 NMatS0=      1 NMatT0=    0 NMatD0=    1 NMtDS0=    0 NMtDT0=    0
 Petite list used in FoFCou.
 Harris En= -535.768995741898    
 Leave Link  401 at Wed Oct  7 12:27:30 2020, MaxMem=  2684354560 cpu:               4.7 elap:               0.9
 (Enter /udrive/faculty/rpeverati/g16/g16/l502.exe)
 Keep J ints in memory in symmetry-blocked form, NReq=10531413.
 FoFCou: FMM=F IPFlag=           0 FMFlag=           0 FMFlg1=           0
         NFxFlg=           0 DoJE=F BraDBF=F KetDBF=F FulRan=T
         wScrn=  0.000000 ICntrl=       600 IOpCl=  0 I1Cent=           0 NGrid=           0
         NMat0=    1 NMatS0=    595 NMatT0=    0 NMatD0=    1 NMtDS0=    0 NMtDT0=    0
 Petite list used in FoFCou.
 UHF open shell SCF:
 Using DIIS extrapolation, IDIIS=  1040.
 NGot=  2684354560 LenX=  2684255249 LenY=  2684253512
 Requested convergence on RMS density matrix=1.00D-08 within 120 cycles.
 Requested convergence on MAX density matrix=1.00D-06.
 Requested convergence on             energy=1.00D-06.
 No special actions if energy rises.
 Integral accuracy reduced to 1.0D-05 until final iterations.

 Cycle   1  Pass 0  IDiag  1:
 E= -535.830474180518    
 DIIS: error= 6.77D-05 at cycle   1 NSaved=   1.
 NSaved= 1 IEnMin= 1 EnMin= -535.830474180518     IErMin= 1 ErrMin= 6.77D-05
 ErrMax= 6.77D-05  0.00D+00 EMaxC= 1.00D-01 BMatC= 5.73D-07 BMatP= 5.73D-07
 IDIUse=1 WtCom= 1.00D+00 WtEn= 0.00D+00
 Coeff-Com:  0.100D+01
 Coeff:      0.100D+01
 Gap=     0.366 Goal=   None    Shift=    0.000
 Gap=     0.033 Goal=   None    Shift=    0.000
 RMSDP=4.70D-05 MaxDP=4.52D-04              OVMax= 1.13D-03

 Cycle   2  Pass 0  IDiag  1:
 E= -535.830473965274     Delta-E=        0.000000215244 Rises=F Damp=F
 DIIS: error= 1.31D-04 at cycle   2 NSaved=   2.
 NSaved= 2 IEnMin= 1 EnMin= -535.830474180518     IErMin= 1 ErrMin= 6.77D-05
 ErrMax= 1.31D-04  0.00D+00 EMaxC= 1.00D-01 BMatC= 1.75D-06 BMatP= 5.73D-07
 IDIUse=3 WtCom= 4.66D-01 WtEn= 5.34D-01
 Coeff-Com:  0.738D+00 0.262D+00
 Coeff-En:   0.674D+00 0.326D+00
 Coeff:      0.704D+00 0.296D+00
 Gap=     0.366 Goal=   None    Shift=    0.000
 Gap=     0.033 Goal=   None    Shift=    0.000
 RMSDP=6.32D-05 MaxDP=9.35D-04 DE= 2.15D-07 OVMax= 2.19D-03

 Cycle   3  Pass 0  IDiag  1:
 E= -535.830472637970     Delta-E=        0.000001327304 Rises=F Damp=F
 DIIS: error= 2.38D-04 at cycle   3 NSaved=   3.
 NSaved= 3 IEnMin= 1 EnMin= -535.830474180518     IErMin= 1 ErrMin= 6.77D-05
 ErrMax= 2.38D-04  0.00D+00 EMaxC= 1.00D-01 BMatC= 5.92D-06 BMatP= 5.73D-07
 IDIUse=3 WtCom= 3.93D-01 WtEn= 6.07D-01
 Coeff-Com:  0.539D-01 0.615D+00 0.332D+00
 Coeff-En:   0.000D+00 0.665D+00 0.335D+00
 Coeff:      0.212D-01 0.645D+00 0.334D+00
 Gap=     0.366 Goal=   None    Shift=    0.000
 Gap=     0.033 Goal=   None    Shift=    0.000
 RMSDP=3.61D-05 MaxDP=5.30D-04 DE= 1.33D-06 OVMax= 1.18D-03

 Cycle   4  Pass 0  IDiag  1:
 E= -535.830474498961     Delta-E=       -0.000001860991 Rises=F Damp=F
 DIIS: error= 3.02D-05 at cycle   4 NSaved=   4.
 NSaved= 4 IEnMin= 4 EnMin= -535.830474498961     IErMin= 4 ErrMin= 3.02D-05
 ErrMax= 3.02D-05  0.00D+00 EMaxC= 1.00D-01 BMatC= 9.75D-08 BMatP= 5.73D-07
 IDIUse=1 WtCom= 1.00D+00 WtEn= 0.00D+00
 Coeff-Com: -0.858D-02 0.285D+00 0.736D-01 0.650D+00
 Coeff:     -0.858D-02 0.285D+00 0.736D-01 0.650D+00
 Gap=     0.366 Goal=   None    Shift=    0.000
 Gap=     0.033 Goal=   None    Shift=    0.000
 RMSDP=5.87D-06 MaxDP=6.78D-05 DE=-1.86D-06 OVMax= 1.77D-04

 Initial convergence to 1.0D-05 achieved.  Increase integral accuracy.
 Cycle   5  Pass 1  IDiag  1:
 E= -535.830476669841     Delta-E=       -0.000002170879 Rises=F Damp=F
 DIIS: error= 2.02D-06 at cycle   1 NSaved=   1.
 NSaved= 1 IEnMin= 1 EnMin= -535.830476669841     IErMin= 1 ErrMin= 2.02D-06
 ErrMax= 2.02D-06  0.00D+00 EMaxC= 1.00D-01 BMatC= 6.62D-10 BMatP= 6.62D-10
 IDIUse=1 WtCom= 1.00D+00 WtEn= 0.00D+00
 Coeff-Com:  0.100D+01
 Coeff:      0.100D+01
 Gap=     0.366 Goal=   None    Shift=    0.000
 Gap=     0.033 Goal=   None    Shift=    0.000
 RMSDP=5.87D-06 MaxDP=6.78D-05 DE=-2.17D-06 OVMax= 8.52D-05

 Cycle   6  Pass 1  IDiag  1:
 E= -535.830476666282     Delta-E=        0.000000003559 Rises=F Damp=F
 DIIS: error= 1.07D-05 at cycle   2 NSaved=   2.
 NSaved= 2 IEnMin= 1 EnMin= -535.830476669841     IErMin= 1 ErrMin= 2.02D-06
 ErrMax= 1.07D-05  0.00D+00 EMaxC= 1.00D-01 BMatC= 1.19D-08 BMatP= 6.62D-10
 IDIUse=1 WtCom= 1.00D+00 WtEn= 0.00D+00
 Coeff-Com:  0.870D+00 0.130D+00
 Coeff:      0.870D+00 0.130D+00
 Gap=     0.366 Goal=   None    Shift=    0.000
 Gap=     0.033 Goal=   None    Shift=    0.000
 RMSDP=2.32D-06 MaxDP=3.39D-05 DE= 3.56D-09 OVMax= 7.87D-05

 Cycle   7  Pass 1  IDiag  1:
 E= -535.830476669957     Delta-E=       -0.000000003675 Rises=F Damp=F
 DIIS: error= 2.71D-06 at cycle   3 NSaved=   3.
 NSaved= 3 IEnMin= 3 EnMin= -535.830476669957     IErMin= 1 ErrMin= 2.02D-06
 ErrMax= 2.71D-06  0.00D+00 EMaxC= 1.00D-01 BMatC= 8.70D-10 BMatP= 6.62D-10
 IDIUse=1 WtCom= 1.00D+00 WtEn= 0.00D+00
 Coeff-Com:  0.152D+00 0.187D+00 0.661D+00
 Coeff:      0.152D+00 0.187D+00 0.661D+00
 Gap=     0.366 Goal=   None    Shift=    0.000
 Gap=     0.033 Goal=   None    Shift=    0.000
 RMSDP=4.37D-07 MaxDP=6.52D-06 DE=-3.68D-09 OVMax= 1.51D-05

 Cycle   8  Pass 1  IDiag  1:
 E= -535.830476670196     Delta-E=       -0.000000000239 Rises=F Damp=F
 DIIS: error= 8.86D-07 at cycle   4 NSaved=   4.
 NSaved= 4 IEnMin= 4 EnMin= -535.830476670196     IErMin= 4 ErrMin= 8.86D-07
 ErrMax= 8.86D-07  0.00D+00 EMaxC= 1.00D-01 BMatC= 8.43D-11 BMatP= 6.62D-10
 IDIUse=1 WtCom= 1.00D+00 WtEn= 0.00D+00
 Coeff-Com: -0.961D-01 0.944D-01 0.178D+00 0.824D+00
 Coeff:     -0.961D-01 0.944D-01 0.178D+00 0.824D+00
 Gap=     0.366 Goal=   None    Shift=    0.000
 Gap=     0.033 Goal=   None    Shift=    0.000
 RMSDP=2.69D-07 MaxDP=3.71D-06 DE=-2.39D-10 OVMax= 8.36D-06

 Cycle   9  Pass 1  IDiag  1:
 E= -535.830476670231     Delta-E=       -0.000000000034 Rises=F Damp=F
 DIIS: error= 1.16D-07 at cycle   5 NSaved=   5.
 NSaved= 5 IEnMin= 5 EnMin= -535.830476670231     IErMin= 5 ErrMin= 1.16D-07
 ErrMax= 1.16D-07  0.00D+00 EMaxC= 1.00D-01 BMatC= 1.82D-12 BMatP= 8.43D-11
 IDIUse=1 WtCom= 1.00D+00 WtEn= 0.00D+00
 Coeff-Com: -0.269D-01-0.100D-01-0.664D-01 0.718D-01 0.103D+01
 Coeff:     -0.269D-01-0.100D-01-0.664D-01 0.718D-01 0.103D+01
 Gap=     0.366 Goal=   None    Shift=    0.000
 Gap=     0.033 Goal=   None    Shift=    0.000
 RMSDP=9.27D-08 MaxDP=1.33D-06 DE=-3.43D-11 OVMax= 3.09D-06

 Cycle  10  Pass 1  IDiag  1:
 E= -535.830476670232     Delta-E=       -0.000000000001 Rises=F Damp=F
 DIIS: error= 4.79D-08 at cycle   6 NSaved=   6.
 NSaved= 6 IEnMin= 6 EnMin= -535.830476670232     IErMin= 6 ErrMin= 4.79D-08
 ErrMax= 4.79D-08  0.00D+00 EMaxC= 1.00D-01 BMatC= 4.87D-13 BMatP= 1.82D-12
 IDIUse=1 WtCom= 1.00D+00 WtEn= 0.00D+00
 Coeff-Com: -0.204D-02-0.132D-01-0.511D-01-0.581D-01 0.447D+00 0.678D+00
 Coeff:     -0.204D-02-0.132D-01-0.511D-01-0.581D-01 0.447D+00 0.678D+00
 Gap=     0.366 Goal=   None    Shift=    0.000
 Gap=     0.033 Goal=   None    Shift=    0.000
 RMSDP=2.57D-08 MaxDP=4.79D-07 DE=-1.25D-12 OVMax= 8.92D-07

 Cycle  11  Pass 1  IDiag  1:
 E= -535.830476670233     Delta-E=       -0.000000000001 Rises=F Damp=F
 DIIS: error= 3.16D-08 at cycle   7 NSaved=   7.
 NSaved= 7 IEnMin= 7 EnMin= -535.830476670233     IErMin= 7 ErrMin= 3.16D-08
 ErrMax= 3.16D-08  0.00D+00 EMaxC= 1.00D-01 BMatC= 1.05D-13 BMatP= 4.87D-13
 IDIUse=1 WtCom= 1.00D+00 WtEn= 0.00D+00
 Coeff-Com:  0.340D-03-0.358D-02-0.396D-02-0.110D-01 0.509D-01 0.124D+00
 Coeff-Com:  0.843D+00
 Coeff:      0.340D-03-0.358D-02-0.396D-02-0.110D-01 0.509D-01 0.124D+00
 Coeff:      0.843D+00
 Gap=     0.366 Goal=   None    Shift=    0.000
 Gap=     0.033 Goal=   None    Shift=    0.000
 RMSDP=6.60D-09 MaxDP=8.67D-08 DE=-1.25D-12 OVMax= 2.09D-07

 SCF Done:  E(UB-LYP) =  -535.830476670     A.U. after   11 cycles
            NFock= 11  Conv=0.66D-08     -V/T= 2.0023
 <Sx>= 0.0000 <Sy>= 0.0000 <Sz>= 1.0000 <S**2>= 2.0041 S= 1.0014
 <L.S>= 0.000000000000E+00
 KE= 5.345978915707D+02 PE=-1.350430266071D+03 EE= 2.414012981787D+02
 Annihilation of the first spin contaminant:
 S**2 before annihilation     2.0041,   after     2.0000
 Leave Link  502 at Wed Oct  7 12:27:32 2020, MaxMem=  2684354560 cpu:              19.8 elap:               2.2
 (Enter /udrive/faculty/rpeverati/g16/g16/l508.exe)
 QCSCF skips out because SCF is already converged.
 Leave Link  508 at Wed Oct  7 12:27:33 2020, MaxMem=  2684354560 cpu:               0.6 elap:               0.5
 (Enter /udrive/faculty/rpeverati/g16/g16/l701.exe)
 ... and contract with generalized density number  0.
 Compute integral first derivatives.
 R6Disp: Adding Grimme-D3(BJ) dispersion energy 1st derivatives to the gradient.
 Leave Link  701 at Wed Oct  7 12:27:34 2020, MaxMem=  2684354560 cpu:               3.8 elap:               0.8
 (Enter /udrive/faculty/rpeverati/g16/g16/l702.exe)
 L702 exits ... SP integral derivatives will be done elsewhere.
 Leave Link  702 at Wed Oct  7 12:27:35 2020, MaxMem=  2684354560 cpu:               2.1 elap:               0.7
 (Enter /udrive/faculty/rpeverati/g16/g16/l703.exe)
 Integral derivatives from FoFJK, PRISM(SPDF).
 Compute integral first derivatives, UseDBF=F ICtDFT=           0.
 Calling FoFJK, ICntrl=      2527 FMM=F ISym2X=1 I1Cent= 0 IOpClX= 0 NMat=1 NMatS=1 NMatT=0.
 FoFJK:  IHMeth= 1 ICntrl=    2527 DoSepK=F KAlg= 0 I1Cent=           0 FoldK=F
 IRaf=         0 NMat=       1 IRICut=       1 DoRegI=T DoRafI=F ISym2E= 1 IDoP0=0 IntGTp=1.
 FoFCou: FMM=F IPFlag=           0 FMFlag=      100000 FMFlg1=         800
         NFxFlg=           0 DoJE=F BraDBF=F KetDBF=F FulRan=T
         wScrn=  0.000000 ICntrl=      2527 IOpCl=  0 I1Cent=           0 NGrid=           0
         NMat0=    1 NMatS0=      1 NMatT0=    0 NMatD0=    1 NMtDS0=    0 NMtDT0=    0
 Petite list used in FoFCou.
 Leave Link  703 at Wed Oct  7 12:27:36 2020, MaxMem=  2684354560 cpu:               6.9 elap:               1.1
 (Enter /udrive/faculty/rpeverati/g16/g16/l716.exe)
 Dipole        =-2.87204649D-01 1.72814761D-01 2.41033001D-30
 ***** Axes restored to original set *****
 -------------------------------------------------------------------
 Center     Atomic                   Forces (Hartrees/Bohr)
 Number     Number              X              Y              Z
 -------------------------------------------------------------------
      1        8           0.002191877   -0.000000000    0.007836056
      2       17          -0.008052152    0.000000000    0.019946172
      3        1           0.005860276   -0.000000000   -0.027782228
 -------------------------------------------------------------------
 Cartesian Forces:  Max     0.027782228 RMS     0.012179628
 Leave Link  716 at Wed Oct  7 12:27:37 2020, MaxMem=  2684354560 cpu:               2.3 elap:               0.6
 (Enter /udrive/faculty/rpeverati/g16/g16/l103.exe)

 GradGradGradGradGradGradGradGradGradGradGradGradGradGradGradGradGradGrad
 Berny optimization.
 Optmz: redundant internal coordinate code flag= 1
 Red2BG:  D1=  1.15D+00 OD1=  1.09D-04 B2RMS=  0.00D+00 IAprox=0
 FormGI is forming the generalized inverse of G from B-inverse, IUseBI=4.
 Internal  Forces:  Max     0.018738932 RMS     0.011218372
 Numerically estimating second derivatives.
 Iteration  1 RMS(Cart)=  0.00137598 RMS(Int)=  0.00124610
 Iteration  2 RMS(Cart)=  0.00000081 RMS(Int)=  0.00124610
 Largest change from initial coordinates is atom    3       0.001 Angstoms.
 GradGradGradGradGradGradGradGradGradGradGradGradGradGradGradGradGradGrad

 Leave Link  103 at Wed Oct  7 12:27:38 2020, MaxMem=  2684354560 cpu:               2.4 elap:               0.6
 (Enter /udrive/faculty/rpeverati/g16/g16/l202.exe)
                          Input orientation:                          
 ---------------------------------------------------------------------
 Center     Atomic      Atomic             Coordinates (Angstroms)
 Number     Number       Type             X           Y           Z
 ---------------------------------------------------------------------
      1          8           0       -0.000157   -0.000000    0.000114
      2         17           0       -0.000450    0.000000    2.483695
      3          1           0        0.489922   -0.000000    1.095179
 ---------------------------------------------------------------------
                    Distance matrix (angstroms):
                    1          2          3
     1  O    0.000000
     2  Cl   2.483581   0.000000
     3  H    1.199727   1.472563   0.000000
 Stoichiometry    ClHO(3)
 Framework group  CS[SG(ClHO)]
 Deg. of freedom     3
 Full point group                 CS      NOp   2
 RotChk:  IX=0 Diff= 1.48D-04
 Largest Abelian subgroup         CS      NOp   2
 Largest concise Abelian subgroup C1      NOp   1
                         Standard orientation:                         
 ---------------------------------------------------------------------
 Center     Atomic      Atomic             Coordinates (Angstroms)
 Number     Number       Type             X           Y           Z
 ---------------------------------------------------------------------
      1          8           0        0.018854    1.665996   -0.000000
      2         17           0        0.018854   -0.817585    0.000000
      3          1           0       -0.471354    0.570988    0.000000
 ---------------------------------------------------------------------
 Rotational constants (GHZ):        2139.5811749           7.4251397           7.3994609
 Leave Link  202 at Wed Oct  7 12:27:39 2020, MaxMem=  2684354560 cpu:               1.9 elap:               0.5
 (Enter /udrive/faculty/rpeverati/g16/g16/l301.exe)
 Standard basis: 6-31G(d) (5D, 7F)
 Ernie: Thresh=  0.10000D-02 Tol=  0.10000D-05 Strict=F.
 There are    27 symmetry adapted cartesian basis functions of A'  symmetry.
 There are     9 symmetry adapted cartesian basis functions of A"  symmetry.
 There are    25 symmetry adapted basis functions of A'  symmetry.
 There are     9 symmetry adapted basis functions of A"  symmetry.
    34 basis functions,    84 primitive gaussians,    36 cartesian basis functions
    14 alpha electrons       12 beta electrons
       nuclear repulsion energy        38.6152894694 Hartrees.
 IExCor=  402 DFT=T Ex=B Corr=LYP ExCW=0 ScaHFX=  0.000000
 ScaDFX=  1.000000  1.000000  1.000000  1.000000 ScalE2=  1.000000  1.000000
 IRadAn=      5 IRanWt=     -1 IRanGd=            0 ICorTp=0 IEmpDi=141
 NAtoms=    3 NActive=    3 NUniq=    3 SFac= 1.00D+00 NAtFMM=   60 NAOKFM=F Big=F
 Integral buffers will be    131072 words long.
 Raffenetti 2 integral format.
 Two-electron integral symmetry is turned on.
 R6Disp:  Grimme-D3(BJ) Dispersion energy=       -0.0020938634 Hartrees.
 Nuclear repulsion after empirical dispersion term =       38.6131956060 Hartrees.
 Leave Link  301 at Wed Oct  7 12:27:40 2020, MaxMem=  2684354560 cpu:               2.3 elap:               0.6
 (Enter /udrive/faculty/rpeverati/g16/g16/l302.exe)
 NPDir=0 NMtPBC=     1 NCelOv=     1 NCel=       1 NClECP=     1 NCelD=      1
         NCelK=      1 NCelE2=     1 NClLst=     1 CellRange=     0.0.
 One-electron integrals computed using PRISM.
 One-electron integral symmetry used in STVInt
 NBasis=    34 RedAO= T EigKep=  3.40D-02  NBF=    25     9
 NBsUse=    34 1.00D-06 EigRej= -1.00D+00 NBFU=    25     9
 Precomputing XC quadrature grid using
 IXCGrd= 4 IRadAn=           5 IRanWt=          -1 IRanGd=           0 AccXCQ= 0.00D+00.
 Generated NRdTot=       0 NPtTot=           0 NUsed=           0 NTot=          32
 NSgBfM=    36    36    36    36    36 MxSgAt=     3 MxSgA2=     3.
 Leave Link  302 at Wed Oct  7 12:27:41 2020, MaxMem=  2684354560 cpu:               4.2 elap:               0.9
 (Enter /udrive/faculty/rpeverati/g16/g16/l303.exe)
 DipDrv:  MaxL=1.
 Leave Link  303 at Wed Oct  7 12:27:42 2020, MaxMem=  2684354560 cpu:               2.4 elap:               0.7
 (Enter /udrive/faculty/rpeverati/g16/g16/l401.exe)
 Initial guess from the checkpoint file:  "MN_91_RKT17_BH76_BLYPDBJ_631Gs.chk"
 SCF N**3 symmetry information disabled.
 B after Tr=     0.000000    0.000000    0.000000
         Rot=    1.000000    0.000000   -0.000000   -0.000003 Ang=  -0.00 deg.
 Guess basis will be translated and rotated to current coordinates.
 JPrj=2 DoOrth=T DoCkMO=T.
 Initial guess orbital symmetries:
 Alpha Orbitals:
       Occupied  (A') (A') (A') (A') (A") (A') (A') (A') (A') (A")
                 (A') (A') (A") (A')
       Virtual   (A') (A') (A") (A') (A') (A') (A") (A') (A') (A")
                 (A") (A') (A') (A') (A') (A") (A') (A") (A') (A')
 Beta  Orbitals:
       Occupied  (A') (A') (A') (A') (A") (A') (A') (A') (A') (A')
                 (A") (A')
       Virtual   (A") (A') (A') (A') (A") (A') (A') (A') (A") (A')
                 (A') (A") (A') (A") (A') (A') (A') (A") (A') (A")
                 (A') (A')
 The electronic state of the initial guess is 3-A".
 Initial guess <Sx>= 0.0000 <Sy>= 0.0000 <Sz>= 1.0000 <S**2>= 2.0041 S= 1.0014
 Generating alternative initial guess.
 ExpMin= 1.43D-01 ExpMax= 2.52D+04 ExpMxC= 3.78D+03 IAcc=2 IRadAn=         4 AccDes= 0.00D+00
 Harris functional with IExCor=  402 and IRadAn=       4 diagonalized for initial guess.
 HarFok:  IExCor=  402 AccDes= 0.00D+00 IRadAn=         4 IDoV= 1 UseB2=F ITyADJ=14
 ICtDFT=  3500011 ScaDFX=  1.000000  1.000000  1.000000  1.000000
 FoFCou: FMM=F IPFlag=           0 FMFlag=      100000 FMFlg1=           0
         NFxFlg=           0 DoJE=T BraDBF=F KetDBF=T FulRan=T
         wScrn=  0.000000 ICntrl=       500 IOpCl=  0 I1Cent=   200000004 NGrid=           0
         NMat0=    1 NMatS0=      1 NMatT0=    0 NMatD0=    1 NMtDS0=    0 NMtDT0=    0
 Petite list used in FoFCou.
 Harris En= -535.769187974307    
 Leave Link  401 at Wed Oct  7 12:27:43 2020, MaxMem=  2684354560 cpu:               5.6 elap:               0.9
 (Enter /udrive/faculty/rpeverati/g16/g16/l502.exe)
 Keep J ints in memory in symmetry-blocked form, NReq=10531413.
 FoFCou: FMM=F IPFlag=           0 FMFlag=           0 FMFlg1=           0
         NFxFlg=           0 DoJE=F BraDBF=F KetDBF=F FulRan=T
         wScrn=  0.000000 ICntrl=       600 IOpCl=  0 I1Cent=           0 NGrid=           0
         NMat0=    1 NMatS0=    595 NMatT0=    0 NMatD0=    1 NMtDS0=    0 NMtDT0=    0
 Petite list used in FoFCou.
 UHF open shell SCF:
 Using DIIS extrapolation, IDIIS=  1040.
 NGot=  2684354560 LenX=  2684255249 LenY=  2684253512
 Requested convergence on RMS density matrix=1.00D-08 within 120 cycles.
 Requested convergence on MAX density matrix=1.00D-06.
 Requested convergence on             energy=1.00D-06.
 No special actions if energy rises.
 Integral accuracy reduced to 1.0D-05 until final iterations.

 Cycle   1  Pass 0  IDiag  1:
 E= -535.830552463615    
 DIIS: error= 1.42D-04 at cycle   1 NSaved=   1.
 NSaved= 1 IEnMin= 1 EnMin= -535.830552463615     IErMin= 1 ErrMin= 1.42D-04
 ErrMax= 1.42D-04  0.00D+00 EMaxC= 1.00D-01 BMatC= 2.70D-06 BMatP= 2.70D-06
 IDIUse=3 WtCom= 9.99D-01 WtEn= 1.42D-03
 Coeff-Com:  0.100D+01
 Coeff-En:   0.100D+01
 Coeff:      0.100D+01
 Gap=     0.366 Goal=   None    Shift=    0.000
 Gap=     0.033 Goal=   None    Shift=    0.000
 RMSDP=1.48D-04 MaxDP=2.13D-03              OVMax= 4.98D-03

 Cycle   2  Pass 0  IDiag  1:
 E= -535.830539487375     Delta-E=        0.000012976240 Rises=F Damp=F
 DIIS: error= 6.67D-04 at cycle   2 NSaved=   2.
 NSaved= 2 IEnMin= 1 EnMin= -535.830552463615     IErMin= 1 ErrMin= 1.42D-04
 ErrMax= 6.67D-04  0.00D+00 EMaxC= 1.00D-01 BMatC= 4.65D-05 BMatP= 2.70D-06
 IDIUse=3 WtCom= 2.79D-01 WtEn= 7.21D-01
 Coeff-Com:  0.886D+00 0.114D+00
 Coeff-En:   0.899D+00 0.101D+00
 Coeff:      0.895D+00 0.105D+00
 Gap=     0.366 Goal=   None    Shift=    0.000
 Gap=     0.033 Goal=   None    Shift=    0.000
 RMSDP=1.15D-04 MaxDP=1.72D-03 DE= 1.30D-05 OVMax= 3.97D-03

 Cycle   3  Pass 0  IDiag  1:
 E= -535.830554032033     Delta-E=       -0.000014544658 Rises=F Damp=F
 DIIS: error= 3.11D-05 at cycle   3 NSaved=   3.
 NSaved= 3 IEnMin= 3 EnMin= -535.830554032033     IErMin= 3 ErrMin= 3.11D-05
 ErrMax= 3.11D-05  0.00D+00 EMaxC= 1.00D-01 BMatC= 1.08D-07 BMatP= 2.70D-06
 IDIUse=1 WtCom= 1.00D+00 WtEn= 0.00D+00
 Coeff-Com:  0.703D-01 0.114D-01 0.918D+00
 Coeff:      0.703D-01 0.114D-01 0.918D+00
 Gap=     0.366 Goal=   None    Shift=    0.000
 Gap=     0.033 Goal=   None    Shift=    0.000
 RMSDP=1.47D-05 MaxDP=1.49D-04 DE=-1.45D-05 OVMax= 3.62D-04

 Cycle   4  Pass 0  IDiag  1:
 E= -535.830553958203     Delta-E=        0.000000073830 Rises=F Damp=F
 DIIS: error= 5.45D-05 at cycle   4 NSaved=   4.
 NSaved= 4 IEnMin= 3 EnMin= -535.830554032033     IErMin= 3 ErrMin= 3.11D-05
 ErrMax= 5.45D-05  0.00D+00 EMaxC= 1.00D-01 BMatC= 3.21D-07 BMatP= 1.08D-07
 IDIUse=1 WtCom= 1.00D+00 WtEn= 0.00D+00
 Coeff-Com: -0.343D-02-0.420D-01 0.456D+00 0.589D+00
 Coeff:     -0.343D-02-0.420D-01 0.456D+00 0.589D+00
 Gap=     0.366 Goal=   None    Shift=    0.000
 Gap=     0.033 Goal=   None    Shift=    0.000
 RMSDP=9.81D-06 MaxDP=1.24D-04 DE= 7.38D-08 OVMax= 3.07D-04

 Initial convergence to 1.0D-05 achieved.  Increase integral accuracy.
 Cycle   5  Pass 1  IDiag  1:
 E= -535.830555885608     Delta-E=       -0.000001927405 Rises=F Damp=F
 DIIS: error= 5.26D-06 at cycle   1 NSaved=   1.
 NSaved= 1 IEnMin= 1 EnMin= -535.830555885608     IErMin= 1 ErrMin= 5.26D-06
 ErrMax= 5.26D-06  0.00D+00 EMaxC= 1.00D-01 BMatC= 2.79D-09 BMatP= 2.79D-09
 IDIUse=1 WtCom= 1.00D+00 WtEn= 0.00D+00
 Coeff-Com:  0.100D+01
 Coeff:      0.100D+01
 Gap=     0.366 Goal=   None    Shift=    0.000
 Gap=     0.033 Goal=   None    Shift=    0.000
 RMSDP=9.81D-06 MaxDP=1.24D-04 DE=-1.93D-06 OVMax= 2.15D-04

 Cycle   6  Pass 1  IDiag  1:
 E= -535.830555852280     Delta-E=        0.000000033328 Rises=F Damp=F
 DIIS: error= 3.23D-05 at cycle   2 NSaved=   2.
 NSaved= 2 IEnMin= 1 EnMin= -535.830555885608     IErMin= 1 ErrMin= 5.26D-06
 ErrMax= 3.23D-05  0.00D+00 EMaxC= 1.00D-01 BMatC= 1.10D-07 BMatP= 2.79D-09
 IDIUse=1 WtCom= 1.00D+00 WtEn= 0.00D+00
 Coeff-Com:  0.874D+00 0.126D+00
 Coeff:      0.874D+00 0.126D+00
 Gap=     0.366 Goal=   None    Shift=    0.000
 Gap=     0.033 Goal=   None    Shift=    0.000
 RMSDP=6.63D-06 MaxDP=9.76D-05 DE= 3.33D-08 OVMax= 2.27D-04

 Cycle   7  Pass 1  IDiag  1:
 E= -535.830555884902     Delta-E=       -0.000000032623 Rises=F Damp=F
 DIIS: error= 6.84D-06 at cycle   3 NSaved=   3.
 NSaved= 3 IEnMin= 1 EnMin= -535.830555885608     IErMin= 1 ErrMin= 5.26D-06
 ErrMax= 6.84D-06  0.00D+00 EMaxC= 1.00D-01 BMatC= 4.51D-09 BMatP= 2.79D-09
 IDIUse=1 WtCom= 1.00D+00 WtEn= 0.00D+00
 Coeff-Com:  0.331D+00 0.148D+00 0.521D+00
 Coeff:      0.331D+00 0.148D+00 0.521D+00
 Gap=     0.366 Goal=   None    Shift=    0.000
 Gap=     0.033 Goal=   None    Shift=    0.000
 RMSDP=1.25D-06 MaxDP=2.11D-05 DE=-3.26D-08 OVMax= 4.42D-05

 Cycle   8  Pass 1  IDiag  1:
 E= -535.830555886459     Delta-E=       -0.000000001557 Rises=F Damp=F
 DIIS: error= 5.16D-07 at cycle   4 NSaved=   4.
 NSaved= 4 IEnMin= 4 EnMin= -535.830555886459     IErMin= 4 ErrMin= 5.16D-07
 ErrMax= 5.16D-07  0.00D+00 EMaxC= 1.00D-01 BMatC= 2.98D-11 BMatP= 2.79D-09
 IDIUse=1 WtCom= 1.00D+00 WtEn= 0.00D+00
 Coeff-Com: -0.582D-01 0.223D-01 0.121D+00 0.915D+00
 Coeff:     -0.582D-01 0.223D-01 0.121D+00 0.915D+00
 Gap=     0.366 Goal=   None    Shift=    0.000
 Gap=     0.033 Goal=   None    Shift=    0.000
 RMSDP=2.29D-07 MaxDP=3.44D-06 DE=-1.56D-09 OVMax= 7.39D-06

 Cycle   9  Pass 1  IDiag  1:
 E= -535.830555886472     Delta-E=       -0.000000000013 Rises=F Damp=F
 DIIS: error= 1.22D-07 at cycle   5 NSaved=   5.
 NSaved= 5 IEnMin= 5 EnMin= -535.830555886472     IErMin= 5 ErrMin= 1.22D-07
 ErrMax= 1.22D-07  0.00D+00 EMaxC= 1.00D-01 BMatC= 2.74D-12 BMatP= 2.98D-11
 IDIUse=1 WtCom= 1.00D+00 WtEn= 0.00D+00
 Coeff-Com: -0.360D-01-0.106D-01-0.466D-01 0.101D+00 0.992D+00
 Coeff:     -0.360D-01-0.106D-01-0.466D-01 0.101D+00 0.992D+00
 Gap=     0.366 Goal=   None    Shift=    0.000
 Gap=     0.033 Goal=   None    Shift=    0.000
 RMSDP=1.02D-07 MaxDP=1.22D-06 DE=-1.30D-11 OVMax= 3.19D-06

 Cycle  10  Pass 1  IDiag  1:
 E= -535.830555886474     Delta-E=       -0.000000000002 Rises=F Damp=F
 DIIS: error= 5.01D-08 at cycle   6 NSaved=   6.
 NSaved= 6 IEnMin= 6 EnMin= -535.830555886474     IErMin= 6 ErrMin= 5.01D-08
 ErrMax= 5.01D-08  0.00D+00 EMaxC= 1.00D-01 BMatC= 2.96D-13 BMatP= 2.74D-12
 IDIUse=1 WtCom= 1.00D+00 WtEn= 0.00D+00
 Coeff-Com:  0.339D-03-0.472D-02-0.192D-01-0.801D-01 0.187D+00 0.917D+00
 Coeff:      0.339D-03-0.472D-02-0.192D-01-0.801D-01 0.187D+00 0.917D+00
 Gap=     0.366 Goal=   None    Shift=    0.000
 Gap=     0.033 Goal=   None    Shift=    0.000
 RMSDP=2.85D-08 MaxDP=4.88D-07 DE=-2.05D-12 OVMax= 9.30D-07

 Cycle  11  Pass 1  IDiag  1:
 E= -535.830555886474     Delta-E=        0.000000000000 Rises=F Damp=F
 DIIS: error= 1.68D-08 at cycle   7 NSaved=   7.
 NSaved= 7 IEnMin= 6 EnMin= -535.830555886474     IErMin= 7 ErrMin= 1.68D-08
 ErrMax= 1.68D-08  0.00D+00 EMaxC= 1.00D-01 BMatC= 2.83D-14 BMatP= 2.96D-13
 IDIUse=1 WtCom= 1.00D+00 WtEn= 0.00D+00
 Coeff-Com:  0.122D-02-0.168D-03-0.184D-02-0.210D-01-0.143D-01 0.161D+00
 Coeff-Com:  0.875D+00
 Coeff:      0.122D-02-0.168D-03-0.184D-02-0.210D-01-0.143D-01 0.161D+00
 Coeff:      0.875D+00
 Gap=     0.366 Goal=   None    Shift=    0.000
 Gap=     0.033 Goal=   None    Shift=    0.000
 RMSDP=6.34D-09 MaxDP=1.20D-07 DE= 1.14D-13 OVMax= 2.63D-07

 SCF Done:  E(UB-LYP) =  -535.830555886     A.U. after   11 cycles
            NFock= 11  Conv=0.63D-08     -V/T= 2.0023
 <Sx>= 0.0000 <Sy>= 0.0000 <Sz>= 1.0000 <S**2>= 2.0041 S= 1.0014
 <L.S>= 0.000000000000E+00
 KE= 5.345978094976D+02 PE=-1.350455137338D+03 EE= 2.414135763477D+02
 Annihilation of the first spin contaminant:
 S**2 before annihilation     2.0041,   after     2.0000
 Leave Link  502 at Wed Oct  7 12:27:46 2020, MaxMem=  2684354560 cpu:              20.9 elap:               2.3
 (Enter /udrive/faculty/rpeverati/g16/g16/l508.exe)
 QCSCF skips out because SCF is already converged.
 Leave Link  508 at Wed Oct  7 12:27:46 2020, MaxMem=  2684354560 cpu:               0.4 elap:               0.5
 (Enter /udrive/faculty/rpeverati/g16/g16/l701.exe)
 ... and contract with generalized density number  0.
 Compute integral first derivatives.
 R6Disp: Adding Grimme-D3(BJ) dispersion energy 1st derivatives to the gradient.
 Leave Link  701 at Wed Oct  7 12:27:47 2020, MaxMem=  2684354560 cpu:               3.8 elap:               0.7
 (Enter /udrive/faculty/rpeverati/g16/g16/l702.exe)
 L702 exits ... SP integral derivatives will be done elsewhere.
 Leave Link  702 at Wed Oct  7 12:27:48 2020, MaxMem=  2684354560 cpu:               3.3 elap:               0.7
 (Enter /udrive/faculty/rpeverati/g16/g16/l703.exe)
 Integral derivatives from FoFJK, PRISM(SPDF).
 Compute integral first derivatives, UseDBF=F ICtDFT=           0.
 Calling FoFJK, ICntrl=      2527 FMM=F ISym2X=1 I1Cent= 0 IOpClX= 0 NMat=1 NMatS=1 NMatT=0.
 FoFJK:  IHMeth= 1 ICntrl=    2527 DoSepK=F KAlg= 0 I1Cent=           0 FoldK=F
 IRaf=         0 NMat=       1 IRICut=       1 DoRegI=T DoRafI=F ISym2E= 1 IDoP0=0 IntGTp=1.
 FoFCou: FMM=F IPFlag=           0 FMFlag=      100000 FMFlg1=         800
         NFxFlg=           0 DoJE=F BraDBF=F KetDBF=F FulRan=T
         wScrn=  0.000000 ICntrl=      2527 IOpCl=  0 I1Cent=           0 NGrid=           0
         NMat0=    1 NMatS0=      1 NMatT0=    0 NMatD0=    1 NMtDS0=    0 NMtDT0=    0
 Petite list used in FoFCou.
 Leave Link  703 at Wed Oct  7 12:27:50 2020, MaxMem=  2684354560 cpu:               6.9 elap:               1.1
 (Enter /udrive/faculty/rpeverati/g16/g16/l716.exe)
 Dipole        =-2.88087595D-01 1.72115561D-01 1.88951358D-30
 ***** Axes restored to original set *****
 -------------------------------------------------------------------
 Center     Atomic                   Forces (Hartrees/Bohr)
 Number     Number              X              Y              Z
 -------------------------------------------------------------------
      1        8           0.002257941   -0.000000000    0.007911302
      2       17          -0.008056405    0.000000000    0.019950109
      3        1           0.005798465   -0.000000000   -0.027861411
 -------------------------------------------------------------------
 Cartesian Forces:  Max     0.027861411 RMS     0.012204188
 Leave Link  716 at Wed Oct  7 12:27:51 2020, MaxMem=  2684354560 cpu:               2.3 elap:               0.7
 (Enter /udrive/faculty/rpeverati/g16/g16/l103.exe)

 GradGradGradGradGradGradGradGradGradGradGradGradGradGradGradGradGradGrad
 Berny optimization.
 Optmz: redundant internal coordinate code flag= 1
 Red2BG:  D1=  1.15D+00 OD1=  3.59D-04 B2RMS=  0.00D+00 IAprox=0
 FormGI is forming the generalized inverse of G from B-inverse, IUseBI=4.
 Internal  Forces:  Max     0.018761202 RMS     0.011239297
 Search for a saddle point.
 Step number   1 out of a maximum of  100
 All quantities printed in internal units (Hartrees-Bohrs-Radians)
 Swapping is turned off.
 Second derivative matrix not updated -- first step.
 The second derivative matrix:
                          R1        R2        R3        A1
           R1           0.08875
           R2          -0.01416   0.16945
           R3          -0.00773   0.07386   0.07462
           A1          -0.05818  -0.07503   0.02258   0.17704
 ITU=  0
 Eigenvectors of the second derivative matrix:
                           1         2         3
     Eigenvalues --     0.00594   0.06577   0.26046
   1         R1         0.30039  -0.77639  -0.16641
   2         R2         0.54305   0.02895  -0.68672
   3         R3        -0.64506  -0.54953  -0.18323
   4         A1         0.44583  -0.30725   0.68348
 Eigenvalue     1 is   5.94D-03 should be less than     0.000000 Eigenvector:
                          R3        R2        A1        R1
   1                   -0.64506   0.54305   0.44583   0.30039
 RLam0= 2.27D-02.
 Iter=   1 RLamda= 0.00000000D+00 Sum=-1.98106929D-03.
 Iter=   2 RLamda=-1.98106929D-03 Sum=-1.92315600D-03.
 Iter=   3 RLamda=-1.92315600D-03 Sum=-1.92480090D-03.
 Iter=   4 RLamda=-1.92480090D-03 Sum=-1.92475415D-03.
 Iter=   5 RLamda=-1.92475415D-03 Sum=-1.92475547D-03.
 RFO step:  Lambda0=2.268732945D-02 Lambda=-1.92475415D-03.
 Linear search not attempted -- option 19 set.
 Maximum step size (   0.100) exceeded in Quadratic search.
    -- Step size scaled by   0.419
 Iteration  1 RMS(Cart)=  0.03627977 RMS(Int)=  0.00070514
 Iteration  2 RMS(Cart)=  0.00051621 RMS(Int)=  0.00034364
 Iteration  3 RMS(Cart)=  0.00000023 RMS(Int)=  0.00034364
 ITry= 1 IFail=0 DXMaxC= 4.64D-02 DCOld= 1.00D+10 DXMaxT= 1.00D-01 DXLimC= 3.00D+00 Rises=F
 ClnCor:  largest displacement from symmetrization is 3.59D-14 for atom     3.
 Variable       Old X    -DE/DX   Delta X   Delta X   Delta X     New X
                                 (Linear)    (Quad)   (Total)
    R1        4.69197   0.00307   0.00000   0.07624   0.07588   4.76785
    R2        2.26836  -0.01064   0.00000   0.03679   0.03713   2.30549
    R3        2.77898   0.01892   0.00000  -0.00664  -0.00629   2.77269
    A1        2.38252  -0.00546   0.00000   0.05282   0.05313   2.43566
         Item               Value     Threshold  Converged?
 Maximum Force            0.018917     0.000450     NO 
 RMS     Force            0.011294     0.000300     NO 
 Maximum Displacement     0.046406     0.001800     NO 
 RMS     Displacement     0.036498     0.001200     NO 
 Predicted change in Energy= 7.508252D-04
 Lowest energy point so far.  Saving SCF results.
 Largest change from initial coordinates is atom    1       0.021 Angstoms.
 GradGradGradGradGradGradGradGradGradGradGradGradGradGradGradGradGradGrad

 Leave Link  103 at Wed Oct  7 12:27:52 2020, MaxMem=  2684354560 cpu:               3.4 elap:               0.8
 (Enter /udrive/faculty/rpeverati/g16/g16/l202.exe)
                          Input orientation:                          
 ---------------------------------------------------------------------
 Center     Atomic      Atomic             Coordinates (Angstroms)
 Number     Number       Type             X           Y           Z
 ---------------------------------------------------------------------
      1          8           0        0.009067    0.000000   -0.024557
      2         17           0        0.010336    0.000000    2.498479
      3          1           0        0.469912   -0.000000    1.105067
 ---------------------------------------------------------------------
                    Distance matrix (angstroms):
                    1          2          3
     1  O    0.000000
     2  Cl   2.523036   0.000000
     3  H    1.220011   1.467245   0.000000
 Stoichiometry    ClHO(3)
 Framework group  CS[SG(ClHO)]
 Deg. of freedom     3
 Full point group                 CS      NOp   2
 RotChk:  IX=0 Diff= 8.78D-04
 Largest Abelian subgroup         CS      NOp   2
 Largest concise Abelian subgroup C1      NOp   1
                         Standard orientation:                         
 ---------------------------------------------------------------------
 Center     Atomic      Atomic             Coordinates (Angstroms)
 Number     Number       Type             X           Y           Z
 ---------------------------------------------------------------------
      1          8           0        0.017703    1.693133    0.000000
      2         17           0        0.017703   -0.829903    0.000000
      3          1           0       -0.442573    0.563278    0.000000
 ---------------------------------------------------------------------
 Rotational constants (GHZ):        2426.1723255           7.1969097           7.1756242
 Leave Link  202 at Wed Oct  7 12:27:52 2020, MaxMem=  2684354560 cpu:               2.0 elap:               0.5
 (Enter /udrive/faculty/rpeverati/g16/g16/l301.exe)
 Standard basis: 6-31G(d) (5D, 7F)
 Ernie: Thresh=  0.10000D-02 Tol=  0.10000D-05 Strict=F.
 There are    27 symmetry adapted cartesian basis functions of A'  symmetry.
 There are     9 symmetry adapted cartesian basis functions of A"  symmetry.
 There are    25 symmetry adapted basis functions of A'  symmetry.
 There are     9 symmetry adapted basis functions of A"  symmetry.
    34 basis functions,    84 primitive gaussians,    36 cartesian basis functions
    14 alpha electrons       12 beta electrons
       nuclear repulsion energy        38.1256147295 Hartrees.
 IExCor=  402 DFT=T Ex=B Corr=LYP ExCW=0 ScaHFX=  0.000000
 ScaDFX=  1.000000  1.000000  1.000000  1.000000 ScalE2=  1.000000  1.000000
 IRadAn=      5 IRanWt=     -1 IRanGd=            0 ICorTp=0 IEmpDi=141
 NAtoms=    3 NActive=    3 NUniq=    3 SFac= 1.00D+00 NAtFMM=   60 NAOKFM=F Big=F
 Integral buffers will be    131072 words long.
 Raffenetti 2 integral format.
 Two-electron integral symmetry is turned on.
 R6Disp:  Grimme-D3(BJ) Dispersion energy=       -0.0020919923 Hartrees.
 Nuclear repulsion after empirical dispersion term =       38.1235227373 Hartrees.
 Leave Link  301 at Wed Oct  7 12:27:53 2020, MaxMem=  2684354560 cpu:               2.6 elap:               0.7
 (Enter /udrive/faculty/rpeverati/g16/g16/l302.exe)
 NPDir=0 NMtPBC=     1 NCelOv=     1 NCel=       1 NClECP=     1 NCelD=      1
         NCelK=      1 NCelE2=     1 NClLst=     1 CellRange=     0.0.
 One-electron integrals computed using PRISM.
 One-electron integral symmetry used in STVInt
 NBasis=    34 RedAO= T EigKep=  3.27D-02  NBF=    25     9
 NBsUse=    34 1.00D-06 EigRej= -1.00D+00 NBFU=    25     9
 Precomputing XC quadrature grid using
 IXCGrd= 4 IRadAn=           5 IRanWt=          -1 IRanGd=           0 AccXCQ= 0.00D+00.
 Generated NRdTot=       0 NPtTot=           0 NUsed=           0 NTot=          32
[...]
 
              Baa    -0.0435   -23.205    -8.280    -7.740  0.0000  0.0000  1.0000
     3 H(1)   Bbb    -0.0435   -23.183    -8.272    -7.733  0.9998 -0.0178  0.0000
              Bcc     0.0869    46.388    16.552    15.473  0.0178  0.9998  0.0000
 

 ---------------------------------------------------------------------------------

 No NMR shielding tensors so no spin-rotation constants.
 Leave Link  601 at Wed Oct  7 12:33:59 2020, MaxMem=  2684354560 cpu:               5.2 elap:               0.8
 (Enter /udrive/faculty/rpeverati/g16/g16/l701.exe)
 ... and contract with generalized density number  0.
 Compute integral second derivatives.
 R6Disp: Adding Grimme-D3(BJ) dispersion energy 2nd derivatives to the Hessian.
 Leave Link  701 at Wed Oct  7 12:34:00 2020, MaxMem=  2684354560 cpu:               3.5 elap:               0.7
 (Enter /udrive/faculty/rpeverati/g16/g16/l702.exe)
 L702 exits ... SP integral derivatives will be done elsewhere.
 Leave Link  702 at Wed Oct  7 12:34:01 2020, MaxMem=  2684354560 cpu:               2.0 elap:               0.6
 (Enter /udrive/faculty/rpeverati/g16/g16/l703.exe)
 Integral derivatives from FoFJK, PRISM(SPDF).
 Compute integral second derivatives, UseDBF=F ICtDFT=           0.
 Calling FoFJK, ICntrl=    100527 FMM=F ISym2X=1 I1Cent= 0 IOpClX= 0 NMat=1 NMatS=1 NMatT=0.
 FoFJK:  IHMeth= 1 ICntrl=  100527 DoSepK=F KAlg= 0 I1Cent=           0 FoldK=F
 IRaf=         0 NMat=       1 IRICut=       1 DoRegI=T DoRafI=F ISym2E= 1 IDoP0=0 IntGTp=1.
 FoFCou: FMM=F IPFlag=           0 FMFlag=      100000 FMFlg1=         800
         NFxFlg=           0 DoJE=F BraDBF=F KetDBF=F FulRan=T
         wScrn=  0.000000 ICntrl=    100527 IOpCl=  0 I1Cent=           0 NGrid=           0
         NMat0=    1 NMatS0=      1 NMatT0=    0 NMatD0=    1 NMtDS0=    0 NMtDT0=    0
 Petite list used in FoFCou.
 Leave Link  703 at Wed Oct  7 12:34:02 2020, MaxMem=  2684354560 cpu:              12.4 elap:               1.5
 (Enter /udrive/faculty/rpeverati/g16/g16/l716.exe)
 Dipole        =-1.47906073D-02 6.19475508D-01 2.02674281D-25
 Polarizability= 8.65103370D+00-2.47144970D-03 6.04710605D+01
                 1.06557968D-14-9.60597995D-15 8.64947791D+00
 Full mass-weighted force constant matrix:
 Low frequencies ---  -96.8738  -81.8979   -0.0049   -0.0039   -0.0033    4.8298
 Low frequencies ---   10.5267  139.7916 2305.9119
 ******    1 imaginary frequencies (negative Signs) ****** 
 Diagonal vibrational polarizability:
      237.8547555      10.1014400       0.0000000
 Harmonic frequencies (cm**-1), IR intensities (KM/Mole), Raman scattering
 activities (A**4/AMU), depolarization ratios for plane and unpolarized
 incident light, reduced masses (AMU), force constants (mDyne/A),
 and normal coordinates:
                      1                      2                      3
                     A'                     A'                     A'
 Frequencies --    -81.6772               139.7879              2305.9119
 Red. masses --      1.0945                 7.9729                 1.0424
 Frc consts  --      0.0043                 0.0918                 3.2658
 IR Inten    --     58.6838                 8.1487                 1.2351
  Atom  AN      X      Y      Z        X      Y      Z        X      Y      Z
     1   8    -0.03   0.06   0.00     0.02   0.57  -0.00     0.00   0.01   0.00
     2  17    -0.02  -0.02   0.00     0.01  -0.25  -0.00     0.00  -0.03  -0.00
     3   1     1.00  -0.01  -0.00    -0.70  -0.35   0.00    -0.03   1.00   0.00

 -------------------
 - Thermochemistry -
 -------------------
 Temperature   298.150 Kelvin.  Pressure   1.00000 Atm.
 Atom     1 has atomic number  8 and mass  15.99491
 Atom     2 has atomic number 17 and mass  34.96885
 Atom     3 has atomic number  1 and mass   1.00783
 Molecular mass:    51.97159 amu.
 Principal axes and moments of inertia in atomic units:
                           1         2         3
     Eigenvalues --     0.00346 375.75778 375.76123
           X           -0.00011   1.00000   0.00000
           Y            1.00000   0.00011   0.00000
           Z            0.00000   0.00000   1.00000
 This molecule is an asymmetric top.
 Rotational symmetry number  1.
 Rotational temperatures (Kelvin)  25057.52068     0.23050     0.23050
 Rotational constants (GHZ):      522113.98458     4.80294     4.80289
    1 imaginary frequencies ignored.
 Zero-point vibrational energy      14628.5 (Joules/Mol)
                                    3.49630 (Kcal/Mol)
 Warning -- explicit consideration of   1 degrees of freedom as
           vibrations may cause significant error
 Vibrational temperatures:    201.12  3317.69
          (Kelvin)
 
 Zero-point correction=                           0.005572 (Hartree/Particle)
 Thermal correction to Energy=                    0.009066
 Thermal correction to Enthalpy=                  0.010010
 Thermal correction to Gibbs Free Energy=        -0.016935
 Sum of electronic and zero-point Energies=           -535.817309
 Sum of electronic and thermal Energies=              -535.813815
 Sum of electronic and thermal Enthalpies=            -535.812871
 Sum of electronic and thermal Free Energies=         -535.839817
 
                     E (Thermal)             CV                S
                      KCal/Mol        Cal/Mol-Kelvin    Cal/Mol-Kelvin
 Total                    5.689              7.879             56.711
 Electronic               0.000              0.000              2.183
 Translational            0.889              2.981             37.767
 Rotational               0.889              2.981             13.954
 Vibrational              3.911              1.917              2.807
 Vibration     1          0.615              1.914              2.807
                       Q            Log10(Q)             Ln(Q)
 Total Bot       0.616244D+08          7.789752         17.936568
 Total V=0       0.225196D+11         10.352561         23.837652
 Vib (Bot)       0.557761D-02         -2.253552         -5.188996
 Vib (Bot)    1  0.145468D+01          0.162768          0.374788
 Vib (V=0)       0.203824D+01          0.309256          0.712089
 Vib (V=0)    1  0.203821D+01          0.309250          0.712074
 Electronic      0.300000D+01          0.477121          1.098612
 Translational   0.147266D+08          7.168103         16.505167
 Rotational      0.250081D+03          2.398080          5.521784
 
                                                          TS search on BH76.
                                                             IR Spectrum
 
     2                                                                                                                               
     3                                                                                                                       1       
     0                                                                                                                       4       
     6                                                                                                                       0       
 
     X                                                                                                                       X       
     X                                                                                                                       X       
     X                                                                                                                       X       
                                                                                                                             X       
                                                                                                                             X       
                                                                                                                             X       
                                                                                                                             X       
                                                                                                                             X       
                                                                                                                             X       
                                                                                                                             X       
                                                                                                                             X       
                                                                                                                             X       
                                                                                                                             X       
                                                                                                                             X       
                                                                                                                             X       
                                                                                                                             X       
                                                                                                                             X       
                                                                                                                             X       
                                                                                                                             X       
                                                                                                                             X       
 
 ***** Axes restored to original set *****
 -------------------------------------------------------------------
 Center     Atomic                   Forces (Hartrees/Bohr)
 Number     Number              X              Y              Z
 -------------------------------------------------------------------
      1        8           0.000001571   -0.000000000    0.000003103
      2       17           0.000005538   -0.000000000    0.000011828
      3        1          -0.000007109    0.000000000   -0.000014931
 -------------------------------------------------------------------
 Cartesian Forces:  Max     0.000014931 RMS     0.000007119
 Force constants in Cartesian coordinates: 
                1             2             3             4             5 
      1 -0.736380D-04
      2  0.000000D+00 -0.172075D-03
      3  0.570509D-03  0.000000D+00  0.938171D-02
      4 -0.485617D-04  0.000000D+00  0.345035D-03 -0.768930D-05
      5  0.000000D+00 -0.102358D-03  0.000000D+00  0.000000D+00  0.329867D-04
      6 -0.124896D-02  0.000000D+00 -0.284965D-01 -0.715556D-03  0.000000D+00
      7  0.122200D-03  0.000000D+00 -0.915544D-03  0.562510D-04  0.000000D+00
      8  0.000000D+00  0.274433D-03  0.000000D+00  0.000000D+00  0.693717D-04
      9  0.678451D-03  0.000000D+00  0.191148D-01  0.370522D-03  0.000000D+00
                6             7             8             9 
      6  0.243474D+00
      7  0.196452D-02 -0.178451D-03
      8  0.000000D+00  0.000000D+00 -0.343805D-03
      9 -0.214978D+00 -0.104897D-02  0.000000D+00  0.195863D+00
 FormGI is forming the generalized inverse of G from B-inverse, IUseBI=4.
 Force constants in internal coordinates: 
                1             2             3             4 
      1  0.343448D-01
      2 -0.217218D-01  0.185146D-01
      3  0.562206D-01 -0.403018D-01  0.967409D-01
      4 -0.239892D-02  0.966330D-03 -0.334842D-02 -0.297455D-03
 Leave Link  716 at Wed Oct  7 12:34:03 2020, MaxMem=  2684354560 cpu:               2.4 elap:               0.7
 (Enter /udrive/faculty/rpeverati/g16/g16/l103.exe)

 GradGradGradGradGradGradGradGradGradGradGradGradGradGradGradGradGradGrad
 Berny optimization.
 Optmz: redundant internal coordinate code flag= 1
 Red2BG:  D1=  7.35D-01 OD1=  6.06D-16 B2RMS=  0.00D+00 IAprox=1
 Red2BG is reusing G-inverse.
 Internal  Forces:  Max     0.000010086 RMS     0.000007536
 Search for a local minimum.
 Step number   1 out of a maximum of    2
 All quantities printed in internal units (Hartrees-Bohrs-Radians)
 Second derivative matrix not updated -- analytic derivatives used.
 The second derivative matrix:
                          R1        R2        R3        A1
           R1           0.03434
           R2          -0.02172   0.01851
           R3           0.05622  -0.04030   0.09674
           A1          -0.00240   0.00097  -0.00335  -0.00030
 ITU=  0
 Eigenvectors of the second derivative matrix:
                           1         2         3
     Eigenvalues --    -0.00051   0.00347   0.14635
   1         R1        -0.13606   0.65095  -0.47403
   2         R2        -0.08650   0.73890   0.33705
   3         R3         0.00883  -0.07867  -0.81294
   4         A1        -0.98688  -0.15522   0.02854
 Eigenvalue     1 is  -5.14D-04 should be greater than     0.000000 Eigenvector:
                          A1        R1        R2        R3
   1                   -0.98688  -0.13606  -0.08650   0.00883
 Angle between quadratic step and forces=  47.79 degrees.
 Linear search not attempted -- first point.
 Iteration  1 RMS(Cart)=  0.01107589 RMS(Int)=  0.00009365
 Iteration  2 RMS(Cart)=  0.00003308 RMS(Int)=  0.00007438
 Iteration  3 RMS(Cart)=  0.00000000 RMS(Int)=  0.00007438
 ITry= 1 IFail=0 DXMaxC= 1.80D-02 DCOld= 1.00D+10 DXMaxT= 3.00D-01 DXLimC= 3.00D+00 Rises=F
 ClnCor:  largest displacement from symmetrization is 2.11D-15 for atom     1.
 Variable       Old X    -DE/DX   Delta X   Delta X   Delta X     New X
                                 (Linear)    (Quad)   (Total)
    R1        5.84772   0.00000   0.00000   0.00170   0.00162   5.84934
    R2        3.33034  -0.00001   0.00000   0.00058   0.00067   3.33100
    R3        2.51861   0.00001   0.00000   0.00000   0.00009   2.51869
    A1        3.10032   0.00001   0.00000   0.01896   0.01896   3.11929
         Item               Value     Threshold  Converged?
 Maximum Force            0.000010     0.000450     YES
 RMS     Force            0.000008     0.000300     YES
 Maximum Displacement     0.018002     0.001800     NO 
 RMS     Displacement     0.011079     0.001200     NO 
 Predicted change in Energy=-2.816510D-07
                           ----------------------------
                           ! Non-Optimized Parameters !
                           ! (Angstroms and Degrees)  !
 --------------------------                            --------------------------
 ! Name  Definition              Value          Derivative Info.                !
 --------------------------------------------------------------------------------
 ! R1    R(1,2)                  3.0953         -DE/DX =    0.0                 !
 ! R2    R(1,3)                  1.7627         -DE/DX =    0.0                 !
 ! R3    R(2,3)                  1.3328         -DE/DX =    0.0                 !
 ! A1    A(1,3,2)              178.7221         -DE/DX =    0.0                 !
 --------------------------------------------------------------------------------
 GradGradGradGradGradGradGradGradGradGradGradGradGradGradGradGradGradGrad

 Leave Link  103 at Wed Oct  7 12:34:04 2020, MaxMem=  2684354560 cpu:               2.7 elap:               0.6
 (Enter /udrive/faculty/rpeverati/g16/g16/l9999.exe)

 ----------------------------------------------------------------------

 Electric dipole moment (input orientation):
 (Debye = 10**-18 statcoulomb cm , SI units = C m)
                  (au)            (Debye)         (10**-30 SI)
   Tot        0.619652D+00      0.157500D+01      0.525363D+01
   x          0.171788D-02      0.436640D-02      0.145648D-01
   y          0.000000D+00      0.000000D+00      0.000000D+00
   z         -0.619650D+00     -0.157499D+01     -0.525361D+01

 Dipole polarizability, Alpha (input orientation).
 (esu units = cm**3 , SI units = C**2 m**2 J**-1)
 Alpha(0;0):
               (au)            (10**-24 esu)      (10**-40 SI)
   iso        0.259239D+02      0.384152D+01      0.427427D+01
   aniso      0.518208D+02      0.767905D+01      0.854410D+01
   xx         0.867399D+01      0.128535D+01      0.143015D+01
   yx         0.000000D+00      0.000000D+00      0.000000D+00
   yy         0.864948D+01      0.128172D+01      0.142611D+01
   zx         0.109057D+01      0.161605D+00      0.179810D+00
   zy         0.000000D+00      0.000000D+00      0.000000D+00
   zz         0.604481D+02      0.895748D+01      0.996655D+01

 ----------------------------------------------------------------------

 Dipole orientation:
     8          0.22173234          0.00000000          0.80426308
    17          0.36131290          0.00000000         -5.04179411
     1          0.36037215          0.00000000         -2.52318649

 Electric dipole moment (dipole orientation):
 (Debye = 10**-18 statcoulomb cm , SI units = C m)
                  (au)            (Debye)         (10**-30 SI)
   Tot        0.619652D+00      0.157500D+01      0.525363D+01
   x          0.000000D+00      0.000000D+00      0.000000D+00
   y          0.000000D+00      0.000000D+00      0.000000D+00
   z          0.619652D+00      0.157500D+01      0.525363D+01

 Dipole polarizability, Alpha (dipole orientation).
 (esu units = cm**3 , SI units = C**2 m**2 J**-1)
 Alpha(0;0):
               (au)            (10**-24 esu)      (10**-40 SI)
   iso        0.259239D+02      0.384152D+01      0.427427D+01
   aniso      0.518208D+02      0.767905D+01      0.854410D+01
   xx         0.868044D+01      0.128631D+01      0.143121D+01
   yx         0.000000D+00      0.000000D+00      0.000000D+00
   yy         0.864948D+01      0.128172D+01      0.142611D+01
   zx        -0.123408D+01     -0.182872D+00     -0.203473D+00
   zy         0.000000D+00      0.000000D+00      0.000000D+00
   zz         0.604417D+02      0.895653D+01      0.996548D+01

 ----------------------------------------------------------------------

 Test job not archived.
 1\1\GINC-NODE60\Freq\UBLYP\6-31G(d)\Cl1H1O1(3)\RPEVERATI\07-Oct-2020\0
 \\#P Freq BLYP/6-31G* 5D 7F Integral=UltraFineGrid SCF=(NoSymm,XQC,Max
 Cyc=120) EmpiricalDispersion=GD3BJ IOp(1/33=1) Geom=Check Guess=Read\\
 TS search on BH76.\\0,3\O,0.1185151445,-0.0000000004,-0.4252707669\Cl,
 0.1838012521,0.0000000003,2.668522356\H,0.1869983547,-0.0000000003,1.3
 357363406\\Version=ES64L-G16RevA.03\State=3-A"\HF=-535.8228811\S2=2.00
 3513\S2-1=0.\S2A=2.000005\RMSD=5.482e-10\RMSF=7.119e-06\ZeroPoint=0.00
 55717\Thermal=0.0090657\Dipole=0.0017179,0.,-0.6196497\DipoleDeriv=-0.
 0019258,0.,0.0020133,0.,-0.0025083,0.,0.0106606,0.,0.2404229,-0.248781
 6,0.,-0.0104139,0.,-0.2487681,0.,-0.0043454,0.,-0.1971472,0.2507075,0.
 ,0.0084006,0.,0.2512764,0.,-0.0063151,0.,-0.0432757\Polar=8.673995,0.,
 8.6494779,1.090565,0.,60.4480992\Quadrupole=0.06289,0.0662613,-0.12915
 13,0.,-0.0678664,0.\PG=CS [SG(Cl1H1O1)]\NImag=1\\-0.00007364,0.,-0.000
 17207,0.00057051,0.,0.00938171,-0.00004856,0.,0.00034503,-0.00000769,0
 .,-0.00010236,0.,0.,0.00003299,-0.00124896,0.,-0.02849654,-0.00071556,
 0.,0.24347408,0.00012220,0.,-0.00091554,0.00005625,0.,0.00196452,-0.00
 017845,0.,0.00027443,0.,0.,0.00006937,0.,0.,-0.00034380,0.00067845,0.,
 0.01911483,0.00037052,0.,-0.21497754,-0.00104897,0.,0.19586271\\-0.000
 00157,0.,-0.00000310,-0.00000554,0.,-0.00001183,0.00000711,0.,0.000014
 93\\\@


 THE GREAT THING ABOUT BEING IMPERFECT IS THE JOY IT BRINGS OTHERS.
   -- SIGN OUTSIDE LAKE AGASSIZ JR. HIGH SCHOOL, FARGO, N.D.
 Job cpu time:       0 days  0 hours  2 minutes  0.7 seconds.
 Elapsed time:       0 days  0 hours  0 minutes 18.9 seconds.
 File lengths (MBytes):  RWF=      5 Int=      0 D2E=      0 Chk=      1 Scr=      1
 Normal termination of Gaussian 16 at Wed Oct  7 12:34:05 2020.
