 Entering Gaussian System, Link 0=g16
 Input=MN_11_c2h4_BH76_B3LYP_6-31Gs.in
 Output=MN_11_c2h4_BH76_B3LYP_6-31Gs.log
 Initial command:
 /udrive/faculty/rpeverati/g16/g16/l1.exe "/udrive/scratch-directories/gaussian09/rpeverati/Gau-40496.inp" -scrdir="/udrive/scratch-directories/gaussian09/rpeverati/"
 Entering Link 1 = /udrive/faculty/rpeverati/g16/g16/l1.exe PID=     40497.
  
 Copyright (c) 1988,1990,1992,1993,1995,1998,2003,2009,2016,
            Gaussian, Inc.  All Rights Reserved.
  
 This is part of the Gaussian(R) 16 program.  It is based on
 the Gaussian(R) 09 system (copyright 2009, Gaussian, Inc.),
 the Gaussian(R) 03 system (copyright 2003, Gaussian, Inc.),
 the Gaussian(R) 98 system (copyright 1998, Gaussian, Inc.),
 the Gaussian(R) 94 system (copyright 1995, Gaussian, Inc.),
 the Gaussian 92(TM) system (copyright 1992, Gaussian, Inc.),
 the Gaussian 90(TM) system (copyright 1990, Gaussian, Inc.),
 the Gaussian 88(TM) system (copyright 1988, Gaussian, Inc.),
 the Gaussian 86(TM) system (copyright 1986, Carnegie Mellon
 University), and the Gaussian 82(TM) system (copyright 1983,
 Carnegie Mellon University). Gaussian is a federally registered
 trademark of Gaussian, Inc.
  
 This software contains proprietary and confidential information,
 including trade secrets, belonging to Gaussian, Inc.
  
 This software is provided under written license and may be
 used, copied, transmitted, or stored only in accord with that
 written license.
  
 The following legend is applicable only to US Government
 contracts under FAR:
  
                    RESTRICTED RIGHTS LEGEND
  
 Use, reproduction and disclosure by the US Government is
 subject to restrictions as set forth in subparagraphs (a)
 and (c) of the Commercial Computer Software - Restricted
 Rights clause in FAR 52.227-19.
  
 Gaussian, Inc.
 340 Quinnipiac St., Bldg. 40, Wallingford CT 06492
  
  
 ---------------------------------------------------------------
 Warning -- This program may not be used in any manner that
 competes with the business of Gaussian, Inc. or will provide
 assistance to any competitor of Gaussian, Inc.  The licensee
 of this program is prohibited from giving any competitor of
 Gaussian, Inc. access to this program.  By using this program,
 the user acknowledges that Gaussian, Inc. is engaged in the
 business of creating and licensing software in the field of
 computational chemistry and represents and warrants to the
 licensee that it is not a competitor of Gaussian, Inc. and that
 it will not use this program in any manner prohibited above.
 ---------------------------------------------------------------
  

 Cite this work as:
 Gaussian 16, Revision A.03,
 M. J. Frisch, G. W. Trucks, H. B. Schlegel, G. E. Scuseria, 
 M. A. Robb, J. R. Cheeseman, G. Scalmani, V. Barone, 
 G. A. Petersson, H. Nakatsuji, X. Li, M. Caricato, A. V. Marenich, 
 J. Bloino, B. G. Janesko, R. Gomperts, B. Mennucci, H. P. Hratchian, 
 J. V. Ortiz, A. F. Izmaylov, J. L. Sonnenberg, D. Williams-Young, 
 F. Ding, F. Lipparini, F. Egidi, J. Goings, B. Peng, A. Petrone, 
 T. Henderson, D. Ranasinghe, V. G. Zakrzewski, J. Gao, N. Rega, 
 G. Zheng, W. Liang, M. Hada, M. Ehara, K. Toyota, R. Fukuda, 
 J. Hasegawa, M. Ishida, T. Nakajima, Y. Honda, O. Kitao, H. Nakai, 
 T. Vreven, K. Throssell, J. A. Montgomery, Jr., J. E. Peralta, 
 F. Ogliaro, M. J. Bearpark, J. J. Heyd, E. N. Brothers, K. N. Kudin, 
 V. N. Staroverov, T. A. Keith, R. Kobayashi, J. Normand, 
 K. Raghavachari, A. P. Rendell, J. C. Burant, S. S. Iyengar, 
 J. Tomasi, M. Cossi, J. M. Millam, M. Klene, C. Adamo, R. Cammi, 
 J. W. Ochterski, R. L. Martin, K. Morokuma, O. Farkas, 
 J. B. Foresman, and D. J. Fox, Gaussian, Inc., Wallingford CT, 2016.
 
 ******************************************
 Gaussian 16:  ES64L-G16RevA.03 25-Dec-2016
                 6-Oct-2020 
 ******************************************
 %NoSave
 %nproc=12
 Will use up to   12 processors via shared memory.
 %mem=20GB
 %chk=MN_11_c2h4_BH76_B3LYP_6-31Gs
 ----------------------------------------------------------------------
 #P Opt(MaxCyc=100) B3LYP/6-31G* 5D 7F Integral=UltraFineGrid SCF=(NoSy
 mm,XQC,MaxCyc=120) IOp(1/33=1)
 ----------------------------------------------------------------------
 1/6=100,18=20,19=15,26=4,33=1,38=1/1,3;
 2/9=110,12=2,17=6,18=5,40=1/2;
 3/5=1,6=6,7=1,8=11,11=2,25=1,30=1,71=1,74=-5,75=-5/1,2,3;
 4/9=2/1;
 5/5=2,7=120,8=3,13=1,38=5/2,8;
 6/7=2,8=2,9=2,10=2,28=1/1;
 7//1,2,3,16;
 1/6=100,18=20,19=15,26=4,33=1/3(2);
 2/9=110/2;
 99//99;
 2/9=110/2;
 3/5=1,6=6,7=1,8=11,11=2,25=1,30=1,71=1,74=-5,75=-5/1,2,3;
 4/5=5,9=2,16=3,69=1/1;
 5/5=2,7=120,8=3,13=1,38=5/2,8;
 7//1,2,3,16;
 1/6=100,18=20,19=15,26=4,33=1/3(-5);
 2/9=110/2;
 6/7=2,8=2,9=2,10=2,19=2,28=1/1;
 99/9=1/99;
 Leave Link    1 at Tue Oct  6 15:57:24 2020, MaxMem=  2684354560 cpu:               4.8 elap:               0.5
 (Enter /udrive/faculty/rpeverati/g16/g16/l101.exe)
 ONIOM data not found on unit 2.
 ------------------
 TS search on BH76.
 ------------------
 TstMul:  ICh=     0
 TstMul:  Mul=     1
 TstMul:  ICh=     0
 TstMul:  Mul=     1
 Symbolic Z-matrix:
 Charge =  0 Multiplicity = 1
 C                     0.        0.        0.66559 
 C                     0.        0.       -0.66559 
 H                     0.        0.92149   1.23167 
 H                     0.       -0.92149   1.23167 
 H                     0.        0.92149  -1.23167 
 H                     0.       -0.92149  -1.23167 
 
 RdStrC is calling ZToCFu for IStruc=1 NZ=     6.
 PrtBox:  NBox=     1 Levels=  1 BoxLen=    8.00 SMaxX=        4.66
          Shift=            0.000000            1.741370            2.327520
 Box      1 Number                   0 centers from      1 to      6:
 After GenITR:
 ITRead=  0  0  0  0  0  0
 MicOpt= -1 -1 -1 -1 -1 -1
 ITRead=  0  0  0  0  0  0
 MicOpt= -1 -1 -1 -1 -1 -1
 NAtoms=      6 NQM=        6 NQMF=       0 NMMI=      0 NMMIF=      0
                NMic=       0 NMicF=      0.
                    Isotopes and Nuclear Properties:
 (Nuclear quadrupole moments (NQMom) in fm**2, nuclear magnetic moments (NMagM)
  in nuclear magnetons)

  Atom         1           2           3           4           5           6
 IAtWgt=          12          12           1           1           1           1
 AtmWgt=  12.0000000  12.0000000   1.0078250   1.0078250   1.0078250   1.0078250
 NucSpn=           0           0           1           1           1           1
 AtZEff=   0.0000000   0.0000000   0.0000000   0.0000000   0.0000000   0.0000000
 NQMom=    0.0000000   0.0000000   0.0000000   0.0000000   0.0000000   0.0000000
 NMagM=    0.0000000   0.0000000   2.7928460   2.7928460   2.7928460   2.7928460
 AtZNuc=   6.0000000   6.0000000   1.0000000   1.0000000   1.0000000   1.0000000
 No MM parameters found.
 Leave Link  101 at Tue Oct  6 15:57:27 2020, MaxMem=  2684354560 cpu:              20.6 elap:               2.2
 (Enter /udrive/faculty/rpeverati/g16/g16/l103.exe)

 GradGradGradGradGradGradGradGradGradGradGradGradGradGradGradGradGradGrad
 Berny optimization.
 Optmz: redundant internal coordinate code flag= 1
 Initialization pass.
                           ----------------------------
                           !    Initial Parameters    !
                           ! (Angstroms and Degrees)  !
 --------------------------                            --------------------------
 ! Name  Definition              Value          Derivative Info.                !
 --------------------------------------------------------------------------------
 ! R1    R(1,2)                  1.3312         estimate D2E/DX2                !
 ! R2    R(1,3)                  1.0815         estimate D2E/DX2                !
 ! R3    R(1,4)                  1.0815         estimate D2E/DX2                !
 ! R4    R(2,5)                  1.0815         estimate D2E/DX2                !
 ! R5    R(2,6)                  1.0815         estimate D2E/DX2                !
 ! A1    A(2,1,3)              121.5626         estimate D2E/DX2                !
 ! A2    A(2,1,4)              121.5626         estimate D2E/DX2                !
 ! A3    A(3,1,4)              116.8749         estimate D2E/DX2                !
 ! A4    A(1,2,5)              121.5626         estimate D2E/DX2                !
 ! A5    A(1,2,6)              121.5626         estimate D2E/DX2                !
 ! A6    A(5,2,6)              116.8749         estimate D2E/DX2                !
 ! D1    D(3,1,2,5)              0.0            estimate D2E/DX2                !
 ! D2    D(3,1,2,6)            180.0            estimate D2E/DX2                !
 ! D3    D(4,1,2,5)            180.0            estimate D2E/DX2                !
 ! D4    D(4,1,2,6)              0.0            estimate D2E/DX2                !
 --------------------------------------------------------------------------------
 Maximum allowed force set to 1.00D+20.
 Trust Radius=3.00D-01 FncErr=1.00D-07 GrdErr=1.00D-06 EigMax=2.50D+02 EigMin=1.00D-04
 Number of steps in this run=    100 maximum allowed number of steps=    100.
 GradGradGradGradGradGradGradGradGradGradGradGradGradGradGradGradGradGrad

 Leave Link  103 at Tue Oct  6 15:57:27 2020, MaxMem=  2684354560 cpu:               1.0 elap:               0.5
 (Enter /udrive/faculty/rpeverati/g16/g16/l202.exe)
                          Input orientation:                          
 ---------------------------------------------------------------------
 Center     Atomic      Atomic             Coordinates (Angstroms)
 Number     Number       Type             X           Y           Z
 ---------------------------------------------------------------------
      1          6           0        0.000000    0.000000    0.665594
      2          6           0        0.000000    0.000000   -0.665594
      3          1           0        0.000000    0.921493    1.231671
      4          1           0        0.000000   -0.921493    1.231671
      5          1           0        0.000000    0.921493   -1.231671
      6          1           0        0.000000   -0.921493   -1.231671
 ---------------------------------------------------------------------
                    Distance matrix (angstroms):
                    1          2          3          4          5
     1  C    0.000000
     2  C    1.331188   0.000000
     3  H    1.081477   2.109209   0.000000
     4  H    1.081477   2.109209   1.842987   0.000000
     5  H    2.109209   1.081477   2.463341   3.076467   0.000000
     6  H    2.109209   1.081477   3.076467   2.463341   1.842987
                    6
     6  H    0.000000
 Stoichiometry    C2H4
 Framework group  D2H[C2"(C.C),SG(H4)]
 Deg. of freedom     3
 Full point group                 D2H     NOp   8
 Largest Abelian subgroup         D2H     NOp   8
 Largest concise Abelian subgroup D2      NOp   4
                         Standard orientation:                         
 ---------------------------------------------------------------------
 Center     Atomic      Atomic             Coordinates (Angstroms)
 Number     Number       Type             X           Y           Z
 ---------------------------------------------------------------------
      1          6           0        0.000000    0.000000    0.665594
      2          6           0        0.000000    0.000000   -0.665594
      3          1           0        0.000000    0.921493    1.231671
      4          1           0       -0.000000   -0.921493    1.231671
      5          1           0        0.000000    0.921493   -1.231671
      6          1           0       -0.000000   -0.921493   -1.231671
 ---------------------------------------------------------------------
 Rotational constants (GHZ):         147.6344406          30.1756739          25.0546419
 Leave Link  202 at Tue Oct  6 15:57:28 2020, MaxMem=  2684354560 cpu:               0.9 elap:               0.3
 (Enter /udrive/faculty/rpeverati/g16/g16/l301.exe)
 Standard basis: 6-31G(d) (5D, 7F)
 Ernie: Thresh=  0.10000D-02 Tol=  0.10000D-05 Strict=F.
 There are    10 symmetry adapted cartesian basis functions of AG  symmetry.
 There are     1 symmetry adapted cartesian basis functions of B1G symmetry.
 There are     3 symmetry adapted cartesian basis functions of B2G symmetry.
 There are     5 symmetry adapted cartesian basis functions of B3G symmetry.
 There are     1 symmetry adapted cartesian basis functions of AU  symmetry.
 There are    10 symmetry adapted cartesian basis functions of B1U symmetry.
 There are     5 symmetry adapted cartesian basis functions of B2U symmetry.
 There are     3 symmetry adapted cartesian basis functions of B3U symmetry.
 There are     9 symmetry adapted basis functions of AG  symmetry.
 There are     1 symmetry adapted basis functions of B1G symmetry.
 There are     3 symmetry adapted basis functions of B2G symmetry.
 There are     5 symmetry adapted basis functions of B3G symmetry.
 There are     1 symmetry adapted basis functions of AU  symmetry.
 There are     9 symmetry adapted basis functions of B1U symmetry.
 There are     5 symmetry adapted basis functions of B2U symmetry.
 There are     3 symmetry adapted basis functions of B3U symmetry.
    36 basis functions,    72 primitive gaussians,    38 cartesian basis functions
     8 alpha electrons        8 beta electrons
       nuclear repulsion energy        33.4235003430 Hartrees.
 IExCor=  402 DFT=T Ex+Corr=B3LYP ExCW=0 ScaHFX=  0.200000
 ScaDFX=  0.800000  0.720000  1.000000  0.810000 ScalE2=  1.000000  1.000000
 IRadAn=      5 IRanWt=     -1 IRanGd=            0 ICorTp=0 IEmpDi=  4
 NAtoms=    6 NActive=    6 NUniq=    2 SFac= 4.00D+00 NAtFMM=   60 NAOKFM=F Big=F
 Integral buffers will be    131072 words long.
 Raffenetti 2 integral format.
 Two-electron integral symmetry is turned on.
 Leave Link  301 at Tue Oct  6 15:57:29 2020, MaxMem=  2684354560 cpu:               3.3 elap:               0.6
 (Enter /udrive/faculty/rpeverati/g16/g16/l302.exe)
 NPDir=0 NMtPBC=     1 NCelOv=     1 NCel=       1 NClECP=     1 NCelD=      1
         NCelK=      1 NCelE2=     1 NClLst=     1 CellRange=     0.0.
 One-electron integrals computed using PRISM.
 One-electron integral symmetry used in STVInt
 NBasis=    36 RedAO= T EigKep=  8.11D-03  NBF=     9     1     3     5     1     9     5     3
 NBsUse=    36 1.00D-06 EigRej= -1.00D+00 NBFU=     9     1     3     5     1     9     5     3
 Precomputing XC quadrature grid using
 IXCGrd= 4 IRadAn=           5 IRanWt=          -1 IRanGd=           0 AccXCQ= 0.00D+00.
 Generated NRdTot=       0 NPtTot=           0 NUsed=           0 NTot=          32
 NSgBfM=    38    38    38    38    38 MxSgAt=     6 MxSgA2=     6.
 Leave Link  302 at Tue Oct  6 15:57:30 2020, MaxMem=  2684354560 cpu:               4.1 elap:               0.7
 (Enter /udrive/faculty/rpeverati/g16/g16/l303.exe)
 DipDrv:  MaxL=1.
 Leave Link  303 at Tue Oct  6 15:57:30 2020, MaxMem=  2684354560 cpu:               1.5 elap:               0.4
 (Enter /udrive/faculty/rpeverati/g16/g16/l401.exe)
 SCF N**3 symmetry information disabled.
 ExpMin= 1.61D-01 ExpMax= 3.05D+03 ExpMxC= 4.57D+02 IAcc=3 IRadAn=         5 AccDes= 0.00D+00
 Harris functional with IExCor=  402 and IRadAn=       5 diagonalized for initial guess.
 HarFok:  IExCor=  402 AccDes= 0.00D+00 IRadAn=         5 IDoV= 1 UseB2=F ITyADJ=14
 ICtDFT=  3500011 ScaDFX=  1.000000  1.000000  1.000000  1.000000
 FoFCou: FMM=F IPFlag=           0 FMFlag=      100000 FMFlg1=           0
         NFxFlg=           0 DoJE=T BraDBF=F KetDBF=T FulRan=T
         wScrn=  0.000000 ICntrl=       500 IOpCl=  0 I1Cent=   200000004 NGrid=           0
         NMat0=    1 NMatS0=      1 NMatT0=    0 NMatD0=    1 NMtDS0=    0 NMtDT0=    0
 Petite list used in FoFCou.
 Harris En= -78.6219127131128    
 JPrj=0 DoOrth=F DoCkMO=F.
 Initial guess orbital symmetries:
       Occupied  (AG) (B1U) (AG) (B1U) (B2U) (AG) (B3G) (B3U)
       Virtual   (B2G) (B2U) (AG) (B1U) (B3G) (B1U) (AG) (B3U)
                 (B2U) (B2G) (B1U) (AG) (B2U) (B3G) (B1U) (AG)
                 (B1U) (B3G) (B3U) (B1G) (AU) (AG) (B2U) (AG) (B1U)
                 (B2G) (B1U) (B3G)
 The electronic state of the initial guess is 1-AG.
 Leave Link  401 at Tue Oct  6 15:57:31 2020, MaxMem=  2684354560 cpu:               4.5 elap:               0.7
 (Enter /udrive/faculty/rpeverati/g16/g16/l502.exe)
 Keep R1 ints in memory in symmetry-blocked form, NReq=10580747.
 FoFCou: FMM=F IPFlag=           0 FMFlag=           0 FMFlg1=           0
         NFxFlg=           0 DoJE=F BraDBF=F KetDBF=F FulRan=T
         wScrn=  0.000000 ICntrl=       600 IOpCl=  0 I1Cent=           0 NGrid=           0
         NMat0=    1 NMatS0=    666 NMatT0=    0 NMatD0=    1 NMtDS0=    0 NMtDT0=    0
 Petite list used in FoFCou.
 Closed shell SCF:
 Using DIIS extrapolation, IDIIS=  1040.
 NGot=  2684354560 LenX=  2684315185 LenY=  2684313300
 Requested convergence on RMS density matrix=1.00D-08 within 120 cycles.
 Requested convergence on MAX density matrix=1.00D-06.
 Requested convergence on             energy=1.00D-06.
 No special actions if energy rises.
 Integral accuracy reduced to 1.0D-05 until final iterations.

 Cycle   1  Pass 0  IDiag  1:
 E= -78.4966835945561    
 DIIS: error= 5.52D-02 at cycle   1 NSaved=   1.
 NSaved= 1 IEnMin= 1 EnMin= -78.4966835945561     IErMin= 1 ErrMin= 5.52D-02
 ErrMax= 5.52D-02  0.00D+00 EMaxC= 1.00D-01 BMatC= 7.36D-02 BMatP= 7.36D-02
 IDIUse=3 WtCom= 4.48D-01 WtEn= 5.52D-01
 Coeff-Com:  0.100D+01
 Coeff-En:   0.100D+01
 Coeff:      0.100D+01
 Gap=     0.279 Goal=   None    Shift=    0.000
 GapD=    0.279 DampG=1.000 DampE=0.500 DampFc=0.5000 IDamp=-1.
 Damping current iteration by 5.00D-01
 RMSDP=1.50D-02 MaxDP=1.26D-01              OVMax= 1.65D-01

 Cycle   2  Pass 0  IDiag  1:
 E= -78.5402372484341     Delta-E=       -0.043553653878 Rises=F Damp=T
 DIIS: error= 7.12D-03 at cycle   2 NSaved=   2.
 NSaved= 2 IEnMin= 2 EnMin= -78.5402372484341     IErMin= 2 ErrMin= 7.12D-03
 ErrMax= 7.12D-03  0.00D+00 EMaxC= 1.00D-01 BMatC= 1.21D-03 BMatP= 7.36D-02
 IDIUse=3 WtCom= 9.29D-01 WtEn= 7.12D-02
 Coeff-Com:  0.158D-01 0.984D+00
 Coeff-En:   0.196D-02 0.998D+00
 Coeff:      0.148D-01 0.985D+00
 Gap=     0.288 Goal=   None    Shift=    0.000
 RMSDP=1.57D-03 MaxDP=8.51D-03 DE=-4.36D-02 OVMax= 8.33D-02

 Cycle   3  Pass 0  IDiag  1:
 E= -78.5856981485542     Delta-E=       -0.045460900120 Rises=F Damp=F
 DIIS: error= 1.08D-03 at cycle   3 NSaved=   3.
 NSaved= 3 IEnMin= 3 EnMin= -78.5856981485542     IErMin= 3 ErrMin= 1.08D-03
 ErrMax= 1.08D-03  0.00D+00 EMaxC= 1.00D-01 BMatC= 1.58D-05 BMatP= 1.21D-03
 IDIUse=3 WtCom= 9.89D-01 WtEn= 1.08D-02
 Coeff-Com: -0.553D-02 0.448D-01 0.961D+00
 Coeff-En:   0.000D+00 0.000D+00 0.100D+01
 Coeff:     -0.547D-02 0.443D-01 0.961D+00
 Gap=     0.285 Goal=   None    Shift=    0.000
 RMSDP=1.26D-04 MaxDP=1.02D-03 DE=-4.55D-02 OVMax= 2.00D-03

 Cycle   4  Pass 0  IDiag  1:
 E= -78.5857140598933     Delta-E=       -0.000015911339 Rises=F Damp=F
 DIIS: error= 2.23D-04 at cycle   4 NSaved=   4.
 NSaved= 4 IEnMin= 4 EnMin= -78.5857140598933     IErMin= 4 ErrMin= 2.23D-04
 ErrMax= 2.23D-04  0.00D+00 EMaxC= 1.00D-01 BMatC= 8.26D-07 BMatP= 1.58D-05
 IDIUse=3 WtCom= 9.98D-01 WtEn= 2.23D-03
 Coeff-Com: -0.100D-02 0.541D-03 0.188D+00 0.812D+00
 Coeff-En:   0.000D+00 0.000D+00 0.000D+00 0.100D+01
 Coeff:     -0.100D-02 0.539D-03 0.188D+00 0.813D+00
 Gap=     0.285 Goal=   None    Shift=    0.000
 RMSDP=2.58D-05 MaxDP=1.99D-04 DE=-1.59D-05 OVMax= 2.55D-04

 Cycle   5  Pass 0  IDiag  1:
 E= -78.5857148274502     Delta-E=       -0.000000767557 Rises=F Damp=F
 DIIS: error= 1.27D-05 at cycle   5 NSaved=   5.
 NSaved= 5 IEnMin= 5 EnMin= -78.5857148274502     IErMin= 5 ErrMin= 1.27D-05
 ErrMax= 1.27D-05  0.00D+00 EMaxC= 1.00D-01 BMatC= 4.34D-09 BMatP= 8.26D-07
 IDIUse=1 WtCom= 1.00D+00 WtEn= 0.00D+00
 Coeff-Com:  0.867D-04-0.102D-02 0.261D-02 0.624D-01 0.936D+00
 Coeff:      0.867D-04-0.102D-02 0.261D-02 0.624D-01 0.936D+00
 Gap=     0.285 Goal=   None    Shift=    0.000
 RMSDP=1.83D-06 MaxDP=1.40D-05 DE=-7.68D-07 OVMax= 2.54D-05

 Initial convergence to 1.0D-05 achieved.  Increase integral accuracy.
 Cycle   6  Pass 1  IDiag  1:
 E= -78.5857154944115     Delta-E=       -0.000000666961 Rises=F Damp=F
 DIIS: error= 8.64D-07 at cycle   1 NSaved=   1.
 NSaved= 1 IEnMin= 1 EnMin= -78.5857154944115     IErMin= 1 ErrMin= 8.64D-07
 ErrMax= 8.64D-07  0.00D+00 EMaxC= 1.00D-01 BMatC= 1.34D-11 BMatP= 1.34D-11
 IDIUse=1 WtCom= 1.00D+00 WtEn= 0.00D+00
 Coeff-Com:  0.100D+01
 Coeff:      0.100D+01
 Gap=     0.285 Goal=   None    Shift=    0.000
 RMSDP=1.83D-06 MaxDP=1.40D-05 DE=-6.67D-07 OVMax= 2.17D-06

 Cycle   7  Pass 1  IDiag  1:
 E= -78.5857154944393     Delta-E=       -0.000000000028 Rises=F Damp=F
 DIIS: error= 3.05D-07 at cycle   2 NSaved=   2.
 NSaved= 2 IEnMin= 2 EnMin= -78.5857154944393     IErMin= 2 ErrMin= 3.05D-07
 ErrMax= 3.05D-07  0.00D+00 EMaxC= 1.00D-01 BMatC= 1.13D-12 BMatP= 1.34D-11
 IDIUse=1 WtCom= 1.00D+00 WtEn= 0.00D+00
 Coeff-Com:  0.907D-01 0.909D+00
 Coeff:      0.907D-01 0.909D+00
 Gap=     0.285 Goal=   None    Shift=    0.000
 RMSDP=5.07D-08 MaxDP=4.21D-07 DE=-2.78D-11 OVMax= 7.30D-07

 Cycle   8  Pass 1  IDiag  1:
 E= -78.5857154944398     Delta-E=       -0.000000000001 Rises=F Damp=F
 DIIS: error= 1.60D-07 at cycle   3 NSaved=   3.
 NSaved= 3 IEnMin= 3 EnMin= -78.5857154944398     IErMin= 3 ErrMin= 1.60D-07
 ErrMax= 1.60D-07  0.00D+00 EMaxC= 1.00D-01 BMatC= 7.83D-13 BMatP= 1.13D-12
 IDIUse=1 WtCom= 1.00D+00 WtEn= 0.00D+00
 Coeff-Com: -0.393D-01 0.456D+00 0.583D+00
 Coeff:     -0.393D-01 0.456D+00 0.583D+00
 Gap=     0.285 Goal=   None    Shift=    0.000
 RMSDP=2.30D-08 MaxDP=2.03D-07 DE=-5.40D-13 OVMax= 2.61D-07

 Cycle   9  Pass 1  IDiag  1:
 E= -78.5857154944405     Delta-E=       -0.000000000001 Rises=F Damp=F
 DIIS: error= 2.86D-09 at cycle   4 NSaved=   4.
 NSaved= 4 IEnMin= 4 EnMin= -78.5857154944405     IErMin= 4 ErrMin= 2.86D-09
 ErrMax= 2.86D-09  0.00D+00 EMaxC= 1.00D-01 BMatC= 2.76D-16 BMatP= 7.83D-13
 IDIUse=1 WtCom= 1.00D+00 WtEn= 0.00D+00
 Coeff-Com: -0.452D-02 0.330D-01 0.404D-01 0.931D+00
 Coeff:     -0.452D-02 0.330D-01 0.404D-01 0.931D+00
 Gap=     0.285 Goal=   None    Shift=    0.000
 RMSDP=5.60D-10 MaxDP=3.28D-09 DE=-6.82D-13 OVMax= 6.73D-09

 SCF Done:  E(RB3LYP) =  -78.5857154944     A.U. after    9 cycles
            NFock=  9  Conv=0.56D-09     -V/T= 2.0064
 KE= 7.808695185710D+01 PE=-2.485564185337D+02 EE= 5.846025083919D+01
 Leave Link  502 at Tue Oct  6 15:57:33 2020, MaxMem=  2684354560 cpu:              11.5 elap:               1.3
 (Enter /udrive/faculty/rpeverati/g16/g16/l508.exe)
 QCSCF skips out because SCF is already converged.
 Leave Link  508 at Tue Oct  6 15:57:33 2020, MaxMem=  2684354560 cpu:               0.3 elap:               0.3
 (Enter /udrive/faculty/rpeverati/g16/g16/l601.exe)
 Copying SCF densities to generalized density rwf, IOpCl= 0 IROHF=0.

 **********************************************************************

            Population analysis using the SCF density.

 **********************************************************************

 Orbital symmetries:
       Occupied  (AG) (B1U) (AG) (B1U) (B2U) (AG) (B3G) (B3U)
       Virtual   (B2G) (AG) (B2U) (B1U) (B3G) (B1U) (AG) (B3U)
                 (B2U) (B2G) (AG) (B1U) (B2U) (B3G) (B1U) (AG)
                 (B1U) (B3G) (B3U) (B1G) (AU) (AG) (B2U) (AG) (B1U)
                 (B2G) (B3G) (B1U)
 The electronic state is 1-AG.
 Alpha  occ. eigenvalues --  -10.17572 -10.17493  -0.75532  -0.57832  -0.46684
 Alpha  occ. eigenvalues --   -0.41548  -0.35495  -0.26636
 Alpha virt. eigenvalues --    0.01889   0.12321   0.14286   0.16031   0.24497
 Alpha virt. eigenvalues --    0.33155   0.48027   0.54906   0.56923   0.63798
 Alpha virt. eigenvalues --    0.66052   0.70249   0.85177   0.87680   0.93657
 Alpha virt. eigenvalues --    0.94947   1.11256   1.22388   1.46274   1.54426
 Alpha virt. eigenvalues --    1.83159   1.89668   1.99451   2.09782   2.29657
 Alpha virt. eigenvalues --    2.38612   2.70226   2.70513
          Condensed to atoms (all electrons):
               1          2          3          4          5          6
     1  C    4.905349   0.688762   0.379682   0.379682  -0.034875  -0.034875
     2  C    0.688762   4.905349  -0.034875  -0.034875   0.379682   0.379682
     3  H    0.379682  -0.034875   0.560881  -0.043633  -0.009131   0.005215
     4  H    0.379682  -0.034875  -0.043633   0.560881   0.005215  -0.009131
     5  H   -0.034875   0.379682  -0.009131   0.005215   0.560881  -0.043633
     6  H   -0.034875   0.379682   0.005215  -0.009131  -0.043633   0.560881
 Mulliken charges:
               1
     1  C   -0.283725
     2  C   -0.283725
     3  H    0.141862
     4  H    0.141862
     5  H    0.141862
     6  H    0.141862
 Sum of Mulliken charges =   0.00000
 Mulliken charges with hydrogens summed into heavy atoms:
               1
     1  C    0.000000
     2  C    0.000000
 Electronic spatial extent (au):  <R**2>=             81.8603
 Charge=              0.0000 electrons
 Dipole moment (field-independent basis, Debye):
    X=             -0.0000    Y=              0.0000    Z=              0.0000  Tot=              0.0000
 Quadrupole moment (field-independent basis, Debye-Ang):
   XX=            -15.0042   YY=            -12.0822   ZZ=            -12.0231
   XY=              0.0000   XZ=             -0.0000   YZ=             -0.0000
 Traceless Quadrupole moment (field-independent basis, Debye-Ang):
   XX=             -1.9677   YY=              0.9543   ZZ=              1.0134
   XY=              0.0000   XZ=             -0.0000   YZ=             -0.0000
 Octapole moment (field-independent basis, Debye-Ang**2):
  XXX=             -0.0000  YYY=             -0.0000  ZZZ=              0.0000  XYY=             -0.0000
  XXY=             -0.0000  XXZ=              0.0000  XZZ=             -0.0000  YZZ=              0.0000
  YYZ=             -0.0000  XYZ=             -0.0000
 Hexadecapole moment (field-independent basis, Debye-Ang**3):
 XXXX=            -15.5394 YYYY=            -25.9542 ZZZZ=            -66.4086 XXXY=             -0.0000
 XXXZ=              0.0000 YYYX=             -0.0000 YYYZ=              0.0000 ZZZX=              0.0000
 ZZZY=             -0.0000 XXYY=             -7.4765 XXZZ=            -14.4841 YYZZ=            -13.2012
 XXYZ=             -0.0000 YYXZ=              0.0000 ZZXY=              0.0000
 N-N= 3.342350034301D+01 E-N=-2.485564185946D+02  KE= 7.808695185710D+01
 No NMR shielding tensors so no spin-rotation constants.
 Leave Link  601 at Tue Oct  6 15:57:34 2020, MaxMem=  2684354560 cpu:               2.8 elap:               0.5
 (Enter /udrive/faculty/rpeverati/g16/g16/l701.exe)
 ... and contract with generalized density number  0.
 Compute integral first derivatives.
 Leave Link  701 at Tue Oct  6 15:57:35 2020, MaxMem=  2684354560 cpu:               3.7 elap:               0.6
 (Enter /udrive/faculty/rpeverati/g16/g16/l702.exe)
 L702 exits ... SP integral derivatives will be done elsewhere.
 Leave Link  702 at Tue Oct  6 15:57:35 2020, MaxMem=  2684354560 cpu:               1.7 elap:               0.4
 (Enter /udrive/faculty/rpeverati/g16/g16/l703.exe)
 Integral derivatives from FoFJK, PRISM(SPDF).
 Compute integral first derivatives, UseDBF=F ICtDFT=           0.
 Calling FoFJK, ICntrl=      2127 FMM=F ISym2X=1 I1Cent= 0 IOpClX= 0 NMat=1 NMatS=1 NMatT=0.
 FoFJK:  IHMeth= 1 ICntrl=    2127 DoSepK=F KAlg= 0 I1Cent=           0 FoldK=F
 IRaf=         0 NMat=       1 IRICut=       1 DoRegI=T DoRafI=F ISym2E= 1 IDoP0=0 IntGTp=1.
 FoFCou: FMM=F IPFlag=           0 FMFlag=      100000 FMFlg1=         800
         NFxFlg=           0 DoJE=F BraDBF=F KetDBF=F FulRan=T
         wScrn=  0.000000 ICntrl=      2127 IOpCl=  0 I1Cent=           0 NGrid=           0
         NMat0=    1 NMatS0=      1 NMatT0=    0 NMatD0=    1 NMtDS0=    0 NMtDT0=    0
 Petite list used in FoFCou.
 Leave Link  703 at Tue Oct  6 15:57:36 2020, MaxMem=  2684354560 cpu:               4.8 elap:               0.7
 (Enter /udrive/faculty/rpeverati/g16/g16/l716.exe)
 Dipole        =-5.11520014D-17 0.00000000D+00 8.88178420D-16
 ***** Axes restored to original set *****
 -------------------------------------------------------------------
 Center     Atomic                   Forces (Hartrees/Bohr)
 Number     Number              X              Y              Z
 -------------------------------------------------------------------
      1        6          -0.000000000    0.000000000   -0.004483397
      2        6          -0.000000000   -0.000000000    0.004483397
      3        1           0.000000000    0.003104118    0.002820711
      4        1           0.000000000   -0.003104118    0.002820711
      5        1          -0.000000000    0.003104118   -0.002820711
      6        1           0.000000000   -0.003104118   -0.002820711
 -------------------------------------------------------------------
 Cartesian Forces:  Max     0.004483397 RMS     0.002478457
 Leave Link  716 at Tue Oct  6 15:57:37 2020, MaxMem=  2684354560 cpu:               1.9 elap:               0.5
 (Enter /udrive/faculty/rpeverati/g16/g16/l103.exe)

 GradGradGradGradGradGradGradGradGradGradGradGradGradGradGradGradGradGrad
 Berny optimization.
 Optmz: redundant internal coordinate code flag= 1
 FormGI is forming the generalized inverse of G from B-inverse, IUseBI=4.
 Internal  Forces:  Max     0.004121366 RMS     0.002200910
 Search for a local minimum.
 Step number   1 out of a maximum of  100
 All quantities printed in internal units (Hartrees-Bohrs-Radians)
 RMS Force = .22009D-02 SwitMx=.10000D-02 MixMth= 1
 Mixed Optimization -- RFO/linear search
 Second derivative matrix not updated -- first step.
 The second derivative matrix:
                          R1        R2        R3        R4        R5
           R1           0.59226
           R2           0.00000   0.35816
           R3           0.00000   0.00000   0.35816
           R4           0.00000   0.00000   0.00000   0.35816
           R5           0.00000   0.00000   0.00000   0.00000   0.35816
           A1           0.00000   0.00000   0.00000   0.00000   0.00000
           A2           0.00000   0.00000   0.00000   0.00000   0.00000
           A3           0.00000   0.00000   0.00000   0.00000   0.00000
           A4           0.00000   0.00000   0.00000   0.00000   0.00000
           A5           0.00000   0.00000   0.00000   0.00000   0.00000
           A6           0.00000   0.00000   0.00000   0.00000   0.00000
           D1           0.00000   0.00000   0.00000   0.00000   0.00000
           D2           0.00000   0.00000   0.00000   0.00000   0.00000
           D3           0.00000   0.00000   0.00000   0.00000   0.00000
           D4           0.00000   0.00000   0.00000   0.00000   0.00000
                          A1        A2        A3        A4        A5
           A1           0.16000
           A2           0.00000   0.16000
           A3           0.00000   0.00000   0.16000
           A4           0.00000   0.00000   0.00000   0.16000
           A5           0.00000   0.00000   0.00000   0.00000   0.16000
           A6           0.00000   0.00000   0.00000   0.00000   0.00000
           D1           0.00000   0.00000   0.00000   0.00000   0.00000
           D2           0.00000   0.00000   0.00000   0.00000   0.00000
           D3           0.00000   0.00000   0.00000   0.00000   0.00000
           D4           0.00000   0.00000   0.00000   0.00000   0.00000
                          A6        D1        D2        D3        D4
           A6           0.16000
           D1           0.00000   0.02999
           D2           0.00000   0.00000   0.02999
           D3           0.00000   0.00000   0.00000   0.02999
           D4           0.00000   0.00000   0.00000   0.00000   0.02999
 ITU=  0
 Eigenvectors of the second derivative matrix:
                           1         2         3         4         5
     Eigenvalues --     0.02999   0.02999   0.02999   0.16000   0.16000
   1         R1        -0.00000  -0.00000  -0.00000  -0.00000   0.00000
   2         R2        -0.00000   0.00000  -0.00000  -0.00000   0.00000
   3         R3        -0.00000   0.00000  -0.00000   0.00000   0.00000
   4         R4        -0.00000  -0.00000  -0.00000  -0.00000   0.00000
   5         R5        -0.00000  -0.00000  -0.00000   0.00000  -0.00000
   6         A1         0.00000  -0.00000  -0.00000  -0.07587   0.72143
   7         A2         0.00000  -0.00000   0.00000  -0.47067  -0.49766
   8         A3        -0.00000   0.00000   0.00000   0.54654  -0.22377
   9         A4         0.00000  -0.00000   0.00000  -0.35411  -0.22247
  10         A5         0.00000   0.00000   0.00000  -0.20105   0.34314
  11         A6        -0.00000   0.00000  -0.00000   0.55516  -0.12067
  12         D1         0.45547   0.34015  -0.65333  -0.00000  -0.00000
  13         D2        -0.42499  -0.12520  -0.74412  -0.00000   0.00000
  14         D3         0.10532   0.84926   0.13293  -0.00000  -0.00000
  15         D4        -0.77514   0.38391   0.04214  -0.00000   0.00000
                           6         7         8         9        10
     Eigenvalues --     0.16000   0.16000   0.35816   0.35816   0.35816
   1         R1        -0.00000   0.00000  -0.00000   0.00000   0.00000
   2         R2        -0.00000   0.00000  -0.59030  -0.73485  -0.33399
   3         R3         0.00000   0.00000   0.08439   0.35512  -0.93054
   4         R4        -0.00000   0.00000  -0.46090   0.34254   0.06304
   5         R5         0.00000   0.00000   0.65727  -0.46536  -0.13628
   6         A1         0.19887  -0.31765   0.00000   0.00000   0.00000
   7         A2        -0.39016  -0.21273   0.00000   0.00000  -0.00000
   8         A3         0.19129   0.53038  -0.00000  -0.00000   0.00000
   9         A4         0.70103   0.01819  -0.00000   0.00000  -0.00000
  10         A5        -0.48179   0.52572   0.00000   0.00000   0.00000
  11         A6        -0.21924  -0.54391  -0.00000  -0.00000  -0.00000
  12         D1         0.00000   0.00000   0.00000   0.00000   0.00000
  13         D2         0.00000   0.00000   0.00000  -0.00000   0.00000
  14         D3         0.00000  -0.00000  -0.00000   0.00000   0.00000
  15         D4         0.00000   0.00000  -0.00000   0.00000   0.00000
                          11        12
     Eigenvalues --     0.35816   0.59226
   1         R1         0.00000  -1.00000
   2         R2        -0.00086   0.00000
   3         R3         0.02951  -0.00000
   4         R4        -0.81625   0.00000
   5         R5        -0.57694  -0.00000
   6         A1         0.00000  -0.00000
   7         A2        -0.00000   0.00000
   8         A3        -0.00000  -0.00000
   9         A4         0.00000   0.00000
  10         A5         0.00000   0.00000
  11         A6        -0.00000  -0.00000
  12         D1         0.00000   0.00000
  13         D2         0.00000   0.00000
  14         D3        -0.00000  -0.00000
  15         D4        -0.00000   0.00000
 Iter=   1 RLamda= 0.00000000D+00 Sum=-2.13063804D-04.
 Iter=   2 RLamda=-2.13063804D-04 Sum=-2.12922146D-04.
 Iter=   3 RLamda=-2.12922146D-04 Sum=-2.12922241D-04.
 RFO step:  Lambda=-2.12922146D-04 EMin= 2.99901184D-02
 Linear search not attempted -- first point.
 Iteration  1 RMS(Cart)=  0.00734852 RMS(Int)=  0.00001755
 Iteration  2 RMS(Cart)=  0.00002050 RMS(Int)=  0.00000000
 Iteration  3 RMS(Cart)=  0.00000000 RMS(Int)=  0.00000000
 ITry= 1 IFail=0 DXMaxC= 1.28D-02 DCOld= 1.00D+10 DXMaxT= 3.00D-01 DXLimC= 3.00D+00 Rises=F
 ClnCor:  largest displacement from symmetrization is 5.11D-14 for atom     1.
 Variable       Old X    -DE/DX   Delta X   Delta X   Delta X     New X
                                 (Linear)    (Quad)   (Total)
    R1        2.51558   0.00116   0.00000   0.00195   0.00195   2.51753
    R2        2.04370   0.00412   0.00000   0.01150   0.01150   2.05520
    R3        2.04370   0.00412   0.00000   0.01150   0.01150   2.05520
    R4        2.04370   0.00412   0.00000   0.01150   0.01150   2.05520
    R5        2.04370   0.00412   0.00000   0.01150   0.01150   2.05520
    A1        2.12167   0.00053   0.00000   0.00331   0.00331   2.12498
    A2        2.12167   0.00053   0.00000   0.00331   0.00331   2.12498
    A3        2.03985  -0.00106   0.00000  -0.00662  -0.00662   2.03323
    A4        2.12167   0.00053   0.00000   0.00331   0.00331   2.12498
    A5        2.12167   0.00053   0.00000   0.00331   0.00331   2.12498
    A6        2.03985  -0.00106   0.00000  -0.00662  -0.00662   2.03323
    D1        0.00000   0.00000   0.00000   0.00000   0.00000   0.00000
    D2        3.14159  -0.00000   0.00000  -0.00000   0.00000   3.14159
    D3        3.14159   0.00000   0.00000   0.00000   0.00000   3.14159
    D4        0.00000  -0.00000   0.00000  -0.00000   0.00000   0.00000
         Item               Value     Threshold  Converged?
 Maximum Force            0.004121     0.000450     NO 
 RMS     Force            0.002201     0.000300     NO 
 Maximum Displacement     0.012789     0.001800     NO 
 RMS     Displacement     0.007354     0.001200     NO 
 Predicted change in Energy=-1.065318D-04
 Lowest energy point so far.  Saving SCF results.
 Largest change from initial coordinates is atom    3       0.008 Angstoms.
 GradGradGradGradGradGradGradGradGradGradGradGradGradGradGradGradGradGrad

 Leave Link  103 at Tue Oct  6 15:57:38 2020, MaxMem=  2684354560 cpu:               3.2 elap:               0.5
 (Enter /udrive/faculty/rpeverati/g16/g16/l202.exe)
                          Input orientation:                          
 ---------------------------------------------------------------------
 Center     Atomic      Atomic             Coordinates (Angstroms)
 Number     Number       Type             X           Y           Z
 ---------------------------------------------------------------------
      1          6           0       -0.000000    0.000000    0.666111
      2          6           0        0.000000    0.000000   -0.666111
      3          1           0       -0.000000    0.924789    1.238438
      4          1           0       -0.000000   -0.924789    1.238438
      5          1           0        0.000000    0.924789   -1.238438
      6          1           0        0.000000   -0.924789   -1.238438
 ---------------------------------------------------------------------
                    Distance matrix (angstroms):
                    1          2          3          4          5
     1  C    0.000000
     2  C    1.332222   0.000000
     3  H    1.087563   2.117201   0.000000
     4  H    1.087563   2.117201   1.849578   0.000000
     5  H    2.117201   1.087563   2.476876   3.091254   0.000000
     6  H    2.117201   1.087563   3.091254   2.476876   1.849578
                    6
     6  H    0.000000
 Stoichiometry    C2H4
 Framework group  D2H[C2"(C.C),SG(H4)]
 Deg. of freedom     3
 Full point group                 D2H     NOp   8
 RotChk:  IX=0 Diff= 1.57D-15
 Largest Abelian subgroup         D2H     NOp   8
 Largest concise Abelian subgroup D2      NOp   4
                         Standard orientation:                         
 ---------------------------------------------------------------------
 Center     Atomic      Atomic             Coordinates (Angstroms)
 Number     Number       Type             X           Y           Z
 ---------------------------------------------------------------------
      1          6           0       -0.000000   -0.000000    0.666111
      2          6           0        0.000000   -0.000000   -0.666111
      3          1           0       -0.000000    0.924789    1.238438
      4          1           0       -0.000000   -0.924789    1.238438
      5          1           0        0.000000    0.924789   -1.238438
      6          1           0       -0.000000   -0.924789   -1.238438
 ---------------------------------------------------------------------
 Rotational constants (GHZ):         146.5841188          30.0252279          24.9206605
 Leave Link  202 at Tue Oct  6 15:57:38 2020, MaxMem=  2684354560 cpu:               1.0 elap:               0.3
 (Enter /udrive/faculty/rpeverati/g16/g16/l301.exe)
 Standard basis: 6-31G(d) (5D, 7F)
 Ernie: Thresh=  0.10000D-02 Tol=  0.10000D-05 Strict=F.
 There are    10 symmetry adapted cartesian basis functions of AG  symmetry.
 There are     1 symmetry adapted cartesian basis functions of B1G symmetry.
 There are     3 symmetry adapted cartesian basis functions of B2G symmetry.
 There are     5 symmetry adapted cartesian basis functions of B3G symmetry.
 There are     1 symmetry adapted cartesian basis functions of AU  symmetry.
 There are    10 symmetry adapted cartesian basis functions of B1U symmetry.
 There are     5 symmetry adapted cartesian basis functions of B2U symmetry.
 There are     3 symmetry adapted cartesian basis functions of B3U symmetry.
 There are     9 symmetry adapted basis functions of AG  symmetry.
 There are     1 symmetry adapted basis functions of B1G symmetry.
 There are     3 symmetry adapted basis functions of B2G symmetry.
 There are     5 symmetry adapted basis functions of B3G symmetry.
 There are     1 symmetry adapted basis functions of AU  symmetry.
 There are     9 symmetry adapted basis functions of B1U symmetry.
 There are     5 symmetry adapted basis functions of B2U symmetry.
 There are     3 symmetry adapted basis functions of B3U symmetry.
    36 basis functions,    72 primitive gaussians,    38 cartesian basis functions
     8 alpha electrons        8 beta electrons
       nuclear repulsion energy        33.3179076714 Hartrees.
 IExCor=  402 DFT=T Ex+Corr=B3LYP ExCW=0 ScaHFX=  0.200000
 ScaDFX=  0.800000  0.720000  1.000000  0.810000 ScalE2=  1.000000  1.000000
 IRadAn=      5 IRanWt=     -1 IRanGd=            0 ICorTp=0 IEmpDi=  4
 NAtoms=    6 NActive=    6 NUniq=    2 SFac= 4.00D+00 NAtFMM=   60 NAOKFM=F Big=F
 Integral buffers will be    131072 words long.
 Raffenetti 2 integral format.
 Two-electron integral symmetry is turned on.
 Leave Link  301 at Tue Oct  6 15:57:39 2020, MaxMem=  2684354560 cpu:               2.1 elap:               0.5
 (Enter /udrive/faculty/rpeverati/g16/g16/l302.exe)
 NPDir=0 NMtPBC=     1 NCelOv=     1 NCel=       1 NClECP=     1 NCelD=      1
         NCelK=      1 NCelE2=     1 NClLst=     1 CellRange=     0.0.
 One-electron integrals computed using PRISM.
 One-electron integral symmetry used in STVInt
 NBasis=    36 RedAO= T EigKep=  8.17D-03  NBF=     9     1     3     5     1     9     5     3
 NBsUse=    36 1.00D-06 EigRej= -1.00D+00 NBFU=     9     1     3     5     1     9     5     3
 Precomputing XC quadrature grid using
 IXCGrd= 4 IRadAn=           5 IRanWt=          -1 IRanGd=           0 AccXCQ= 0.00D+00.
 Generated NRdTot=       0 NPtTot=           0 NUsed=           0 NTot=          32
 NSgBfM=    38    38    38    38    38 MxSgAt=     6 MxSgA2=     6.
 Leave Link  302 at Tue Oct  6 15:57:40 2020, MaxMem=  2684354560 cpu:               4.2 elap:               0.7
 (Enter /udrive/faculty/rpeverati/g16/g16/l303.exe)
 DipDrv:  MaxL=1.
 Leave Link  303 at Tue Oct  6 15:57:40 2020, MaxMem=  2684354560 cpu:               1.4 elap:               0.4
 (Enter /udrive/faculty/rpeverati/g16/g16/l401.exe)
 Initial guess from the checkpoint file:  "MN_11_c2h4_BH76_B3LYP_6-31Gs.chk"
 SCF N**3 symmetry information disabled.
 B after Tr=     0.000000    0.000000   -0.000000
         Rot=    1.000000    0.000000    0.000000    0.000000 Ang=   0.00 deg.
 Guess basis will be translated and rotated to current coordinates.
 JPrj=2 DoOrth=T DoCkMO=T.
 Initial guess orbital symmetries:
       Occupied  (AG) (B1U) (AG) (B1U) (B2U) (AG) (B3G) (B3U)
       Virtual   (B2G) (AG) (B2U) (B1U) (B3G) (B1U) (AG) (B3U)
                 (B2U) (B2G) (AG) (B1U) (B2U) (B3G) (B1U) (AG)
                 (B1U) (B3G) (B3U) (B1G) (AU) (AG) (B2U) (AG) (B1U)
                 (B2G) (B3G) (B1U)
 The electronic state of the initial guess is 1-AG.
 Leave Link  401 at Tue Oct  6 15:57:41 2020, MaxMem=  2684354560 cpu:               4.3 elap:               0.7
 (Enter /udrive/faculty/rpeverati/g16/g16/l502.exe)
 Keep R1 ints in memory in symmetry-blocked form, NReq=10580747.
 FoFCou: FMM=F IPFlag=           0 FMFlag=           0 FMFlg1=           0
         NFxFlg=           0 DoJE=F BraDBF=F KetDBF=F FulRan=T
         wScrn=  0.000000 ICntrl=       600 IOpCl=  0 I1Cent=           0 NGrid=           0
         NMat0=    1 NMatS0=    666 NMatT0=    0 NMatD0=    1 NMtDS0=    0 NMtDT0=    0
 Petite list used in FoFCou.
 Closed shell SCF:
 Using DIIS extrapolation, IDIIS=  1040.
 NGot=  2684354560 LenX=  2684315185 LenY=  2684313300
 Requested convergence on RMS density matrix=1.00D-08 within 120 cycles.
 Requested convergence on MAX density matrix=1.00D-06.
 Requested convergence on             energy=1.00D-06.
 No special actions if energy rises.

 Cycle   1  Pass 1  IDiag  1:
 E= -78.5858006072988    
 DIIS: error= 8.39D-04 at cycle   1 NSaved=   1.
 NSaved= 1 IEnMin= 1 EnMin= -78.5858006072988     IErMin= 1 ErrMin= 8.39D-04
 ErrMax= 8.39D-04  0.00D+00 EMaxC= 1.00D-01 BMatC= 1.51D-05 BMatP= 1.51D-05
 IDIUse=3 WtCom= 9.92D-01 WtEn= 8.39D-03
 Coeff-Com:  0.100D+01
 Coeff-En:   0.100D+01
 Coeff:      0.100D+01
 Gap=     0.285 Goal=   None    Shift=    0.000
 RMSDP=1.62D-04 MaxDP=1.81D-03              OVMax= 2.33D-03

 Cycle   2  Pass 1  IDiag  1:
 E= -78.5858158478271     Delta-E=       -0.000015240528 Rises=F Damp=F
 DIIS: error= 5.02D-04 at cycle   2 NSaved=   2.
 NSaved= 2 IEnMin= 2 EnMin= -78.5858158478271     IErMin= 2 ErrMin= 5.02D-04
 ErrMax= 5.02D-04  0.00D+00 EMaxC= 1.00D-01 BMatC= 5.64D-06 BMatP= 1.51D-05
 IDIUse=3 WtCom= 9.95D-01 WtEn= 5.02D-03
 Coeff-Com:  0.350D+00 0.650D+00
 Coeff-En:   0.000D+00 0.100D+01
 Coeff:      0.348D+00 0.652D+00
 Gap=     0.285 Goal=   None    Shift=    0.000
 RMSDP=8.52D-05 MaxDP=6.69D-04 DE=-1.52D-05 OVMax= 8.60D-04

 Cycle   3  Pass 1  IDiag  1:
 E= -78.5858217001146     Delta-E=       -0.000005852288 Rises=F Damp=F
 DIIS: error= 1.42D-04 at cycle   3 NSaved=   3.
 NSaved= 3 IEnMin= 3 EnMin= -78.5858217001146     IErMin= 3 ErrMin= 1.42D-04
 ErrMax= 1.42D-04  0.00D+00 EMaxC= 1.00D-01 BMatC= 6.22D-07 BMatP= 5.64D-06
 IDIUse=3 WtCom= 9.99D-01 WtEn= 1.42D-03
 Coeff-Com:  0.209D-01 0.252D+00 0.727D+00
 Coeff-En:   0.000D+00 0.000D+00 0.100D+01
 Coeff:      0.209D-01 0.252D+00 0.727D+00
 Gap=     0.285 Goal=   None    Shift=    0.000
 RMSDP=1.83D-05 MaxDP=2.02D-04 DE=-5.85D-06 OVMax= 2.67D-04

 Cycle   4  Pass 1  IDiag  1:
 E= -78.5858223676601     Delta-E=       -0.000000667545 Rises=F Damp=F
 DIIS: error= 1.31D-05 at cycle   4 NSaved=   4.
 NSaved= 4 IEnMin= 4 EnMin= -78.5858223676601     IErMin= 4 ErrMin= 1.31D-05
 ErrMax= 1.31D-05  0.00D+00 EMaxC= 1.00D-01 BMatC= 2.91D-09 BMatP= 6.22D-07
 IDIUse=1 WtCom= 1.00D+00 WtEn= 0.00D+00
 Coeff-Com: -0.331D-02 0.335D-01 0.125D+00 0.845D+00
 Coeff:     -0.331D-02 0.335D-01 0.125D+00 0.845D+00
 Gap=     0.285 Goal=   None    Shift=    0.000
 RMSDP=1.80D-06 MaxDP=1.38D-05 DE=-6.68D-07 OVMax= 1.73D-05

 Cycle   5  Pass 1  IDiag  1:
 E= -78.5858223705023     Delta-E=       -0.000000002842 Rises=F Damp=F
 DIIS: error= 1.14D-06 at cycle   5 NSaved=   5.
 NSaved= 5 IEnMin= 5 EnMin= -78.5858223705023     IErMin= 5 ErrMin= 1.14D-06
 ErrMax= 1.14D-06  0.00D+00 EMaxC= 1.00D-01 BMatC= 2.40D-11 BMatP= 2.91D-09
 IDIUse=1 WtCom= 1.00D+00 WtEn= 0.00D+00
 Coeff-Com: -0.768D-03-0.112D-02-0.195D-02 0.728D-01 0.931D+00
 Coeff:     -0.768D-03-0.112D-02-0.195D-02 0.728D-01 0.931D+00
 Gap=     0.285 Goal=   None    Shift=    0.000
 RMSDP=1.23D-07 MaxDP=1.03D-06 DE=-2.84D-09 OVMax= 1.69D-06

 Cycle   6  Pass 1  IDiag  1:
 E= -78.5858223705268     Delta-E=       -0.000000000024 Rises=F Damp=F
 DIIS: error= 4.40D-08 at cycle   6 NSaved=   6.
 NSaved= 6 IEnMin= 6 EnMin= -78.5858223705268     IErMin= 6 ErrMin= 4.40D-08
 ErrMax= 4.40D-08  0.00D+00 EMaxC= 1.00D-01 BMatC= 2.19D-14 BMatP= 2.40D-11
 IDIUse=1 WtCom= 1.00D+00 WtEn= 0.00D+00
 Coeff-Com:  0.379D-04-0.116D-03-0.440D-03-0.575D-02-0.223D-01 0.103D+01
 Coeff:      0.379D-04-0.116D-03-0.440D-03-0.575D-02-0.223D-01 0.103D+01
 Gap=     0.285 Goal=   None    Shift=    0.000
 RMSDP=6.81D-09 MaxDP=6.50D-08 DE=-2.44D-11 OVMax= 1.15D-07

 SCF Done:  E(RB3LYP) =  -78.5858223705     A.U. after    6 cycles
            NFock=  6  Conv=0.68D-08     -V/T= 2.0069
 KE= 7.804983401921D+01 PE=-2.483176136723D+02 EE= 5.836404961119D+01
 Leave Link  502 at Tue Oct  6 15:57:43 2020, MaxMem=  2684354560 cpu:               7.7 elap:               0.9
 (Enter /udrive/faculty/rpeverati/g16/g16/l508.exe)
 QCSCF skips out because SCF is already converged.
 Leave Link  508 at Tue Oct  6 15:57:43 2020, MaxMem=  2684354560 cpu:               0.4 elap:               0.3
 (Enter /udrive/faculty/rpeverati/g16/g16/l701.exe)
 ... and contract with generalized density number  0.
 Compute integral first derivatives.
 Leave Link  701 at Tue Oct  6 15:57:44 2020, MaxMem=  2684354560 cpu:               3.6 elap:               0.6
 (Enter /udrive/faculty/rpeverati/g16/g16/l702.exe)
 L702 exits ... SP integral derivatives will be done elsewhere.
 Leave Link  702 at Tue Oct  6 15:57:45 2020, MaxMem=  2684354560 cpu:               1.6 elap:               0.4
 (Enter /udrive/faculty/rpeverati/g16/g16/l703.exe)
 Integral derivatives from FoFJK, PRISM(SPDF).
 Compute integral first derivatives, UseDBF=F ICtDFT=           0.
 Calling FoFJK, ICntrl=      2127 FMM=F ISym2X=1 I1Cent= 0 IOpClX= 0 NMat=1 NMatS=1 NMatT=0.
 FoFJK:  IHMeth= 1 ICntrl=    2127 DoSepK=F KAlg= 0 I1Cent=           0 FoldK=F
 IRaf=         0 NMat=       1 IRICut=       1 DoRegI=T DoRafI=F ISym2E= 1 IDoP0=0 IntGTp=1.
 FoFCou: FMM=F IPFlag=           0 FMFlag=      100000 FMFlg1=         800
         NFxFlg=           0 DoJE=F BraDBF=F KetDBF=F FulRan=T
         wScrn=  0.000000 ICntrl=      2127 IOpCl=  0 I1Cent=           0 NGrid=           0
         NMat0=    1 NMatS0=      1 NMatT0=    0 NMatD0=    1 NMtDS0=    0 NMtDT0=    0
 Petite list used in FoFCou.
 Leave Link  703 at Tue Oct  6 15:57:45 2020, MaxMem=  2684354560 cpu:               5.0 elap:               0.7
 (Enter /udrive/faculty/rpeverati/g16/g16/l716.exe)
 Dipole        =-5.11771354D-17 0.00000000D+00 0.00000000D+00
 ***** Axes restored to original set *****
 -------------------------------------------------------------------
 Center     Atomic                   Forces (Hartrees/Bohr)
 Number     Number              X              Y              Z
 -------------------------------------------------------------------
      1        6          -0.000000000    0.000000000   -0.001258304
      2        6          -0.000000000   -0.000000000    0.001258304
      3        1           0.000000000   -0.000225211    0.000195333
      4        1           0.000000000    0.000225211    0.000195333
      5        1          -0.000000000   -0.000225211   -0.000195333
      6        1           0.000000000    0.000225211   -0.000195333
 -------------------------------------------------------------------
 Cartesian Forces:  Max     0.001258304 RMS     0.000442352
 Leave Link  716 at Tue Oct  6 15:57:46 2020, MaxMem=  2684354560 cpu:               1.8 elap:               0.4
 (Enter /udrive/faculty/rpeverati/g16/g16/l103.exe)

 GradGradGradGradGradGradGradGradGradGradGradGradGradGradGradGradGradGrad
 Berny optimization.
 Optmz: redundant internal coordinate code flag= 1
 Using GEDIIS/GDIIS optimizer.
 Red2BG:  D1=  2.80D-01 OD1=  1.64D-02 B2RMS=  0.00D+00 IAprox=0
 FormGI is forming the generalized inverse of G from B-inverse, IUseBI=4.
 Internal  Forces:  Max     0.000867637 RMS     0.000287574
 Search for a local minimum.
 Step number   2 out of a maximum of  100
 All quantities printed in internal units (Hartrees-Bohrs-Radians)
 RMS Force = .28757D-03 SwitMx=.10000D-02 MixMth= 2
 Mixed Optimization -- En-DIIS/RFO-DIIS
 Update second derivatives using D2CorX and points    1    2
 DE= -1.07D-04 DEPred=-1.07D-04 R= 1.00D+00
 TightC=F SS=  1.41D+00  RLast= 2.58D-02 DXNew= 5.0454D-01 7.7326D-02
 Trust test= 1.00D+00 RLast= 2.58D-02 DXMaxT set to 3.00D-01
 The second derivative matrix:
                          R1        R2        R3        R4        R5
           R1           0.60541
           R2           0.01802   0.36245
           R3           0.01802   0.00429   0.36245
           R4           0.01802   0.00429   0.00429   0.36245
           R5           0.01802   0.00429   0.00429   0.00429   0.36245
           A1           0.00034  -0.00356  -0.00356  -0.00356  -0.00356
           A2           0.00034  -0.00356  -0.00356  -0.00356  -0.00356
           A3          -0.00068   0.00712   0.00712   0.00712   0.00712
           A4           0.00034  -0.00356  -0.00356  -0.00356  -0.00356
           A5           0.00034  -0.00356  -0.00356  -0.00356  -0.00356
           A6          -0.00068   0.00712   0.00712   0.00712   0.00712
           D1           0.00000   0.00000   0.00000   0.00000   0.00000
           D2          -0.00000  -0.00000  -0.00000  -0.00000  -0.00000
           D3           0.00000   0.00000   0.00000   0.00000   0.00000
           D4          -0.00000  -0.00000  -0.00000  -0.00000  -0.00000
                          A1        A2        A3        A4        A5
           A1           0.15921
           A2          -0.00079   0.15921
           A3           0.00157   0.00157   0.15686
           A4          -0.00079  -0.00079   0.00157   0.15921
           A5          -0.00079  -0.00079   0.00157  -0.00079   0.15921
           A6           0.00157   0.00157  -0.00314   0.00157   0.00157
           D1           0.00000   0.00000  -0.00000   0.00000   0.00000
           D2          -0.00000  -0.00000   0.00000  -0.00000  -0.00000
           D3           0.00000   0.00000  -0.00000   0.00000   0.00000
           D4          -0.00000  -0.00000   0.00000  -0.00000  -0.00000
                          A6        D1        D2        D3        D4
           A6           0.15686
           D1          -0.00000   0.02999
           D2           0.00000  -0.00000   0.02999
           D3          -0.00000   0.00000  -0.00000   0.02999
           D4           0.00000  -0.00000   0.00000  -0.00000   0.02999
 ITU=  1  0
 Use linear search instead of GDIIS.
 Eigenvectors of the second derivative matrix:
                           1         2         3         4         5
     Eigenvalues --     0.02999   0.02999   0.02999   0.14785   0.16000
   1         R1         0.00000  -0.00000   0.00000   0.01118   0.00000
   2         R2        -0.00000  -0.00000   0.00000  -0.05476   0.00000
   3         R3        -0.00000  -0.00000   0.00000  -0.05476   0.00000
   4         R4         0.00000  -0.00000  -0.00000  -0.05476   0.00000
   5         R5         0.00000  -0.00000  -0.00000  -0.05476   0.00000
   6         A1         0.00000  -0.00000  -0.00000  -0.28692   0.31477
   7         A2        -0.00000  -0.00000   0.00000  -0.28692  -0.44340
   8         A3         0.00000   0.00000  -0.00000   0.57384   0.12863
   9         A4        -0.00000  -0.00000   0.00000  -0.28692  -0.51142
  10         A5         0.00000  -0.00000  -0.00000  -0.28692   0.64005
  11         A6        -0.00000   0.00000   0.00000   0.57384  -0.12863
  12         D1         0.45077   0.70232  -0.23143  -0.00000  -0.00000
  13         D2         0.76872  -0.00601   0.39880   0.00000   0.00000
  14         D3         0.11972  -0.00351  -0.85770  -0.00000  -0.00000
  15         D4         0.43766  -0.71183  -0.22747   0.00000  -0.00000
                           6         7         8         9        10
     Eigenvalues --     0.16000   0.16000   0.35816   0.35816   0.35816
   1         R1        -0.00000   0.00000   0.00000   0.00000   0.00000
   2         R2        -0.00000   0.00000  -0.14521  -0.27078   0.80969
   3         R3        -0.00000   0.00000   0.69204   0.52055  -0.01057
   4         R4        -0.00000   0.00000   0.14521  -0.68369  -0.51136
   5         R5        -0.00000   0.00000  -0.69204   0.43391  -0.28776
   6         A1         0.33585  -0.60947   0.00000   0.00000   0.00000
   7         A2         0.22618   0.57928   0.00000   0.00000   0.00000
   8         A3        -0.56203   0.03019  -0.00000  -0.00000  -0.00000
   9         A4        -0.43326  -0.36615   0.00000   0.00000   0.00000
  10         A5        -0.12877   0.39634   0.00000   0.00000   0.00000
  11         A6         0.56203  -0.03019  -0.00000  -0.00000  -0.00000
  12         D1         0.00000  -0.00000   0.00000   0.00000   0.00000
  13         D2        -0.00000  -0.00000   0.00000  -0.00000  -0.00000
  14         D3         0.00000   0.00000  -0.00000   0.00000   0.00000
  15         D4         0.00000  -0.00000   0.00000   0.00000   0.00000
                          11        12
     Eigenvalues --     0.37253   0.61094
   1         R1         0.15145  -0.98840
   2         R2        -0.49117  -0.07588
   3         R3        -0.49117  -0.07588
   4         R4        -0.49117  -0.07588
   5         R5        -0.49117  -0.07588
   6         A1         0.03174   0.00162
   7         A2         0.03174   0.00162
   8         A3        -0.06348  -0.00324
   9         A4         0.03174   0.00162
  10         A5         0.03174   0.00162
  11         A6        -0.06348  -0.00324
  12         D1        -0.00000  -0.00000
  13         D2         0.00000   0.00000
  14         D3        -0.00000  -0.00000
  15         D4         0.00000   0.00000
 Iter=   1 RLamda= 0.00000000D+00 Sum=-4.27462838D-06.
 Iter=   2 RLamda=-4.27462838D-06 Sum=-4.27453679D-06.
 RFO step:  Lambda=-4.27462838D-06 EMin= 2.99901184D-02
 Quartic linear search produced a step of  0.00949.
 Iteration  1 RMS(Cart)=  0.00111207 RMS(Int)=  0.00000089
 Iteration  2 RMS(Cart)=  0.00000089 RMS(Int)=  0.00000000
 ITry= 1 IFail=0 DXMaxC= 1.54D-03 DCOld= 1.00D+10 DXMaxT= 3.00D-01 DXLimC= 3.00D+00 Rises=F
 ClnCor:  largest displacement from symmetrization is 6.05D-14 for atom     6.
 Variable       Old X    -DE/DX   Delta X   Delta X   Delta X     New X
                                 (Linear)    (Quad)   (Total)
    R1        2.51753  -0.00087   0.00002  -0.00146  -0.00144   2.51610
    R2        2.05520  -0.00009   0.00011  -0.00013  -0.00002   2.05518
    R3        2.05520  -0.00009   0.00011  -0.00013  -0.00002   2.05518
    R4        2.05520  -0.00009   0.00011  -0.00013  -0.00002   2.05518
    R5        2.05520  -0.00009   0.00011  -0.00013  -0.00002   2.05518
    A1        2.12498   0.00019   0.00003   0.00127   0.00130   2.12628
    A2        2.12498   0.00019   0.00003   0.00127   0.00130   2.12628
    A3        2.03323  -0.00039  -0.00006  -0.00253  -0.00259   2.03063
    A4        2.12498   0.00019   0.00003   0.00127   0.00130   2.12628
    A5        2.12498   0.00019   0.00003   0.00127   0.00130   2.12628
    A6        2.03323  -0.00039  -0.00006  -0.00253  -0.00259   2.03063
    D1        0.00000   0.00000   0.00000   0.00000   0.00000   0.00000
    D2        3.14159  -0.00000   0.00000  -0.00000   0.00000   3.14159
    D3        3.14159   0.00000   0.00000   0.00000   0.00000   3.14159
    D4        0.00000  -0.00000   0.00000  -0.00000   0.00000   0.00000
         Item               Value     Threshold  Converged?
 Maximum Force            0.000868     0.000450     NO 
 RMS     Force            0.000288     0.000300     YES
 Maximum Displacement     0.001537     0.001800     YES
 RMS     Displacement     0.001112     0.001200     YES
 Predicted change in Energy=-2.144464D-06
 Lowest energy point so far.  Saving SCF results.
 Largest change from initial coordinates is atom    3       0.008 Angstoms.
 GradGradGradGradGradGradGradGradGradGradGradGradGradGradGradGradGradGrad

 Leave Link  103 at Tue Oct  6 15:57:47 2020, MaxMem=  2684354560 cpu:               1.8 elap:               0.4
 (Enter /udrive/faculty/rpeverati/g16/g16/l202.exe)
                          Input orientation:                          
 ---------------------------------------------------------------------
 Center     Atomic      Atomic             Coordinates (Angstroms)
 Number     Number       Type             X           Y           Z
 ---------------------------------------------------------------------
      1          6           0       -0.000000   -0.000000    0.665730
      2          6           0        0.000000    0.000000   -0.665730
      3          1           0        0.000000    0.924037    1.239252
      4          1           0       -0.000000   -0.924037    1.239252
      5          1           0        0.000000    0.924037   -1.239252
      6          1           0       -0.000000   -0.924037   -1.239252
 ---------------------------------------------------------------------
                    Distance matrix (angstroms):
                    1          2          3          4          5
     1  C    0.000000
     2  C    1.331460   0.000000
     3  H    1.087553   2.117262   0.000000
     4  H    1.087553   2.117262   1.848075   0.000000
     5  H    2.117262   1.087553   2.478503   3.091659   0.000000
     6  H    2.117262   1.087553   3.091659   2.478503   1.848075
                    6
     6  H    0.000000
 Stoichiometry    C2H4
 Framework group  D2H[C2"(C.C),SG(H4)]
 Deg. of freedom     3
 Full point group                 D2H     NOp   8
 RotChk:  IX=0 Diff= 1.95D-15
 Largest Abelian subgroup         D2H     NOp   8
 Largest concise Abelian subgroup D2      NOp   4
                         Standard orientation:                         
 ---------------------------------------------------------------------
 Center     Atomic      Atomic             Coordinates (Angstroms)
 Number     Number       Type             X           Y           Z
 ---------------------------------------------------------------------
      1          6           0        0.000000    0.000000    0.665730
      2          6           0        0.000000    0.000000   -0.665730
      3          1           0        0.000000    0.924037    1.239252
      4          1           0       -0.000000   -0.924037    1.239252
      5          1           0        0.000000    0.924037   -1.239252
      6          1           0       -0.000000   -0.924037   -1.239252
 ---------------------------------------------------------------------
 Rotational constants (GHZ):         146.8226398          30.0324531          24.9325251
 Leave Link  202 at Tue Oct  6 15:57:47 2020, MaxMem=  2684354560 cpu:               1.1 elap:               0.4
 (Enter /udrive/faculty/rpeverati/g16/g16/l301.exe)
 Standard basis: 6-31G(d) (5D, 7F)
 Ernie: Thresh=  0.10000D-02 Tol=  0.10000D-05 Strict=F.
 There are    10 symmetry adapted cartesian basis functions of AG  symmetry.
 There are     1 symmetry adapted cartesian basis functions of B1G symmetry.
 There are     3 symmetry adapted cartesian basis functions of B2G symmetry.
 There are     5 symmetry adapted cartesian basis functions of B3G symmetry.
 There are     1 symmetry adapted cartesian basis functions of AU  symmetry.
 There are    10 symmetry adapted cartesian basis functions of B1U symmetry.
 There are     5 symmetry adapted cartesian basis functions of B2U symmetry.
 There are     3 symmetry adapted cartesian basis functions of B3U symmetry.
 There are     9 symmetry adapted basis functions of AG  symmetry.
 There are     1 symmetry adapted basis functions of B1G symmetry.
 There are     3 symmetry adapted basis functions of B2G symmetry.
 There are     5 symmetry adapted basis functions of B3G symmetry.
 There are     1 symmetry adapted basis functions of AU  symmetry.
 There are     9 symmetry adapted basis functions of B1U symmetry.
 There are     5 symmetry adapted basis functions of B2U symmetry.
 There are     3 symmetry adapted basis functions of B3U symmetry.
    36 basis functions,    72 primitive gaussians,    38 cartesian basis functions
     8 alpha electrons        8 beta electrons
       nuclear repulsion energy        33.3261586934 Hartrees.
 IExCor=  402 DFT=T Ex+Corr=B3LYP ExCW=0 ScaHFX=  0.200000
 ScaDFX=  0.800000  0.720000  1.000000  0.810000 ScalE2=  1.000000  1.000000
 IRadAn=      5 IRanWt=     -1 IRanGd=            0 ICorTp=0 IEmpDi=  4
 NAtoms=    6 NActive=    6 NUniq=    2 SFac= 4.00D+00 NAtFMM=   60 NAOKFM=F Big=F
 Integral buffers will be    131072 words long.
 Raffenetti 2 integral format.
 Two-electron integral symmetry is turned on.
 Leave Link  301 at Tue Oct  6 15:57:48 2020, MaxMem=  2684354560 cpu:               2.1 elap:               0.5
 (Enter /udrive/faculty/rpeverati/g16/g16/l302.exe)
 NPDir=0 NMtPBC=     1 NCelOv=     1 NCel=       1 NClECP=     1 NCelD=      1
         NCelK=      1 NCelE2=     1 NClLst=     1 CellRange=     0.0.
 One-electron integrals computed using PRISM.
 One-electron integral symmetry used in STVInt
 NBasis=    36 RedAO= T EigKep=  8.15D-03  NBF=     9     1     3     5     1     9     5     3
 NBsUse=    36 1.00D-06 EigRej= -1.00D+00 NBFU=     9     1     3     5     1     9     5     3
 Precomputing XC quadrature grid using
 IXCGrd= 4 IRadAn=           5 IRanWt=          -1 IRanGd=           0 AccXCQ= 0.00D+00.
 Generated NRdTot=       0 NPtTot=           0 NUsed=           0 NTot=          32
 NSgBfM=    38    38    38    38    38 MxSgAt=     6 MxSgA2=     6.
 Leave Link  302 at Tue Oct  6 15:57:49 2020, MaxMem=  2684354560 cpu:               3.9 elap:               0.6
 (Enter /udrive/faculty/rpeverati/g16/g16/l303.exe)
 DipDrv:  MaxL=1.
 Leave Link  303 at Tue Oct  6 15:57:49 2020, MaxMem=  2684354560 cpu:               1.6 elap:               0.4
 (Enter /udrive/faculty/rpeverati/g16/g16/l401.exe)
 Initial guess from the checkpoint file:  "MN_11_c2h4_BH76_B3LYP_6-31Gs.chk"
 SCF N**3 symmetry information disabled.
 B after Tr=     0.000000    0.000000    0.000000
         Rot=    1.000000    0.000000   -0.000000    0.000000 Ang=   0.00 deg.
 Guess basis will be translated and rotated to current coordinates.
 JPrj=2 DoOrth=T DoCkMO=T.
 Initial guess orbital symmetries:
       Occupied  (AG) (B1U) (AG) (B1U) (B2U) (AG) (B3G) (B3U)
       Virtual   (B2G) (AG) (B2U) (B1U) (B3G) (B1U) (AG) (B3U)
                 (B2U) (B2G) (AG) (B1U) (B2U) (B3G) (B1U) (AG)
                 (B1U) (B3G) (B3U) (B1G) (AU) (AG) (B2U) (AG) (B1U)
                 (B2G) (B3G) (B1U)
 The electronic state of the initial guess is 1-AG.
 Leave Link  401 at Tue Oct  6 15:57:50 2020, MaxMem=  2684354560 cpu:               4.1 elap:               0.6
 (Enter /udrive/faculty/rpeverati/g16/g16/l502.exe)
 Keep R1 ints in memory in symmetry-blocked form, NReq=10580747.
 FoFCou: FMM=F IPFlag=           0 FMFlag=           0 FMFlg1=           0
         NFxFlg=           0 DoJE=F BraDBF=F KetDBF=F FulRan=T
         wScrn=  0.000000 ICntrl=       600 IOpCl=  0 I1Cent=           0 NGrid=           0
         NMat0=    1 NMatS0=    666 NMatT0=    0 NMatD0=    1 NMtDS0=    0 NMtDT0=    0
 Petite list used in FoFCou.
 Closed shell SCF:
 Using DIIS extrapolation, IDIIS=  1040.
 NGot=  2684354560 LenX=  2684315185 LenY=  2684313300
 Requested convergence on RMS density matrix=1.00D-08 within 120 cycles.
 Requested convergence on MAX density matrix=1.00D-06.
 Requested convergence on             energy=1.00D-06.
 No special actions if energy rises.

 Cycle   1  Pass 1  IDiag  1:
 E= -78.5858246271470    
 DIIS: error= 9.12D-05 at cycle   1 NSaved=   1.
 NSaved= 1 IEnMin= 1 EnMin= -78.5858246271470     IErMin= 1 ErrMin= 9.12D-05
 ErrMax= 9.12D-05  0.00D+00 EMaxC= 1.00D-01 BMatC= 2.80D-07 BMatP= 2.80D-07
 IDIUse=1 WtCom= 1.00D+00 WtEn= 0.00D+00
 Coeff-Com:  0.100D+01
 Coeff:      0.100D+01
 Gap=     0.285 Goal=   None    Shift=    0.000
 RMSDP=2.05D-05 MaxDP=1.47D-04              OVMax= 2.36D-04

 Cycle   2  Pass 1  IDiag  1:
 E= -78.5858250343103     Delta-E=       -0.000000407163 Rises=F Damp=F
 DIIS: error= 2.76D-05 at cycle   2 NSaved=   2.
 NSaved= 2 IEnMin= 2 EnMin= -78.5858250343103     IErMin= 2 ErrMin= 2.76D-05
 ErrMax= 2.76D-05  0.00D+00 EMaxC= 1.00D-01 BMatC= 1.87D-08 BMatP= 2.80D-07
 IDIUse=1 WtCom= 1.00D+00 WtEn= 0.00D+00
 Coeff-Com:  0.872D-01 0.913D+00
 Coeff:      0.872D-01 0.913D+00
 Gap=     0.285 Goal=   None    Shift=    0.000
 RMSDP=6.13D-06 MaxDP=6.43D-05 DE=-4.07D-07 OVMax= 8.08D-05

 Cycle   3  Pass 1  IDiag  1:
 E= -78.5858250417112     Delta-E=       -0.000000007401 Rises=F Damp=F
 DIIS: error= 2.08D-05 at cycle   3 NSaved=   3.
 NSaved= 3 IEnMin= 3 EnMin= -78.5858250417112     IErMin= 3 ErrMin= 2.08D-05
 ErrMax= 2.08D-05  0.00D+00 EMaxC= 1.00D-01 BMatC= 1.24D-08 BMatP= 1.87D-08
 IDIUse=1 WtCom= 1.00D+00 WtEn= 0.00D+00
 Coeff-Com: -0.174D-01 0.449D+00 0.569D+00
 Coeff:     -0.174D-01 0.449D+00 0.569D+00
 Gap=     0.285 Goal=   None    Shift=    0.000
 RMSDP=2.99D-06 MaxDP=2.46D-05 DE=-7.40D-09 OVMax= 3.44D-05

 Cycle   4  Pass 1  IDiag  1:
 E= -78.5858250555999     Delta-E=       -0.000000013889 Rises=F Damp=F
 DIIS: error= 1.11D-06 at cycle   4 NSaved=   4.
 NSaved= 4 IEnMin= 4 EnMin= -78.5858250555999     IErMin= 4 ErrMin= 1.11D-06
 ErrMax= 1.11D-06  0.00D+00 EMaxC= 1.00D-01 BMatC= 2.05D-11 BMatP= 1.24D-08
 IDIUse=1 WtCom= 1.00D+00 WtEn= 0.00D+00
 Coeff-Com: -0.418D-02 0.487D-01 0.853D-01 0.870D+00
 Coeff:     -0.418D-02 0.487D-01 0.853D-01 0.870D+00
 Gap=     0.285 Goal=   None    Shift=    0.000
 RMSDP=1.43D-07 MaxDP=1.13D-06 DE=-1.39D-08 OVMax= 1.43D-06

 Cycle   5  Pass 1  IDiag  1:
 E= -78.5858250556197     Delta-E=       -0.000000000020 Rises=F Damp=F
 DIIS: error= 1.21D-07 at cycle   5 NSaved=   5.
 NSaved= 5 IEnMin= 5 EnMin= -78.5858250556197     IErMin= 5 ErrMin= 1.21D-07
 ErrMax= 1.21D-07  0.00D+00 EMaxC= 1.00D-01 BMatC= 3.91D-13 BMatP= 2.05D-11
 IDIUse=1 WtCom= 1.00D+00 WtEn= 0.00D+00
 Coeff-Com: -0.198D-03-0.198D-02 0.274D-02 0.142D+00 0.858D+00
 Coeff:     -0.198D-03-0.198D-02 0.274D-02 0.142D+00 0.858D+00
 Gap=     0.285 Goal=   None    Shift=    0.000
 RMSDP=1.59D-08 MaxDP=1.07D-07 DE=-1.99D-11 OVMax= 1.77D-07

 Cycle   6  Pass 1  IDiag  1:
 E= -78.5858250556203     Delta-E=       -0.000000000001 Rises=F Damp=F
 DIIS: error= 4.57D-09 at cycle   6 NSaved=   6.
 NSaved= 6 IEnMin= 6 EnMin= -78.5858250556203     IErMin= 6 ErrMin= 4.57D-09
 ErrMax= 4.57D-09  0.00D+00 EMaxC= 1.00D-01 BMatC= 3.87D-16 BMatP= 3.91D-13
 IDIUse=1 WtCom= 1.00D+00 WtEn= 0.00D+00
 Coeff-Com:  0.269D-04-0.227D-03-0.641D-03-0.665D-02-0.440D-01 0.105D+01
 Coeff:      0.269D-04-0.227D-03-0.641D-03-0.665D-02-0.440D-01 0.105D+01
 Gap=     0.285 Goal=   None    Shift=    0.000
 RMSDP=9.42D-10 MaxDP=6.38D-09 DE=-5.26D-13 OVMax= 1.12D-08

 SCF Done:  E(RB3LYP) =  -78.5858250556     A.U. after    6 cycles
            NFock=  6  Conv=0.94D-09     -V/T= 2.0068
 KE= 7.805189293965D+01 PE=-2.483354317408D+02 EE= 5.837155505217D+01
 Leave Link  502 at Tue Oct  6 15:57:51 2020, MaxMem=  2684354560 cpu:               7.3 elap:               0.9
 (Enter /udrive/faculty/rpeverati/g16/g16/l508.exe)
 QCSCF skips out because SCF is already converged.
 Leave Link  508 at Tue Oct  6 15:57:52 2020, MaxMem=  2684354560 cpu:               0.3 elap:               0.3
 (Enter /udrive/faculty/rpeverati/g16/g16/l701.exe)
 ... and contract with generalized density number  0.
 Compute integral first derivatives.
 Leave Link  701 at Tue Oct  6 15:57:53 2020, MaxMem=  2684354560 cpu:               3.3 elap:               0.6
 (Enter /udrive/faculty/rpeverati/g16/g16/l702.exe)
 L702 exits ... SP integral derivatives will be done elsewhere.
 Leave Link  702 at Tue Oct  6 15:57:53 2020, MaxMem=  2684354560 cpu:               2.5 elap:               0.6
 (Enter /udrive/faculty/rpeverati/g16/g16/l703.exe)
 Integral derivatives from FoFJK, PRISM(SPDF).
 Compute integral first derivatives, UseDBF=F ICtDFT=           0.
 Calling FoFJK, ICntrl=      2127 FMM=F ISym2X=1 I1Cent= 0 IOpClX= 0 NMat=1 NMatS=1 NMatT=0.
 FoFJK:  IHMeth= 1 ICntrl=    2127 DoSepK=F KAlg= 0 I1Cent=           0 FoldK=F
 IRaf=         0 NMat=       1 IRICut=       1 DoRegI=T DoRafI=F ISym2E= 1 IDoP0=0 IntGTp=1.
 FoFCou: FMM=F IPFlag=           0 FMFlag=      100000 FMFlg1=         800
         NFxFlg=           0 DoJE=F BraDBF=F KetDBF=F FulRan=T
         wScrn=  0.000000 ICntrl=      2127 IOpCl=  0 I1Cent=           0 NGrid=           0
         NMat0=    1 NMatS0=      1 NMatT0=    0 NMatD0=    1 NMtDS0=    0 NMtDT0=    0
 Petite list used in FoFCou.
 Leave Link  703 at Tue Oct  6 15:57:54 2020, MaxMem=  2684354560 cpu:               4.7 elap:               0.7
 (Enter /udrive/faculty/rpeverati/g16/g16/l716.exe)
 Dipole        =-5.10844157D-17 0.00000000D+00 0.00000000D+00
 ***** Axes restored to original set *****
 -------------------------------------------------------------------
 Center     Atomic                   Forces (Hartrees/Bohr)
 Number     Number              X              Y              Z
 -------------------------------------------------------------------
      1        6          -0.000000000   -0.000000000   -0.000198740
      2        6          -0.000000000    0.000000000    0.000198740
      3        1           0.000000000   -0.000086596    0.000048668
      4        1           0.000000000    0.000086596    0.000048668
      5        1          -0.000000000   -0.000086596   -0.000048668
      6        1           0.000000000    0.000086596   -0.000048668
 -------------------------------------------------------------------
 Cartesian Forces:  Max     0.000198740 RMS     0.000081126
 Leave Link  716 at Tue Oct  6 15:57:55 2020, MaxMem=  2684354560 cpu:               1.5 elap:               0.4
 (Enter /udrive/faculty/rpeverati/g16/g16/l103.exe)

 GradGradGradGradGradGradGradGradGradGradGradGradGradGradGradGradGradGrad
 Berny optimization.
 Optmz: redundant internal coordinate code flag= 1
 Using GEDIIS/GDIIS optimizer.
 Red2BG:  D1=  2.81D-01 OD1=  3.25D-03 B2RMS=  0.00D+00 IAprox=0
 FormGI is forming the generalized inverse of G from B-inverse, IUseBI=4.
 Internal  Forces:  Max     0.000119223 RMS     0.000064347
 Search for a local minimum.
 Step number   3 out of a maximum of  100
 All quantities printed in internal units (Hartrees-Bohrs-Radians)
 RMS Force = .64347D-04 SwitMx=.10000D-02 MixMth= 2
 Mixed Optimization -- En-DIIS/RFO-DIIS
 Swapping is turned off.
 Update second derivatives using D2CorX and points    1    2    3
 DE= -2.69D-06 DEPred=-2.14D-06 R= 1.25D+00
 TightC=F SS=  1.41D+00  RLast= 4.72D-03 DXNew= 5.0454D-01 1.4159D-02
 Trust test= 1.25D+00 RLast= 4.72D-03 DXMaxT set to 3.00D-01
 The second derivative matrix:
                          R1        R2        R3        R4        R5
           R1           0.61036
           R2           0.00809   0.36246
           R3           0.00809   0.00430   0.36246
           R4           0.00809   0.00430   0.00430   0.36246
           R5           0.00809   0.00430   0.00430   0.00430   0.36246
           A1           0.00726  -0.00144  -0.00144  -0.00144  -0.00144
           A2           0.00726  -0.00144  -0.00144  -0.00144  -0.00144
           A3          -0.01451   0.00287   0.00287   0.00287   0.00287
           A4           0.00726  -0.00144  -0.00144  -0.00144  -0.00144
           A5           0.00726  -0.00144  -0.00144  -0.00144  -0.00144
           A6          -0.01451   0.00287   0.00287   0.00287   0.00287
           D1          -0.00000   0.00000   0.00000   0.00000   0.00000
           D2           0.00000  -0.00000  -0.00000  -0.00000  -0.00000
           D3          -0.00000   0.00000   0.00000   0.00000   0.00000
           D4           0.00000  -0.00000  -0.00000  -0.00000  -0.00000
                          A1        A2        A3        A4        A5
           A1           0.15603
           A2          -0.00397   0.15603
           A3           0.00795   0.00795   0.14410
           A4          -0.00397  -0.00397   0.00795   0.15603
           A5          -0.00397  -0.00397   0.00795  -0.00397   0.15603
           A6           0.00795   0.00795  -0.01590   0.00795   0.00795
           D1           0.00000   0.00000  -0.00000   0.00000   0.00000
           D2          -0.00000  -0.00000   0.00000  -0.00000  -0.00000
           D3           0.00000   0.00000  -0.00000   0.00000   0.00000
           D4          -0.00000  -0.00000   0.00000  -0.00000  -0.00000
                          A6        D1        D2        D3        D4
           A6           0.14410
           D1          -0.00000   0.02999
           D2           0.00000  -0.00000   0.02999
           D3          -0.00000   0.00000  -0.00000   0.02999
           D4           0.00000  -0.00000   0.00000  -0.00000   0.02999
 ITU=  1  1  0
 Eigenvectors of the second derivative matrix:
                           1         2         3         4         5
     Eigenvalues --     0.02999   0.02999   0.02999   0.11060   0.16000
   1         R1         0.00000  -0.00000   0.00000  -0.05151  -0.00000
   2         R2        -0.00000   0.00000  -0.00000   0.02033  -0.00000
   3         R3        -0.00000  -0.00000  -0.00000   0.02033  -0.00000
   4         R4        -0.00000  -0.00000  -0.00000   0.02033  -0.00000
   5         R5        -0.00000   0.00000  -0.00000   0.02033  -0.00000
   6         A1        -0.00000   0.00000  -0.00000   0.28805   0.48375
   7         A2        -0.00000   0.00000  -0.00000   0.28805  -0.47647
   8         A3         0.00000  -0.00000   0.00000  -0.57611  -0.00728
   9         A4        -0.00000   0.00000  -0.00000   0.28805   0.51542
  10         A5        -0.00000   0.00000  -0.00000   0.28805  -0.52269
  11         A6         0.00000  -0.00000   0.00000  -0.57611   0.00728
  12         D1         0.17341   0.54107   0.65358   0.00000   0.00000
  13         D2        -0.70109   0.47818   0.17265  -0.00000  -0.00000
  14         D3         0.21814  -0.45671   0.70273   0.00000  -0.00000
  15         D4        -0.65636  -0.51961   0.22180  -0.00000  -0.00000
                           6         7         8         9        10
     Eigenvalues --     0.16000   0.16000   0.35816   0.35816   0.35816
   1         R1         0.00000   0.00000   0.00000   0.00000   0.00000
   2         R2         0.00000  -0.00000   0.55693   0.64557  -0.15190
   3         R3         0.00000  -0.00000  -0.46754   0.18217   0.70585
   4         R4         0.00000  -0.00000   0.43865  -0.73596   0.12631
   5         R5         0.00000  -0.00000  -0.52804  -0.09178  -0.68026
   6         A1         0.38634   0.44729   0.00000   0.00000   0.00000
   7         A2        -0.58962   0.09304   0.00000   0.00000   0.00000
   8         A3         0.20328  -0.54033  -0.00000  -0.00000  -0.00000
   9         A4        -0.34545  -0.44536   0.00000   0.00000   0.00000
  10         A5         0.54873  -0.09497   0.00000   0.00000   0.00000
  11         A6        -0.20328   0.54033  -0.00000  -0.00000  -0.00000
  12         D1         0.00000  -0.00000  -0.00000  -0.00000   0.00000
  13         D2        -0.00000  -0.00000   0.00000  -0.00000   0.00000
  14         D3         0.00000   0.00000  -0.00000   0.00000  -0.00000
  15         D4        -0.00000  -0.00000   0.00000   0.00000   0.00000
                          11        12
     Eigenvalues --     0.37476   0.61266
   1         R1         0.06379  -0.99663
   2         R2        -0.49850  -0.03296
   3         R3        -0.49850  -0.03296
   4         R4        -0.49850  -0.03296
   5         R5        -0.49850  -0.03296
   6         A1         0.01268  -0.01408
   7         A2         0.01268  -0.01408
   8         A3        -0.02535   0.02815
   9         A4         0.01268  -0.01408
  10         A5         0.01268  -0.01408
  11         A6        -0.02535   0.02815
  12         D1        -0.00000   0.00000
  13         D2         0.00000  -0.00000
  14         D3        -0.00000   0.00000
  15         D4         0.00000  -0.00000
 DoSqrt=T IScMMF=    -3 MM Scaling Factor =       0.00000
 En-DIIS/RFO-DIIS/Sim-DIIS IScMMF=       -3 using points:     3    2
 Iter=   1 RLamda=-2.00098816D-02 Sum=-3.68647112D-07.
 Iter=   2 RLamda=-3.68647112D-07 Sum=-4.30011796D-07.
 Iter=   3 RLamda=-4.30011796D-07 Sum=-4.30011575D-07.
 RFO step:  Lambda=-4.30011796D-07.
 NNeg= 0 NGDIIS= 2 SimSw=  2.50D-03 Rises=F DC= -2.69D-06 SmlDif=  1.00D-05
 NRisDI= 0 DoIntr=F SqrtH=F CThrHd= 10.0 CDAdj=  3.0
 RMS Error=  0.4905562643D-03 NUsed= 2 OKEnD=F EnDIS=F
 Total RFO-DIIS matrix:
                 1             2             3 
      1   0.000000D+00 -0.100000D+01 -0.100000D+01
      2  -0.100000D+01  0.360968D-05  0.123860D-04
      3  -0.100000D+01  0.123860D-04  0.434370D-04
 InvSVX:  RCond= 5.57D-06 Info=           0 Equed=N FErr=  1.88D-15 BErr=  0.00D+00
 DidBck=F Rises=F RFO-DIIS coefs:    1.39400   -0.39400
 Iteration  1 RMS(Cart)=  0.00053044 RMS(Int)=  0.00000016
 Iteration  2 RMS(Cart)=  0.00000016 RMS(Int)=  0.00000000
 ITry= 1 IFail=0 DXMaxC= 7.74D-04 DCOld= 1.00D+10 DXMaxT= 3.00D-01 DXLimC= 3.00D+00 Rises=F
 ClnCor:  largest displacement from symmetrization is 4.68D-14 for atom     2.
 Variable       Old X    -DE/DX   Delta X   Delta X   Delta X     New X
                                 (Linear)    (Quad)   (Total)
    R1        2.51610  -0.00010  -0.00057   0.00033  -0.00024   2.51586
    R2        2.05518  -0.00005  -0.00001  -0.00009  -0.00010   2.05508
    R3        2.05518  -0.00005  -0.00001  -0.00009  -0.00010   2.05508
    R4        2.05518  -0.00005  -0.00001  -0.00009  -0.00010   2.05508
    R5        2.05518  -0.00005  -0.00001  -0.00009  -0.00010   2.05508
    A1        2.12628   0.00006   0.00051   0.00003   0.00054   2.12682
    A2        2.12628   0.00006   0.00051   0.00003   0.00054   2.12682
    A3        2.03063  -0.00012  -0.00102  -0.00006  -0.00108   2.02955
    A4        2.12628   0.00006   0.00051   0.00003   0.00054   2.12682
    A5        2.12628   0.00006   0.00051   0.00003   0.00054   2.12682
    A6        2.03063  -0.00012  -0.00102  -0.00006  -0.00108   2.02955
    D1        0.00000   0.00000   0.00000   0.00000   0.00000   0.00000
    D2        3.14159  -0.00000   0.00000  -0.00000   0.00000   3.14159
    D3        3.14159   0.00000   0.00000   0.00000   0.00000   3.14159
    D4        0.00000  -0.00000   0.00000  -0.00000   0.00000   0.00000
         Item               Value     Threshold  Converged?
 Maximum Force            0.000119     0.000450     YES
 RMS     Force            0.000064     0.000300     YES
 Maximum Displacement     0.000774     0.001800     YES
 RMS     Displacement     0.000530     0.001200     YES
 Predicted change in Energy=-2.150066D-07
 Optimization completed.
    -- Stationary point found.
                           ----------------------------
                           !   Optimized Parameters   !
                           ! (Angstroms and Degrees)  !
 --------------------------                            --------------------------
 ! Name  Definition              Value          Derivative Info.                !
 --------------------------------------------------------------------------------
 ! R1    R(1,2)                  1.3315         -DE/DX =   -0.0001              !
 ! R2    R(1,3)                  1.0876         -DE/DX =    0.0                 !
 ! R3    R(1,4)                  1.0876         -DE/DX =    0.0                 !
 ! R4    R(2,5)                  1.0876         -DE/DX =    0.0                 !
 ! R5    R(2,6)                  1.0876         -DE/DX =    0.0                 !
 ! A1    A(2,1,3)              121.8266         -DE/DX =    0.0001              !
 ! A2    A(2,1,4)              121.8266         -DE/DX =    0.0001              !
 ! A3    A(3,1,4)              116.3468         -DE/DX =   -0.0001              !
 ! A4    A(1,2,5)              121.8266         -DE/DX =    0.0001              !
 ! A5    A(1,2,6)              121.8266         -DE/DX =    0.0001              !
 ! A6    A(5,2,6)              116.3468         -DE/DX =   -0.0001              !
 ! D1    D(3,1,2,5)              0.0            -DE/DX =    0.0                 !
 ! D2    D(3,1,2,6)            180.0            -DE/DX =    0.0                 !
 ! D3    D(4,1,2,5)            180.0            -DE/DX =    0.0                 !
 ! D4    D(4,1,2,6)              0.0            -DE/DX =    0.0                 !
 --------------------------------------------------------------------------------
 Lowest energy point so far.  Saving SCF results.
 Largest change from initial coordinates is atom    3       0.008 Angstoms.
 GradGradGradGradGradGradGradGradGradGradGradGradGradGradGradGradGradGrad

 Leave Link  103 at Tue Oct  6 15:57:56 2020, MaxMem=  2684354560 cpu:               2.2 elap:               0.5
 (Enter /udrive/faculty/rpeverati/g16/g16/l202.exe)
                          Input orientation:                          
 ---------------------------------------------------------------------
 Center     Atomic      Atomic             Coordinates (Angstroms)
 Number     Number       Type             X           Y           Z
 ---------------------------------------------------------------------
      1          6           0       -0.000000   -0.000000    0.665730
      2          6           0        0.000000    0.000000   -0.665730
      3          1           0       -0.000000    0.924037    1.239252
      4          1           0       -0.000000   -0.924037    1.239252
      5          1           0        0.000000    0.924037   -1.239252
      6          1           0        0.000000   -0.924037   -1.239252
 ---------------------------------------------------------------------
                    Distance matrix (angstroms):
                    1          2          3          4          5
     1  C    0.000000
     2  C    1.331460   0.000000
     3  H    1.087553   2.117262   0.000000
     4  H    1.087553   2.117262   1.848075   0.000000
     5  H    2.117262   1.087553   2.478503   3.091659   0.000000
     6  H    2.117262   1.087553   3.091659   2.478503   1.848075
                    6
     6  H    0.000000
 Stoichiometry    C2H4
 Framework group  D2H[C2"(C.C),SG(H4)]
 Deg. of freedom     3
 Full point group                 D2H     NOp   8
 RotChk:  IX=0 Diff= 1.30D-15
 Largest Abelian subgroup         D2H     NOp   8
 Largest concise Abelian subgroup D2      NOp   4
                         Standard orientation:                         
 ---------------------------------------------------------------------
 Center     Atomic      Atomic             Coordinates (Angstroms)
 Number     Number       Type             X           Y           Z
 ---------------------------------------------------------------------
      1          6           0        0.000000    0.000000    0.665730
      2          6           0        0.000000    0.000000   -0.665730
      3          1           0       -0.000000    0.924037    1.239252
      4          1           0       -0.000000   -0.924037    1.239252
      5          1           0        0.000000    0.924037   -1.239252
      6          1           0       -0.000000   -0.924037   -1.239252
 ---------------------------------------------------------------------
 Rotational constants (GHZ):         146.8226398          30.0324531          24.9325251
 Leave Link  202 at Tue Oct  6 15:57:56 2020, MaxMem=  2684354560 cpu:               1.4 elap:               0.4
 (Enter /udrive/faculty/rpeverati/g16/g16/l601.exe)
 Copying SCF densities to generalized density rwf, IOpCl= 0 IROHF=0.

 **********************************************************************

            Population analysis using the SCF density.

 **********************************************************************

 Orbital symmetries:
       Occupied  (AG) (B1U) (AG) (B1U) (B2U) (AG) (B3G) (B3U)
       Virtual   (B2G) (AG) (B2U) (B1U) (B3G) (B1U) (AG) (B3U)
                 (B2U) (B2G) (AG) (B1U) (B2U) (B3G) (B1U) (AG)
                 (B1U) (B3G) (B3U) (B1G) (AU) (AG) (B2U) (AG) (B1U)
                 (B2G) (B3G) (B1U)
 The electronic state is 1-AG.
 Alpha  occ. eigenvalues --  -10.17730 -10.17651  -0.75450  -0.57725  -0.46471
 Alpha  occ. eigenvalues --   -0.41613  -0.35334  -0.26650
 Alpha virt. eigenvalues --    0.01870   0.12233   0.14034   0.15771   0.24403
 Alpha virt. eigenvalues --    0.33215   0.48090   0.54878   0.56884   0.63747
 Alpha virt. eigenvalues --    0.66160   0.70154   0.84778   0.87244   0.93256
 Alpha virt. eigenvalues --    0.94511   1.11215   1.21640   1.46241   1.54514
 Alpha virt. eigenvalues --    1.83245   1.89093   1.98732   2.09576   2.28578
 Alpha virt. eigenvalues --    2.38559   2.69985   2.70500
          Condensed to atoms (all electrons):
               1          2          3          4          5          6
     1  C    4.907334   0.687690   0.378711   0.378711  -0.034604  -0.034604
     2  C    0.687690   4.907334  -0.034604  -0.034604   0.378711   0.378711
     3  H    0.378711  -0.034604   0.561680  -0.043592  -0.008885   0.005072
     4  H    0.378711  -0.034604  -0.043592   0.561680   0.005072  -0.008885
     5  H   -0.034604   0.378711  -0.008885   0.005072   0.561680  -0.043592
     6  H   -0.034604   0.378711   0.005072  -0.008885  -0.043592   0.561680
 Mulliken charges:
               1
     1  C   -0.283237
     2  C   -0.283237
     3  H    0.141618
     4  H    0.141618
     5  H    0.141618
     6  H    0.141618
 Sum of Mulliken charges =   0.00000
 Mulliken charges with hydrogens summed into heavy atoms:
               1
     1  C    0.000000
     2  C    0.000000
 Electronic spatial extent (au):  <R**2>=             82.2294
 Charge=              0.0000 electrons
 Dipole moment (field-independent basis, Debye):
    X=             -0.0000    Y=              0.0000    Z=              0.0000  Tot=              0.0000
 Quadrupole moment (field-independent basis, Debye-Ang):
   XX=            -15.0308   YY=            -12.1133   ZZ=            -12.0015
   XY=              0.0000   XZ=             -0.0000   YZ=             -0.0000
 Traceless Quadrupole moment (field-independent basis, Debye-Ang):
   XX=             -1.9823   YY=              0.9352   ZZ=              1.0470
   XY=              0.0000   XZ=             -0.0000   YZ=             -0.0000
 Octapole moment (field-independent basis, Debye-Ang**2):
  XXX=             -0.0000  YYY=              0.0000  ZZZ=             -0.0000  XYY=             -0.0000
  XXY=             -0.0000  XXZ=             -0.0000  XZZ=             -0.0000  YZZ=             -0.0000
  YYZ=              0.0000  XYZ=             -0.0000
 Hexadecapole moment (field-independent basis, Debye-Ang**3):
 XXXX=            -15.5746 YYYY=            -26.1657 ZZZZ=            -66.7626 XXXY=             -0.0000
 XXXZ=              0.0000 YYYX=             -0.0000 YYYZ=             -0.0000 ZZZX=              0.0000
 ZZZY=              0.0000 XXYY=             -7.5226 XXZZ=            -14.5864 YYZZ=            -13.2547
 XXYZ=              0.0000 YYXZ=              0.0000 ZZXY=              0.0000
 N-N= 3.332615869336D+01 E-N=-2.483354318328D+02  KE= 7.805189293965D+01
 No NMR shielding tensors so no spin-rotation constants.
 Leave Link  601 at Tue Oct  6 15:57:57 2020, MaxMem=  2684354560 cpu:               3.7 elap:               0.6
 (Enter /udrive/faculty/rpeverati/g16/g16/l9999.exe)

 Test job not archived.
 1\1\GINC-NODE60\FOpt\RB3LYP\6-31G(d)\C2H4\RPEVERATI\06-Oct-2020\0\\#P 
 Opt(MaxCyc=100) B3LYP/6-31G* 5D 7F Integral=UltraFineGrid SCF=(NoSymm,
 XQC,MaxCyc=120) IOp(1/33=1)\\TS search on BH76.\\0,1\C,0.,0.,0.6657300
 738\C,0.,0.,-0.6657300738\H,0.,0.924037334,1.2392515318\H,0.,-0.924037
 334,1.2392515318\H,0.,0.924037334,-1.2392515318\H,0.,-0.924037334,-1.2
 392515318\\Version=ES64L-G16RevA.03\State=1-AG\HF=-78.5858251\RMSD=9.4
 21e-10\RMSF=8.113e-05\Dipole=0.,0.,0.\Quadrupole=-1.4737792,0.6953297,
 0.7784495,0.,0.,0.\PG=D02H [C2"(C1.C1),SG(H4)]\\@


 When cryptography is outlawed, bayl bhgynjf jvyy unir cevinpl.
 Job cpu time:       0 days  0 hours  2 minutes 29.1 seconds.
 Elapsed time:       0 days  0 hours  0 minutes 24.6 seconds.
 File lengths (MBytes):  RWF=      5 Int=      0 D2E=      0 Chk=      1 Scr=      1
 Normal termination of Gaussian 16 at Tue Oct  6 15:57:58 2020.
