 Entering Gaussian System, Link 0=g16
 Input=MN_39_fch3fts_BH76_B3LYP_631Gs.in
 Output=MN_39_fch3fts_BH76_B3LYP_631Gs.log
 Initial command:
 /udrive/faculty/rpeverati/g16/g16/l1.exe "/udrive/scratch-directories/gaussian09/rpeverati/Gau-35077.inp" -scrdir="/udrive/scratch-directories/gaussian09/rpeverati/"
 Entering Link 1 = /udrive/faculty/rpeverati/g16/g16/l1.exe PID=     35089.
  
 Copyright (c) 1988,1990,1992,1993,1995,1998,2003,2009,2016,
            Gaussian, Inc.  All Rights Reserved.
  
 This is part of the Gaussian(R) 16 program.  It is based on
 the Gaussian(R) 09 system (copyright 2009, Gaussian, Inc.),
 the Gaussian(R) 03 system (copyright 2003, Gaussian, Inc.),
 the Gaussian(R) 98 system (copyright 1998, Gaussian, Inc.),
 the Gaussian(R) 94 system (copyright 1995, Gaussian, Inc.),
 the Gaussian 92(TM) system (copyright 1992, Gaussian, Inc.),
 the Gaussian 90(TM) system (copyright 1990, Gaussian, Inc.),
 the Gaussian 88(TM) system (copyright 1988, Gaussian, Inc.),
 the Gaussian 86(TM) system (copyright 1986, Carnegie Mellon
 University), and the Gaussian 82(TM) system (copyright 1983,
 Carnegie Mellon University). Gaussian is a federally registered
 trademark of Gaussian, Inc.
  
 This software contains proprietary and confidential information,
 including trade secrets, belonging to Gaussian, Inc.
  
 This software is provided under written license and may be
 used, copied, transmitted, or stored only in accord with that
 written license.
  
 The following legend is applicable only to US Government
 contracts under FAR:
  
                    RESTRICTED RIGHTS LEGEND
  
 Use, reproduction and disclosure by the US Government is
 subject to restrictions as set forth in subparagraphs (a)
 and (c) of the Commercial Computer Software - Restricted
 Rights clause in FAR 52.227-19.
  
 Gaussian, Inc.
 340 Quinnipiac St., Bldg. 40, Wallingford CT 06492
  
  
 ---------------------------------------------------------------
 Warning -- This program may not be used in any manner that
 competes with the business of Gaussian, Inc. or will provide
 assistance to any competitor of Gaussian, Inc.  The licensee
 of this program is prohibited from giving any competitor of
 Gaussian, Inc. access to this program.  By using this program,
 the user acknowledges that Gaussian, Inc. is engaged in the
 business of creating and licensing software in the field of
 computational chemistry and represents and warrants to the
 licensee that it is not a competitor of Gaussian, Inc. and that
 it will not use this program in any manner prohibited above.
 ---------------------------------------------------------------
  

 Cite this work as:
 Gaussian 16, Revision A.03,
 M. J. Frisch, G. W. Trucks, H. B. Schlegel, G. E. Scuseria, 
 M. A. Robb, J. R. Cheeseman, G. Scalmani, V. Barone, 
 G. A. Petersson, H. Nakatsuji, X. Li, M. Caricato, A. V. Marenich, 
 J. Bloino, B. G. Janesko, R. Gomperts, B. Mennucci, H. P. Hratchian, 
 J. V. Ortiz, A. F. Izmaylov, J. L. Sonnenberg, D. Williams-Young, 
 F. Ding, F. Lipparini, F. Egidi, J. Goings, B. Peng, A. Petrone, 
 T. Henderson, D. Ranasinghe, V. G. Zakrzewski, J. Gao, N. Rega, 
 G. Zheng, W. Liang, M. Hada, M. Ehara, K. Toyota, R. Fukuda, 
 J. Hasegawa, M. Ishida, T. Nakajima, Y. Honda, O. Kitao, H. Nakai, 
 T. Vreven, K. Throssell, J. A. Montgomery, Jr., J. E. Peralta, 
 F. Ogliaro, M. J. Bearpark, J. J. Heyd, E. N. Brothers, K. N. Kudin, 
 V. N. Staroverov, T. A. Keith, R. Kobayashi, J. Normand, 
 K. Raghavachari, A. P. Rendell, J. C. Burant, S. S. Iyengar, 
 J. Tomasi, M. Cossi, J. M. Millam, M. Klene, C. Adamo, R. Cammi, 
 J. W. Ochterski, R. L. Martin, K. Morokuma, O. Farkas, 
 J. B. Foresman, and D. J. Fox, Gaussian, Inc., Wallingford CT, 2016.
 
 ******************************************
 Gaussian 16:  ES64L-G16RevA.03 25-Dec-2016
                 6-Oct-2020 
 ******************************************
 %NoSave
 %nproc=12
 Will use up to   12 processors via shared memory.
 %mem=20GB
 %chk=MN_39_fch3fts_BH76_B3LYP_631Gs
 ----------------------------------------------------------------------
 #P Opt(TS,MaxCyc=50,NoEigenTest,MaxStep=10,CalcFC) B3LYP/6-31G* 5D 7F 
 Integral=UltraFineGrid SCF=(NoSymm,XQC,MaxCyc=120) IOp(1/33=1)
 ----------------------------------------------------------------------
 1/5=1,6=50,8=10,10=4,11=1,18=20,26=4,33=1,38=1/1,3;
 2/9=110,12=2,17=6,18=5,40=1/2;
 3/5=1,6=6,7=1,8=11,11=2,25=1,30=1,71=2,74=-5,75=-5,140=1/1,2,3;
 4/9=2/1;
 5/5=2,7=120,8=3,13=1,38=5/2,8;
 8/6=4,10=90,11=11/1;
 11/6=1,8=1,9=11,15=111,16=1/1,2,10;
 10/6=1,13=1/2;
 6/7=2,8=2,9=2,10=2,28=1/1;
 7/10=1,18=20,25=1/1,2,3,16;
 1/5=1,6=50,8=10,10=4,11=1,18=20,26=4,33=1/3(2);
 2/9=110/2;
 99//99;
 2/9=110/2;
 3/5=1,6=6,7=1,8=11,11=2,25=1,30=1,71=1,74=-5,75=-5/1,2,3;
 4/5=5,9=2,16=3,69=1/1;
 5/5=2,7=120,8=3,13=1,38=5/2,8;
 7//1,2,3,16;
 1/5=1,6=50,8=10,11=1,18=20,26=4,33=1/3(-5);
 2/9=110/2;
 6/7=2,8=2,9=2,10=2,19=2,28=1/1;
 99/9=1/99;
 Leave Link    1 at Tue Oct  6 16:28:55 2020, MaxMem=  2684354560 cpu:               9.5 elap:               0.9
 (Enter /udrive/faculty/rpeverati/g16/g16/l101.exe)
 ONIOM data not found on unit 2.
 ------------------
 TS search on BH76.
 ------------------
 TstMul:  ICh=    -1
 TstMul:  Mul=     1
 TstMul:  ICh=    -1
 TstMul:  Mul=     1
 Symbolic Z-matrix:
 Charge = -1 Multiplicity = 1
 F                     1.82365   0.00022   0.00008 
 C                     0.00024  -0.00039  -0.00021 
 H                     0.00016  -0.30519   1.02504 
 H                     0.00038   1.03988  -0.24896 
 H                    0.        -0.73656  -0.77621 
 F                    -1.82387   0.00024   0.00008 
 
 RdStrC is calling ZToCFu for IStruc=1 NZ=     6.
 PrtBox:  NBox=     1 Levels=  1 BoxLen=    8.00 SMaxX=        6.89
          Shift=            3.446610            1.391890            1.466820
 Box      1 Number                   0 centers from      1 to      6:
 After GenITR:
 ITRead=  0  0  0  0  0  0
 MicOpt= -1 -1 -1 -1 -1 -1
 Add virtual bond connecting atoms C2         and F1         Dist= 3.45D+00.
 Add virtual bond connecting atoms F6         and C2         Dist= 3.45D+00.
 ITRead=  0  0  0  0  0  0
 MicOpt= -1 -1 -1 -1 -1 -1
 NAtoms=      6 NQM=        6 NQMF=       0 NMMI=      0 NMMIF=      0
                NMic=       0 NMicF=      0.
                    Isotopes and Nuclear Properties:
 (Nuclear quadrupole moments (NQMom) in fm**2, nuclear magnetic moments (NMagM)
  in nuclear magnetons)

  Atom         1           2           3           4           5           6
 IAtWgt=          19          12           1           1           1          19
 AtmWgt=  18.9984033  12.0000000   1.0078250   1.0078250   1.0078250  18.9984033
 NucSpn=           1           0           1           1           1           1
 AtZEff=   0.0000000   0.0000000   0.0000000   0.0000000   0.0000000   0.0000000
 NQMom=    0.0000000   0.0000000   0.0000000   0.0000000   0.0000000   0.0000000
 NMagM=    2.6288670   0.0000000   2.7928460   2.7928460   2.7928460   2.6288670
 AtZNuc=   9.0000000   6.0000000   1.0000000   1.0000000   1.0000000   9.0000000
 No MM parameters found.
 Leave Link  101 at Tue Oct  6 16:28:56 2020, MaxMem=  2684354560 cpu:              11.6 elap:               1.2
 (Enter /udrive/faculty/rpeverati/g16/g16/l103.exe)

 GradGradGradGradGradGradGradGradGradGradGradGradGradGradGradGradGradGrad
 Berny optimization.
 Optmz: redundant internal coordinate code flag= 1
 Initialization pass.
                           ----------------------------
                           !    Initial Parameters    !
                           ! (Angstroms and Degrees)  !
 --------------------------                            --------------------------
 ! Name  Definition              Value          Derivative Info.                !
 --------------------------------------------------------------------------------
 ! R1    R(1,2)                  1.8234         calculate D2E/DX2 analytically  !
 ! R2    R(2,3)                  1.0696         calculate D2E/DX2 analytically  !
 ! R3    R(2,4)                  1.0696         calculate D2E/DX2 analytically  !
 ! R4    R(2,5)                  1.0696         calculate D2E/DX2 analytically  !
 ! R5    R(2,6)                  1.8241         calculate D2E/DX2 analytically  !
 ! A1    A(1,2,3)               90.001          calculate D2E/DX2 analytically  !
 ! A2    A(1,2,4)               89.9759         calculate D2E/DX2 analytically  !
 ! A3    A(1,2,5)               90.0326         calculate D2E/DX2 analytically  !
 ! A4    A(3,2,4)              120.0049         calculate D2E/DX2 analytically  !
 ! A5    A(3,2,5)              119.9518         calculate D2E/DX2 analytically  !
 ! A6    A(3,2,6)               89.9925         calculate D2E/DX2 analytically  !
 ! A7    A(4,2,5)              120.0433         calculate D2E/DX2 analytically  !
 ! A8    A(4,2,6)               89.9906         calculate D2E/DX2 analytically  !
 ! A9    A(5,2,6)               90.0075         calculate D2E/DX2 analytically  !
 ! A10   L(1,2,6,3,-1)         179.9934         calculate D2E/DX2 analytically  !
 ! A11   L(1,2,6,3,-2)         179.9574         calculate D2E/DX2 analytically  !
 ! D1    D(3,2,5,4)            179.9891         calculate D2E/DX2 analytically  !
 ! D2    D(3,2,6,4)            120.0049         calculate D2E/DX2 analytically  !
 ! D3    D(3,2,6,5)           -119.9518         calculate D2E/DX2 analytically  !
 ! D4    D(4,2,6,5)            120.0433         calculate D2E/DX2 analytically  !
 --------------------------------------------------------------------------------
 Maximum allowed force set to 1.00D+20.
 Trust Radius=1.00D-01 FncErr=1.00D-07 GrdErr=1.00D-06 EigMax=2.50D+02 EigMin=1.00D-04
 Number of steps in this run=     50 maximum allowed number of steps=    100.
 Search for a saddle point of order  1.
 GradGradGradGradGradGradGradGradGradGradGradGradGradGradGradGradGradGrad

 Leave Link  103 at Tue Oct  6 16:28:57 2020, MaxMem=  2684354560 cpu:               1.2 elap:               0.5
 (Enter /udrive/faculty/rpeverati/g16/g16/l202.exe)
                          Input orientation:                          
 ---------------------------------------------------------------------
 Center     Atomic      Atomic             Coordinates (Angstroms)
 Number     Number       Type             X           Y           Z
 ---------------------------------------------------------------------
      1          9           0        1.823651    0.000222    0.000077
      2          6           0        0.000236   -0.000387   -0.000214
      3          1           0        0.000156   -0.305186    1.025037
      4          1           0        0.000379    1.039881   -0.248964
      5          1           0       -0.000003   -0.736556   -0.776208
      6          9           0       -1.823867    0.000243    0.000081
 ---------------------------------------------------------------------
                    Distance matrix (angstroms):
                    1          2          3          4          5
     1  F    0.000000
     2  C    1.823415   0.000000
     3  H    2.113989   1.069599   0.000000
     4  H    2.113582   1.069595   1.852643   0.000000
     5  H    2.114515   1.069632   1.852178   1.853029   0.000000
     6  F    3.647518   1.824104   2.114447   2.114414   2.114705
                    6
     6  F    0.000000
 Stoichiometry    CH3F2(1-)
 Framework group  C1[X(CH3F2)]
 Deg. of freedom    12
 Full point group                 C1      NOp   1
 Largest Abelian subgroup         C1      NOp   1
 Largest concise Abelian subgroup C1      NOp   1
                         Standard orientation:                         
 ---------------------------------------------------------------------
 Center     Atomic      Atomic             Coordinates (Angstroms)
 Number     Number       Type             X           Y           Z
 ---------------------------------------------------------------------
      1          9           0        1.823651    0.000222    0.000077
      2          6           0        0.000236   -0.000387   -0.000214
      3          1           0        0.000156   -0.304327    1.025293
      4          1           0        0.000379    1.039672   -0.249835
      5          1           0       -0.000003   -0.737207   -0.775590
      6          9           0       -1.823867    0.000243    0.000081
 ---------------------------------------------------------------------
 Rotational constants (GHZ):         146.1033732           3.9448937           3.9448370
 Leave Link  202 at Tue Oct  6 16:28:58 2020, MaxMem=  2684354560 cpu:               0.9 elap:               0.5
 (Enter /udrive/faculty/rpeverati/g16/g16/l301.exe)
 Standard basis: 6-31G(d) (5D, 7F)
 Ernie: Thresh=  0.10000D-02 Tol=  0.10000D-05 Strict=F.
 There are    51 symmetry adapted cartesian basis functions of A   symmetry.
 There are    48 symmetry adapted basis functions of A   symmetry.
    48 basis functions,    96 primitive gaussians,    51 cartesian basis functions
    14 alpha electrons       14 beta electrons
       nuclear repulsion energy        66.3661313160 Hartrees.
 IExCor=  402 DFT=T Ex+Corr=B3LYP ExCW=0 ScaHFX=  0.200000
 ScaDFX=  0.800000  0.720000  1.000000  0.810000 ScalE2=  1.000000  1.000000
 IRadAn=      5 IRanWt=     -1 IRanGd=            0 ICorTp=0 IEmpDi=  4
 NAtoms=    6 NActive=    6 NUniq=    6 SFac= 1.00D+00 NAtFMM=   60 NAOKFM=F Big=F
 Integral buffers will be    131072 words long.
 Raffenetti 2 integral format.
 Two-electron integral symmetry is turned on.
 Leave Link  301 at Tue Oct  6 16:28:59 2020, MaxMem=  2684354560 cpu:               2.3 elap:               0.7
 (Enter /udrive/faculty/rpeverati/g16/g16/l302.exe)
 NPDir=0 NMtPBC=     1 NCelOv=     1 NCel=       1 NClECP=     1 NCelD=      1
         NCelK=      1 NCelE2=     1 NClLst=     1 CellRange=     0.0.
 One-electron integrals computed using PRISM.
 One-electron integral symmetry used in STVInt
 NBasis=    48 RedAO= T EigKep=  1.71D-02  NBF=    48
 NBsUse=    48 1.00D-06 EigRej= -1.00D+00 NBFU=    48
 Precomputing XC quadrature grid using
 IXCGrd= 4 IRadAn=           5 IRanWt=          -1 IRanGd=           0 AccXCQ= 0.00D+00.
 Generated NRdTot=       0 NPtTot=           0 NUsed=           0 NTot=          32
 NSgBfM=    51    51    51    51    51 MxSgAt=     6 MxSgA2=     6.
 Leave Link  302 at Tue Oct  6 16:29:00 2020, MaxMem=  2684354560 cpu:               3.3 elap:               0.7
 (Enter /udrive/faculty/rpeverati/g16/g16/l303.exe)
 DipDrv:  MaxL=1.
 Leave Link  303 at Tue Oct  6 16:29:01 2020, MaxMem=  2684354560 cpu:               1.0 elap:               0.6
 (Enter /udrive/faculty/rpeverati/g16/g16/l401.exe)
 SCF N**3 symmetry information disabled.
 ExpMin= 1.61D-01 ExpMax= 7.00D+03 ExpMxC= 1.05D+03 IAcc=3 IRadAn=         5 AccDes= 0.00D+00
 Harris functional with IExCor=  402 and IRadAn=       5 diagonalized for initial guess.
 HarFok:  IExCor=  402 AccDes= 0.00D+00 IRadAn=         5 IDoV= 1 UseB2=F ITyADJ=14
 ICtDFT=  3500011 ScaDFX=  1.000000  1.000000  1.000000  1.000000
 FoFCou: FMM=F IPFlag=           0 FMFlag=      100000 FMFlg1=           0
         NFxFlg=           0 DoJE=T BraDBF=F KetDBF=T FulRan=T
         wScrn=  0.000000 ICntrl=       500 IOpCl=  0 I1Cent=   200000004 NGrid=           0
         NMat0=    1 NMatS0=      1 NMatT0=    0 NMatD0=    1 NMtDS0=    0 NMtDT0=    0
 Petite list used in FoFCou.
 Harris En= -239.753072692460    
 JPrj=0 DoOrth=F DoCkMO=F.
 Leave Link  401 at Tue Oct  6 16:29:02 2020, MaxMem=  2684354560 cpu:               5.0 elap:               0.8
 (Enter /udrive/faculty/rpeverati/g16/g16/l502.exe)
 Keep R1 ints in memory in canonical form, NReq=11149966.
 FoFCou: FMM=F IPFlag=           0 FMFlag=           0 FMFlg1=           0
         NFxFlg=           0 DoJE=F BraDBF=F KetDBF=F FulRan=T
         wScrn=  0.000000 ICntrl=       600 IOpCl=  0 I1Cent=           0 NGrid=           0
         NMat0=    1 NMatS0=   1176 NMatT0=    0 NMatD0=    1 NMtDS0=    0 NMtDT0=    0
 Symmetry not used in FoFCou.
 Two-electron integral symmetry not used.
 Closed shell SCF:
 Using DIIS extrapolation, IDIIS=  1040.
 NGot=  2684354560 LenX=  2683655928 LenY=  2683652886
 Requested convergence on RMS density matrix=1.00D-08 within 120 cycles.
 Requested convergence on MAX density matrix=1.00D-06.
 Requested convergence on             energy=1.00D-06.
 No special actions if energy rises.
 Integral accuracy reduced to 1.0D-05 until final iterations.

 Cycle   1  Pass 0  IDiag  1:
 E= -239.395593511850    
 DIIS: error= 6.42D-02 at cycle   1 NSaved=   1.
 NSaved= 1 IEnMin= 1 EnMin= -239.395593511850     IErMin= 1 ErrMin= 6.42D-02
 ErrMax= 6.42D-02  0.00D+00 EMaxC= 1.00D-01 BMatC= 1.80D-01 BMatP= 1.80D-01
 IDIUse=3 WtCom= 3.58D-01 WtEn= 6.42D-01
 Coeff-Com:  0.100D+01
 Coeff-En:   0.100D+01
 Coeff:      0.100D+01
 Gap=     0.272 Goal=   None    Shift=    0.000
 GapD=    0.272 DampG=1.000 DampE=0.500 DampFc=0.5000 IDamp=-1.
 Damping current iteration by 5.00D-01
 RMSDP=1.56D-02 MaxDP=1.33D-01              OVMax= 1.77D-01

 Cycle   2  Pass 0  IDiag  1:
 E= -239.446522894686     Delta-E=       -0.050929382836 Rises=F Damp=T
 DIIS: error= 9.32D-03 at cycle   2 NSaved=   2.
 NSaved= 2 IEnMin= 2 EnMin= -239.446522894686     IErMin= 2 ErrMin= 9.32D-03
 ErrMax= 9.32D-03  0.00D+00 EMaxC= 1.00D-01 BMatC= 6.76D-03 BMatP= 1.80D-01
 IDIUse=3 WtCom= 9.07D-01 WtEn= 9.32D-02
 Coeff-Com:  0.122D+00 0.878D+00
 Coeff-En:   0.182D+00 0.818D+00
 Coeff:      0.128D+00 0.872D+00
 Gap=     0.327 Goal=   None    Shift=    0.000
 RMSDP=3.10D-03 MaxDP=5.17D-02 DE=-5.09D-02 OVMax= 1.23D-01

 Cycle   3  Pass 0  IDiag  1:
 E= -239.514607540221     Delta-E=       -0.068084645534 Rises=F Damp=F
 DIIS: error= 1.13D-02 at cycle   3 NSaved=   3.
 NSaved= 3 IEnMin= 3 EnMin= -239.514607540221     IErMin= 2 ErrMin= 9.32D-03
 ErrMax= 1.13D-02  0.00D+00 EMaxC= 1.00D-01 BMatC= 4.31D-03 BMatP= 6.76D-03
 IDIUse=3 WtCom= 8.87D-01 WtEn= 1.13D-01
 Coeff-Com:  0.468D-01 0.480D+00 0.473D+00
 Coeff-En:   0.000D+00 0.000D+00 0.100D+01
 Coeff:      0.415D-01 0.426D+00 0.532D+00
 Gap=     0.324 Goal=   None    Shift=    0.000
 RMSDP=1.29D-03 MaxDP=1.80D-02 DE=-6.81D-02 OVMax= 3.47D-02

 Cycle   4  Pass 0  IDiag  1:
 E= -239.518635348614     Delta-E=       -0.004027808393 Rises=F Damp=F
 DIIS: error= 2.97D-03 at cycle   4 NSaved=   4.
 NSaved= 4 IEnMin= 4 EnMin= -239.518635348614     IErMin= 4 ErrMin= 2.97D-03
 ErrMax= 2.97D-03  0.00D+00 EMaxC= 1.00D-01 BMatC= 3.91D-04 BMatP= 4.31D-03
 IDIUse=3 WtCom= 9.70D-01 WtEn= 2.97D-02
 Coeff-Com:  0.588D-02 0.860D-02 0.226D+00 0.760D+00
 Coeff-En:   0.000D+00 0.000D+00 0.281D-01 0.972D+00
 Coeff:      0.570D-02 0.835D-02 0.220D+00 0.766D+00
 Gap=     0.320 Goal=   None    Shift=    0.000
 RMSDP=2.92D-04 MaxDP=4.12D-03 DE=-4.03D-03 OVMax= 6.84D-03

 Cycle   5  Pass 0  IDiag  1:
 E= -239.518986256377     Delta-E=       -0.000350907763 Rises=F Damp=F
 DIIS: error= 1.10D-04 at cycle   5 NSaved=   5.
 NSaved= 5 IEnMin= 5 EnMin= -239.518986256377     IErMin= 5 ErrMin= 1.10D-04
 ErrMax= 1.10D-04  0.00D+00 EMaxC= 1.00D-01 BMatC= 5.65D-07 BMatP= 3.91D-04
 IDIUse=3 WtCom= 9.99D-01 WtEn= 1.10D-03
 Coeff-Com:  0.116D-02-0.468D-02 0.291D-01 0.127D+00 0.847D+00
 Coeff-En:   0.000D+00 0.000D+00 0.000D+00 0.000D+00 0.100D+01
 Coeff:      0.116D-02-0.468D-02 0.291D-01 0.127D+00 0.847D+00
 Gap=     0.320 Goal=   None    Shift=    0.000
 RMSDP=1.18D-05 MaxDP=1.08D-04 DE=-3.51D-04 OVMax= 1.95D-04

 Cycle   6  Pass 0  IDiag  1:
 E= -239.518986664323     Delta-E=       -0.000000407946 Rises=F Damp=F
 DIIS: error= 2.03D-05 at cycle   6 NSaved=   6.
 NSaved= 6 IEnMin= 6 EnMin= -239.518986664323     IErMin= 6 ErrMin= 2.03D-05
 ErrMax= 2.03D-05  0.00D+00 EMaxC= 1.00D-01 BMatC= 3.03D-08 BMatP= 5.65D-07
 IDIUse=1 WtCom= 1.00D+00 WtEn= 0.00D+00
 Coeff-Com:  0.376D-03-0.149D-02 0.520D-02 0.223D-01 0.200D+00 0.774D+00
 Coeff:      0.376D-03-0.149D-02 0.520D-02 0.223D-01 0.200D+00 0.774D+00
 Gap=     0.320 Goal=   None    Shift=    0.000
 RMSDP=3.83D-06 MaxDP=5.02D-05 DE=-4.08D-07 OVMax= 9.10D-05

 Initial convergence to 1.0D-05 achieved.  Increase integral accuracy.
 Cycle   7  Pass 1  IDiag  1:
 E= -239.518989822941     Delta-E=       -0.000003158618 Rises=F Damp=F
 DIIS: error= 1.65D-05 at cycle   1 NSaved=   1.
 NSaved= 1 IEnMin= 1 EnMin= -239.518989822941     IErMin= 1 ErrMin= 1.65D-05
 ErrMax= 1.65D-05  0.00D+00 EMaxC= 1.00D-01 BMatC= 1.33D-08 BMatP= 1.33D-08
 IDIUse=1 WtCom= 1.00D+00 WtEn= 0.00D+00
 Coeff-Com:  0.100D+01
 Coeff:      0.100D+01
 Gap=     0.320 Goal=   None    Shift=    0.000
 RMSDP=3.83D-06 MaxDP=5.02D-05 DE=-3.16D-06 OVMax= 1.39D-04

 Cycle   8  Pass 1  IDiag  1:
 E= -239.518989799371     Delta-E=        0.000000023570 Rises=F Damp=F
 DIIS: error= 3.18D-05 at cycle   2 NSaved=   2.
 NSaved= 2 IEnMin= 1 EnMin= -239.518989822941     IErMin= 1 ErrMin= 1.65D-05
 ErrMax= 3.18D-05  0.00D+00 EMaxC= 1.00D-01 BMatC= 4.76D-08 BMatP= 1.33D-08
 IDIUse=1 WtCom= 1.00D+00 WtEn= 0.00D+00
 Coeff-Com:  0.655D+00 0.345D+00
 Coeff:      0.655D+00 0.345D+00
 Gap=     0.320 Goal=   None    Shift=    0.000
 RMSDP=2.97D-06 MaxDP=4.48D-05 DE= 2.36D-08 OVMax= 9.23D-05

 Cycle   9  Pass 1  IDiag  1:
 E= -239.518989832089     Delta-E=       -0.000000032718 Rises=F Damp=F
 DIIS: error= 5.76D-07 at cycle   3 NSaved=   3.
 NSaved= 3 IEnMin= 3 EnMin= -239.518989832089     IErMin= 3 ErrMin= 5.76D-07
 ErrMax= 5.76D-07  0.00D+00 EMaxC= 1.00D-01 BMatC= 1.86D-11 BMatP= 1.33D-08
 IDIUse=1 WtCom= 1.00D+00 WtEn= 0.00D+00
 Coeff-Com:  0.202D+00 0.110D+00 0.688D+00
 Coeff:      0.202D+00 0.110D+00 0.688D+00
 Gap=     0.320 Goal=   None    Shift=    0.000
 RMSDP=9.00D-08 MaxDP=1.50D-06 DE=-3.27D-08 OVMax= 2.02D-06

 Cycle  10  Pass 1  IDiag  1:
 E= -239.518989832097     Delta-E=       -0.000000000009 Rises=F Damp=F
 DIIS: error= 4.36D-07 at cycle   4 NSaved=   4.
 NSaved= 4 IEnMin= 4 EnMin= -239.518989832097     IErMin= 4 ErrMin= 4.36D-07
 ErrMax= 4.36D-07  0.00D+00 EMaxC= 1.00D-01 BMatC= 8.58D-12 BMatP= 1.86D-11
 IDIUse=1 WtCom= 1.00D+00 WtEn= 0.00D+00
 Coeff-Com: -0.782D-02-0.184D-02 0.407D+00 0.603D+00
 Coeff:     -0.782D-02-0.184D-02 0.407D+00 0.603D+00
 Gap=     0.320 Goal=   None    Shift=    0.000
 RMSDP=4.38D-08 MaxDP=5.14D-07 DE=-8.58D-12 OVMax= 8.06D-07

 Cycle  11  Pass 1  IDiag  1:
 E= -239.518989832102     Delta-E=       -0.000000000004 Rises=F Damp=F
 DIIS: error= 1.13D-07 at cycle   5 NSaved=   5.
 NSaved= 5 IEnMin= 5 EnMin= -239.518989832102     IErMin= 5 ErrMin= 1.13D-07
 ErrMax= 1.13D-07  0.00D+00 EMaxC= 1.00D-01 BMatC= 3.47D-13 BMatP= 8.58D-12
 IDIUse=1 WtCom= 1.00D+00 WtEn= 0.00D+00
 Coeff-Com: -0.116D-01-0.510D-02 0.178D+00 0.306D+00 0.534D+00
 Coeff:     -0.116D-01-0.510D-02 0.178D+00 0.306D+00 0.534D+00
 Gap=     0.320 Goal=   None    Shift=    0.000
 RMSDP=1.12D-08 MaxDP=1.65D-07 DE=-4.32D-12 OVMax= 2.77D-07

 Cycle  12  Pass 1  IDiag  1:
 E= -239.518989832103     Delta-E=       -0.000000000001 Rises=F Damp=F
 DIIS: error= 1.74D-08 at cycle   6 NSaved=   6.
 NSaved= 6 IEnMin= 6 EnMin= -239.518989832103     IErMin= 6 ErrMin= 1.74D-08
 ErrMax= 1.74D-08  0.00D+00 EMaxC= 1.00D-01 BMatC= 1.22D-14 BMatP= 3.47D-13
 IDIUse=1 WtCom= 1.00D+00 WtEn= 0.00D+00
 Coeff-Com: -0.391D-02-0.187D-02 0.263D-01 0.410D-01 0.181D+00 0.757D+00
 Coeff:     -0.391D-02-0.187D-02 0.263D-01 0.410D-01 0.181D+00 0.757D+00
 Gap=     0.320 Goal=   None    Shift=    0.000
 RMSDP=1.98D-09 MaxDP=2.29D-08 DE=-7.96D-13 OVMax= 3.03D-08

 SCF Done:  E(RB3LYP) =  -239.518989832     A.U. after   12 cycles
            NFock= 12  Conv=0.20D-08     -V/T= 2.0039
 KE= 2.385989671127D+02 PE=-7.117960711784D+02 EE= 1.673119829176D+02
 Leave Link  502 at Tue Oct  6 16:29:04 2020, MaxMem=  2684354560 cpu:              20.8 elap:               2.2
 (Enter /udrive/faculty/rpeverati/g16/g16/l508.exe)
 QCSCF skips out because SCF is already converged.
 Leave Link  508 at Tue Oct  6 16:29:05 2020, MaxMem=  2684354560 cpu:               1.0 elap:               0.5
 (Enter /udrive/faculty/rpeverati/g16/g16/l801.exe)
 DoSCS=F DFT=T ScalE2(SS,OS)=  1.000000  1.000000
 Range of M.O.s used for correlation:     1    48
 NBasis=    48 NAE=    14 NBE=    14 NFC=     0 NFV=     0
 NROrb=     48 NOA=    14 NOB=    14 NVA=    34 NVB=    34
 Leave Link  801 at Tue Oct  6 16:29:06 2020, MaxMem=  2684354560 cpu:               1.4 elap:               0.5
 (Enter /udrive/faculty/rpeverati/g16/g16/l1101.exe)
 Using compressed storage, NAtomX=     6.
 Will process      7 centers per pass.
 Leave Link 1101 at Tue Oct  6 16:29:07 2020, MaxMem=  2684354560 cpu:               3.2 elap:               0.7
 (Enter /udrive/faculty/rpeverati/g16/g16/l1102.exe)
 Symmetrizing basis deriv contribution to polar:
 IMax=3 JMax=2 DiffMx= 0.00D+00
 Leave Link 1102 at Tue Oct  6 16:29:08 2020, MaxMem=  2684354560 cpu:               2.3 elap:               0.5
 (Enter /udrive/faculty/rpeverati/g16/g16/l1110.exe)
 Forming Gx(P) for the SCF density, NAtomX=     6.
 Integral derivatives from FoFJK, PRISM(SPDF).
 Do as many integral derivatives as possible in FoFJK.
 G2DrvN: MDV=    2684353980.
 G2DrvN: will do     7 centers at a time, making    1 passes.
 Calling FoFCou, ICntrl=  3107 FMM=F I1Cent=   0 AccDes= 0.00D+00.
 FoFJK:  IHMeth= 1 ICntrl=    3107 DoSepK=F KAlg= 0 I1Cent=           0 FoldK=F
 IRaf=         0 NMat=       1 IRICut=       1 DoRegI=T DoRafI=F ISym2E= 0 IDoP0=0 IntGTp=1.
 FoFCou: FMM=F IPFlag=           0 FMFlag=      100000 FMFlg1=           0
         NFxFlg=           0 DoJE=F BraDBF=F KetDBF=F FulRan=T
         wScrn=  0.000000 ICntrl=      3107 IOpCl=  0 I1Cent=           0 NGrid=           0
         NMat0=    1 NMatS0=      1 NMatT0=    0 NMatD0=    1 NMtDS0=    0 NMtDT0=    0
 Symmetry not used in FoFCou.
 End of G2Drv F.D. properties file   721 does not exist.
 End of G2Drv F.D. properties file   722 does not exist.
 End of G2Drv F.D. properties file   788 does not exist.
 Leave Link 1110 at Tue Oct  6 16:29:10 2020, MaxMem=  2684354560 cpu:              19.0 elap:               2.0
 (Enter /udrive/faculty/rpeverati/g16/g16/l1002.exe)
 Minotr:  Closed shell wavefunction.
          IDoAtm=111111
          Direct CPHF calculation.
          Differentiating once with respect to nuclear coordinates.
          Requested convergence is 1.0D-08 RMS, and 1.0D-07 maximum.
          Secondary convergence is 1.0D-12 RMS, and 1.0D-12 maximum.
          NewPWx=T KeepS1=F KeepF1=F KeepIn=T MapXYZ=F SortEE=F KeepMc=T.
         1754 words used for storage of precomputed grid.
 Keep R1 ints in memory in canonical form, NReq=11113362.
 FoFCou: FMM=F IPFlag=           0 FMFlag=           0 FMFlg1=           0
         NFxFlg=           0 DoJE=F BraDBF=F KetDBF=F FulRan=T
         wScrn=  0.000000 ICntrl=       600 IOpCl=  0 I1Cent=           0 NGrid=           0
         NMat0=    1 NMatS0=   1176 NMatT0=    0 NMatD0=    1 NMtDS0=    0 NMtDT0=    0
 Symmetry not used in FoFCou.
 Two-electron integral symmetry not used.
          MDV=    2684354560 using IRadAn=       1.
          Solving linear equations simultaneously, MaxMat=       0.
          There are    21 degrees of freedom in the 1st order CPHF.  IDoFFX=6 NUNeed=     0.
     15 vectors produced by pass  0 Test12= 2.27D-15 4.76D-09 XBig12= 7.56D-02 1.12D-01.
 AX will form    15 AO Fock derivatives at one time.
     15 vectors produced by pass  1 Test12= 2.27D-15 4.76D-09 XBig12= 2.69D-03 2.85D-02.
     15 vectors produced by pass  2 Test12= 2.27D-15 4.76D-09 XBig12= 1.38D-04 2.88D-03.
     15 vectors produced by pass  3 Test12= 2.27D-15 4.76D-09 XBig12= 4.41D-06 8.46D-04.
     15 vectors produced by pass  4 Test12= 2.27D-15 4.76D-09 XBig12= 9.41D-09 2.90D-05.
     10 vectors produced by pass  5 Test12= 2.27D-15 4.76D-09 XBig12= 7.86D-12 9.18D-07.
      1 vectors produced by pass  6 Test12= 2.27D-15 4.76D-09 XBig12= 1.26D-14 3.67D-08.
 InvSVY:  IOpt=1 It=  1 EMax= 1.67D-15
 Solved reduced A of dimension    86 with    15 vectors.
 End of Minotr F.D. properties file   721 does not exist.
 End of Minotr F.D. properties file   722 does not exist.
 End of Minotr F.D. properties file   788 does not exist.
 Leave Link 1002 at Tue Oct  6 16:29:13 2020, MaxMem=  2684354560 cpu:              27.7 elap:               2.8
 (Enter /udrive/faculty/rpeverati/g16/g16/l601.exe)
 Copying SCF densities to generalized density rwf, IOpCl= 0 IROHF=0.

 **********************************************************************

            Population analysis using the SCF density.

 **********************************************************************

 Orbital symmetries:
       Occupied  (A) (A) (A) (A) (A) (A) (A) (A) (A) (A) (A) (A)
                 (A) (A)
       Virtual   (A) (A) (A) (A) (A) (A) (A) (A) (A) (A) (A) (A)
                 (A) (A) (A) (A) (A) (A) (A) (A) (A) (A) (A) (A)
                 (A) (A) (A) (A) (A) (A) (A) (A) (A) (A)
 The electronic state is 1-A.
 Alpha  occ. eigenvalues --  -24.29168 -24.29148 -10.00941  -0.76634  -0.76032
 Alpha  occ. eigenvalues --   -0.44918  -0.21853  -0.21840  -0.11223  -0.03034
 Alpha  occ. eigenvalues --   -0.03034  -0.01518  -0.01517  -0.00566
 Alpha virt. eigenvalues --    0.31414   0.32037   0.37862   0.37869   0.77542
 Alpha virt. eigenvalues --    0.77563   0.85885   1.03635   1.11909   1.11932
 Alpha virt. eigenvalues --    1.34323   1.43671   1.43672   1.57453   1.57457
 Alpha virt. eigenvalues --    1.57488   1.58087   1.83901   1.83904   1.92000
 Alpha virt. eigenvalues --    2.04817   2.15964   2.17149   2.17165   2.19127
 Alpha virt. eigenvalues --    2.19127   2.21213   2.21218   2.38142   2.38144
 Alpha virt. eigenvalues --    2.47633   2.54328   2.54365   3.20066
          Condensed to atoms (all electrons):
               1          2          3          4          5          6
     1  F    9.606057   0.114451  -0.025971  -0.026001  -0.025960   0.000499
     2  C    0.114451   4.699865   0.377431   0.377471   0.377380   0.114456
     3  H   -0.025971   0.377431   0.599133  -0.020182  -0.020292  -0.025929
     4  H   -0.026001   0.377471  -0.020182   0.598991  -0.020183  -0.025957
     5  H   -0.025960   0.377380  -0.020292  -0.020183   0.599217  -0.025919
     6  F    0.000499   0.114456  -0.025929  -0.025957  -0.025919   9.606150
 Mulliken charges:
               1
     1  F   -0.643074
     2  C   -0.061054
     3  H    0.115811
     4  H    0.115861
     5  H    0.115757
     6  F   -0.643300
 Sum of Mulliken charges =  -1.00000
 Mulliken charges with hydrogens summed into heavy atoms:
               1
     1  F   -0.643074
     2  C    0.286375
     6  F   -0.643300
 APT charges:
               1
     1  F   -0.647706
     2  C   -0.688269
     3  H    0.327969
     4  H    0.327957
     5  H    0.328029
     6  F   -0.647979
 Sum of APT charges =  -1.00000
 APT charges with hydrogens summed into heavy atoms:
               1
     1  F   -0.647706
     2  C    0.295685
     6  F   -0.647979
 Electronic spatial extent (au):  <R**2>=            280.5457
 Charge=             -1.0000 electrons
 Dipole moment (field-independent basis, Debye):
    X=              0.0041    Y=             -0.0017    Z=             -0.0005  Tot=              0.0044
 Quadrupole moment (field-independent basis, Debye-Ang):
   XX=            -38.2285   YY=            -17.5303   ZZ=            -17.5326
   XY=              0.0004   XZ=              0.0001   YZ=             -0.0001
 Traceless Quadrupole moment (field-independent basis, Debye-Ang):
   XX=            -13.7981   YY=              6.9002   ZZ=              6.8979
   XY=              0.0004   XZ=              0.0001   YZ=             -0.0001
 Octapole moment (field-independent basis, Debye-Ang**2):
  XXX=              0.0164  YYY=              0.4119  ZZZ=              0.3510  XYY=              0.0008
  XXY=             -0.0027  XXZ=             -0.0007  XZZ=              0.0006  YZZ=             -0.4082
  YYZ=             -0.3494  XYZ=             -0.0001
 Hexadecapole moment (field-independent basis, Debye-Ang**3):
 XXXX=           -285.0969 YYYY=            -19.9661 ZZZZ=            -19.9629 XXXY=              0.0005
 XXXZ=              0.0001 YYYX=              0.0003 YYYZ=              0.0006 ZZZX=              0.0001
 ZZZY=             -0.0005 XXYY=            -40.9576 XXZZ=            -40.9565 YYZZ=             -6.6542
 XXYZ=             -0.0000 YYXZ=             -0.0001 ZZXY=             -0.0000
 N-N= 6.636613131598D+01 E-N=-7.117960709360D+02  KE= 2.385989671127D+02
  Exact polarizability:   0.000   0.000   0.000   0.000   0.000   0.000
 Approx polarizability:  49.065   0.002  17.597   0.000   0.000  17.591
 No NMR shielding tensors so no spin-rotation constants.
 Leave Link  601 at Tue Oct  6 16:29:14 2020, MaxMem=  2684354560 cpu:               3.5 elap:               0.6
 (Enter /udrive/faculty/rpeverati/g16/g16/l701.exe)
 ... and contract with generalized density number  0.
 Compute integral second derivatives.
 Leave Link  701 at Tue Oct  6 16:29:15 2020, MaxMem=  2684354560 cpu:               4.3 elap:               0.8
 (Enter /udrive/faculty/rpeverati/g16/g16/l702.exe)
 L702 exits ... SP integral derivatives will be done elsewhere.
 Leave Link  702 at Tue Oct  6 16:29:16 2020, MaxMem=  2684354560 cpu:               1.1 elap:               0.5
 (Enter /udrive/faculty/rpeverati/g16/g16/l703.exe)
 Integral derivatives from FoFJK, PRISM(SPDF).
 Compute integral second derivatives, UseDBF=F ICtDFT=           0.
 Calling FoFJK, ICntrl=    100147 FMM=F ISym2X=0 I1Cent= 0 IOpClX= 0 NMat=1 NMatS=1 NMatT=0.
 FoFJK:  IHMeth= 1 ICntrl=  100147 DoSepK=F KAlg= 0 I1Cent=           0 FoldK=F
 IRaf=         0 NMat=       1 IRICut=       1 DoRegI=T DoRafI=F ISym2E= 0 IDoP0=0 IntGTp=1.
 FoFCou: FMM=F IPFlag=           0 FMFlag=      100000 FMFlg1=         800
         NFxFlg=           0 DoJE=F BraDBF=F KetDBF=F FulRan=T
         wScrn=  0.000000 ICntrl=    100147 IOpCl=  0 I1Cent=           0 NGrid=           0
         NMat0=    1 NMatS0=      1 NMatT0=    0 NMatD0=    1 NMtDS0=    0 NMtDT0=    0
 Symmetry not used in FoFCou.
 Leave Link  703 at Tue Oct  6 16:29:19 2020, MaxMem=  2684354560 cpu:              29.3 elap:               2.8
 (Enter /udrive/faculty/rpeverati/g16/g16/l716.exe)
 Dipole        = 1.59665321D-03-6.84007503D-04-1.81894940D-04
 Polarizability= 0.00000000D+00 0.00000000D+00 0.00000000D+00
                 0.00000000D+00 0.00000000D+00 0.00000000D+00
 ***** Axes restored to original set *****
 -------------------------------------------------------------------
 Center     Atomic                   Forces (Hartrees/Bohr)
 Number     Number              X              Y              Z
 -------------------------------------------------------------------
      1        9          -0.002197200   -0.000030573   -0.000014961
      2        6           0.000048066   -0.000016694    0.000074914
      3        1          -0.000025497   -0.001617396    0.005569546
      4        1          -0.000039824    0.005610691   -0.001375969
      5        1          -0.000015271   -0.003928746   -0.004241170
      6        9           0.002229727   -0.000017283   -0.000012360
 -------------------------------------------------------------------
 Cartesian Forces:  Max     0.005610691 RMS     0.002474797
 Force constants in Cartesian coordinates: 
                1             2             3             4             5 
      1  0.651127D-01
      2 -0.265796D-04  0.166780D-01
      3 -0.182451D-04 -0.120392D-04  0.166642D-01
      4  0.352955D-01  0.543900D-04  0.270295D-04 -0.898501D-01
      5  0.260198D-04 -0.318912D-01  0.515534D-05  0.107730D-03  0.733643D+00
      6  0.138410D-04  0.562575D-05 -0.318774D-01  0.208948D-04 -0.498231D-04
      7 -0.242309D-01 -0.317490D-02  0.106446D-01  0.640200D-02 -0.909684D-05
      8 -0.162283D-02  0.210745D-02 -0.567006D-03 -0.179551D-04 -0.835584D-01
      9  0.542641D-02 -0.570655D-03  0.386708D-02  0.287207D-04  0.910558D-01
     10 -0.242707D-01  0.107974D-01 -0.259210D-02  0.647436D-02 -0.532123D-04
     11  0.552254D-02  0.392097D-02 -0.466854D-03 -0.486970D-04 -0.371944D+00
     12 -0.132227D-02 -0.466234D-03  0.205532D-02  0.776479D-05  0.754266D-01
     13 -0.241905D-01 -0.764648D-02 -0.806089D-02  0.633519D-02 -0.516260D-04
     14 -0.390060D-02  0.292681D-02  0.104377D-02 -0.664494D-04 -0.214395D+00
     15 -0.409964D-02  0.104632D-02  0.303698D-02 -0.623487D-04 -0.166442D+00
     16 -0.277161D-01 -0.384125D-05  0.000000D+00  0.353430D-01 -0.198145D-04
     17  0.144827D-05  0.625802D-02 -0.302141D-05 -0.290182D-04 -0.318546D-01
     18  0.000000D+00 -0.302233D-05  0.625388D-02 -0.220612D-04  0.479815D-05
                6             7             8             9            10 
      6  0.733083D+00
      7  0.180338D-04  0.373096D-01
      8  0.910779D-01  0.163642D-04  0.698521D-01
      9 -0.362865D+00 -0.402889D-04 -0.961296D-01  0.364748D+00
     10  0.111878D-04  0.234971D-02 -0.394283D-05  0.000000D+00  0.373160D-01
     11  0.754386D-01  0.000000D+00 -0.633770D-03 -0.962286D-03  0.277788D-04
     12 -0.745229D-01 -0.180938D-05  0.237021D-01  0.596343D-03 -0.483014D-05
     13 -0.513517D-04  0.236729D-02  0.424628D-05  0.274658D-05  0.234667D-02
     14 -0.166477D+00  0.328210D-05  0.101311D-01  0.717913D-02 -0.513485D-05
     15 -0.231976D+00 -0.574339D-05 -0.175170D-01 -0.102131D-01  0.305514D-05
     16 -0.126056D-04 -0.241977D-01  0.162412D-02 -0.541686D-02 -0.242160D-01
     17  0.526831D-05  0.316504D-02  0.210150D-02 -0.572382D-03 -0.107629D-01
     18 -0.318414D-01 -0.106148D-01 -0.566346D-03  0.386731D-02  0.258342D-02
               11            12            13            14            15 
     11  0.374277D+00
     12 -0.796586D-01  0.602999D-01
     13  0.000000D+00  0.218913D-05  0.373139D-01
     14 -0.954359D-02 -0.185363D-01  0.666352D-04  0.207958D+00
     15  0.611838D-02  0.952361D-02  0.666526D-04  0.175747D+00  0.226594D+00
     16 -0.550164D-02  0.131896D-02 -0.241725D-01  0.390227D-02  0.409802D-02
     17  0.392292D-02 -0.467571D-03  0.762653D-02  0.292315D-02  0.104830D-02
     18 -0.469194D-03  0.204772D-02  0.804065D-02  0.104436D-02  0.303490D-02
               16            17            18 
     16  0.649593D-01
     17 -0.108983D-05  0.166490D-01
     18  0.128572D-04 -0.105907D-04  0.166376D-01
 FormGI is forming the generalized inverse of G from B-inverse, IUseBI=4.
 Force constants in internal coordinates: 
                1             2             3             4             5 
      1  0.651127D-01
      2  0.566592D-02  0.393316D+00
      3  0.567655D-02  0.716424D-03  0.393331D+00
      4  0.566278D-02  0.731579D-03  0.711076D-03  0.393269D+00
      5  0.277161D-01  0.565350D-02  0.566198D-02  0.565191D-02  0.649593D-01
      6  0.817609D-02 -0.396957D-02  0.198030D-02  0.197801D-02 -0.815281D-02
      7  0.820966D-02  0.198500D-02 -0.396697D-02  0.198478D-02 -0.815540D-02
      8  0.810390D-02  0.198310D-02  0.198984D-02 -0.396216D-02 -0.814640D-02
      9  0.304191D-05  0.207953D-02  0.208391D-02 -0.417223D-02  0.537037D-05
     10 -0.863986D-05  0.209282D-02 -0.416230D-02  0.209607D-02 -0.457208D-05
     11 -0.816344D-02 -0.397750D-02  0.198220D-02  0.198167D-02  0.816797D-02
     12  0.000000D+00 -0.417235D-02  0.207839D-02  0.207616D-02  0.384493D-05
     13 -0.817704D-02  0.198859D-02 -0.396826D-02  0.198859D-02  0.816423D-02
     14 -0.814919D-02  0.198559D-02  0.199078D-02 -0.397402D-02  0.812241D-02
     15  0.126507D-04 -0.794706D-02  0.396250D-02  0.395968D-02  0.151649D-04
     16  0.449746D-04 -0.175201D-05 -0.687620D-02  0.687712D-02  0.189515D-04
     17 -0.282769D-01  0.000000D+00  0.188549D-05 -0.366571D-05  0.282364D-01
     18  0.723086D-05  0.208009D-02  0.208437D-02 -0.417325D-02  0.118338D-05
     19  0.864371D-05 -0.209237D-02  0.416230D-02 -0.209652D-02  0.456586D-05
     20  0.141285D-05 -0.417246D-02  0.207793D-02  0.207673D-02  0.338249D-05
                6             7             8             9            10 
      6  0.382949D-01
      7 -0.166066D-01  0.382720D-01
      8 -0.165741D-01 -0.165936D-01  0.382652D-01
      9  0.554500D-03  0.557944D-03 -0.111141D-02  0.150218D-01
     10  0.558774D-03 -0.111632D-02  0.554120D-03 -0.751906D-02  0.150346D-01
     11 -0.166630D-01  0.577770D-02  0.578111D-02  0.563678D-03  0.550070D-03
     12 -0.111424D-02  0.557404D-03  0.556326D-03 -0.750275D-02 -0.751551D-02
     13  0.578070D-02 -0.166439D-01  0.578090D-02  0.562790D-03 -0.110964D-02
     14  0.578241D-02  0.577921D-02 -0.166586D-01 -0.111855D-02  0.556991D-03
     15  0.216318D-01 -0.108289D-01 -0.107930D-01  0.111818D-02  0.110884D-02
     16 -0.999513D-05  0.187216D-01 -0.187180D-01  0.193172D-02 -0.192604D-02
     17 -0.587729D-02 -0.588629D-02 -0.588336D-02  0.808299D-05 -0.308430D-05
     18  0.557505D-03  0.560515D-03 -0.111438D-02  0.150215D-01 -0.751893D-02
     19 -0.557067D-03  0.111631D-02 -0.555823D-03  0.751893D-02 -0.150346D-01
     20 -0.111457D-02  0.555800D-03  0.558554D-03 -0.750259D-02 -0.751564D-02
               11            12            13            14            15 
     11  0.382334D-01
     12 -0.111278D-02  0.150183D-01
     13 -0.165752D-01  0.547821D-03  0.382176D-01
     14 -0.165398D-01  0.562527D-03 -0.165752D-01  0.382129D-01
     15  0.215704D-01 -0.222702D-02 -0.107945D-01 -0.107573D-01  0.432023D-01
     16 -0.126751D-04 -0.568227D-05  0.186787D-01 -0.186782D-01 -0.226702D-04
     17  0.588234D-02 -0.164805D-05  0.588141D-02  0.588320D-02  0.505076D-05
     18  0.557600D-03 -0.750259D-02  0.557767D-03 -0.111006D-02  0.111511D-02
     19 -0.554236D-03  0.751564D-02  0.110965D-02 -0.552834D-03 -0.111130D-02
     20 -0.111184D-02  0.150182D-01  0.551882D-03  0.557227D-03 -0.222641D-02
               16            17            18            19            20 
     16  0.431741D-01
     17 -0.271862D-05  0.203759D-01
     18  0.192712D-02  0.506720D-05  0.150212D-01
     19  0.192463D-02  0.308237D-05  0.751881D-02  0.150346D-01
     20 -0.249099D-05 -0.198483D-05 -0.750243D-02  0.751576D-02  0.150182D-01
 Leave Link  716 at Tue Oct  6 16:29:20 2020, MaxMem=  2684354560 cpu:               1.4 elap:               0.4
 (Enter /udrive/faculty/rpeverati/g16/g16/l103.exe)

 GradGradGradGradGradGradGradGradGradGradGradGradGradGradGradGradGradGrad
 Berny optimization.
 Optmz: redundant internal coordinate code flag= 1
 Red2BG:  D1=  4.00D-01 OD1=  8.16D-15 B2RMS=  0.00D+00 IAprox=1
 Red2BG is reusing G-inverse.
 Internal  Forces:  Max     0.005799524 RMS     0.002347719
 Search for a saddle point.
 Step number   1 out of a maximum of   50
 All quantities printed in internal units (Hartrees-Bohrs-Radians)
 Swapping is turned off.
 Second derivative matrix not updated -- analytic derivatives used.
 The second derivative matrix:
                          R1        R2        R3        R4        R5
           R1           0.06511
           R2           0.00567   0.39332
           R3           0.00568   0.00072   0.39333
           R4           0.00566   0.00073   0.00071   0.39327
           R5           0.02772   0.00565   0.00566   0.00565   0.06496
           A1           0.00818  -0.00397   0.00198   0.00198  -0.00815
           A2           0.00821   0.00198  -0.00397   0.00198  -0.00816
           A3           0.00810   0.00198   0.00199  -0.00396  -0.00815
           A4           0.00000   0.00208   0.00208  -0.00417   0.00001
           A5          -0.00001   0.00209  -0.00416   0.00210  -0.00000
           A6          -0.00816  -0.00398   0.00198   0.00198   0.00817
           A7           0.00000  -0.00417   0.00208   0.00208   0.00000
           A8          -0.00818   0.00199  -0.00397   0.00199   0.00816
           A9          -0.00815   0.00199   0.00199  -0.00397   0.00812
           A10          0.00001  -0.00795   0.00396   0.00396   0.00002
           A11          0.00004  -0.00000  -0.00688   0.00688   0.00002
           D1          -0.02828  -0.00000   0.00000  -0.00000   0.02824
           D2           0.00001   0.00208   0.00208  -0.00417   0.00000
           D3           0.00001  -0.00209   0.00416  -0.00210   0.00000
           D4           0.00000  -0.00417   0.00208   0.00208   0.00000
                          A1        A2        A3        A4        A5
           A1           0.03829
           A2          -0.01661   0.03827
           A3          -0.01657  -0.01659   0.03827
           A4           0.00055   0.00056  -0.00111   0.01502
           A5           0.00056  -0.00112   0.00055  -0.00752   0.01503
           A6          -0.01666   0.00578   0.00578   0.00056   0.00055
           A7          -0.00111   0.00056   0.00056  -0.00750  -0.00752
           A8           0.00578  -0.01664   0.00578   0.00056  -0.00111
           A9           0.00578   0.00578  -0.01666  -0.00112   0.00056
           A10          0.02163  -0.01083  -0.01079   0.00112   0.00111
           A11         -0.00001   0.01872  -0.01872   0.00193  -0.00193
           D1          -0.00588  -0.00589  -0.00588   0.00001  -0.00000
           D2           0.00056   0.00056  -0.00111   0.01502  -0.00752
           D3          -0.00056   0.00112  -0.00056   0.00752  -0.01503
           D4          -0.00111   0.00056   0.00056  -0.00750  -0.00752
                          A6        A7        A8        A9        A10
           A6           0.03823
           A7          -0.00111   0.01502
           A8          -0.01658   0.00055   0.03822
           A9          -0.01654   0.00056  -0.01658   0.03821
           A10          0.02157  -0.00223  -0.01079  -0.01076   0.04320
           A11         -0.00001  -0.00001   0.01868  -0.01868  -0.00002
           D1           0.00588  -0.00000   0.00588   0.00588   0.00001
           D2           0.00056  -0.00750   0.00056  -0.00111   0.00112
           D3          -0.00055   0.00752   0.00111  -0.00055  -0.00111
           D4          -0.00111   0.01502   0.00055   0.00056  -0.00223
                          A11       D1        D2        D3        D4
           A11          0.04317
           D1          -0.00000   0.02038
           D2           0.00193   0.00001   0.01502
           D3           0.00192   0.00000   0.00752   0.01503
           D4          -0.00000  -0.00000  -0.00750   0.00752   0.01502
 ITU=  0
 Eigenvectors of the second derivative matrix:
                           1         2         3         4         5
     Eigenvalues --    -0.01512   0.04387   0.04394   0.07596   0.07606
   1         R1        -0.48231  -0.00021  -0.00004   0.00329  -0.00218
   2         R2         0.00001   0.02267   0.01184  -0.01844  -0.02205
   3         R3         0.00002  -0.00107  -0.02548  -0.01007   0.02694
   4         R4        -0.00000  -0.02154   0.01379   0.02815  -0.00485
   5         R5         0.48266  -0.00001  -0.00025   0.00220   0.00050
   6         A1         0.17237   0.05720   0.02990  -0.21639  -0.25926
   7         A2         0.17261  -0.00280  -0.06448  -0.12287   0.32040
   8         A3         0.17196  -0.05453   0.03488   0.33983  -0.06270
   9         A4         0.00003  -0.47950   0.30536  -0.09827   0.01689
  10         A5        -0.00007  -0.02474  -0.56802   0.03458  -0.09303
  11         A6        -0.17234   0.05763   0.02971  -0.25844  -0.31214
  12         A7        -0.00006   0.50424   0.26266   0.06369   0.07614
  13         A8        -0.17253  -0.00265  -0.06458  -0.13488   0.37668
  14         A9        -0.17207  -0.05501   0.03495   0.39264  -0.06355
  15         A10        0.00003   0.11482   0.05961  -0.47483  -0.57140
  16         A11        0.00010   0.06027  -0.11477  -0.57178   0.47499
  17         D1        -0.59688  -0.00004   0.00002  -0.00075   0.00151
  18         D2         0.00012  -0.47952   0.30537  -0.09817   0.01688
  19         D3         0.00007   0.02473   0.56802  -0.03454   0.09305
  20         D4        -0.00005   0.50424   0.26265   0.06364   0.07617
                           6         7         8         9        10
     Eigenvalues --     0.07725   0.07728   0.08300   0.09212   0.39329
   1         R1         0.00502   0.00158  -0.51071   0.71096   0.00036
   2         R2        -0.00099   0.00136  -0.00017  -0.02636  -0.60799
   3         R3        -0.00043  -0.00139  -0.00030  -0.02639  -0.15066
   4         R4         0.00127  -0.00008  -0.00014  -0.02654   0.77810
   5         R5        -0.00267   0.00027   0.52306   0.70170   0.00036
   6         A1        -0.34212   0.49022  -0.16237   0.00185   0.01139
   7         A2        -0.24674  -0.54008  -0.16458   0.00336   0.00291
   8         A3         0.59293   0.05105  -0.15551  -0.00113  -0.01430
   9         A4        -0.00426   0.00010  -0.00005   0.00040  -0.01353
  10         A5         0.00122   0.00473   0.00024  -0.00038   0.00277
  11         A6         0.31767  -0.45384   0.16318  -0.00067   0.01141
  12         A7         0.00303  -0.00483  -0.00010  -0.00002   0.01077
  13         A8         0.23691   0.50486   0.16231  -0.00148   0.00292
  14         A9        -0.55866  -0.05217   0.15697  -0.00193  -0.01433
  15         A10       -0.02445   0.03638   0.00081   0.00118   0.02280
  16         A11       -0.02546  -0.01967  -0.00215   0.00286   0.01990
  17         D1        -0.00470  -0.00082   0.55707  -0.00471  -0.00001
  18         D2        -0.00440   0.00009  -0.00013   0.00040  -0.01354
  19         D3        -0.00129  -0.00470  -0.00024   0.00038  -0.00277
  20         D4         0.00311  -0.00479  -0.00011  -0.00002   0.01077
                          11        12
     Eigenvalues --     0.39335   0.39538
   1         R1        -0.00005  -0.03241
   2         R2        -0.53759  -0.58238
   3         R3         0.79897  -0.58031
   4         R4        -0.26536  -0.56742
   5         R5        -0.00005  -0.03233
   6         A1         0.00995   0.00012
   7         A2        -0.01485   0.00005
   8         A3         0.00491  -0.00019
   9         A4         0.00464  -0.00015
  10         A5        -0.01405   0.00002
  11         A6         0.00996   0.00013
  12         A7         0.00940   0.00013
  13         A8        -0.01485   0.00005
  14         A9         0.00492  -0.00017
  15         A10        0.01991   0.00025
  16         A11       -0.02281   0.00027
  17         D1         0.00001   0.00001
  18         D2         0.00464  -0.00015
  19         D3         0.01405  -0.00002
  20         D4         0.00940   0.00013
 RLam0= 8.67D-09.
 Iter=   1 RLamda= 0.00000000D+00 Sum=-3.86057684D-04.
 Iter=   2 RLamda=-3.86057684D-04 Sum=-3.85233376D-04.
 Iter=   3 RLamda=-3.85233376D-04 Sum=-3.85235130D-04.
 RFO step:  Lambda0=8.666757995D-09 Lambda=-3.85233376D-04.
 Linear search not attempted -- option 19 set.
 Iteration  1 RMS(Cart)=  0.01031809 RMS(Int)=  0.00000319
 Iteration  2 RMS(Cart)=  0.00000296 RMS(Int)=  0.00000004
 Iteration  3 RMS(Cart)=  0.00000000 RMS(Int)=  0.00000004
 ITry= 1 IFail=0 DXMaxC= 2.70D-02 DCOld= 1.00D+10 DXMaxT= 1.00D-01 DXLimC= 3.00D+00 Rises=F
 Variable       Old X    -DE/DX   Delta X   Delta X   Delta X     New X
                                 (Linear)    (Quad)   (Total)
    R1        3.44575  -0.00220   0.00000  -0.02593  -0.02593   3.41982
    R2        2.02125   0.00580   0.00000   0.01542   0.01542   2.03667
    R3        2.02124   0.00578   0.00000   0.01543   0.01543   2.03667
    R4        2.02131   0.00578   0.00000   0.01536   0.01536   2.03668
    R5        3.44706  -0.00223   0.00000  -0.02722  -0.02722   3.41984
    A1        1.57081   0.00001   0.00000  -0.00001  -0.00001   1.57081
    A2        1.57037   0.00004   0.00000   0.00044   0.00044   1.57082
    A3        1.57137  -0.00003   0.00000  -0.00056  -0.00056   1.57080
    A4        2.09448  -0.00000   0.00000  -0.00008  -0.00008   2.09440
    A5        2.09355   0.00004   0.00000   0.00082   0.00082   2.09437
    A6        1.57066  -0.00000   0.00000   0.00012   0.00012   1.57078
    A7        2.09515  -0.00003   0.00000  -0.00074  -0.00074   2.09441
    A8        1.57063  -0.00000   0.00000   0.00015   0.00015   1.57078
    A9        1.57093  -0.00002   0.00000  -0.00014  -0.00014   1.57079
   A10        3.14148   0.00001   0.00000   0.00011   0.00011   3.14159
   A11        3.14085   0.00005   0.00000   0.00075   0.00075   3.14160
    D1        3.14140  -0.00003   0.00000   0.00014   0.00014   3.14155
    D2        2.09448  -0.00000   0.00000  -0.00008  -0.00008   2.09440
    D3       -2.09355  -0.00004   0.00000  -0.00082  -0.00082  -2.09437
    D4        2.09515  -0.00003   0.00000  -0.00074  -0.00074   2.09441
         Item               Value     Threshold  Converged?
 Maximum Force            0.005800     0.000450     NO 
 RMS     Force            0.002348     0.000300     NO 
 Maximum Displacement     0.026962     0.001800     NO 
 RMS     Displacement     0.010318     0.001200     NO 
 Predicted change in Energy=-1.930232D-04
 Lowest energy point so far.  Saving SCF results.
 Largest change from initial coordinates is atom    6       0.014 Angstoms.
 GradGradGradGradGradGradGradGradGradGradGradGradGradGradGradGradGradGrad

 Leave Link  103 at Tue Oct  6 16:29:21 2020, MaxMem=  2684354560 cpu:               3.0 elap:               0.6
 (Enter /udrive/faculty/rpeverati/g16/g16/l202.exe)
                          Input orientation:                          
 ---------------------------------------------------------------------
 Center     Atomic      Atomic             Coordinates (Angstroms)
 Number     Number       Type             X           Y           Z
 ---------------------------------------------------------------------
      1          9           0        1.809792   -0.000385   -0.000050
      2          6           0        0.000101   -0.000292   -0.000034
      3          1           0        0.000082   -0.307106    1.033131
      4          1           0        0.000127    1.047862   -0.250911
      5          1           0        0.000050   -0.741652   -0.782310
      6          9           0       -1.809600   -0.000210   -0.000016
 ---------------------------------------------------------------------
                    Distance matrix (angstroms):
                    1          2          3          4          5
     1  F    0.000000
     2  C    1.809691   0.000000
     3  H    2.106321   1.077759   0.000000
     4  H    2.106333   1.077760   1.866735   0.000000
     5  H    2.106318   1.077762   1.866724   1.866747   0.000000
     6  F    3.619391   1.809700   2.106306   2.106303   2.106313
                    6
     6  F    0.000000
 Stoichiometry    CH3F2(1-)
 Framework group  C1[X(CH3F2)]
 Deg. of freedom    12
 Full point group                 C1      NOp   1
 RotChk:  IX=0 Diff= 4.41D-02
 Largest Abelian subgroup         C1      NOp   1
 Largest concise Abelian subgroup C1      NOp   1
                         Standard orientation:                         
 ---------------------------------------------------------------------
 Center     Atomic      Atomic             Coordinates (Angstroms)
 Number     Number       Type             X           Y           Z
 ---------------------------------------------------------------------
      1          9           0        1.809696   -0.000000   -0.000000
      2          6           0        0.000005    0.000004   -0.000001
      3          1           0       -0.000009   -0.273602    1.042450
      4          1           0       -0.000017    1.039596   -0.284280
      5          1           0       -0.000003   -0.766001   -0.758161
      6          9           0       -1.809696   -0.000001   -0.000000
 ---------------------------------------------------------------------
 Rotational constants (GHZ):         143.9018759           4.0047326           4.0047310
 Leave Link  202 at Tue Oct  6 16:29:22 2020, MaxMem=  2684354560 cpu:               1.5 elap:               0.4
 (Enter /udrive/faculty/rpeverati/g16/g16/l301.exe)
 Standard basis: 6-31G(d) (5D, 7F)
 Ernie: Thresh=  0.10000D-02 Tol=  0.10000D-05 Strict=F.
 There are    51 symmetry adapted cartesian basis functions of A   symmetry.
 There are    48 symmetry adapted basis functions of A   symmetry.
    48 basis functions,    96 primitive gaussians,    51 cartesian basis functions
    14 alpha electrons       14 beta electrons
       nuclear repulsion energy        66.6782140017 Hartrees.
 IExCor=  402 DFT=T Ex+Corr=B3LYP ExCW=0 ScaHFX=  0.200000
 ScaDFX=  0.800000  0.720000  1.000000  0.810000 ScalE2=  1.000000  1.000000
 IRadAn=      5 IRanWt=     -1 IRanGd=            0 ICorTp=0 IEmpDi=  4
 NAtoms=    6 NActive=    6 NUniq=    6 SFac= 1.00D+00 NAtFMM=   60 NAOKFM=F Big=F
 Integral buffers will be    131072 words long.
 Raffenetti 2 integral format.
 Two-electron integral symmetry is turned on.
 Leave Link  301 at Tue Oct  6 16:29:23 2020, MaxMem=  2684354560 cpu:               2.2 elap:               0.5
 (Enter /udrive/faculty/rpeverati/g16/g16/l302.exe)
 NPDir=0 NMtPBC=     1 NCelOv=     1 NCel=       1 NClECP=     1 NCelD=      1
         NCelK=      1 NCelE2=     1 NClLst=     1 CellRange=     0.0.
 One-electron integrals computed using PRISM.
 One-electron integral symmetry used in STVInt
 NBasis=    48 RedAO= T EigKep=  1.73D-02  NBF=    48
 NBsUse=    48 1.00D-06 EigRej= -1.00D+00 NBFU=    48
 Precomputing XC quadrature grid using
 IXCGrd= 4 IRadAn=           5 IRanWt=          -1 IRanGd=           0 AccXCQ= 0.00D+00.
 Generated NRdTot=       0 NPtTot=           0 NUsed=           0 NTot=          32
 NSgBfM=    51    51    51    51    51 MxSgAt=     6 MxSgA2=     6.
 Leave Link  302 at Tue Oct  6 16:29:24 2020, MaxMem=  2684354560 cpu:               3.4 elap:               0.7
 (Enter /udrive/faculty/rpeverati/g16/g16/l303.exe)
 DipDrv:  MaxL=1.
 Leave Link  303 at Tue Oct  6 16:29:24 2020, MaxMem=  2684354560 cpu:               2.2 elap:               0.6
 (Enter /udrive/faculty/rpeverati/g16/g16/l401.exe)
 Initial guess from the checkpoint file:  "MN_39_fch3fts_BH76_B3LYP_631Gs.chk"
 SCF N**3 symmetry information disabled.
 B after Tr=    -0.000000    0.000000    0.000000
         Rot=    0.999879    0.015578    0.000001   -0.000006 Ang=   1.79 deg.
 Guess basis will be translated and rotated to current coordinates.
 JPrj=2 DoOrth=T DoCkMO=T.
 Generating alternative initial guess.
 ExpMin= 1.61D-01 ExpMax= 7.00D+03 ExpMxC= 1.05D+03 IAcc=2 IRadAn=         4 AccDes= 0.00D+00
 Harris functional with IExCor=  402 and IRadAn=       4 diagonalized for initial guess.
 HarFok:  IExCor=  402 AccDes= 0.00D+00 IRadAn=         4 IDoV= 1 UseB2=F ITyADJ=14
 ICtDFT=  3500011 ScaDFX=  1.000000  1.000000  1.000000  1.000000
 FoFCou: FMM=F IPFlag=           0 FMFlag=      100000 FMFlg1=           0
         NFxFlg=           0 DoJE=T BraDBF=F KetDBF=T FulRan=T
         wScrn=  0.000000 ICntrl=       500 IOpCl=  0 I1Cent=   200000004 NGrid=           0
         NMat0=    1 NMatS0=      1 NMatT0=    0 NMatD0=    1 NMtDS0=    0 NMtDT0=    0
 Petite list used in FoFCou.
 Harris En= -239.753799825875    
 Leave Link  401 at Tue Oct  6 16:29:26 2020, MaxMem=  2684354560 cpu:               8.0 elap:               1.1
 (Enter /udrive/faculty/rpeverati/g16/g16/l502.exe)
 Keep R1 ints in memory in canonical form, NReq=11149966.
 FoFCou: FMM=F IPFlag=           0 FMFlag=           0 FMFlg1=           0
         NFxFlg=           0 DoJE=F BraDBF=F KetDBF=F FulRan=T
         wScrn=  0.000000 ICntrl=       600 IOpCl=  0 I1Cent=           0 NGrid=           0
         NMat0=    1 NMatS0=   1176 NMatT0=    0 NMatD0=    1 NMtDS0=    0 NMtDT0=    0
 Symmetry not used in FoFCou.
 Two-electron integral symmetry not used.
 Closed shell SCF:
 Using DIIS extrapolation, IDIIS=  1040.
 NGot=  2684354560 LenX=  2683655928 LenY=  2683652886
 Requested convergence on RMS density matrix=1.00D-08 within 120 cycles.
 Requested convergence on MAX density matrix=1.00D-06.
 Requested convergence on             energy=1.00D-06.
 No special actions if energy rises.
 Integral accuracy reduced to 1.0D-05 until final iterations.

 Cycle   1  Pass 0  IDiag  1:
 E= -239.519088578659    
 DIIS: error= 1.06D-03 at cycle   1 NSaved=   1.
 NSaved= 1 IEnMin= 1 EnMin= -239.519088578659     IErMin= 1 ErrMin= 1.06D-03
 ErrMax= 1.06D-03  0.00D+00 EMaxC= 1.00D-01 BMatC= 5.53D-05 BMatP= 5.53D-05
 IDIUse=3 WtCom= 9.89D-01 WtEn= 1.06D-02
 Coeff-Com:  0.100D+01
 Coeff-En:   0.100D+01
 Coeff:      0.100D+01
 Gap=     0.723 Goal=   None    Shift=    0.000
 GapD=    0.723 DampG=2.000 DampE=1.000 DampFc=2.0000 IDamp=-1.
 RMSDP=3.59D-04 MaxDP=3.43D-03              OVMax= 5.70D-03

 Cycle   2  Pass 0  IDiag  1:
 E= -239.519138085785     Delta-E=       -0.000049507126 Rises=F Damp=F
 DIIS: error= 1.15D-03 at cycle   2 NSaved=   2.
 NSaved= 2 IEnMin= 2 EnMin= -239.519138085785     IErMin= 1 ErrMin= 1.06D-03
 ErrMax= 1.15D-03  0.00D+00 EMaxC= 1.00D-01 BMatC= 4.29D-05 BMatP= 5.53D-05
 IDIUse=3 WtCom= 9.89D-01 WtEn= 1.15D-02
 Coeff-Com:  0.457D+00 0.543D+00
 Coeff-En:   0.138D+00 0.862D+00
 Coeff:      0.454D+00 0.546D+00
 Gap=     0.324 Goal=   None    Shift=    0.000
 RMSDP=1.37D-04 MaxDP=1.90D-03 DE=-4.95D-05 OVMax= 3.63D-03

 Cycle   3  Pass 0  IDiag  1:
 E= -239.519174573397     Delta-E=       -0.000036487612 Rises=F Damp=F
 DIIS: error= 3.94D-04 at cycle   3 NSaved=   3.
 NSaved= 3 IEnMin= 3 EnMin= -239.519174573397     IErMin= 3 ErrMin= 3.94D-04
 ErrMax= 3.94D-04  0.00D+00 EMaxC= 1.00D-01 BMatC= 8.83D-06 BMatP= 4.29D-05
 IDIUse=3 WtCom= 9.96D-01 WtEn= 3.94D-03
 Coeff-Com:  0.312D-01 0.303D+00 0.666D+00
 Coeff-En:   0.000D+00 0.125D+00 0.875D+00
 Coeff:      0.311D-01 0.303D+00 0.666D+00
 Gap=     0.325 Goal=   None    Shift=    0.000
 RMSDP=4.05D-05 MaxDP=5.06D-04 DE=-3.65D-05 OVMax= 1.10D-03

 Cycle   4  Pass 0  IDiag  1:
 E= -239.519181003172     Delta-E=       -0.000006429775 Rises=F Damp=F
 DIIS: error= 1.38D-04 at cycle   4 NSaved=   4.
 NSaved= 4 IEnMin= 4 EnMin= -239.519181003172     IErMin= 4 ErrMin= 1.38D-04
 ErrMax= 1.38D-04  0.00D+00 EMaxC= 1.00D-01 BMatC= 7.78D-07 BMatP= 8.83D-06
 IDIUse=3 WtCom= 9.99D-01 WtEn= 1.38D-03
 Coeff-Com: -0.133D-01 0.124D+00 0.325D+00 0.564D+00
 Coeff-En:   0.000D+00 0.000D+00 0.000D+00 0.100D+01
 Coeff:     -0.133D-01 0.123D+00 0.325D+00 0.565D+00
 Gap=     0.324 Goal=   None    Shift=    0.000
 RMSDP=1.73D-05 MaxDP=1.55D-04 DE=-6.43D-06 OVMax= 2.20D-04

 Cycle   5  Pass 0  IDiag  1:
 E= -239.519181548005     Delta-E=       -0.000000544833 Rises=F Damp=F
 DIIS: error= 1.35D-05 at cycle   5 NSaved=   5.
 NSaved= 5 IEnMin= 5 EnMin= -239.519181548005     IErMin= 5 ErrMin= 1.35D-05
 ErrMax= 1.35D-05  0.00D+00 EMaxC= 1.00D-01 BMatC= 8.32D-09 BMatP= 7.78D-07
 IDIUse=1 WtCom= 1.00D+00 WtEn= 0.00D+00
 Coeff-Com: -0.444D-02 0.183D-01 0.456D-01 0.145D+00 0.796D+00
 Coeff:     -0.444D-02 0.183D-01 0.456D-01 0.145D+00 0.796D+00
 Gap=     0.324 Goal=   None    Shift=    0.000
 RMSDP=1.50D-06 MaxDP=1.22D-05 DE=-5.45D-07 OVMax= 1.86D-05

 Initial convergence to 1.0D-05 achieved.  Increase integral accuracy.
 Cycle   6  Pass 1  IDiag  1:
 E= -239.519184936960     Delta-E=       -0.000003388955 Rises=F Damp=F
 DIIS: error= 1.47D-06 at cycle   1 NSaved=   1.
 NSaved= 1 IEnMin= 1 EnMin= -239.519184936960     IErMin= 1 ErrMin= 1.47D-06
 ErrMax= 1.47D-06  0.00D+00 EMaxC= 1.00D-01 BMatC= 1.30D-10 BMatP= 1.30D-10
 IDIUse=1 WtCom= 1.00D+00 WtEn= 0.00D+00
 Coeff-Com:  0.100D+01
 Coeff:      0.100D+01
 Gap=     0.324 Goal=   None    Shift=    0.000
 RMSDP=1.50D-06 MaxDP=1.22D-05 DE=-3.39D-06 OVMax= 4.65D-06

 Cycle   7  Pass 1  IDiag  1:
 E= -239.519184937049     Delta-E=       -0.000000000089 Rises=F Damp=F
 DIIS: error= 1.17D-06 at cycle   2 NSaved=   2.
 NSaved= 2 IEnMin= 2 EnMin= -239.519184937049     IErMin= 2 ErrMin= 1.17D-06
 ErrMax= 1.17D-06  0.00D+00 EMaxC= 1.00D-01 BMatC= 7.01D-11 BMatP= 1.30D-10
 IDIUse=1 WtCom= 1.00D+00 WtEn= 0.00D+00
 Coeff-Com:  0.404D+00 0.596D+00
 Coeff:      0.404D+00 0.596D+00
 Gap=     0.324 Goal=   None    Shift=    0.000
 RMSDP=1.85D-07 MaxDP=2.60D-06 DE=-8.87D-11 OVMax= 4.39D-06

 Cycle   8  Pass 1  IDiag  1:
 E= -239.519184937081     Delta-E=       -0.000000000033 Rises=F Damp=F
 DIIS: error= 6.74D-07 at cycle   3 NSaved=   3.
 NSaved= 3 IEnMin= 3 EnMin= -239.519184937081     IErMin= 3 ErrMin= 6.74D-07
 ErrMax= 6.74D-07  0.00D+00 EMaxC= 1.00D-01 BMatC= 2.42D-11 BMatP= 7.01D-11
 IDIUse=1 WtCom= 1.00D+00 WtEn= 0.00D+00
 Coeff-Com:  0.353D-01 0.372D+00 0.593D+00
 Coeff:      0.353D-01 0.372D+00 0.593D+00
 Gap=     0.324 Goal=   None    Shift=    0.000
 RMSDP=6.06D-08 MaxDP=9.61D-07 DE=-3.27D-11 OVMax= 1.53D-06

 Cycle   9  Pass 1  IDiag  1:
 E= -239.519184937099     Delta-E=       -0.000000000017 Rises=F Damp=F
 DIIS: error= 4.95D-08 at cycle   4 NSaved=   4.
 NSaved= 4 IEnMin= 4 EnMin= -239.519184937099     IErMin= 4 ErrMin= 4.95D-08
 ErrMax= 4.95D-08  0.00D+00 EMaxC= 1.00D-01 BMatC= 1.93D-13 BMatP= 2.42D-11
 IDIUse=1 WtCom= 1.00D+00 WtEn= 0.00D+00
 Coeff-Com: -0.476D-02 0.103D+00 0.182D+00 0.719D+00
 Coeff:     -0.476D-02 0.103D+00 0.182D+00 0.719D+00
 Gap=     0.324 Goal=   None    Shift=    0.000
 RMSDP=1.02D-08 MaxDP=1.24D-07 DE=-1.71D-11 OVMax= 2.47D-07

 Cycle  10  Pass 1  IDiag  1:
 E= -239.519184937098     Delta-E=        0.000000000000 Rises=F Damp=F
 DIIS: error= 4.22D-08 at cycle   5 NSaved=   5.
 NSaved= 5 IEnMin= 4 EnMin= -239.519184937099     IErMin= 5 ErrMin= 4.22D-08
 ErrMax= 4.22D-08  0.00D+00 EMaxC= 1.00D-01 BMatC= 1.00D-13 BMatP= 1.93D-13
 IDIUse=1 WtCom= 1.00D+00 WtEn= 0.00D+00
 Coeff-Com: -0.579D-02 0.350D-01 0.623D-01 0.444D+00 0.464D+00
 Coeff:     -0.579D-02 0.350D-01 0.623D-01 0.444D+00 0.464D+00
 Gap=     0.324 Goal=   None    Shift=    0.000
 RMSDP=5.04D-09 MaxDP=7.32D-08 DE= 1.71D-13 OVMax= 1.45D-07

 SCF Done:  E(RB3LYP) =  -239.519184937     A.U. after   10 cycles
            NFock= 10  Conv=0.50D-08     -V/T= 2.0039
 KE= 2.385821525563D+02 PE=-7.124162604008D+02 EE= 1.676367089056D+02
 Leave Link  502 at Tue Oct  6 16:29:28 2020, MaxMem=  2684354560 cpu:              21.1 elap:               2.3
 (Enter /udrive/faculty/rpeverati/g16/g16/l508.exe)
 QCSCF skips out because SCF is already converged.
 Leave Link  508 at Tue Oct  6 16:29:29 2020, MaxMem=  2684354560 cpu:               0.4 elap:               0.4
 (Enter /udrive/faculty/rpeverati/g16/g16/l701.exe)
 ... and contract with generalized density number  0.
 Compute integral first derivatives.
 Leave Link  701 at Tue Oct  6 16:29:30 2020, MaxMem=  2684354560 cpu:               2.7 elap:               0.6
 (Enter /udrive/faculty/rpeverati/g16/g16/l702.exe)
 L702 exits ... SP integral derivatives will be done elsewhere.
 Leave Link  702 at Tue Oct  6 16:29:31 2020, MaxMem=  2684354560 cpu:               1.1 elap:               0.5
 (Enter /udrive/faculty/rpeverati/g16/g16/l703.exe)
 Integral derivatives from FoFJK, PRISM(SPDF).
 Compute integral first derivatives, UseDBF=F ICtDFT=           0.
 Calling FoFJK, ICntrl=      2127 FMM=F ISym2X=0 I1Cent= 0 IOpClX= 0 NMat=1 NMatS=1 NMatT=0.
 FoFJK:  IHMeth= 1 ICntrl=    2127 DoSepK=F KAlg= 0 I1Cent=           0 FoldK=F
 IRaf=         0 NMat=       1 IRICut=       1 DoRegI=T DoRafI=F ISym2E= 0 IDoP0=0 IntGTp=1.
 FoFCou: FMM=F IPFlag=           0 FMFlag=      100000 FMFlg1=         800
         NFxFlg=           0 DoJE=F BraDBF=F KetDBF=F FulRan=T
         wScrn=  0.000000 ICntrl=      2127 IOpCl=  0 I1Cent=           0 NGrid=           0
         NMat0=    1 NMatS0=      1 NMatT0=    0 NMatD0=    1 NMtDS0=    0 NMtDT0=    0
 Symmetry not used in FoFCou.
 Leave Link  703 at Tue Oct  6 16:29:32 2020, MaxMem=  2684354560 cpu:               6.8 elap:               1.0
 (Enter /udrive/faculty/rpeverati/g16/g16/l716.exe)
 Dipole        = 2.59383385D-05 1.73762307D-06 2.00651141D-06
 ***** Axes restored to original set *****
 -------------------------------------------------------------------
 Center     Atomic                   Forces (Hartrees/Bohr)
 Number     Number              X              Y              Z
 -------------------------------------------------------------------
      1        9           0.000025213    0.000001078    0.000000430
      2        6           0.000000937   -0.000003868   -0.000000733
      3        1           0.000000727   -0.000050384    0.000174768
      4        1           0.000001366    0.000175494   -0.000042254
      5        1           0.000000302   -0.000122862   -0.000132548
      6        9          -0.000028546    0.000000543    0.000000336
 -------------------------------------------------------------------
 Cartesian Forces:  Max     0.000175494 RMS     0.000074461
 Leave Link  716 at Tue Oct  6 16:29:33 2020, MaxMem=  2684354560 cpu:               1.1 elap:               0.4
 (Enter /udrive/faculty/rpeverati/g16/g16/l103.exe)

 GradGradGradGradGradGradGradGradGradGradGradGradGradGradGradGradGradGrad
 Berny optimization.
 Optmz: redundant internal coordinate code flag= 1
 Red2BG:  D1=  4.06D-01 OD1=  2.99D-02 B2RMS=  0.00D+00 IAprox=0
 FormGI is forming the generalized inverse of G from B-inverse, IUseBI=4.
 Internal  Forces:  Max     0.000181880 RMS     0.000070635
 Search for a saddle point.
 Step number   2 out of a maximum of   50
 All quantities printed in internal units (Hartrees-Bohrs-Radians)
 Swapping is turned off.
 Update second derivatives using D2CorX and points    1    2
 The second derivative matrix:
                          R1        R2        R3        R4        R5
           R1           0.06652
           R2           0.00658   0.39056
           R3           0.00657  -0.00202   0.39061
           R4           0.00656  -0.00201  -0.00201   0.39055
           R5           0.02920   0.00659   0.00658   0.00658   0.06654
           A1           0.00817  -0.00396   0.00198   0.00198  -0.00816
           A2           0.00818   0.00198  -0.00397   0.00198  -0.00819
           A3           0.00814   0.00200   0.00200  -0.00395  -0.00811
           A4           0.00000   0.00209   0.00209  -0.00416   0.00001
           A5          -0.00004   0.00204  -0.00421   0.00205  -0.00003
           A6          -0.00817  -0.00398   0.00198   0.00197   0.00816
           A7           0.00003  -0.00413   0.00212   0.00212   0.00003
           A8          -0.00818   0.00198  -0.00398   0.00198   0.00816
           A9          -0.00814   0.00198   0.00199  -0.00397   0.00814
           A10          0.00001  -0.00795   0.00396   0.00396   0.00001
           A11         -0.00000  -0.00002  -0.00689   0.00686  -0.00003
           D1          -0.02827  -0.00002  -0.00002  -0.00002   0.02824
           D2           0.00001   0.00209   0.00209  -0.00416   0.00000
           D3           0.00004  -0.00204   0.00421  -0.00205   0.00003
           D4           0.00003  -0.00413   0.00212   0.00212   0.00003
                          A1        A2        A3        A4        A5
           A1           0.03829
           A2          -0.01661   0.03827
           A3          -0.01657  -0.01659   0.03827
           A4           0.00055   0.00056  -0.00111   0.01502
           A5           0.00056  -0.00112   0.00055  -0.00752   0.01503
           A6          -0.01666   0.00578   0.00578   0.00056   0.00055
           A7          -0.00111   0.00056   0.00056  -0.00750  -0.00752
           A8           0.00578  -0.01664   0.00578   0.00056  -0.00111
           A9           0.00578   0.00578  -0.01666  -0.00112   0.00056
           A10          0.02163  -0.01083  -0.01079   0.00112   0.00111
           A11         -0.00001   0.01872  -0.01872   0.00193  -0.00192
           D1          -0.00588  -0.00589  -0.00588   0.00001  -0.00000
           D2           0.00056   0.00056  -0.00111   0.01502  -0.00752
           D3          -0.00056   0.00112  -0.00056   0.00752  -0.01503
           D4          -0.00111   0.00056   0.00056  -0.00750  -0.00752
                          A6        A7        A8        A9        A10
           A6           0.03823
           A7          -0.00111   0.01502
           A8          -0.01658   0.00055   0.03822
           A9          -0.01654   0.00056  -0.01658   0.03821
           A10          0.02157  -0.00223  -0.01079  -0.01076   0.04320
           A11         -0.00001  -0.00001   0.01868  -0.01868  -0.00002
           D1           0.00588  -0.00000   0.00588   0.00588   0.00001
           D2           0.00056  -0.00750   0.00056  -0.00111   0.00112
           D3          -0.00055   0.00752   0.00111  -0.00055  -0.00111
           D4          -0.00111   0.01502   0.00055   0.00056  -0.00223
                          A11       D1        D2        D3        D4
           A11          0.04318
           D1          -0.00000   0.02038
           D2           0.00193   0.00001   0.01502
           D3           0.00192   0.00000   0.00752   0.01503
           D4          -0.00000  -0.00000  -0.00750   0.00752   0.01502
 ITU=  0  0
 Eigenvectors of the second derivative matrix:
                           1         2         3         4         5
     Eigenvalues --    -0.01512   0.04387   0.04394   0.07597   0.07606
   1         R1        -0.48265  -0.00059  -0.00101  -0.00003   0.00079
   2         R2        -0.00005   0.02250   0.01177   0.01859   0.02195
   3         R3        -0.00004  -0.00098  -0.02570   0.00974  -0.02696
   4         R4        -0.00006  -0.02172   0.01343  -0.02817   0.00520
   5         R5         0.48230  -0.00040  -0.00126   0.00131  -0.00200
   6         A1         0.17237   0.05703   0.03024   0.21888   0.25711
   7         A2         0.17261  -0.00226  -0.06453   0.11921  -0.32141
   8         A3         0.17195  -0.05476   0.03436  -0.33885   0.06566
   9         A4         0.00008  -0.48152   0.30219   0.09805  -0.01784
  10         A5        -0.00005  -0.02097  -0.56817  -0.03361   0.09335
  11         A6        -0.17233   0.05742   0.03009   0.26150   0.30954
  12         A7        -0.00006   0.50249   0.26598  -0.06444  -0.07551
  13         A8        -0.17253  -0.00216  -0.06465   0.13169  -0.37822
  14         A9        -0.17207  -0.05527   0.03449  -0.39242   0.06733
  15         A10        0.00003   0.11446   0.06033   0.48037   0.56665
  16         A11        0.00012   0.06098  -0.11433   0.56706  -0.48070
  17         D1        -0.59690  -0.00003  -0.00007   0.00089  -0.00156
  18         D2         0.00009  -0.48152   0.30219   0.09804  -0.01784
  19         D3         0.00004   0.02097   0.56817   0.03360  -0.09335
  20         D4        -0.00005   0.50249   0.26598  -0.06444  -0.07551
                           6         7         8         9        10
     Eigenvalues --     0.07725   0.07728   0.08300   0.09484   0.38744
   1         R1         0.00364  -0.00050  -0.51628   0.70638   0.03897
   2         R2        -0.00097  -0.00139   0.00004  -0.03182   0.57773
   3         R3        -0.00039   0.00137  -0.00010  -0.03192   0.57317
   4         R4         0.00133   0.00002   0.00008  -0.03177   0.57850
   5         R5        -0.00417   0.00099   0.51755   0.70568   0.03901
   6         A1        -0.34625  -0.48721  -0.16240   0.00034  -0.00002
   7         A2        -0.24239   0.54234  -0.16476  -0.00057   0.00005
   8         A3         0.59277  -0.05610  -0.15530   0.00080   0.00006
   9         A4        -0.00439  -0.00000  -0.00012   0.00004  -0.00001
  10         A5         0.00125  -0.00475   0.00022  -0.00080  -0.00016
  11         A6         0.32132   0.45118   0.16313  -0.00011  -0.00008
  12         A7         0.00315   0.00475  -0.00008   0.00076   0.00017
  13         A8         0.23247  -0.50674   0.16231  -0.00048   0.00003
  14         A9        -0.55793   0.05652   0.15702   0.00002  -0.00003
  15         A10       -0.02492  -0.03603   0.00073   0.00023  -0.00011
  16         A11       -0.02584   0.02031  -0.00240  -0.00108   0.00003
  17         D1        -0.00477   0.00110   0.55709  -0.00065  -0.00010
  18         D2        -0.00441  -0.00000  -0.00013   0.00004  -0.00001
  19         D3        -0.00125   0.00475  -0.00022   0.00080   0.00016
  20         D4         0.00315   0.00476  -0.00008   0.00076   0.00017
                          11        12
     Eigenvalues --     0.39329   0.39335
   1         R1        -0.00008  -0.00016
   2         R2        -0.61642   0.53270
   3         R3        -0.15618  -0.80286
   4         R4         0.77034   0.26349
   5         R5        -0.00007  -0.00016
   6         A1         0.01141  -0.00992
   7         A2         0.00288   0.01486
   8         A3        -0.01429  -0.00493
   9         A4        -0.01353  -0.00467
  10         A5         0.00274   0.01405
  11         A6         0.01143  -0.00993
  12         A7         0.01079  -0.00938
  13         A8         0.00289   0.01486
  14         A9        -0.01432  -0.00494
  15         A10        0.02284  -0.01985
  16         A11        0.01985   0.02285
  17         D1        -0.00001  -0.00001
  18         D2        -0.01353  -0.00467
  19         D3        -0.00274  -0.01405
  20         D4         0.01079  -0.00938
 RLam0= 3.48D-11.
 Iter=   1 RLamda= 0.00000000D+00 Sum=-2.61166954D-07.
 Iter=   2 RLamda=-2.61166954D-07 Sum=-2.61166768D-07.
 RFO step:  Lambda0=3.482702581D-11 Lambda=-2.61166954D-07.
 Linear search not attempted -- option 19 set.
 Iteration  1 RMS(Cart)=  0.00018877 RMS(Int)=  0.00000000
 Iteration  2 RMS(Cart)=  0.00000000 RMS(Int)=  0.00000000
 ITry= 1 IFail=0 DXMaxC= 4.48D-04 DCOld= 1.00D+10 DXMaxT= 1.00D-01 DXLimC= 3.00D+00 Rises=F
 Variable       Old X    -DE/DX   Delta X   Delta X   Delta X     New X
                                 (Linear)    (Quad)   (Total)
    R1        3.41982   0.00003   0.00000   0.00019   0.00019   3.42001
    R2        2.03667   0.00018   0.00000   0.00046   0.00046   2.03713
    R3        2.03667   0.00018   0.00000   0.00046   0.00046   2.03713
    R4        2.03668   0.00018   0.00000   0.00046   0.00046   2.03714
    R5        3.41984   0.00003   0.00000   0.00018   0.00018   3.42002
    A1        1.57081  -0.00000   0.00000  -0.00001  -0.00001   1.57079
    A2        1.57082  -0.00000   0.00000  -0.00003  -0.00003   1.57079
    A3        1.57080   0.00000   0.00000   0.00000   0.00000   1.57081
    A4        2.09440  -0.00000   0.00000  -0.00001  -0.00001   2.09439
    A5        2.09437   0.00000   0.00000   0.00003   0.00003   2.09440
    A6        1.57078   0.00000   0.00000   0.00001   0.00001   1.57079
    A7        2.09441  -0.00000   0.00000  -0.00002  -0.00002   2.09440
    A8        1.57078   0.00000   0.00000   0.00001   0.00001   1.57079
    A9        1.57079   0.00000   0.00000   0.00002   0.00002   1.57080
   A10        3.14159  -0.00000   0.00000  -0.00000  -0.00000   3.14159
   A11        3.14160  -0.00000   0.00000  -0.00002  -0.00002   3.14158
    D1        3.14155   0.00000   0.00000   0.00005   0.00005   3.14159
    D2        2.09440  -0.00000   0.00000  -0.00001  -0.00001   2.09439
    D3       -2.09437  -0.00000   0.00000  -0.00003  -0.00003  -2.09440
    D4        2.09441  -0.00000   0.00000  -0.00002  -0.00002   2.09440
         Item               Value     Threshold  Converged?
 Maximum Force            0.000182     0.000450     YES
 RMS     Force            0.000071     0.000300     YES
 Maximum Displacement     0.000448     0.001800     YES
 RMS     Displacement     0.000189     0.001200     YES
 Predicted change in Energy=-1.305661D-07
 Optimization completed.
    -- Stationary point found.
                           ----------------------------
                           !   Optimized Parameters   !
                           ! (Angstroms and Degrees)  !
 --------------------------                            --------------------------
 ! Name  Definition              Value          Derivative Info.                !
 --------------------------------------------------------------------------------
 ! R1    R(1,2)                  1.8097         -DE/DX =    0.0                 !
 ! R2    R(2,3)                  1.0778         -DE/DX =    0.0002              !
 ! R3    R(2,4)                  1.0778         -DE/DX =    0.0002              !
 ! R4    R(2,5)                  1.0778         -DE/DX =    0.0002              !
[...]
 Berny optimization.
 Optmz: redundant internal coordinate code flag= 1
 Red2BG:  D1=  4.06D-01 OD1=  1.04D-14 B2RMS=  0.00D+00 IAprox=1
 Red2BG is reusing G-inverse.
 Internal  Forces:  Max     0.000181872 RMS     0.000070632
 Search for a local minimum.
 Step number   1 out of a maximum of    2
 All quantities printed in internal units (Hartrees-Bohrs-Radians)
 Second derivative matrix not updated -- analytic derivatives used.
 The second derivative matrix:
                          R1        R2        R3        R4        R5
           R1           0.06877
           R2           0.00654   0.37352
           R3           0.00654   0.00081   0.37352
           R4           0.00654   0.00081   0.00081   0.37353
           R5           0.02830   0.00654   0.00654   0.00654   0.06877
           A1           0.00843  -0.00380   0.00190   0.00190  -0.00843
           A2           0.00843   0.00190  -0.00380   0.00190  -0.00843
           A3           0.00843   0.00190   0.00190  -0.00380  -0.00843
           A4          -0.00000   0.00202   0.00202  -0.00405   0.00000
           A5          -0.00000   0.00202  -0.00405   0.00202   0.00000
           A6          -0.00843  -0.00380   0.00190   0.00190   0.00843
           A7          -0.00000  -0.00405   0.00202   0.00202   0.00000
           A8          -0.00843   0.00190  -0.00381   0.00190   0.00843
           A9          -0.00843   0.00190   0.00190  -0.00380   0.00843
           A10          0.00000  -0.00761   0.00380   0.00380   0.00000
           A11          0.00000  -0.00001  -0.00659   0.00659   0.00000
           D1          -0.02920  -0.00000  -0.00000  -0.00000   0.02920
           D2           0.00000   0.00202   0.00202  -0.00405  -0.00000
           D3           0.00000  -0.00202   0.00405  -0.00202  -0.00000
           D4          -0.00000  -0.00405   0.00202   0.00202   0.00000
                          A1        A2        A3        A4        A5
           A1           0.03990
           A2          -0.01732   0.03989
           A3          -0.01731  -0.01731   0.03989
           A4           0.00063   0.00063  -0.00126   0.01483
           A5           0.00063  -0.00126   0.00063  -0.00742   0.01483
           A6          -0.01751   0.00612   0.00612   0.00063   0.00063
           A7          -0.00126   0.00063   0.00063  -0.00742  -0.00742
           A8           0.00612  -0.01751   0.00612   0.00063  -0.00126
           A9           0.00612   0.00612  -0.01751  -0.00126   0.00063
           A10          0.02239  -0.01120  -0.01119   0.00126   0.00126
           A11         -0.00000   0.01938  -0.01938   0.00218  -0.00218
           D1          -0.00608  -0.00608  -0.00608   0.00000   0.00000
           D2           0.00063   0.00063  -0.00126   0.01483  -0.00742
           D3          -0.00063   0.00126  -0.00063   0.00742  -0.01483
           D4          -0.00126   0.00063   0.00063  -0.00742  -0.00742
                          A6        A7        A8        A9        A10
           A6           0.03989
           A7          -0.00126   0.01483
           A8          -0.01732   0.00063   0.03989
           A9          -0.01731   0.00063  -0.01731   0.03989
           A10          0.02239  -0.00252  -0.01120  -0.01119   0.04477
           A11         -0.00001  -0.00000   0.01938  -0.01938  -0.00001
           D1           0.00608   0.00000   0.00608   0.00608   0.00000
           D2           0.00063  -0.00742   0.00063  -0.00126   0.00126
           D3          -0.00063   0.00742   0.00126  -0.00063  -0.00126
           D4          -0.00126   0.01483   0.00063   0.00063  -0.00252
                          A11       D1        D2        D3        D4
           A11          0.04476
           D1          -0.00000   0.02106
           D2           0.00218  -0.00000   0.01483
           D3           0.00218  -0.00000   0.00742   0.01483
           D4          -0.00000   0.00000  -0.00742   0.00742   0.01483
 ITU=  0
 Eigenvectors of the second derivative matrix:
                           1         2         3         4         5
     Eigenvalues --    -0.01474   0.04320   0.04321   0.07889   0.07893
   1         R1        -0.47760  -0.00000  -0.00000   0.00010   0.00005
   2         R2         0.00000   0.01402   0.02216  -0.01427  -0.02590
   3         R3        -0.00000   0.01221  -0.02320  -0.01532   0.02529
   4         R4         0.00000  -0.02621   0.00104   0.02954   0.00061
   5         R5         0.47760  -0.00002  -0.00000   0.00014   0.00002
   6         A1         0.17382   0.03495   0.05515  -0.17905  -0.32571
   7         A2         0.17382   0.03046  -0.05775  -0.19253   0.31820
   8         A3         0.17379  -0.06540   0.00260   0.37156   0.00751
   9         A4        -0.00001  -0.56787   0.02255  -0.10063  -0.00207
  10         A5        -0.00001   0.26441  -0.50312   0.05210  -0.08582
  11         A6        -0.17382   0.03495   0.05517  -0.17954  -0.32607
  12         A7        -0.00001   0.30347   0.48057   0.04853   0.08789
  13         A8        -0.17383   0.03047  -0.05776  -0.19257   0.31827
  14         A9        -0.17379  -0.06542   0.00260   0.37214   0.00778
  15         A10        0.00000   0.06990   0.11032  -0.35859  -0.65178
  16         A11       -0.00001   0.11071  -0.06969  -0.65171   0.35863
  17         D1        -0.60210  -0.00002   0.00000   0.00003  -0.00002
  18         D2         0.00000  -0.56787   0.02255  -0.10062  -0.00207
  19         D3         0.00000  -0.26441   0.50312  -0.05210   0.08581
  20         D4         0.00000   0.30347   0.48057   0.04853   0.08788
                           6         7         8         9        10
     Eigenvalues --     0.08083   0.08084   0.08680   0.09615   0.37344
   1         R1         0.00019  -0.00011  -0.52156   0.70585   0.00002
   2         R2         0.00001   0.00001   0.00001  -0.03310  -0.69824
   3         R3        -0.00000   0.00000   0.00001  -0.03310   0.71407
   4         R4        -0.00002  -0.00001   0.00000  -0.03310  -0.01507
   5         R5        -0.00009   0.00005   0.52131   0.70604   0.00002
   6         A1         0.25982   0.51577  -0.15922   0.00003   0.01334
   7         A2         0.31682  -0.48274  -0.15903  -0.00005  -0.01364
   8         A3        -0.57656  -0.03310  -0.15935  -0.00006   0.00029
   9         A4         0.00003   0.00002   0.00000   0.00001   0.00028
  10         A5         0.00000  -0.00000   0.00001  -0.00000  -0.01281
  11         A6        -0.25950  -0.51554   0.15922   0.00007   0.01334
  12         A7        -0.00003  -0.00002   0.00001  -0.00001   0.01253
  13         A8        -0.31678   0.48269   0.15907   0.00009  -0.01364
  14         A9         0.57620   0.03292   0.15931  -0.00007   0.00029
  15         A10        0.00032   0.00024  -0.00000   0.00010   0.02669
  16         A11        0.00023   0.00008   0.00005   0.00010  -0.01608
  17         D1        -0.00010   0.00009   0.55149   0.00010  -0.00000
  18         D2         0.00005   0.00003  -0.00001   0.00001   0.00027
  19         D3         0.00000  -0.00000  -0.00000   0.00000   0.01281
  20         D4        -0.00004  -0.00003   0.00001  -0.00001   0.01253
                          11        12
     Eigenvalues --     0.37344   0.37606
   1         R1        -0.00010   0.04054
   2         R2        -0.42226   0.57576
   3         R3        -0.39572   0.57520
   4         R4         0.81410   0.57823
   5         R5        -0.00010   0.04054
   6         A1         0.00805   0.00001
   7         A2         0.00754   0.00002
   8         A3        -0.01559  -0.00003
   9         A4        -0.01463  -0.00003
  10         A5         0.00708   0.00002
  11         A6         0.00805   0.00001
  12         A7         0.00755   0.00001
  13         A8         0.00754   0.00002
  14         A9        -0.01559  -0.00003
  15         A10        0.01609   0.00002
  16         A11        0.02671   0.00005
  17         D1         0.00000  -0.00000
  18         D2        -0.01463  -0.00003
  19         D3        -0.00708  -0.00002
  20         D4         0.00755   0.00001
 Eigenvalue     1 is  -1.47D-02 should be greater than     0.000000 Eigenvector:
                          D1        R1        R5        A8        A1
   1                   -0.60210  -0.47760   0.47760  -0.17383   0.17382
                          A6        A2        A3        A9        A4
   1                   -0.17382   0.17382   0.17379  -0.17379  -0.00001
 Angle between quadratic step and forces=  11.24 degrees.
 Linear search not attempted -- first point.
 Iteration  1 RMS(Cart)=  0.00019360 RMS(Int)=  0.00000000
 Iteration  2 RMS(Cart)=  0.00000000 RMS(Int)=  0.00000000
 ITry= 1 IFail=0 DXMaxC= 4.61D-04 DCOld= 1.00D+10 DXMaxT= 3.00D-01 DXLimC= 3.00D+00 Rises=F
 Variable       Old X    -DE/DX   Delta X   Delta X   Delta X     New X
                                 (Linear)    (Quad)   (Total)
    R1        3.41982   0.00003   0.00000   0.00014   0.00014   3.41996
    R2        2.03667   0.00018   0.00000   0.00048   0.00048   2.03715
    R3        2.03667   0.00018   0.00000   0.00048   0.00048   2.03715
    R4        2.03668   0.00018   0.00000   0.00048   0.00048   2.03715
    R5        3.41984   0.00003   0.00000   0.00022   0.00022   3.42006
    A1        1.57081  -0.00000   0.00000   0.00000   0.00000   1.57081
    A2        1.57082  -0.00000   0.00000  -0.00001  -0.00001   1.57081
    A3        1.57080   0.00000   0.00000   0.00002   0.00002   1.57082
    A4        2.09440  -0.00000   0.00000  -0.00001  -0.00001   2.09439
    A5        2.09437   0.00000   0.00000   0.00002   0.00002   2.09440
    A6        1.57078   0.00000   0.00000  -0.00001  -0.00001   1.57078
    A7        2.09441  -0.00000   0.00000  -0.00002  -0.00002   2.09440
    A8        1.57078   0.00000   0.00000  -0.00000  -0.00000   1.57077
    A9        1.57079   0.00000   0.00000  -0.00000  -0.00000   1.57079
   A10        3.14159  -0.00000   0.00000  -0.00000  -0.00000   3.14159
   A11        3.14160  -0.00000   0.00000  -0.00002  -0.00002   3.14158
    D1        3.14155   0.00000   0.00000  -0.00001  -0.00001   3.14153
    D2        2.09440  -0.00000   0.00000  -0.00001  -0.00001   2.09439
    D3       -2.09437  -0.00000   0.00000  -0.00002  -0.00002  -2.09440
    D4        2.09441  -0.00000   0.00000  -0.00002  -0.00002   2.09440
         Item               Value     Threshold  Converged?
 Maximum Force            0.000182     0.000450     YES
 RMS     Force            0.000071     0.000300     YES
 Maximum Displacement     0.000461     0.001800     YES
 RMS     Displacement     0.000194     0.001200     YES
 Predicted change in Energy=-1.343565D-07
 Optimization completed.
    -- Stationary point found.
                           ----------------------------
                           !   Optimized Parameters   !
                           ! (Angstroms and Degrees)  !
 --------------------------                            --------------------------
 ! Name  Definition              Value          Derivative Info.                !
 --------------------------------------------------------------------------------
 ! R1    R(1,2)                  1.8097         -DE/DX =    0.0                 !
 ! R2    R(2,3)                  1.0778         -DE/DX =    0.0002              !
 ! R3    R(2,4)                  1.0778         -DE/DX =    0.0002              !
 ! R4    R(2,5)                  1.0778         -DE/DX =    0.0002              !
 ! R5    R(2,6)                  1.8097         -DE/DX =    0.0                 !
 ! A1    A(1,2,3)               90.0007         -DE/DX =    0.0                 !
 ! A2    A(1,2,4)               90.0013         -DE/DX =    0.0                 !
 ! A3    A(1,2,5)               90.0003         -DE/DX =    0.0                 !
 ! A4    A(3,2,4)              120.0002         -DE/DX =    0.0                 !
 ! A5    A(3,2,5)              119.9987         -DE/DX =    0.0                 !
 ! A6    A(3,2,6)               89.9992         -DE/DX =    0.0                 !
 ! A7    A(4,2,5)              120.0011         -DE/DX =    0.0                 !
 ! A8    A(4,2,6)               89.999          -DE/DX =    0.0                 !
 ! A9    A(5,2,6)               89.9995         -DE/DX =    0.0                 !
 ! A10   L(1,2,6,3,-1)         179.9999         -DE/DX =    0.0                 !
 ! A11   L(1,2,6,3,-2)         180.0003         -DE/DX =    0.0                 !
 ! D1    D(3,2,5,4)            179.9974         -DE/DX =    0.0                 !
 ! D2    D(3,2,6,4)            120.0002         -DE/DX =    0.0                 !
 ! D3    D(3,2,6,5)           -119.9987         -DE/DX =    0.0                 !
 ! D4    D(4,2,6,5)            120.0011         -DE/DX =    0.0                 !
 --------------------------------------------------------------------------------
 GradGradGradGradGradGradGradGradGradGradGradGradGradGradGradGradGradGrad

 Leave Link  103 at Tue Oct  6 16:30:05 2020, MaxMem=  2684354560 cpu:               1.9 elap:               0.6
 (Enter /udrive/faculty/rpeverati/g16/g16/l9999.exe)

 ----------------------------------------------------------------------

 Electric dipole moment (input orientation):
 (Debye = 10**-18 statcoulomb cm , SI units = C m)
                  (au)            (Debye)         (10**-30 SI)
   Tot        0.255576D-04      0.649610D-04      0.216687D-03
   x          0.255576D-04      0.649610D-04      0.216687D-03
   y          0.000000D+00      0.000000D+00      0.000000D+00
   z          0.000000D+00      0.000000D+00      0.000000D+00

 Dipole polarizability, Alpha (input orientation).
 (esu units = cm**3 , SI units = C**2 m**2 J**-1)
 Alpha(0;0):
               (au)            (10**-24 esu)      (10**-40 SI)
   iso        0.197493D+02      0.292654D+01      0.325622D+01
   aniso      0.153457D+02      0.227399D+01      0.253016D+01
   xx         0.299797D+02      0.444254D+01      0.494299D+01
   yx        -0.791300D-03     -0.117259D-03     -0.130468D-03
   yy         0.146342D+02      0.216856D+01      0.241285D+01
   zx        -0.152275D-03     -0.225649D-04     -0.251068D-04
   zy        -0.791251D-04     -0.117251D-04     -0.130460D-04
   zz         0.146340D+02      0.216854D+01      0.241282D+01

 ----------------------------------------------------------------------

 Dipole orientation:
     9          0.28827464         -0.20531152          3.40164921
     6          0.00011227         -0.00055760          0.00014795
     1         -1.90715350         -0.70494350          0.11930039
     1          0.35317648          2.00322751          0.09080870
     1          1.55428952         -1.29999009         -0.20974675
     9         -0.28805215          0.20417886         -3.40137168

 Electric dipole moment (dipole orientation):
 (Debye = 10**-18 statcoulomb cm , SI units = C m)
                  (au)            (Debye)         (10**-30 SI)
   Tot        0.256952D-04      0.653106D-04      0.217853D-03
   x          0.000000D+00      0.000000D+00      0.000000D+00
   y          0.000000D+00      0.000000D+00      0.000000D+00
   z          0.256952D-04      0.653106D-04      0.217853D-03

 Dipole polarizability, Alpha (dipole orientation).
 (esu units = cm**3 , SI units = C**2 m**2 J**-1)
 Alpha(0;0):
               (au)            (10**-24 esu)      (10**-40 SI)
   iso        0.197493D+02      0.292654D+01      0.325622D+01
   aniso      0.153457D+02      0.227399D+01      0.253016D+01
   xx         0.147430D+02      0.218468D+01      0.243079D+01
   yx        -0.773516D-01     -0.114623D-01     -0.127536D-01
   yy         0.146892D+02      0.217671D+01      0.242192D+01
   zx         0.128616D+01      0.190589D+00      0.212059D+00
   zy        -0.913872D+00     -0.135422D+00     -0.150677D+00
   zz         0.298158D+02      0.441824D+01      0.491596D+01

 ----------------------------------------------------------------------

 Test job not archived.
 1\1\GINC-NODE62\Freq\RB3LYP\6-31G(d)\C1H3F2(1-)\RPEVERATI\06-Oct-2020\
 0\\#P Freq B3LYP/6-31G* 5D 7F Integral=UltraFineGrid SCF=(NoSymm,XQC,M
 axCyc=120) IOp(1/33=1) Geom=Check Guess=Read\\TS search on BH76.\\-1,1
 \F,1.8097916243,-0.000384761,-0.0000501208\C,0.0001005311,-0.000292382
 1,-0.0000336297\H,0.0000820154,-0.3071060225,1.0331310013\H,0.00012692
 87,1.0478616326,-0.2509109695\H,0.0000497117,-0.741652334,-0.782310451
 4\F,-1.8095997737,-0.0002097781,-0.000016241\\Version=ES64L-G16RevA.03
 \State=1-A\HF=-239.5191849\RMSD=2.426e-09\RMSF=7.446e-05\ZeroPoint=0.0
 381575\Thermal=0.0422032\Dipole=0.0000256,0.0000017,0.0000021\DipoleDe
 riv=-1.5521801,0.0000523,0.0000157,0.0000495,-0.5787501,-0.0000004,0.0
 000088,0.0000003,-0.5787502,2.3852261,-0.0000988,-0.0000191,-0.0000957
 ,0.3526709,-0.0000261,-0.0000186,-0.0000258,0.3526638,-0.0936222,0.000
 0057,0.0000042,0.0000058,0.0278676,0.0605365,0.0000019,0.060523,-0.157
 9888,-0.0936251,0.000001,0.0000026,-0.0000036,-0.1639405,0.0502073,0.0
 000035,0.0502164,0.0338251,-0.0936258,0.,-0.0000055,0.0000003,-0.05909
 ,-0.1107171,-0.0000048,-0.1107144,-0.0709923,-1.5521729,0.0000397,0.00
 00022,0.0000438,-0.5787578,-0.0000002,0.0000093,0.0000005,-0.5787576\P
 olar=29.9797334,-0.0007913,14.634157,-0.0001523,-0.0000791,14.6340091\
 Quadrupole=-10.0676155,5.0338302,5.0337853,0.0007215,0.0001399,-0.0000
 026\PG=C01 [X(C1H3F2)]\NImag=1\\0.06877071,-0.00000258,0.01690104,-0.0
 0000161,-0.00000618,0.01690064,0.03402015,-0.00000389,-0.00000033,-0.0
 8024629,-0.00000464,-0.03256617,-0.00000086,0.00003441,0.70789914,-0.0
 0000150,-0.00000096,-0.03256653,0.00000673,0.00000429,0.70789004,-0.02
 483234,-0.00330426,0.01112765,0.00407210,-0.00000453,0.00000494,0.0411
 2112,-0.00186094,0.00232789,-0.00046072,-0.00000438,-0.08360288,0.0851
 0025,0.00000153,0.06962422,0.00627073,-0.00046252,0.00375774,0.0000051
 4,0.08509971,-0.34490030,-0.00000540,-0.09024964,0.34671684,-0.0248308
 1,0.01128998,-0.00270316,0.00407276,-0.00000991,0.00000111,0.00223453,
 -0.00000017,-0.00000002,0.04112058,0.00636288,0.00380253,-0.00038305,-
 0.00000944,-0.35327459,0.07059449,-0.00000010,-0.00059907,-0.00080685,
 0.00000812,0.35559629,-0.00152230,-0.00038131,0.00228252,0.00000108,0.
 07059448,-0.07522918,0.00000077,0.02303084,0.00059629,-0.00000197,-0.0
 7486746,0.06074297,-0.02483247,-0.00798096,-0.00842291,0.00406149,-0.0
 0001325,-0.00001149,0.00223743,0.00000039,0.00000034,0.00223694,-0.000
 00033,-0.00000054,0.04112773,-0.00449648,0.00299727,0.00085074,-0.0000
 1312,-0.20589080,-0.15569712,0.00000051,0.00992240,0.00688124,-0.00000
 090,-0.00932929,-0.01799534,0.00001073,0.19930434,-0.00474564,0.000850
 90,0.00308821,-0.00001153,-0.15569677,-0.22262898,-0.00000108,-0.01696
 100,-0.00992858,0.00000042,0.00584600,0.00932486,0.00001138,0.16511057
 ,0.21705656,-0.02829524,0.00000172,0.00000035,0.03401979,-0.00000207,0
 .00000020,-0.02483285,0.00186357,-0.00627079,-0.02483400,-0.00636114,0
 .00152296,-0.02483112,0.00449927,0.00474645,0.06877341,0.00000176,0.00
 653743,0.00000006,-0.00000358,-0.03256471,-0.00000094,0.00330685,0.002
 32743,-0.00046195,-0.01128711,0.00380413,-0.00038122,0.00798342,0.0029
 9608,0.00085030,-0.00000134,0.01689963,0.00000032,0.00000006,0.0065374
 2,-0.00000110,-0.00000085,-0.03256505,-0.01112689,-0.00045974,0.003758
 02,0.00270363,-0.00038313,0.00228255,0.00842321,0.00084991,0.00308793,
 0.00000083,-0.00000624,0.01689913\\-0.00002522,-0.00000108,-0.00000043
 ,-0.00000089,0.00000387,0.00000073,-0.00000073,0.00005038,-0.00017476,
 -0.00000137,-0.00017549,0.00004225,-0.00000031,0.00012286,0.00013254,0
 .00002853,-0.00000054,-0.00000034\\\@


 Democracy is the recurrent suspicion that more than half of the people
 are right more than half of the time.
 -- E. B. White
 Job cpu time:       0 days  0 hours  2 minutes 20.7 seconds.
 Elapsed time:       0 days  0 hours  0 minutes 21.2 seconds.
 File lengths (MBytes):  RWF=      7 Int=      0 D2E=      0 Chk=      1 Scr=      1
 Normal termination of Gaussian 16 at Tue Oct  6 16:30:06 2020.
