 Entering Gaussian System, Link 0=g16
 Input=MN_35_fch3clcomp1_BH76_B3LYP_6-31Gs.in
 Output=MN_35_fch3clcomp1_BH76_B3LYP_6-31Gs.log
 Initial command:
 /udrive/faculty/rpeverati/g16/g16/l1.exe "/udrive/scratch-directories/gaussian09/rpeverati/Gau-14547.inp" -scrdir="/udrive/scratch-directories/gaussian09/rpeverati/"
 Entering Link 1 = /udrive/faculty/rpeverati/g16/g16/l1.exe PID=     14548.
  
 Copyright (c) 1988,1990,1992,1993,1995,1998,2003,2009,2016,
            Gaussian, Inc.  All Rights Reserved.
  
 This is part of the Gaussian(R) 16 program.  It is based on
 the Gaussian(R) 09 system (copyright 2009, Gaussian, Inc.),
 the Gaussian(R) 03 system (copyright 2003, Gaussian, Inc.),
 the Gaussian(R) 98 system (copyright 1998, Gaussian, Inc.),
 the Gaussian(R) 94 system (copyright 1995, Gaussian, Inc.),
 the Gaussian 92(TM) system (copyright 1992, Gaussian, Inc.),
 the Gaussian 90(TM) system (copyright 1990, Gaussian, Inc.),
 the Gaussian 88(TM) system (copyright 1988, Gaussian, Inc.),
 the Gaussian 86(TM) system (copyright 1986, Carnegie Mellon
 University), and the Gaussian 82(TM) system (copyright 1983,
 Carnegie Mellon University). Gaussian is a federally registered
 trademark of Gaussian, Inc.
  
 This software contains proprietary and confidential information,
 including trade secrets, belonging to Gaussian, Inc.
  
 This software is provided under written license and may be
 used, copied, transmitted, or stored only in accord with that
 written license.
  
 The following legend is applicable only to US Government
 contracts under FAR:
  
                    RESTRICTED RIGHTS LEGEND
  
 Use, reproduction and disclosure by the US Government is
 subject to restrictions as set forth in subparagraphs (a)
 and (c) of the Commercial Computer Software - Restricted
 Rights clause in FAR 52.227-19.
  
 Gaussian, Inc.
 340 Quinnipiac St., Bldg. 40, Wallingford CT 06492
  
  
 ---------------------------------------------------------------
 Warning -- This program may not be used in any manner that
 competes with the business of Gaussian, Inc. or will provide
 assistance to any competitor of Gaussian, Inc.  The licensee
 of this program is prohibited from giving any competitor of
 Gaussian, Inc. access to this program.  By using this program,
 the user acknowledges that Gaussian, Inc. is engaged in the
 business of creating and licensing software in the field of
 computational chemistry and represents and warrants to the
 licensee that it is not a competitor of Gaussian, Inc. and that
 it will not use this program in any manner prohibited above.
 ---------------------------------------------------------------
  

 Cite this work as:
 Gaussian 16, Revision A.03,
 M. J. Frisch, G. W. Trucks, H. B. Schlegel, G. E. Scuseria, 
 M. A. Robb, J. R. Cheeseman, G. Scalmani, V. Barone, 
 G. A. Petersson, H. Nakatsuji, X. Li, M. Caricato, A. V. Marenich, 
 J. Bloino, B. G. Janesko, R. Gomperts, B. Mennucci, H. P. Hratchian, 
 J. V. Ortiz, A. F. Izmaylov, J. L. Sonnenberg, D. Williams-Young, 
 F. Ding, F. Lipparini, F. Egidi, J. Goings, B. Peng, A. Petrone, 
 T. Henderson, D. Ranasinghe, V. G. Zakrzewski, J. Gao, N. Rega, 
 G. Zheng, W. Liang, M. Hada, M. Ehara, K. Toyota, R. Fukuda, 
 J. Hasegawa, M. Ishida, T. Nakajima, Y. Honda, O. Kitao, H. Nakai, 
 T. Vreven, K. Throssell, J. A. Montgomery, Jr., J. E. Peralta, 
 F. Ogliaro, M. J. Bearpark, J. J. Heyd, E. N. Brothers, K. N. Kudin, 
 V. N. Staroverov, T. A. Keith, R. Kobayashi, J. Normand, 
 K. Raghavachari, A. P. Rendell, J. C. Burant, S. S. Iyengar, 
 J. Tomasi, M. Cossi, J. M. Millam, M. Klene, C. Adamo, R. Cammi, 
 J. W. Ochterski, R. L. Martin, K. Morokuma, O. Farkas, 
 J. B. Foresman, and D. J. Fox, Gaussian, Inc., Wallingford CT, 2016.
 
 ******************************************
 Gaussian 16:  ES64L-G16RevA.03 25-Dec-2016
                 6-Oct-2020 
 ******************************************
 %NoSave
 %nproc=12
 Will use up to   12 processors via shared memory.
 %mem=20GB
 %chk=MN_35_fch3clcomp1_BH76_B3LYP_6-31Gs
 ----------------------------------------------------------------------
 #P Opt(MaxCyc=100) B3LYP/6-31G* 5D 7F Integral=UltraFineGrid SCF=(NoSy
 mm,XQC,MaxCyc=120) IOp(1/33=1)
 ----------------------------------------------------------------------
 1/6=100,18=20,19=15,26=4,33=1,38=1/1,3;
 2/9=110,12=2,17=6,18=5,40=1/2;
 3/5=1,6=6,7=1,8=11,11=2,25=1,30=1,71=1,74=-5,75=-5/1,2,3;
 4/9=2/1;
 5/5=2,7=120,8=3,13=1,38=5/2,8;
 6/7=2,8=2,9=2,10=2,28=1/1;
 7//1,2,3,16;
 1/6=100,18=20,19=15,26=4,33=1/3(2);
 2/9=110/2;
 99//99;
 2/9=110/2;
 3/5=1,6=6,7=1,8=11,11=2,25=1,30=1,71=1,74=-5,75=-5/1,2,3;
 4/5=5,9=2,16=3,69=1/1;
 5/5=2,7=120,8=3,13=1,38=5/2,8;
 7//1,2,3,16;
 1/6=100,18=20,19=15,26=4,33=1/3(-5);
 2/9=110/2;
 6/7=2,8=2,9=2,10=2,19=2,28=1/1;
 99/9=1/99;
 Leave Link    1 at Tue Oct  6 15:59:19 2020, MaxMem=  2684354560 cpu:               6.1 elap:               0.6
 (Enter /udrive/faculty/rpeverati/g16/g16/l101.exe)
 ONIOM data not found on unit 2.
 ------------------
 TS search on BH76.
 ------------------
 TstMul:  ICh=    -1
 TstMul:  Mul=     1
 TstMul:  ICh=    -1
 TstMul:  Mul=     1
 Symbolic Z-matrix:
 Charge = -1 Multiplicity = 1
 Cl                    0.        0.        2.12296 
 C                     0.        0.        0.27247 
 H                    -0.51316  -0.88882  -0.05531 
 H                    -0.51316   0.88882  -0.05531 
 H                     1.02632   0.       -0.05531 
 F                     0.        0.       -2.22949 
 
 RdStrC is calling ZToCFu for IStruc=1 NZ=     6.
 PrtBox:  NBox=     2 Levels=  1 BoxLen=    8.00 SMaxX=        8.22
          Shift=            0.969735            1.679630            4.213119
 Box      1 Number                   0 centers from      1 to      5:
 Box      2 Number                   1 centers from      6 to      6:
 After GenITR:
 ITRead=  0  0  0  0  0  0
 MicOpt= -1 -1 -1 -1 -1 -1
 Add virtual bond connecting atoms F6         and C2         Dist= 4.73D+00.
 Add virtual bond connecting atoms F6         and H3         Dist= 4.54D+00.
 Add virtual bond connecting atoms F6         and H4         Dist= 4.54D+00.
 Add virtual bond connecting atoms F6         and H5         Dist= 4.54D+00.
 Add atom      6 valence  4 ND=      0 dihedral       4      3      6      2
 Add atom      6 valence  4 ND=      0 dihedral       5      3      6      2
 Add atom      6 valence  4 ND=      0 dihedral       5      4      6      2
 ITRead=  0  0  0  0  0  0
 MicOpt= -1 -1 -1 -1 -1 -1
 NAtoms=      6 NQM=        6 NQMF=       0 NMMI=      0 NMMIF=      0
                NMic=       0 NMicF=      0.
                    Isotopes and Nuclear Properties:
 (Nuclear quadrupole moments (NQMom) in fm**2, nuclear magnetic moments (NMagM)
  in nuclear magnetons)

  Atom         1           2           3           4           5           6
 IAtWgt=          35          12           1           1           1          19
 AtmWgt=  34.9688527  12.0000000   1.0078250   1.0078250   1.0078250  18.9984033
 NucSpn=           3           0           1           1           1           1
 AtZEff=   0.0000000   0.0000000   0.0000000   0.0000000   0.0000000   0.0000000
 NQMom=   -8.1650000   0.0000000   0.0000000   0.0000000   0.0000000   0.0000000
 NMagM=    0.8218740   0.0000000   2.7928460   2.7928460   2.7928460   2.6288670
 AtZNuc=  17.0000000   6.0000000   1.0000000   1.0000000   1.0000000   9.0000000
 No MM parameters found.
 Leave Link  101 at Tue Oct  6 15:59:20 2020, MaxMem=  2684354560 cpu:              13.0 elap:               1.3
 (Enter /udrive/faculty/rpeverati/g16/g16/l103.exe)

 GradGradGradGradGradGradGradGradGradGradGradGradGradGradGradGradGradGrad
 Berny optimization.
 Optmz: redundant internal coordinate code flag= 1
 Initialization pass.
                           ----------------------------
                           !    Initial Parameters    !
                           ! (Angstroms and Degrees)  !
 --------------------------                            --------------------------
 ! Name  Definition              Value          Derivative Info.                !
 --------------------------------------------------------------------------------
 ! R1    R(1,2)                  1.8505         estimate D2E/DX2                !
 ! R2    R(2,3)                  1.0774         estimate D2E/DX2                !
 ! R3    R(2,4)                  1.0774         estimate D2E/DX2                !
 ! R4    R(2,5)                  1.0774         estimate D2E/DX2                !
 ! R5    R(2,6)                  2.502          estimate D2E/DX2                !
 ! R6    R(3,6)                  2.4042         estimate D2E/DX2                !
 ! R7    R(4,6)                  2.4042         estimate D2E/DX2                !
 ! R8    R(5,6)                  2.4042         estimate D2E/DX2                !
 ! A1    A(1,2,3)              107.7121         estimate D2E/DX2                !
 ! A2    A(1,2,4)              107.7121         estimate D2E/DX2                !
 ! A3    A(1,2,5)              107.7121         estimate D2E/DX2                !
 ! A4    A(3,2,4)              111.1716         estimate D2E/DX2                !
 ! A5    A(3,2,5)              111.1716         estimate D2E/DX2                !
 ! A6    A(4,2,5)              111.1716         estimate D2E/DX2                !
 ! A7    A(3,6,4)               43.3929         estimate D2E/DX2                !
 ! A8    A(3,6,5)               43.3929         estimate D2E/DX2                !
 ! A9    A(4,6,5)               43.3929         estimate D2E/DX2                !
 ! A10   L(1,2,6,3,-1)         180.0            estimate D2E/DX2                !
 ! A11   L(1,2,6,3,-2)         180.0            estimate D2E/DX2                !
 ! D1    D(3,2,5,4)            124.4261         estimate D2E/DX2                !
 ! D2    D(4,3,6,2)             32.556          estimate D2E/DX2                !
 ! D3    D(5,3,6,2)            -32.556          estimate D2E/DX2                !
 ! D4    D(5,4,6,2)             32.556          estimate D2E/DX2                !
 --------------------------------------------------------------------------------
 Maximum allowed force set to 1.00D+20.
 Trust Radius=3.00D-01 FncErr=1.00D-07 GrdErr=1.00D-06 EigMax=2.50D+02 EigMin=1.00D-04
 Number of steps in this run=    100 maximum allowed number of steps=    100.
 GradGradGradGradGradGradGradGradGradGradGradGradGradGradGradGradGradGrad

 Leave Link  103 at Tue Oct  6 15:59:21 2020, MaxMem=  2684354560 cpu:               0.5 elap:               0.2
 (Enter /udrive/faculty/rpeverati/g16/g16/l202.exe)
                          Input orientation:                          
 ---------------------------------------------------------------------
 Center     Atomic      Atomic             Coordinates (Angstroms)
 Number     Number       Type             X           Y           Z
 ---------------------------------------------------------------------
      1         17           0        0.000000    0.000000    2.122964
      2          6           0        0.000000    0.000000    0.272466
      3          1           0       -0.513162   -0.888822   -0.055314
      4          1           0       -0.513162    0.888822   -0.055314
      5          1           0        1.026323    0.000000   -0.055314
      6          9           0        0.000000    0.000000   -2.229487
 ---------------------------------------------------------------------
                    Distance matrix (angstroms):
                    1          2          3          4          5
     1  Cl   0.000000
     2  C    1.850498   0.000000
     3  H    2.407953   1.077395   0.000000
     4  H    2.407953   1.077395   1.777644   0.000000
     5  H    2.407953   1.077395   1.777644   1.777644   0.000000
     6  F    4.352451   2.501952   2.404239   2.404239   2.404239
                    6
     6  F    0.000000
 Stoichiometry    CH3ClF(1-)
 Framework group  C3V[C3(FCCl),3SGV(H)]
 Deg. of freedom     4
 Full point group                 C3V     NOp   6
 Largest Abelian subgroup         CS      NOp   2
 Largest concise Abelian subgroup CS      NOp   2
                         Standard orientation:                         
 ---------------------------------------------------------------------
 Center     Atomic      Atomic             Coordinates (Angstroms)
 Number     Number       Type             X           Y           Z
 ---------------------------------------------------------------------
      1         17           0        0.000000    0.000000    1.623140
      2          6           0        0.000000    0.000000   -0.227359
      3          1           0        0.000000    1.026323   -0.555139
      4          1           0        0.888822   -0.513162   -0.555139
      5          1           0       -0.888822   -0.513162   -0.555139
      6          9           0        0.000000    0.000000   -2.729311
 ---------------------------------------------------------------------
 Rotational constants (GHZ):         158.6873850           2.1342839           2.1342839
 Leave Link  202 at Tue Oct  6 15:59:22 2020, MaxMem=  2684354560 cpu:               1.3 elap:               0.4
 (Enter /udrive/faculty/rpeverati/g16/g16/l301.exe)
 Standard basis: 6-31G(d) (5D, 7F)
 Ernie: Thresh=  0.10000D-02 Tol=  0.10000D-05 Strict=F.
 There are    40 symmetry adapted cartesian basis functions of A'  symmetry.
 There are    15 symmetry adapted cartesian basis functions of A"  symmetry.
 There are    37 symmetry adapted basis functions of A'  symmetry.
 There are    15 symmetry adapted basis functions of A"  symmetry.
    52 basis functions,   120 primitive gaussians,    55 cartesian basis functions
    18 alpha electrons       18 beta electrons
       nuclear repulsion energy        86.0762915649 Hartrees.
 IExCor=  402 DFT=T Ex+Corr=B3LYP ExCW=0 ScaHFX=  0.200000
 ScaDFX=  0.800000  0.720000  1.000000  0.810000 ScalE2=  1.000000  1.000000
 IRadAn=      5 IRanWt=     -1 IRanGd=            0 ICorTp=0 IEmpDi=  4
 NAtoms=    6 NActive=    6 NUniq=    4 SFac= 2.25D+00 NAtFMM=   60 NAOKFM=F Big=F
 Integral buffers will be    131072 words long.
 Raffenetti 2 integral format.
 Two-electron integral symmetry is turned on.
 Leave Link  301 at Tue Oct  6 15:59:22 2020, MaxMem=  2684354560 cpu:               1.8 elap:               0.5
 (Enter /udrive/faculty/rpeverati/g16/g16/l302.exe)
 NPDir=0 NMtPBC=     1 NCelOv=     1 NCel=       1 NClECP=     1 NCelD=      1
         NCelK=      1 NCelE2=     1 NClLst=     1 CellRange=     0.0.
 One-electron integrals computed using PRISM.
 One-electron integral symmetry used in STVInt
 NBasis=    52 RedAO= T EigKep=  1.88D-02  NBF=    37    15
 NBsUse=    52 1.00D-06 EigRej= -1.00D+00 NBFU=    37    15
 Precomputing XC quadrature grid using
 IXCGrd= 4 IRadAn=           5 IRanWt=          -1 IRanGd=           0 AccXCQ= 0.00D+00.
 Generated NRdTot=       0 NPtTot=           0 NUsed=           0 NTot=          32
 NSgBfM=    55    55    55    55    55 MxSgAt=     6 MxSgA2=     6.
 Leave Link  302 at Tue Oct  6 15:59:23 2020, MaxMem=  2684354560 cpu:               3.3 elap:               0.6
 (Enter /udrive/faculty/rpeverati/g16/g16/l303.exe)
 DipDrv:  MaxL=1.
 Leave Link  303 at Tue Oct  6 15:59:24 2020, MaxMem=  2684354560 cpu:               2.2 elap:               0.5
 (Enter /udrive/faculty/rpeverati/g16/g16/l401.exe)
 SCF N**3 symmetry information disabled.
 ExpMin= 1.43D-01 ExpMax= 2.52D+04 ExpMxC= 3.78D+03 IAcc=3 IRadAn=         5 AccDes= 0.00D+00
 Harris functional with IExCor=  402 and IRadAn=       5 diagonalized for initial guess.
 HarFok:  IExCor=  402 AccDes= 0.00D+00 IRadAn=         5 IDoV= 1 UseB2=F ITyADJ=14
 ICtDFT=  3500011 ScaDFX=  1.000000  1.000000  1.000000  1.000000
 FoFCou: FMM=F IPFlag=           0 FMFlag=      100000 FMFlg1=           0
         NFxFlg=           0 DoJE=T BraDBF=F KetDBF=T FulRan=T
         wScrn=  0.000000 ICntrl=       500 IOpCl=  0 I1Cent=   200000004 NGrid=           0
         NMat0=    1 NMatS0=      1 NMatT0=    0 NMatD0=    1 NMtDS0=    0 NMtDT0=    0
 Petite list used in FoFCou.
 Harris En= -600.093868653119    
 JPrj=0 DoOrth=F DoCkMO=F.
 Initial guess orbital symmetries:
       Occupied  (A1) (A1) (A1) (A1) (A1) (E) (E) (A1) (A1) (A1)
                 (E) (E) (A1) (E) (E) (A1) (E) (E)
       Virtual   (A1) (A1) (E) (E) (A1) (E) (E) (A1) (E) (E) (A1)
                 (E) (E) (A1) (E) (E) (E) (E) (A1) (E) (E) (A1)
                 (A1) (A1) (E) (E) (E) (E) (E) (E) (A1) (A1) (E)
                 (E)
 The electronic state of the initial guess is 1-A1.
 Leave Link  401 at Tue Oct  6 15:59:25 2020, MaxMem=  2684354560 cpu:               5.4 elap:               0.8
 (Enter /udrive/faculty/rpeverati/g16/g16/l502.exe)
 Keep R1 ints in memory in symmetry-blocked form, NReq=11461374.
 FoFCou: FMM=F IPFlag=           0 FMFlag=           0 FMFlg1=           0
         NFxFlg=           0 DoJE=F BraDBF=F KetDBF=F FulRan=T
         wScrn=  0.000000 ICntrl=       600 IOpCl=  0 I1Cent=           0 NGrid=           0
         NMat0=    1 NMatS0=   1378 NMatT0=    0 NMatD0=    1 NMtDS0=    0 NMtDT0=    0
 Petite list used in FoFCou.
 Closed shell SCF:
 Using DIIS extrapolation, IDIIS=  1040.
 NGot=  2684354560 LenX=  2683850103 LenY=  2683846637
 Requested convergence on RMS density matrix=1.00D-08 within 120 cycles.
 Requested convergence on MAX density matrix=1.00D-06.
 Requested convergence on             energy=1.00D-06.
 No special actions if energy rises.
 Integral accuracy reduced to 1.0D-05 until final iterations.

 Cycle   1  Pass 0  IDiag  1:
 E= -599.729025996532    
 DIIS: error= 9.59D-02 at cycle   1 NSaved=   1.
 NSaved= 1 IEnMin= 1 EnMin= -599.729025996532     IErMin= 1 ErrMin= 9.59D-02
 ErrMax= 9.59D-02  0.00D+00 EMaxC= 1.00D-01 BMatC= 2.22D-01 BMatP= 2.22D-01
 IDIUse=3 WtCom= 4.09D-02 WtEn= 9.59D-01
 Coeff-Com:  0.100D+01
 Coeff-En:   0.100D+01
 Coeff:      0.100D+01
 Gap=     0.426 Goal=   None    Shift=    0.000
 GapD=    0.426 DampG=2.000 DampE=0.500 DampFc=1.0000 IDamp=-1.
 RMSDP=8.13D-02 MaxDP=1.77D+00              OVMax= 8.73D-01

 Cycle   2  Pass 0  IDiag  1:
 E= -597.910201641091     Delta-E=        1.818824355441 Rises=F Damp=F
 DIIS: error= 2.28D-01 at cycle   2 NSaved=   2.
 NSaved= 2 IEnMin= 1 EnMin= -599.729025996532     IErMin= 1 ErrMin= 9.59D-02
 ErrMax= 2.28D-01  0.00D+00 EMaxC= 1.00D-01 BMatC= 1.85D+00 BMatP= 2.22D-01
 IDIUse=2 WtCom= 0.00D+00 WtEn= 1.00D+00
 Coeff-En:   0.883D+00 0.117D+00
 Coeff:      0.883D+00 0.117D+00
 Gap=     0.069 Goal=   None    Shift=    0.000
 RMSDP=7.23D-02 MaxDP=1.68D+00 DE= 1.82D+00 OVMax= 7.66D-01

 Cycle   3  Pass 0  IDiag  1:
 E= -599.809686706594     Delta-E=       -1.899485065503 Rises=F Damp=F
 DIIS: error= 6.33D-02 at cycle   3 NSaved=   3.
 NSaved= 3 IEnMin= 3 EnMin= -599.809686706594     IErMin= 3 ErrMin= 6.33D-02
 ErrMax= 6.33D-02  0.00D+00 EMaxC= 1.00D-01 BMatC= 1.25D-01 BMatP= 2.22D-01
 IDIUse=3 WtCom= 3.67D-01 WtEn= 6.33D-01
 Coeff-Com:  0.438D+00 0.182D-01 0.544D+00
 Coeff-En:   0.370D+00 0.000D+00 0.630D+00
 Coeff:      0.395D+00 0.668D-02 0.599D+00
 Gap=     0.148 Goal=   None    Shift=    0.000
 RMSDP=7.08D-03 MaxDP=7.54D-02 DE=-1.90D+00 OVMax= 1.21D-01

 Cycle   4  Pass 0  IDiag  1:
 E= -599.906786164843     Delta-E=       -0.097099458249 Rises=F Damp=F
 DIIS: error= 1.43D-02 at cycle   4 NSaved=   4.
 NSaved= 4 IEnMin= 4 EnMin= -599.906786164843     IErMin= 4 ErrMin= 1.43D-02
 ErrMax= 1.43D-02  0.00D+00 EMaxC= 1.00D-01 BMatC= 7.36D-03 BMatP= 1.25D-01
 IDIUse=3 WtCom= 8.57D-01 WtEn= 1.43D-01
 Coeff-Com:  0.155D+00-0.183D-01 0.302D+00 0.561D+00
 Coeff-En:   0.000D+00 0.000D+00 0.000D+00 0.100D+01
 Coeff:      0.133D+00-0.157D-01 0.258D+00 0.624D+00
 Gap=     0.159 Goal=   None    Shift=    0.000
 RMSDP=1.86D-03 MaxDP=2.46D-02 DE=-9.71D-02 OVMax= 4.41D-02

 Cycle   5  Pass 0  IDiag  1:
 E= -599.913717020551     Delta-E=       -0.006930855709 Rises=F Damp=F
 DIIS: error= 3.95D-03 at cycle   5 NSaved=   5.
 NSaved= 5 IEnMin= 5 EnMin= -599.913717020551     IErMin= 5 ErrMin= 3.95D-03
 ErrMax= 3.95D-03  0.00D+00 EMaxC= 1.00D-01 BMatC= 6.75D-04 BMatP= 7.36D-03
 IDIUse=3 WtCom= 9.61D-01 WtEn= 3.95D-02
 Coeff-Com:  0.197D-01-0.470D-02 0.195D-01 0.225D+00 0.740D+00
 Coeff-En:   0.000D+00 0.000D+00 0.000D+00 0.255D-01 0.975D+00
 Coeff:      0.189D-01-0.451D-02 0.188D-01 0.217D+00 0.750D+00
 Gap=     0.165 Goal=   None    Shift=    0.000
 RMSDP=7.79D-04 MaxDP=1.12D-02 DE=-6.93D-03 OVMax= 1.39D-02

 Cycle   6  Pass 0  IDiag  1:
 E= -599.914463367134     Delta-E=       -0.000746346583 Rises=F Damp=F
 DIIS: error= 6.33D-04 at cycle   6 NSaved=   6.
 NSaved= 6 IEnMin= 6 EnMin= -599.914463367134     IErMin= 6 ErrMin= 6.33D-04
 ErrMax= 6.33D-04  0.00D+00 EMaxC= 1.00D-01 BMatC= 2.43D-05 BMatP= 6.75D-04
 IDIUse=3 WtCom= 9.94D-01 WtEn= 6.33D-03
 Coeff-Com:  0.812D-03-0.500D-03-0.784D-02 0.635D-01 0.334D+00 0.610D+00
 Coeff-En:   0.000D+00 0.000D+00 0.000D+00 0.000D+00 0.000D+00 0.100D+01
 Coeff:      0.807D-03-0.497D-03-0.779D-02 0.631D-01 0.332D+00 0.613D+00
 Gap=     0.164 Goal=   None    Shift=    0.000
 RMSDP=1.37D-04 MaxDP=2.72D-03 DE=-7.46D-04 OVMax= 2.20D-03

 Cycle   7  Pass 0  IDiag  1:
 E= -599.914493003168     Delta-E=       -0.000029636034 Rises=F Damp=F
 DIIS: error= 2.03D-04 at cycle   7 NSaved=   7.
 NSaved= 7 IEnMin= 7 EnMin= -599.914493003168     IErMin= 7 ErrMin= 2.03D-04
 ErrMax= 2.03D-04  0.00D+00 EMaxC= 1.00D-01 BMatC= 1.19D-06 BMatP= 2.43D-05
 IDIUse=3 WtCom= 9.98D-01 WtEn= 2.03D-03
 Coeff-Com: -0.541D-03 0.558D-04-0.133D-02 0.187D-01 0.749D-01 0.162D+00
 Coeff-Com:  0.746D+00
 Coeff-En:   0.000D+00 0.000D+00 0.000D+00 0.000D+00 0.000D+00 0.000D+00
 Coeff-En:   0.100D+01
 Coeff:     -0.540D-03 0.557D-04-0.133D-02 0.187D-01 0.748D-01 0.161D+00
 Coeff:      0.747D+00
 Gap=     0.163 Goal=   None    Shift=    0.000
 RMSDP=3.49D-05 MaxDP=3.35D-04 DE=-2.96D-05 OVMax= 5.16D-04

 Cycle   8  Pass 0  IDiag  1:
 E= -599.914494045730     Delta-E=       -0.000001042562 Rises=F Damp=F
 DIIS: error= 3.85D-05 at cycle   8 NSaved=   8.
 NSaved= 8 IEnMin= 8 EnMin= -599.914494045730     IErMin= 8 ErrMin= 3.85D-05
 ErrMax= 3.85D-05  0.00D+00 EMaxC= 1.00D-01 BMatC= 5.88D-08 BMatP= 1.19D-06
 IDIUse=1 WtCom= 1.00D+00 WtEn= 0.00D+00
 Coeff-Com: -0.381D-03 0.352D-04-0.105D-03 0.462D-02 0.122D-01 0.232D-01
 Coeff-Com:  0.179D+00 0.782D+00
 Coeff:     -0.381D-03 0.352D-04-0.105D-03 0.462D-02 0.122D-01 0.232D-01
 Coeff:      0.179D+00 0.782D+00
 Gap=     0.163 Goal=   None    Shift=    0.000
 RMSDP=7.39D-06 MaxDP=7.17D-05 DE=-1.04D-06 OVMax= 1.04D-04

 Initial convergence to 1.0D-05 achieved.  Increase integral accuracy.
 Cycle   9  Pass 1  IDiag  1:
 E= -599.914493667293     Delta-E=        0.000000378437 Rises=F Damp=F
 DIIS: error= 7.62D-06 at cycle   1 NSaved=   1.
 NSaved= 1 IEnMin= 1 EnMin= -599.914493667293     IErMin= 1 ErrMin= 7.62D-06
 ErrMax= 7.62D-06  0.00D+00 EMaxC= 1.00D-01 BMatC= 1.68D-09 BMatP= 1.68D-09
 IDIUse=1 WtCom= 1.00D+00 WtEn= 0.00D+00
 Coeff-Com:  0.100D+01
 Coeff:      0.100D+01
 Gap=     0.163 Goal=   None    Shift=    0.000
 RMSDP=7.39D-06 MaxDP=7.17D-05 DE= 3.78D-07 OVMax= 6.77D-05

 Cycle  10  Pass 1  IDiag  1:
 E= -599.914493663904     Delta-E=        0.000000003389 Rises=F Damp=F
 DIIS: error= 1.69D-05 at cycle   2 NSaved=   2.
 NSaved= 2 IEnMin= 1 EnMin= -599.914493667293     IErMin= 1 ErrMin= 7.62D-06
 ErrMax= 1.69D-05  0.00D+00 EMaxC= 1.00D-01 BMatC= 6.45D-09 BMatP= 1.68D-09
 IDIUse=1 WtCom= 1.00D+00 WtEn= 0.00D+00
 Coeff-Com:  0.665D+00 0.335D+00
 Coeff:      0.665D+00 0.335D+00
 Gap=     0.163 Goal=   None    Shift=    0.000
 RMSDP=2.39D-06 MaxDP=2.49D-05 DE= 3.39D-09 OVMax= 4.81D-05

 Cycle  11  Pass 1  IDiag  1:
 E= -599.914493668928     Delta-E=       -0.000000005024 Rises=F Damp=F
 DIIS: error= 5.49D-07 at cycle   3 NSaved=   3.
 NSaved= 3 IEnMin= 3 EnMin= -599.914493668928     IErMin= 3 ErrMin= 5.49D-07
 ErrMax= 5.49D-07  0.00D+00 EMaxC= 1.00D-01 BMatC= 1.96D-11 BMatP= 1.68D-09
 IDIUse=1 WtCom= 1.00D+00 WtEn= 0.00D+00
 Coeff-Com:  0.191D+00 0.107D+00 0.702D+00
 Coeff:      0.191D+00 0.107D+00 0.702D+00
 Gap=     0.163 Goal=   None    Shift=    0.000
 RMSDP=1.39D-07 MaxDP=1.47D-06 DE=-5.02D-09 OVMax= 1.56D-06

 Cycle  12  Pass 1  IDiag  1:
 E= -599.914493668947     Delta-E=       -0.000000000019 Rises=F Damp=F
 DIIS: error= 1.28D-07 at cycle   4 NSaved=   4.
 NSaved= 4 IEnMin= 4 EnMin= -599.914493668947     IErMin= 4 ErrMin= 1.28D-07
 ErrMax= 1.28D-07  0.00D+00 EMaxC= 1.00D-01 BMatC= 1.38D-12 BMatP= 1.96D-11
 IDIUse=1 WtCom= 1.00D+00 WtEn= 0.00D+00
 Coeff-Com:  0.825D-02 0.899D-02 0.197D+00 0.786D+00
 Coeff:      0.825D-02 0.899D-02 0.197D+00 0.786D+00
 Gap=     0.163 Goal=   None    Shift=    0.000
 RMSDP=4.53D-08 MaxDP=3.79D-07 DE=-1.93D-11 OVMax= 8.33D-07

 Cycle  13  Pass 1  IDiag  1:
 E= -599.914493668950     Delta-E=       -0.000000000003 Rises=F Damp=F
 DIIS: error= 1.33D-07 at cycle   5 NSaved=   5.
 NSaved= 5 IEnMin= 5 EnMin= -599.914493668950     IErMin= 4 ErrMin= 1.28D-07
 ErrMax= 1.33D-07  0.00D+00 EMaxC= 1.00D-01 BMatC= 5.17D-13 BMatP= 1.38D-12
 IDIUse=1 WtCom= 1.00D+00 WtEn= 0.00D+00
 Coeff-Com: -0.138D-01-0.281D-02 0.396D-01 0.402D+00 0.575D+00
 Coeff:     -0.138D-01-0.281D-02 0.396D-01 0.402D+00 0.575D+00
 Gap=     0.163 Goal=   None    Shift=    0.000
 RMSDP=1.62D-08 MaxDP=1.96D-07 DE=-3.07D-12 OVMax= 2.03D-07

 Cycle  14  Pass 1  IDiag  1:
 E= -599.914493668950     Delta-E=        0.000000000000 Rises=F Damp=F
 DIIS: error= 2.42D-08 at cycle   6 NSaved=   6.
 NSaved= 6 IEnMin= 5 EnMin= -599.914493668950     IErMin= 6 ErrMin= 2.42D-08
 ErrMax= 2.42D-08  0.00D+00 EMaxC= 1.00D-01 BMatC= 2.22D-14 BMatP= 5.17D-13
 IDIUse=1 WtCom= 1.00D+00 WtEn= 0.00D+00
 Coeff-Com: -0.500D-02-0.318D-03 0.399D-02 0.105D+00 0.224D+00 0.673D+00
 Coeff:     -0.500D-02-0.318D-03 0.399D-02 0.105D+00 0.224D+00 0.673D+00
 Gap=     0.163 Goal=   None    Shift=    0.000
 RMSDP=6.24D-09 MaxDP=7.76D-08 DE= 0.00D+00 OVMax= 8.67D-08

 SCF Done:  E(RB3LYP) =  -599.914493669     A.U. after   14 cycles
            NFock= 14  Conv=0.62D-08     -V/T= 2.0021
 KE= 5.986706250557D+02 PE=-1.607325073997D+03 EE= 3.226636637077D+02
 Leave Link  502 at Tue Oct  6 15:59:27 2020, MaxMem=  2684354560 cpu:              19.0 elap:               2.0
 (Enter /udrive/faculty/rpeverati/g16/g16/l508.exe)
 QCSCF skips out because SCF is already converged.
 Leave Link  508 at Tue Oct  6 15:59:28 2020, MaxMem=  2684354560 cpu:               0.4 elap:               0.5
 (Enter /udrive/faculty/rpeverati/g16/g16/l601.exe)
 Copying SCF densities to generalized density rwf, IOpCl= 0 IROHF=0.

 **********************************************************************

            Population analysis using the SCF density.

 **********************************************************************

 Orbital symmetries:
       Occupied  (A1) (A1) (A1) (A1) (A1) (E) (E) (A1) (A1) (A1)
                 (E) (E) (A1) (E) (E) (A1) (E) (E)
       Virtual   (A1) (A1) (E) (E) (A1) (E) (E) (A1) (E) (E) (A1)
                 (E) (E) (A1) (E) (E) (E) (E) (A1) (A1) (E) (E)
                 (A1) (E) (E) (A1) (E) (E) (E) (E) (A1) (E) (E)
                 (A1)
 The electronic state is 1-A1.
 Alpha  occ. eigenvalues -- -101.33435 -24.20550 -10.03301  -9.26737  -7.02891
 Alpha  occ. eigenvalues --   -7.02148  -7.02148  -0.66709  -0.65808  -0.48410
 Alpha  occ. eigenvalues --   -0.25357  -0.25357  -0.21801  -0.12621  -0.12621
 Alpha  occ. eigenvalues --    0.04857   0.05323   0.05323
 Alpha virt. eigenvalues --    0.21653   0.30089   0.34443   0.34443   0.55992
 Alpha virt. eigenvalues --    0.61767   0.61767   0.62794   0.71183   0.71183
 Alpha virt. eigenvalues --    0.86905   1.03523   1.03523   1.06723   1.08198
 Alpha virt. eigenvalues --    1.08198   1.11200   1.11200   1.21030   1.43120
 Alpha virt. eigenvalues --    1.58725   1.58725   1.64607   1.87506   1.87506
 Alpha virt. eigenvalues --    1.95899   2.26133   2.26133   2.26984   2.26984
 Alpha virt. eigenvalues --    2.30562   2.43976   2.43976   2.45298
          Condensed to atoms (all electrons):
               1          2          3          4          5          6
     1  Cl  17.502455  -0.054311  -0.044107  -0.044107  -0.044107   0.002582
     2  C   -0.054311   5.351746   0.373746   0.373746   0.373746   0.033574
     3  H   -0.044107   0.373746   0.530613  -0.027227  -0.027227   0.012166
     4  H   -0.044107   0.373746  -0.027227   0.530613  -0.027227   0.012166
     5  H   -0.044107   0.373746  -0.027227  -0.027227   0.530613   0.012166
     6  F    0.002582   0.033574   0.012166   0.012166   0.012166   9.702799
 Mulliken charges:
               1
     1  Cl  -0.318405
     2  C   -0.452248
     3  H    0.182035
     4  H    0.182035
     5  H    0.182035
     6  F   -0.775453
 Sum of Mulliken charges =  -1.00000
 Mulliken charges with hydrogens summed into heavy atoms:
               1
     1  Cl  -0.318405
     2  C    0.093858
     6  F   -0.775453
 Electronic spatial extent (au):  <R**2>=            498.6062
 Charge=             -1.0000 electrons
 Dipole moment (field-independent basis, Debye):
    X=             -0.0000    Y=             -0.0000    Z=              6.5147  Tot=              6.5147
 Quadrupole moment (field-independent basis, Debye-Ang):
   XX=            -26.0595   YY=            -26.0595   ZZ=            -60.2717
   XY=             -0.0000   XZ=              0.0000   YZ=              0.0000
 Traceless Quadrupole moment (field-independent basis, Debye-Ang):
   XX=             11.4041   YY=             11.4041   ZZ=            -22.8082
   XY=             -0.0000   XZ=              0.0000   YZ=              0.0000
 Octapole moment (field-independent basis, Debye-Ang**2):
  XXX=             -0.0000  YYY=              0.6975  ZZZ=             55.2753  XYY=              0.0000
  XXY=             -0.6975  XXZ=             -5.4819  XZZ=              0.0000  YZZ=              0.0000
  YYZ=             -5.4819  XYZ=              0.0000
 Hexadecapole moment (field-independent basis, Debye-Ang**3):
 XXXX=            -31.9470 YYYY=            -31.9470 ZZZZ=           -701.6354 XXXY=              0.0000
 XXXZ=              0.0000 YYYX=              0.0000 YYYZ=             -0.3708 ZZZX=             -0.0000
 ZZZY=             -0.0000 XXYY=            -10.6490 XXZZ=            -88.7966 YYZZ=            -88.7966
 XXYZ=              0.3708 YYXZ=             -0.0000 ZZXY=              0.0000
 N-N= 8.607629156488D+01 E-N=-1.607325074548D+03  KE= 5.986706250557D+02
 No NMR shielding tensors so no spin-rotation constants.
 Leave Link  601 at Tue Oct  6 15:59:29 2020, MaxMem=  2684354560 cpu:               4.3 elap:               0.8
 (Enter /udrive/faculty/rpeverati/g16/g16/l701.exe)
 ... and contract with generalized density number  0.
 Compute integral first derivatives.
 Leave Link  701 at Tue Oct  6 15:59:30 2020, MaxMem=  2684354560 cpu:               3.9 elap:               0.9
 (Enter /udrive/faculty/rpeverati/g16/g16/l702.exe)
 L702 exits ... SP integral derivatives will be done elsewhere.
 Leave Link  702 at Tue Oct  6 15:59:31 2020, MaxMem=  2684354560 cpu:               2.0 elap:               0.5
 (Enter /udrive/faculty/rpeverati/g16/g16/l703.exe)
 Integral derivatives from FoFJK, PRISM(SPDF).
 Compute integral first derivatives, UseDBF=F ICtDFT=           0.
 Calling FoFJK, ICntrl=      2127 FMM=F ISym2X=1 I1Cent= 0 IOpClX= 0 NMat=1 NMatS=1 NMatT=0.
 FoFJK:  IHMeth= 1 ICntrl=    2127 DoSepK=F KAlg= 0 I1Cent=           0 FoldK=F
 IRaf=         0 NMat=       1 IRICut=       1 DoRegI=T DoRafI=F ISym2E= 1 IDoP0=0 IntGTp=1.
 FoFCou: FMM=F IPFlag=           0 FMFlag=      100000 FMFlg1=         800
         NFxFlg=           0 DoJE=F BraDBF=F KetDBF=F FulRan=T
         wScrn=  0.000000 ICntrl=      2127 IOpCl=  0 I1Cent=           0 NGrid=           0
         NMat0=    1 NMatS0=      1 NMatT0=    0 NMatD0=    1 NMtDS0=    0 NMtDT0=    0
 Petite list used in FoFCou.
 Leave Link  703 at Tue Oct  6 15:59:32 2020, MaxMem=  2684354560 cpu:               6.3 elap:               0.8
 (Enter /udrive/faculty/rpeverati/g16/g16/l716.exe)
 Dipole        =-2.22044605D-16-2.22044605D-16 2.56306145D+00
 ***** Axes restored to original set *****
 -------------------------------------------------------------------
 Center     Atomic                   Forces (Hartrees/Bohr)
 Number     Number              X              Y              Z
 -------------------------------------------------------------------
      1       17           0.000000000   -0.000000000    0.025996959
      2        6           0.000000000   -0.000000000   -0.022041124
      3        1          -0.001046872   -0.001813235   -0.004520557
      4        1          -0.001046872    0.001813235   -0.004520557
      5        1           0.002093743    0.000000000   -0.004520557
      6        9           0.000000000    0.000000000    0.009605837
 -------------------------------------------------------------------
 Cartesian Forces:  Max     0.025996959 RMS     0.008590637
 Leave Link  716 at Tue Oct  6 15:59:33 2020, MaxMem=  2684354560 cpu:               1.7 elap:               0.5
 (Enter /udrive/faculty/rpeverati/g16/g16/l103.exe)

 GradGradGradGradGradGradGradGradGradGradGradGradGradGradGradGradGradGrad
 Berny optimization.
 Optmz: redundant internal coordinate code flag= 1
 FormGI is forming the generalized inverse of G from B-inverse, IUseBI=4.
 Internal  Forces:  Max     0.025996959 RMS     0.005670100
 Search for a local minimum.
 Step number   1 out of a maximum of  100
 All quantities printed in internal units (Hartrees-Bohrs-Radians)
 RMS Force = .56701D-02 SwitMx=.10000D-02 MixMth= 1
 Mixed Optimization -- RFO/linear search
 Second derivative matrix not updated -- first step.
 The second derivative matrix:
                          R1        R2        R3        R4        R5
           R1           0.22511
           R2           0.00000   0.36311
           R3           0.00000   0.00000   0.36311
           R4           0.00000   0.00000   0.00000   0.36311
           R5           0.00000   0.00000   0.00000   0.00000   0.03586
           R6           0.00000   0.00000   0.00000   0.00000   0.00000
           R7           0.00000   0.00000   0.00000   0.00000   0.00000
           R8           0.00000   0.00000   0.00000   0.00000   0.00000
           A1           0.00000   0.00000   0.00000   0.00000   0.00000
           A2           0.00000   0.00000   0.00000   0.00000   0.00000
           A3           0.00000   0.00000   0.00000   0.00000   0.00000
           A4           0.00000   0.00000   0.00000   0.00000   0.00000
           A5           0.00000   0.00000   0.00000   0.00000   0.00000
           A6           0.00000   0.00000   0.00000   0.00000   0.00000
           A7           0.00000   0.00000   0.00000   0.00000   0.00000
           A8           0.00000   0.00000   0.00000   0.00000   0.00000
           A9           0.00000   0.00000   0.00000   0.00000   0.00000
           A10          0.00000   0.00000   0.00000   0.00000   0.00000
           A11          0.00000   0.00000   0.00000   0.00000   0.00000
           D1           0.00000   0.00000   0.00000   0.00000   0.00000
           D2           0.00000   0.00000   0.00000   0.00000   0.00000
           D3           0.00000   0.00000   0.00000   0.00000   0.00000
           D4           0.00000   0.00000   0.00000   0.00000   0.00000
                          R6        R7        R8        A1        A2
           R6           0.02355
           R7           0.00000   0.02355
           R8           0.00000   0.00000   0.02355
           A1           0.00000   0.00000   0.00000   0.16000
           A2           0.00000   0.00000   0.00000   0.00000   0.16000
           A3           0.00000   0.00000   0.00000   0.00000   0.00000
           A4           0.00000   0.00000   0.00000   0.00000   0.00000
           A5           0.00000   0.00000   0.00000   0.00000   0.00000
           A6           0.00000   0.00000   0.00000   0.00000   0.00000
           A7           0.00000   0.00000   0.00000   0.00000   0.00000
           A8           0.00000   0.00000   0.00000   0.00000   0.00000
           A9           0.00000   0.00000   0.00000   0.00000   0.00000
           A10          0.00000   0.00000   0.00000   0.00000   0.00000
           A11          0.00000   0.00000   0.00000   0.00000   0.00000
           D1           0.00000   0.00000   0.00000   0.00000   0.00000
           D2           0.00000   0.00000   0.00000   0.00000   0.00000
           D3           0.00000   0.00000   0.00000   0.00000   0.00000
           D4           0.00000   0.00000   0.00000   0.00000   0.00000
                          A3        A4        A5        A6        A7
           A3           0.16000
           A4           0.00000   0.16000
           A5           0.00000   0.00000   0.16000
           A6           0.00000   0.00000   0.00000   0.16000
           A7           0.00000   0.00000   0.00000   0.00000   0.16000
           A8           0.00000   0.00000   0.00000   0.00000   0.00000
           A9           0.00000   0.00000   0.00000   0.00000   0.00000
           A10          0.00000   0.00000   0.00000   0.00000   0.00000
           A11          0.00000   0.00000   0.00000   0.00000   0.00000
           D1           0.00000   0.00000   0.00000   0.00000   0.00000
           D2           0.00000   0.00000   0.00000   0.00000   0.00000
           D3           0.00000   0.00000   0.00000   0.00000   0.00000
           D4           0.00000   0.00000   0.00000   0.00000   0.00000
                          A8        A9        A10       A11       D1
           A8           0.16000
           A9           0.00000   0.16000
           A10          0.00000   0.00000   0.00230
           A11          0.00000   0.00000   0.00000   0.00230
           D1           0.00000   0.00000   0.00000   0.00000   0.00402
           D2           0.00000   0.00000   0.00000   0.00000   0.00000
           D3           0.00000   0.00000   0.00000   0.00000   0.00000
           D4           0.00000   0.00000   0.00000   0.00000   0.00000
                          D2        D3        D4
           D2           0.00230
           D3           0.00000   0.00230
           D4           0.00000   0.00000   0.00230
 ITU=  0
 Eigenvectors of the second derivative matrix:
                           1         2         3         4         5
     Eigenvalues --     0.02063   0.02080   0.02938   0.06208   0.10074
   1         R1         0.00000  -0.00000  -0.00000   0.00000   0.00000
   2         R2         0.00076   0.00278  -0.01216   0.00370  -0.00017
   3         R3        -0.00374   0.00036  -0.01185   0.01005  -0.01204
   4         R4         0.00296  -0.00307  -0.01187  -0.00354   0.01194
   5         R5         0.00033  -0.00067  -0.48750   0.40434   0.01860
   6         R6         0.18817   0.71135  -0.49606  -0.08937  -0.00376
   7         R7        -0.70691  -0.19213  -0.49480  -0.08436  -0.20863
   8         R8         0.51792  -0.51971  -0.49478  -0.07681   0.19571
   9         A1         0.00925   0.03404   0.02609   0.22076   0.00184
  10         A2        -0.03662  -0.00857   0.02619   0.22189   0.56577
  11         A3         0.02822  -0.02611   0.02619   0.22565  -0.53436
  12         A4        -0.00830   0.00630  -0.02957  -0.38933   0.03283
  13         A5         0.00838   0.00180  -0.02179  -0.11678  -0.06408
  14         A6        -0.00087  -0.00750  -0.02180  -0.11699   0.00026
  15         A7         0.04258  -0.04314   0.07402  -0.08822   0.02516
  16         A8        -0.05882  -0.01635   0.07614  -0.01725  -0.03198
  17         A9         0.01616   0.05977   0.07608  -0.01650   0.00118
  18         A10        0.10228   0.38661  -0.00047  -0.00493  -0.00834
  19         A11       -0.40684   0.10887  -0.00001  -0.00508   0.54630
  20         D1        -0.00527   0.00401  -0.07049  -0.67799  -0.00424
  21         D2        -0.05079   0.08667   0.01276   0.10766  -0.05312
  22         D3        -0.08769  -0.04940  -0.00792   0.06292  -0.05962
  23         D4        -0.04927  -0.08917   0.00808  -0.06291  -0.01146
                           6         7         8         9        10
     Eigenvalues --     0.10346   0.11690   0.11910   0.22511   0.33151
   1         R1        -0.00000  -0.00000   0.00000   1.00000  -0.00000
   2         R2         0.00575  -0.00983  -0.01988  -0.00000  -0.10157
   3         R3         0.00234   0.04591   0.01777  -0.00000   0.16188
   4         R4        -0.00771  -0.03050   0.00184   0.00000   0.91954
   5         R5        -0.01725  -0.20927   0.01156  -0.00000  -0.01221
   6         R6         0.21542   0.01476  -0.08143   0.00000   0.00994
   7         R7        -0.09515   0.04748   0.07654   0.00000   0.01928
   8         R8        -0.10452   0.13340  -0.00590  -0.00000   0.02803
   9         A1        -0.65257  -0.07034   0.08546  -0.00000  -0.00676
  10         A2         0.30246  -0.10505  -0.07032  -0.00000  -0.00026
  11         A3         0.31914  -0.20247   0.00573  -0.00000   0.02610
  12         A4        -0.03262  -0.49886   0.02830   0.00000  -0.02233
  13         A5        -0.03124   0.39890  -0.60477   0.00000   0.01816
  14         A6         0.09273   0.45225   0.55701   0.00000  -0.01361
  15         A7        -0.01784  -0.13438   0.00773  -0.00000   0.00314
  16         A8        -0.01861   0.08788  -0.16072  -0.00000   0.16147
  17         A9         0.04171   0.11044   0.14947  -0.00000   0.20348
  18         A10       -0.53848   0.03137   0.04123   0.00000   0.01025
  19         A11       -0.00769   0.03023  -0.02196   0.00000   0.01133
  20         D1         0.00279  -0.02296   0.00170   0.00000  -0.02569
  21         D2         0.04755   0.38401  -0.01892   0.00000   0.06099
  22         D3        -0.04400   0.17539  -0.36209  -0.00000  -0.15435
  23         D4        -0.08229  -0.21140  -0.34007   0.00000   0.13732
                          11        12
     Eigenvalues --     0.33869   0.34280
   1         R1         0.00000  -0.00000
   2         R2         0.68641   0.65323
   3         R3         0.64493  -0.67787
   4         R4        -0.05628   0.18585
   5         R5        -0.01033  -0.01812
   6         R6         0.02177   0.03362
   7         R7         0.02052  -0.00858
   8         R8         0.01232  -0.00231
   9         A1         0.02255   0.00612
  10         A2         0.02188  -0.03098
  11         A3        -0.00228  -0.00025
  12         A4         0.02481  -0.07616
  13         A5        -0.03455  -0.02990
  14         A6        -0.02956   0.12949
  15         A7         0.26323  -0.02777
  16         A8         0.11074   0.15308
  17         A9         0.10410  -0.05990
  18         A10       -0.00677  -0.01167
  19         A11       -0.01059   0.01361
  20         D1        -0.01487  -0.02583
  21         D2        -0.00634  -0.14333
  22         D3         0.07916   0.03742
  23         D4        -0.07643   0.05012
 Iter=   1 RLamda= 0.00000000D+00 Sum=-4.03566103D-03.
 Iter=   2 RLamda=-4.03566103D-03 Sum=-3.87110189D-03.
 Iter=   3 RLamda=-3.87110189D-03 Sum=-3.87725428D-03.
 Iter=   4 RLamda=-3.87725428D-03 Sum=-3.87702350D-03.
 Iter=   5 RLamda=-3.87702350D-03 Sum=-3.87703216D-03.
 RFO step:  Lambda=-3.87702350D-03 EMin= 2.06253828D-02
 Linear search not attempted -- first point.
 Iteration  1 RMS(Cart)=  0.02649365 RMS(Int)=  0.00012741
 Iteration  2 RMS(Cart)=  0.00007012 RMS(Int)=  0.00009010
 Iteration  3 RMS(Cart)=  0.00000000 RMS(Int)=  0.00009010
 ITry= 1 IFail=0 DXMaxC= 9.33D-02 DCOld= 1.00D+10 DXMaxT= 3.00D-01 DXLimC= 3.00D+00 Rises=F
 ClnCor:  largest displacement from symmetrization is 3.02D-04 for atom     4.
 Variable       Old X    -DE/DX   Delta X   Delta X   Delta X     New X
                                 (Linear)    (Quad)   (Total)
    R1        3.49693   0.02600   0.00000   0.11353   0.11353   3.61047
    R2        2.03598   0.00317   0.00000   0.00760   0.00759   2.04357
    R3        2.03598   0.00317   0.00000   0.00759   0.00759   2.04357
    R4        2.03598   0.00307   0.00000   0.00759   0.00759   2.04357
    R5        4.72800  -0.00198   0.00000  -0.06736  -0.06736   4.66065
    R6        4.54335  -0.00253   0.00000  -0.07807  -0.07802   4.46533
    R7        4.54335  -0.00253   0.00000  -0.07806  -0.07802   4.46533
    R8        4.54335  -0.00256   0.00000  -0.07813  -0.07802   4.46533
    A1        1.87993   0.00057   0.00000   0.00900   0.00901   1.88895
    A2        1.87993   0.00057   0.00000   0.00900   0.00901   1.88895
    A3        1.87993   0.00058   0.00000   0.00900   0.00901   1.88895
    A4        1.94031  -0.00020   0.00000  -0.00801  -0.00850   1.93181
    A5        1.94031  -0.00071   0.00000  -0.00859  -0.00850   1.93181
    A6        1.94031  -0.00071   0.00000  -0.00859  -0.00850   1.93181
    A7        0.75735   0.00163   0.00000   0.01446   0.01457   0.77192
    A8        0.75735   0.00147   0.00000   0.01431   0.01457   0.77192
    A9        0.75735   0.00147   0.00000   0.01430   0.01457   0.77192
   A10        3.14159   0.00000   0.00000   0.00001   0.00000   3.14159
   A11        3.14159   0.00000   0.00000   0.00002   0.00000   3.14159
    D1        2.17165  -0.00130   0.00000  -0.02303  -0.02311   2.14854
    D2        0.56821  -0.00001   0.00000   0.00159   0.00187   0.57008
    D3       -0.56821  -0.00028   0.00000  -0.00194  -0.00187  -0.57008
    D4        0.56821   0.00028   0.00000   0.00194   0.00187   0.57008
         Item               Value     Threshold  Converged?
 Maximum Force            0.025997     0.000450     NO 
 RMS     Force            0.005670     0.000300     NO 
 Maximum Displacement     0.093299     0.001800     NO 
 RMS     Displacement     0.026505     0.001200     NO 
 Predicted change in Energy=-2.010138D-03
 Lowest energy point so far.  Saving SCF results.
 Largest change from initial coordinates is atom    1       0.025 Angstoms.
 GradGradGradGradGradGradGradGradGradGradGradGradGradGradGradGradGradGrad

 Leave Link  103 at Tue Oct  6 15:59:34 2020, MaxMem=  2684354560 cpu:               3.0 elap:               0.5
 (Enter /udrive/faculty/rpeverati/g16/g16/l202.exe)
                          Input orientation:                          
 ---------------------------------------------------------------------
 Center     Atomic      Atomic             Coordinates (Angstroms)
 Number     Number       Type             X           Y           Z
 ---------------------------------------------------------------------
      1         17           0       -0.000000   -0.000000    2.172336
      2          6           0       -0.000000   -0.000000    0.261759
      3          1           0       -0.513570   -0.889530   -0.076515
      4          1           0       -0.513570    0.889530   -0.076515
      5          1           0        1.027140   -0.000000   -0.076515
      6          9           0       -0.000000   -0.000000   -2.204549
 ---------------------------------------------------------------------
                    Distance matrix (angstroms):
                    1          2          3          4          5
     1  Cl   0.000000
     2  C    1.910577   0.000000
     3  H    2.472316   1.081410   0.000000
     4  H    2.472316   1.081410   1.779059   0.000000
     5  H    2.472316   1.081410   1.779059   1.779059   0.000000
     6  F    4.376885   2.466308   2.362953   2.362953   2.362953
                    6
     6  F    0.000000
 Stoichiometry    CH3ClF(1-)
 Framework group  C3V[C3(FCCl),3SGV(H)]
 Deg. of freedom     4
 Full point group                 C3V     NOp   6
 RotChk:  IX=0 Diff= 0.00D+00
 Largest Abelian subgroup         CS      NOp   2
 Largest concise Abelian subgroup CS      NOp   2
                         Standard orientation:                         
 ---------------------------------------------------------------------
 Center     Atomic      Atomic             Coordinates (Angstroms)
 Number     Number       Type             X           Y           Z
 ---------------------------------------------------------------------
      1         17           0        0.000000    0.000000    1.645771
      2          6           0        0.000000    0.000000   -0.264806
      3          1           0        0.000000    1.027140   -0.603080
      4          1           0        0.889530   -0.513570   -0.603080
      5          1           0       -0.889530   -0.513570   -0.603080
      6          9           0        0.000000    0.000000   -2.731114
 ---------------------------------------------------------------------
 Rotational constants (GHZ):         158.4350491           2.1061518           2.1061518
 Leave Link  202 at Tue Oct  6 15:59:35 2020, MaxMem=  2684354560 cpu:               2.0 elap:               0.5
 (Enter /udrive/faculty/rpeverati/g16/g16/l301.exe)
 Standard basis: 6-31G(d) (5D, 7F)
 Ernie: Thresh=  0.10000D-02 Tol=  0.10000D-05 Strict=F.
 There are    40 symmetry adapted cartesian basis functions of A'  symmetry.
 There are    15 symmetry adapted cartesian basis functions of A"  symmetry.
 There are    37 symmetry adapted basis functions of A'  symmetry.
 There are    15 symmetry adapted basis functions of A"  symmetry.
    52 basis functions,   120 primitive gaussians,    55 cartesian basis functions
    18 alpha electrons       18 beta electrons
       nuclear repulsion energy        84.9988258685 Hartrees.
 IExCor=  402 DFT=T Ex+Corr=B3LYP ExCW=0 ScaHFX=  0.200000
 ScaDFX=  0.800000  0.720000  1.000000  0.810000 ScalE2=  1.000000  1.000000
 IRadAn=      5 IRanWt=     -1 IRanGd=            0 ICorTp=0 IEmpDi=  4
 NAtoms=    6 NActive=    6 NUniq=    4 SFac= 2.25D+00 NAtFMM=   60 NAOKFM=F Big=F
 Integral buffers will be    131072 words long.
 Raffenetti 2 integral format.
 Two-electron integral symmetry is turned on.
 Leave Link  301 at Tue Oct  6 15:59:36 2020, MaxMem=  2684354560 cpu:               2.3 elap:               0.6
 (Enter /udrive/faculty/rpeverati/g16/g16/l302.exe)
 NPDir=0 NMtPBC=     1 NCelOv=     1 NCel=       1 NClECP=     1 NCelD=      1
         NCelK=      1 NCelE2=     1 NClLst=     1 CellRange=     0.0.
 One-electron integrals computed using PRISM.
 One-electron integral symmetry used in STVInt
 NBasis=    52 RedAO= T EigKep=  1.98D-02  NBF=    37    15
 NBsUse=    52 1.00D-06 EigRej= -1.00D+00 NBFU=    37    15
 Precomputing XC quadrature grid using
 IXCGrd= 4 IRadAn=           5 IRanWt=          -1 IRanGd=           0 AccXCQ= 0.00D+00.
 Generated NRdTot=       0 NPtTot=           0 NUsed=           0 NTot=          32
 NSgBfM=    55    55    55    55    55 MxSgAt=     6 MxSgA2=     6.
 Leave Link  302 at Tue Oct  6 15:59:37 2020, MaxMem=  2684354560 cpu:               3.9 elap:               0.8
 (Enter /udrive/faculty/rpeverati/g16/g16/l303.exe)
 DipDrv:  MaxL=1.
 Leave Link  303 at Tue Oct  6 15:59:38 2020, MaxMem=  2684354560 cpu:               2.3 elap:               0.6
 (Enter /udrive/faculty/rpeverati/g16/g16/l401.exe)
 Initial guess from the checkpoint file:  "MN_35_fch3clcomp1_BH76_B3LYP_6-31Gs.chk"
 SCF N**3 symmetry information disabled.
 B after Tr=     0.000000   -0.000000   -0.000000
         Rot=    1.000000   -0.000000   -0.000000    0.000000 Ang=   0.00 deg.
 Guess basis will be translated and rotated to current coordinates.
 JPrj=2 DoOrth=T DoCkMO=T.
 Initial guess orbital symmetries:
       Occupied  (A1) (A1) (A1) (A1) (A1) (E) (E) (A1) (A1) (A1)
                 (E) (E) (A1) (E) (E) (A1) (E) (E)
       Virtual   (A1) (A1) (E) (E) (A1) (E) (E) (A1) (E) (E) (A1)
                 (E) (E) (A1) (E) (E) (E) (E) (A1) (A1) (E) (E)
                 (A1) (E) (E) (A1) (E) (E) (E) (E) (A1) (E) (E)
                 (A1)
 The electronic state of the initial guess is 1-A1.
 Generating alternative initial guess.
 ExpMin= 1.43D-01 ExpMax= 2.52D+04 ExpMxC= 3.78D+03 IAcc=2 IRadAn=         4 AccDes= 0.00D+00
 Harris functional with IExCor=  402 and IRadAn=       4 diagonalized for initial guess.
 HarFok:  IExCor=  402 AccDes= 0.00D+00 IRadAn=         4 IDoV= 1 UseB2=F ITyADJ=14
 ICtDFT=  3500011 ScaDFX=  1.000000  1.000000  1.000000  1.000000
 FoFCou: FMM=F IPFlag=           0 FMFlag=      100000 FMFlg1=           0
         NFxFlg=           0 DoJE=T BraDBF=F KetDBF=T FulRan=T
         wScrn=  0.000000 ICntrl=       500 IOpCl=  0 I1Cent=   200000004 NGrid=           0
         NMat0=    1 NMatS0=      1 NMatT0=    0 NMatD0=    1 NMtDS0=    0 NMtDT0=    0
 Petite list used in FoFCou.
 Harris En= -600.092814919495    
 Leave Link  401 at Tue Oct  6 15:59:39 2020, MaxMem=  2684354560 cpu:               5.8 elap:               0.9
 (Enter /udrive/faculty/rpeverati/g16/g16/l502.exe)
 Keep R1 ints in memory in symmetry-blocked form, NReq=11461374.
 FoFCou: FMM=F IPFlag=           0 FMFlag=           0 FMFlg1=           0
         NFxFlg=           0 DoJE=F BraDBF=F KetDBF=F FulRan=T
         wScrn=  0.000000 ICntrl=       600 IOpCl=  0 I1Cent=           0 NGrid=           0
         NMat0=    1 NMatS0=   1378 NMatT0=    0 NMatD0=    1 NMtDS0=    0 NMtDT0=    0
 Petite list used in FoFCou.
 Closed shell SCF:
 Using DIIS extrapolation, IDIIS=  1040.
 NGot=  2684354560 LenX=  2683850103 LenY=  2683846637
 Requested convergence on RMS density matrix=1.00D-08 within 120 cycles.
 Requested convergence on MAX density matrix=1.00D-06.
 Requested convergence on             energy=1.00D-06.
 No special actions if energy rises.
 Integral accuracy reduced to 1.0D-05 until final iterations.

 Cycle   1  Pass 0  IDiag  1:
 E= -599.916497111408    
 DIIS: error= 2.17D-03 at cycle   1 NSaved=   1.
 NSaved= 1 IEnMin= 1 EnMin= -599.916497111408     IErMin= 1 ErrMin= 2.17D-03
 ErrMax= 2.17D-03  0.00D+00 EMaxC= 1.00D-01 BMatC= 4.86D-04 BMatP= 4.86D-04
 IDIUse=3 WtCom= 9.78D-01 WtEn= 2.17D-02
 Coeff-Com:  0.100D+01
 Coeff-En:   0.100D+01
 Coeff:      0.100D+01
 Gap=     0.163 Goal=   None    Shift=    0.000
 GapD=    0.163 DampG=1.000 DampE=1.000 DampFc=1.0000 IDamp=-1.
 RMSDP=9.17D-04 MaxDP=9.47D-03              OVMax= 1.55D-02

 Cycle   2  Pass 0  IDiag  1:
 E= -599.917172819675     Delta-E=       -0.000675708266 Rises=F Damp=F
 DIIS: error= 1.63D-03 at cycle   2 NSaved=   2.
 NSaved= 2 IEnMin= 2 EnMin= -599.917172819675     IErMin= 2 ErrMin= 1.63D-03
 ErrMax= 1.63D-03  0.00D+00 EMaxC= 1.00D-01 BMatC= 1.16D-04 BMatP= 4.86D-04
 IDIUse=3 WtCom= 9.84D-01 WtEn= 1.63D-02
 Coeff-Com:  0.257D+00 0.743D+00
 Coeff-En:   0.000D+00 0.100D+01
 Coeff:      0.253D+00 0.747D+00
 Gap=     0.158 Goal=   None    Shift=    0.000
 RMSDP=3.45D-04 MaxDP=4.57D-03 DE=-6.76D-04 OVMax= 8.53D-03

 Cycle   3  Pass 0  IDiag  1:
 E= -599.917203838195     Delta-E=       -0.000031018520 Rises=F Damp=F
 DIIS: error= 1.51D-03 at cycle   3 NSaved=   3.
 NSaved= 3 IEnMin= 3 EnMin= -599.917203838195     IErMin= 3 ErrMin= 1.51D-03
 ErrMax= 1.51D-03  0.00D+00 EMaxC= 1.00D-01 BMatC= 9.09D-05 BMatP= 1.16D-04
 IDIUse=3 WtCom= 9.85D-01 WtEn= 1.51D-02
 Coeff-Com: -0.179D-01 0.469D+00 0.548D+00
 Coeff-En:   0.000D+00 0.439D+00 0.561D+00
 Coeff:     -0.176D-01 0.469D+00 0.549D+00
 Gap=     0.162 Goal=   None    Shift=    0.000
 RMSDP=2.61D-04 MaxDP=2.32D-03 DE=-3.10D-05 OVMax= 4.90D-03

 Cycle   4  Pass 0  IDiag  1:
 E= -599.917292324719     Delta-E=       -0.000088486524 Rises=F Damp=F
 DIIS: error= 5.89D-04 at cycle   4 NSaved=   4.
 NSaved= 4 IEnMin= 4 EnMin= -599.917292324719     IErMin= 4 ErrMin= 5.89D-04
 ErrMax= 5.89D-04  0.00D+00 EMaxC= 1.00D-01 BMatC= 8.23D-06 BMatP= 9.09D-05
 IDIUse=3 WtCom= 9.94D-01 WtEn= 5.89D-03
 Coeff-Com: -0.918D-02 0.300D+00 0.380D+00 0.329D+00
 Coeff-En:   0.000D+00 0.000D+00 0.000D+00 0.100D+01
 Coeff:     -0.912D-02 0.299D+00 0.377D+00 0.333D+00
 Gap=     0.161 Goal=   None    Shift=    0.000
 RMSDP=8.25D-05 MaxDP=8.36D-04 DE=-8.85D-05 OVMax= 1.81D-03

 Cycle   5  Pass 0  IDiag  1:
 E= -599.917299304019     Delta-E=       -0.000006979300 Rises=F Damp=F
 DIIS: error= 5.29D-05 at cycle   5 NSaved=   5.
 NSaved= 5 IEnMin= 5 EnMin= -599.917299304019     IErMin= 5 ErrMin= 5.29D-05
 ErrMax= 5.29D-05  0.00D+00 EMaxC= 1.00D-01 BMatC= 1.13D-07 BMatP= 8.23D-06
 IDIUse=1 WtCom= 1.00D+00 WtEn= 0.00D+00
 Coeff-Com: -0.504D-02 0.612D-01 0.977D-01 0.674D-01 0.779D+00
 Coeff:     -0.504D-02 0.612D-01 0.977D-01 0.674D-01 0.779D+00
 Gap=     0.161 Goal=   None    Shift=    0.000
 RMSDP=8.60D-06 MaxDP=1.07D-04 DE=-6.98D-06 OVMax= 1.16D-04

 Initial convergence to 1.0D-05 achieved.  Increase integral accuracy.
 Cycle   6  Pass 1  IDiag  1:
 E= -599.917304455279     Delta-E=       -0.000005151260 Rises=F Damp=F
 DIIS: error= 1.57D-05 at cycle   1 NSaved=   1.
 NSaved= 1 IEnMin= 1 EnMin= -599.917304455279     IErMin= 1 ErrMin= 1.57D-05
 ErrMax= 1.57D-05  0.00D+00 EMaxC= 1.00D-01 BMatC= 9.65D-09 BMatP= 9.65D-09
 IDIUse=1 WtCom= 1.00D+00 WtEn= 0.00D+00
 Coeff-Com:  0.100D+01
 Coeff:      0.100D+01
 Gap=     0.161 Goal=   None    Shift=    0.000
 RMSDP=8.60D-06 MaxDP=1.07D-04 DE=-5.15D-06 OVMax= 1.83D-04

 Cycle   7  Pass 1  IDiag  1:
 E= -599.917304437257     Delta-E=        0.000000018021 Rises=F Damp=F
 DIIS: error= 3.47D-05 at cycle   2 NSaved=   2.
 NSaved= 2 IEnMin= 1 EnMin= -599.917304455279     IErMin= 1 ErrMin= 1.57D-05
 ErrMax= 3.47D-05  0.00D+00 EMaxC= 1.00D-01 BMatC= 3.29D-08 BMatP= 9.65D-09
 IDIUse=1 WtCom= 1.00D+00 WtEn= 0.00D+00
 Coeff-Com:  0.657D+00 0.343D+00
 Coeff:      0.657D+00 0.343D+00
 Gap=     0.161 Goal=   None    Shift=    0.000
 RMSDP=5.50D-06 MaxDP=5.56D-05 DE= 1.80D-08 OVMax= 1.23D-04

 Cycle   8  Pass 1  IDiag  1:
 E= -599.917304465157     Delta-E=       -0.000000027900 Rises=F Damp=F
 DIIS: error= 4.06D-06 at cycle   3 NSaved=   3.
 NSaved= 3 IEnMin= 3 EnMin= -599.917304465157     IErMin= 3 ErrMin= 4.06D-06
 ErrMax= 4.06D-06  0.00D+00 EMaxC= 1.00D-01 BMatC= 7.28D-10 BMatP= 9.65D-09
 IDIUse=1 WtCom= 1.00D+00 WtEn= 0.00D+00
 Coeff-Com:  0.274D+00 0.170D+00 0.556D+00
 Coeff:      0.274D+00 0.170D+00 0.556D+00
 Gap=     0.161 Goal=   None    Shift=    0.000
 RMSDP=6.29D-07 MaxDP=5.88D-06 DE=-2.79D-08 OVMax= 1.15D-05

 Cycle   9  Pass 1  IDiag  1:
 E= -599.917304465761     Delta-E=       -0.000000000604 Rises=F Damp=F
 DIIS: error= 7.10D-07 at cycle   4 NSaved=   4.
 NSaved= 4 IEnMin= 4 EnMin= -599.917304465761     IErMin= 4 ErrMin= 7.10D-07
 ErrMax= 7.10D-07  0.00D+00 EMaxC= 1.00D-01 BMatC= 2.15D-11 BMatP= 7.28D-10
 IDIUse=1 WtCom= 1.00D+00 WtEn= 0.00D+00
 Coeff-Com:  0.909D-01 0.498D-01 0.227D+00 0.632D+00
 Coeff:      0.909D-01 0.498D-01 0.227D+00 0.632D+00
 Gap=     0.161 Goal=   None    Shift=    0.000
 RMSDP=1.25D-07 MaxDP=2.01D-06 DE=-6.04D-10 OVMax= 2.33D-06

 Cycle  10  Pass 1  IDiag  1:
 E= -599.917304465779     Delta-E=       -0.000000000018 Rises=F Damp=F
 DIIS: error= 2.30D-07 at cycle   5 NSaved=   5.
 NSaved= 5 IEnMin= 5 EnMin= -599.917304465779     IErMin= 5 ErrMin= 2.30D-07
 ErrMax= 2.30D-07  0.00D+00 EMaxC= 1.00D-01 BMatC= 3.00D-12 BMatP= 2.15D-11
 IDIUse=1 WtCom= 1.00D+00 WtEn= 0.00D+00
 Coeff-Com: -0.164D-02-0.778D-02 0.208D-01 0.290D+00 0.699D+00
 Coeff:     -0.164D-02-0.778D-02 0.208D-01 0.290D+00 0.699D+00
 Gap=     0.161 Goal=   None    Shift=    0.000
 RMSDP=6.00D-08 MaxDP=6.96D-07 DE=-1.76D-11 OVMax= 7.98D-07

 Cycle  11  Pass 1  IDiag  1:
 E= -599.917304465783     Delta-E=       -0.000000000004 Rises=F Damp=F
 DIIS: error= 7.10D-08 at cycle   6 NSaved=   6.
 NSaved= 6 IEnMin= 6 EnMin= -599.917304465783     IErMin= 6 ErrMin= 7.10D-08
 ErrMax= 7.10D-08  0.00D+00 EMaxC= 1.00D-01 BMatC= 1.61D-13 BMatP= 3.00D-12
 IDIUse=1 WtCom= 1.00D+00 WtEn= 0.00D+00
 Coeff-Com: -0.667D-02-0.688D-02-0.624D-02 0.939D-01 0.332D+00 0.594D+00
 Coeff:     -0.667D-02-0.688D-02-0.624D-02 0.939D-01 0.332D+00 0.594D+00
 Gap=     0.161 Goal=   None    Shift=    0.000
 RMSDP=1.02D-08 MaxDP=1.14D-07 DE=-4.32D-12 OVMax= 1.18D-07

 Cycle  12  Pass 1  IDiag  1:
 E= -599.917304465781     Delta-E=        0.000000000002 Rises=F Damp=F
 DIIS: error= 2.43D-08 at cycle   7 NSaved=   7.
 NSaved= 7 IEnMin= 6 EnMin= -599.917304465783     IErMin= 7 ErrMin= 2.43D-08
 ErrMax= 2.43D-08  0.00D+00 EMaxC= 1.00D-01 BMatC= 1.73D-14 BMatP= 1.61D-13
 IDIUse=1 WtCom= 1.00D+00 WtEn= 0.00D+00
 Coeff-Com: -0.115D-02-0.467D-03-0.364D-02 0.166D-02 0.345D-01 0.134D+00
 Coeff-Com:  0.835D+00
 Coeff:     -0.115D-02-0.467D-03-0.364D-02 0.166D-02 0.345D-01 0.134D+00
 Coeff:      0.835D+00
 Gap=     0.161 Goal=   None    Shift=    0.000
 RMSDP=5.46D-09 MaxDP=5.11D-08 DE= 2.05D-12 OVMax= 1.36D-07

 SCF Done:  E(RB3LYP) =  -599.917304466     A.U. after   12 cycles
            NFock= 12  Conv=0.55D-08     -V/T= 2.0022
 KE= 5.985862591742D+02 PE=-1.605112926851D+03 EE= 3.216105373421D+02
 Leave Link  502 at Tue Oct  6 15:59:41 2020, MaxMem=  2684354560 cpu:              18.8 elap:               2.1
 (Enter /udrive/faculty/rpeverati/g16/g16/l508.exe)
 QCSCF skips out because SCF is already converged.
 Leave Link  508 at Tue Oct  6 15:59:42 2020, MaxMem=  2684354560 cpu:               0.9 elap:               0.4
 (Enter /udrive/faculty/rpeverati/g16/g16/l701.exe)
 ... and contract with generalized density number  0.
 Compute integral first derivatives.
 Leave Link  701 at Tue Oct  6 15:59:43 2020, MaxMem=  2684354560 cpu:               3.8 elap:               0.7
 (Enter /udrive/faculty/rpeverati/g16/g16/l702.exe)
 L702 exits ... SP integral derivatives will be done elsewhere.
 Leave Link  702 at Tue Oct  6 15:59:44 2020, MaxMem=  2684354560 cpu:               1.4 elap:               0.6
 (Enter /udrive/faculty/rpeverati/g16/g16/l703.exe)
 Integral derivatives from FoFJK, PRISM(SPDF).
 Compute integral first derivatives, UseDBF=F ICtDFT=           0.
 Calling FoFJK, ICntrl=      2127 FMM=F ISym2X=1 I1Cent= 0 IOpClX= 0 NMat=1 NMatS=1 NMatT=0.
 FoFJK:  IHMeth= 1 ICntrl=    2127 DoSepK=F KAlg= 0 I1Cent=           0 FoldK=F
 IRaf=         0 NMat=       1 IRICut=       1 DoRegI=T DoRafI=F ISym2E= 1 IDoP0=0 IntGTp=1.
 FoFCou: FMM=F IPFlag=           0 FMFlag=      100000 FMFlg1=         800
         NFxFlg=           0 DoJE=F BraDBF=F KetDBF=F FulRan=T
         wScrn=  0.000000 ICntrl=      2127 IOpCl=  0 I1Cent=           0 NGrid=           0
         NMat0=    1 NMatS0=      1 NMatT0=    0 NMatD0=    1 NMtDS0=    0 NMtDT0=    0
 Petite list used in FoFCou.
 Leave Link  703 at Tue Oct  6 15:59:45 2020, MaxMem=  2684354560 cpu:               7.1 elap:               1.0
 (Enter /udrive/faculty/rpeverati/g16/g16/l716.exe)
 Dipole        = 2.22044605D-16-4.44089210D-16 2.34497333D+00
 ***** Axes restored to original set *****
 -------------------------------------------------------------------
 Center     Atomic                   Forces (Hartrees/Bohr)
 Number     Number              X              Y              Z
 -------------------------------------------------------------------
      1       17          -0.000000000    0.000000000    0.010234153
      2        6           0.000000000   -0.000000000   -0.020498231
      3        1          -0.000280646   -0.000486093    0.000061423
      4        1          -0.000280646    0.000486093    0.000061423
      5        1           0.000561292   -0.000000000    0.000061423
      6        9           0.000000000   -0.000000000    0.010079810
 -------------------------------------------------------------------
 Cartesian Forces:  Max     0.020498231 RMS     0.005904209
 Leave Link  716 at Tue Oct  6 15:59:46 2020, MaxMem=  2684354560 cpu:               1.2 elap:               0.6
 (Enter /udrive/faculty/rpeverati/g16/g16/l103.exe)

 GradGradGradGradGradGradGradGradGradGradGradGradGradGradGradGradGradGrad
 Berny optimization.
 Optmz: redundant internal coordinate code flag= 1
 Using GEDIIS/GDIIS optimizer.
 Red2BG:  D1=  3.84D-01 OD1=  3.60D-02 B2RMS=  0.00D+00 IAprox=0
 FormGI is forming the generalized inverse of G from B-inverse, IUseBI=4.
 Internal  Forces:  Max     0.010234153 RMS     0.002589573
 Search for a local minimum.
 Step number   2 out of a maximum of  100
 All quantities printed in internal units (Hartrees-Bohrs-Radians)
 RMS Force = .25896D-02 SwitMx=.10000D-02 MixMth= 1
 Mixed Optimization -- RFO/linear search
 Update second derivatives using D2CorX and points    1    2
 DE= -2.81D-03 DEPred=-2.01D-03 R= 1.40D+00
 TightC=F SS=  1.41D+00  RLast= 1.94D-01 DXNew= 5.0454D-01 5.8096D-01
 Trust test= 1.40D+00 RLast= 1.94D-01 DXMaxT set to 5.05D-01
 The second derivative matrix:
                          R1        R2        R3        R4        R5
           R1           0.17213
           R2           0.00163   0.36452
           R3           0.00275   0.00160   0.36491
           R4           0.00146   0.00138   0.00157   0.36446
           R5           0.03741   0.00529   0.00548   0.00526   0.03788
           R6           0.00760   0.00052   0.00047   0.00053  -0.00204
           R7           0.00751   0.00050   0.00046   0.00051  -0.00206
           R8           0.00654   0.00034   0.00029   0.00035  -0.00222
           A1           0.00331   0.00115   0.00127   0.00113   0.00319
           A2           0.00336   0.00116   0.00128   0.00114   0.00320
           A3           0.00352   0.00119   0.00131   0.00117   0.00323
           A4           0.00454   0.00020   0.00016   0.00021  -0.00170
           A5          -0.00708  -0.00175  -0.00190  -0.00173  -0.00369
           A6          -0.00720  -0.00177  -0.00192  -0.00175  -0.00371
           A7          -0.00830  -0.00043  -0.00036  -0.00044   0.00282
           A8          -0.01170  -0.00100  -0.00097  -0.00101   0.00224
           A9          -0.01150  -0.00097  -0.00093  -0.00098   0.00227
           A10          0.00013   0.00002   0.00002   0.00002   0.00002
           A11          0.00014   0.00002   0.00002   0.00002   0.00002
           D1          -0.02881  -0.00488  -0.00515  -0.00484  -0.00510
           D2          -0.00396  -0.00066  -0.00070  -0.00066  -0.00067
           D3          -0.00299  -0.00050  -0.00053  -0.00050  -0.00052
           D4           0.00289   0.00049   0.00051   0.00048   0.00050
                          R6        R7        R8        A1        A2
           R6           0.02285
           R7          -0.00070   0.02286
           R8          -0.00066  -0.00065   0.02294
           A1           0.00017   0.00016   0.00006   0.16087
           A2           0.00017   0.00016   0.00006   0.00087   0.16088
           A3           0.00016   0.00015   0.00005   0.00089   0.00090
           A4          -0.00047  -0.00047  -0.00043   0.00001   0.00001
           A5          -0.00000   0.00001   0.00014  -0.00125  -0.00125
           A6           0.00000   0.00002   0.00015  -0.00126  -0.00127
           A7           0.00083   0.00083   0.00077  -0.00007  -0.00007
           A8           0.00097   0.00097   0.00094  -0.00044  -0.00044
           A9           0.00097   0.00096   0.00093  -0.00042  -0.00042
           A10         -0.00001  -0.00001  -0.00001   0.00001   0.00001
           A11         -0.00001  -0.00001  -0.00001   0.00001   0.00001
           D1           0.00115   0.00118   0.00141  -0.00315  -0.00316
           D2           0.00016   0.00017   0.00020  -0.00043  -0.00043
           D3           0.00012   0.00012   0.00015  -0.00032  -0.00033
           D4          -0.00012  -0.00012  -0.00014   0.00031   0.00031
                          A3        A4        A5        A6        A7
           A3           0.16091
           A4           0.00000   0.15969
           A5          -0.00127   0.00015   0.16171
           A6          -0.00129   0.00015   0.00172   0.16174
           A7          -0.00006   0.00055  -0.00018  -0.00019   0.15903
           A8          -0.00043   0.00068   0.00028   0.00027  -0.00119
           A9          -0.00041   0.00067   0.00025   0.00025  -0.00118
           A10          0.00001  -0.00000  -0.00002  -0.00002   0.00001
           A11          0.00002  -0.00001  -0.00002  -0.00002   0.00001
           D1          -0.00320   0.00112   0.00392   0.00395  -0.00179
           D2          -0.00043   0.00016   0.00053   0.00053  -0.00025
           D3          -0.00033   0.00012   0.00040   0.00041  -0.00019
           D4           0.00032  -0.00011  -0.00039  -0.00039   0.00018
                          A8        A9        A10       A11       D1
           A8           0.15869
           A9          -0.00130   0.15871
           A10          0.00000   0.00000   0.00230
           A11          0.00000   0.00001   0.00000   0.00230
           D1          -0.00097  -0.00102  -0.00003  -0.00003   0.01113
           D2          -0.00014  -0.00015  -0.00000  -0.00000   0.00095
           D3          -0.00010  -0.00011  -0.00000  -0.00000   0.00073
           D4           0.00010   0.00010   0.00000   0.00000  -0.00070
                          D2        D3        D4
           D2           0.00243
           D3           0.00010   0.00237
           D4          -0.00009  -0.00007   0.00237
 ITU=  1  0
 Use linear search instead of GDIIS.
 Eigenvectors of the second derivative matrix:
                           1         2         3         4         5
     Eigenvalues --     0.01757   0.02068   0.02087   0.06699   0.10051
   1         R1         0.21240   0.00003  -0.00053  -0.26064  -0.02195
   2         R2         0.00117   0.00076   0.00306  -0.01860  -0.00161
   3         R3         0.00133  -0.00402   0.00028  -0.01028  -0.01364
   4         R4         0.00146   0.00319  -0.00319  -0.02729   0.01065
   5         R5        -0.52663  -0.00032   0.00153   0.28914   0.01616
   6         R6        -0.46525   0.17644   0.71610  -0.16856  -0.00838
   7         R7        -0.46695  -0.70395  -0.20133  -0.16274  -0.21286
   8         R8        -0.46914   0.52519  -0.50949  -0.15286   0.19110
   9         A1        -0.00338   0.00866   0.03422   0.20391   0.00296
  10         A2        -0.00344  -0.03672  -0.00908   0.20535   0.56552
  11         A3        -0.00353   0.02876  -0.02570   0.21168  -0.53235
  12         A4         0.00309  -0.00895   0.00672  -0.40884   0.03305
  13         A5         0.00340   0.00917   0.00212  -0.09125  -0.06701
  14         A6         0.00337  -0.00088  -0.00831  -0.09151  -0.00046
  15         A7         0.08619   0.04484  -0.04429  -0.09045   0.02638
  16         A8         0.08651  -0.06049  -0.01823  -0.00551  -0.03365
  17         A9         0.08668   0.01585   0.06177  -0.00446   0.00126
  18         A10        0.00100   0.09585   0.38681  -0.00662  -0.00825
  19         A11        0.00072  -0.40831   0.10242  -0.00747   0.54710
  20         D1         0.00866  -0.00565   0.00426  -0.64904  -0.00485
  21         D2         0.01173  -0.05391   0.08737   0.12854  -0.05514
  22         D3        -0.01129  -0.08922  -0.05126   0.07238  -0.06191
  23         D4         0.01100  -0.04829  -0.09238  -0.07247  -0.01172
                           6         7         8         9        10
     Eigenvalues --     0.10339   0.11529   0.11863   0.19436   0.33198
   1         R1         0.02124  -0.26444  -0.00872   0.90326   0.00103
   2         R2         0.00701  -0.00652  -0.02023  -0.00606  -0.20406
   3         R3         0.00400  -0.05843   0.01805  -0.03310   0.03796
   4         R4        -0.00651   0.01413   0.00061  -0.00371   0.91812
   5         R5        -0.01497   0.15257   0.00472   0.25236   0.00729
   6         R6         0.21795  -0.05271  -0.08483   0.03973   0.00940
   7         R7        -0.09021  -0.08228   0.07900   0.03604   0.01794
   8         R8        -0.09929  -0.17290  -0.00385   0.02200   0.02726
   9         A1        -0.65240   0.05842   0.08725   0.09282  -0.00359
  10         A2         0.30149   0.09367  -0.07647   0.09280   0.00218
  11         A3         0.31719   0.20006   0.00019   0.09991   0.03288
  12         A4        -0.03406   0.47950   0.01593   0.02254  -0.02790
  13         A5        -0.03177  -0.39483  -0.59178  -0.14927   0.01361
  14         A6         0.09796  -0.42019   0.56539  -0.14530  -0.01569
  15         A7        -0.01900   0.13407   0.00457  -0.00835  -0.04335
  16         A8        -0.01962  -0.08887  -0.16207  -0.04949   0.14247
  17         A9         0.04426  -0.10363   0.15570  -0.05342   0.18159
  18         A10       -0.53861  -0.03500   0.04459   0.00063   0.01102
  19         A11       -0.00723  -0.03463  -0.02243   0.00105   0.01317
  20         D1         0.00266   0.04389   0.00194  -0.17651  -0.03705
  21         D2         0.04974  -0.37125  -0.00967  -0.07847   0.05466
  22         D3        -0.04553  -0.17799  -0.35905  -0.03228  -0.16655
  23         D4        -0.08611   0.19658  -0.34655   0.03310   0.15135
                          11        12
     Eigenvalues --     0.34101   0.34274
   1         R1         0.00634  -0.01013
   2         R2         0.71460   0.59536
   3         R3         0.59691  -0.73481
   4         R4         0.11299   0.15971
   5         R5         0.02009  -0.01924
   6         R6         0.03079   0.03166
   7         R7         0.02706  -0.01085
   8         R8         0.01972  -0.00430
   9         A1         0.03417   0.00313
  10         A2         0.03132  -0.03365
  11         A3         0.01524  -0.00197
  12         A4         0.01131  -0.07599
  13         A5        -0.05120  -0.02650
  14         A6        -0.03702   0.13346
  15         A7         0.25869  -0.05097
  16         A8         0.14558   0.14020
  17         A9         0.12650  -0.07548
  18         A10       -0.00582  -0.01124
  19         A11       -0.00707   0.01398
  20         D1        -0.04705  -0.02244
  21         D2        -0.01491  -0.14330
  22         D3         0.05177   0.03456
  23         D4        -0.04426   0.05035
 Iter=   1 RLamda= 0.00000000D+00 Sum=-4.58203222D-03.
 Iter=   2 RLamda=-4.58203222D-03 Sum=-3.91749573D-03.
 Iter=   3 RLamda=-3.91749573D-03 Sum=-3.99764712D-03.
 Iter=   4 RLamda=-3.99764712D-03 Sum=-3.98774101D-03.
 Iter=   5 RLamda=-3.98774101D-03 Sum=-3.98896169D-03.
 Iter=   6 RLamda=-3.98896169D-03 Sum=-3.98881122D-03.
 Iter=   7 RLamda=-3.98881122D-03 Sum=-3.98882977D-03.
 Iter=   8 RLamda=-3.98882977D-03 Sum=-3.98882748D-03.
 RFO step:  Lambda=-3.98882977D-03 EMin= 1.75718241D-02
 Quartic linear search produced a step of  1.27617.
 Iteration  1 RMS(Cart)=  0.04820429 RMS(Int)=  0.02455508
 Iteration  2 RMS(Cart)=  0.01249424 RMS(Int)=  0.00112548
 Iteration  3 RMS(Cart)=  0.00004184 RMS(Int)=  0.00112437
 Iteration  4 RMS(Cart)=  0.00000001 RMS(Int)=  0.00112437
 ITry= 1 IFail=0 DXMaxC= 2.08D-01 DCOld= 1.00D+10 DXMaxT= 5.05D-01 DXLimC= 3.00D+00 Rises=F
 ClnCor:  largest displacement from symmetrization is 1.90D-03 for atom     3.
 Variable       Old X    -DE/DX   Delta X   Delta X   Delta X     New X
                                 (Linear)    (Quad)   (Total)
    R1        3.61047   0.01023   0.14489   0.04286   0.18774   3.79821
    R2        2.04357   0.00052   0.00968  -0.00574   0.00251   2.04607
    R3        2.04357   0.00038   0.00968  -0.00573   0.00251   2.04607
    R4        2.04357   0.00044   0.00968  -0.00579   0.00251   2.04607
    R5        4.66065  -0.00468  -0.08596  -0.22182  -0.30833   4.35232
    R6        4.46533  -0.00189  -0.09957  -0.13947  -0.23846   4.22687
    R7        4.46533  -0.00187  -0.09957  -0.13948  -0.23846   4.22687
    R8        4.46533  -0.00178  -0.09957  -0.13903  -0.23846   4.22687
    A1        1.88895  -0.00113   0.01150  -0.03021  -0.01819   1.87076
    A2        1.88895  -0.00114   0.01150  -0.03020  -0.01819   1.87076
    A3        1.88895  -0.00115   0.01150  -0.03021  -0.01819   1.87076
    A4        1.93181   0.00042  -0.01084   0.02640   0.01695   1.94877
    A5        1.93181   0.00141  -0.01084   0.02997   0.01695   1.94877
    A6        1.93181   0.00143  -0.01084   0.02997   0.01695   1.94877
    A7        0.77192   0.00064   0.01859   0.03052   0.05219   0.82411
    A8        0.77192   0.00092   0.01859   0.03147   0.05219   0.82411
    A9        0.77192   0.00090   0.01859   0.03147   0.05219   0.82411
   A10        3.14159  -0.00001   0.00000  -0.00007   0.00000   3.14159
   A11        3.14159  -0.00001   0.00000  -0.00013   0.00000   3.14159
    D1        2.14854   0.00251  -0.02949   0.07546   0.04698   2.19552
    D2        0.57008   0.00050   0.00239   0.00551   0.00711   0.57719
    D3       -0.57008   0.00011  -0.00239  -0.00332  -0.00711  -0.57719
    D4        0.57008  -0.00009   0.00239   0.00331   0.00711   0.57719
         Item               Value     Threshold  Converged?
 Maximum Force            0.010234     0.000450     NO 
 RMS     Force            0.002590     0.000300     NO 
 Maximum Displacement     0.208227     0.001800     NO 
 RMS     Displacement     0.056901     0.001200     NO 
 Predicted change in Energy=-1.882930D-03
 Lowest energy point so far.  Saving SCF results.
 Largest change from initial coordinates is atom    6       0.108 Angstoms.
 GradGradGradGradGradGradGradGradGradGradGradGradGradGradGradGradGradGrad

 Leave Link  103 at Tue Oct  6 15:59:47 2020, MaxMem=  2684354560 cpu:               1.9 elap:               0.4
 (Enter /udrive/faculty/rpeverati/g16/g16/l202.exe)
                          Input orientation:                          
 ---------------------------------------------------------------------
 Center     Atomic      Atomic             Coordinates (Angstroms)
 Number     Number       Type             X           Y           Z
 ---------------------------------------------------------------------
      1         17           0        0.000000    0.000000    2.218712
      2          6           0        0.000000    0.000000    0.208787
      3          1           0       -0.517195   -0.895807   -0.111142
      4          1           0       -0.517195    0.895807   -0.111142
      5          1           0        1.034389   -0.000000   -0.111142
      6          9           0        0.000000    0.000000   -2.094360
 ---------------------------------------------------------------------
                    Distance matrix (angstroms):
                    1          2          3          4          5
     1  Cl   0.000000
     2  C    2.009925   0.000000
     3  H    2.549153   1.082735   0.000000
     4  H    2.549153   1.082735   1.791615   0.000000
     5  H    2.549153   1.082735   1.791615   1.791615   0.000000
     6  F    4.313072   2.303147   2.236764   2.236764   2.236764
                    6
     6  F    0.000000
 Stoichiometry    CH3ClF(1-)
 Framework group  C3V[C3(FCCl),3SGV(H)]
 Deg. of freedom     4
 Full point group                 C3V     NOp   6
 RotChk:  IX=0 Diff= 0.00D+00
 Largest Abelian subgroup         CS      NOp   2
 Largest concise Abelian subgroup CS      NOp   2
                         Standard orientation:                         
 ---------------------------------------------------------------------
 Center     Atomic      Atomic             Coordinates (Angstroms)
 Number     Number       Type             X           Y           Z
 ---------------------------------------------------------------------
      1         17           0        0.000000    0.000000    1.653336
      2          6           0        0.000000    0.000000   -0.356589
      3          1           0        0.000000    1.034389   -0.676518
      4          1           0        0.895807   -0.517195   -0.676518
      5          1           0       -0.895807   -0.517195   -0.676518
      6          9           0        0.000000    0.000000   -2.659736
 ---------------------------------------------------------------------
 Rotational constants (GHZ):         156.2221908           2.1551319           2.1551319
 Leave Link  202 at Tue Oct  6 15:59:47 2020, MaxMem=  2684354560 cpu:               0.9 elap:               0.5
 (Enter /udrive/faculty/rpeverati/g16/g16/l301.exe)
 Standard basis: 6-31G(d) (5D, 7F)
 Ernie: Thresh=  0.10000D-02 Tol=  0.10000D-05 Strict=F.
 There are    40 symmetry adapted cartesian basis functions of A'  symmetry.
 There are    15 symmetry adapted cartesian basis functions of A"  symmetry.
 There are    37 symmetry adapted basis functions of A'  symmetry.
 There are    15 symmetry adapted basis functions of A"  symmetry.
[...]
           D4           0.00014   0.00015  -0.00001  -0.00005   0.00123
                          D2        D3        D4
           D2           0.00303
           D3           0.00010   0.00246
           D4          -0.00012  -0.00016   0.00247
 ITU=  0  1  1  1  1  1  1  0  0  0  1  1  0  1  1  0
 Eigenvectors of the second derivative matrix:
                           1         2         3         4         5
     Eigenvalues --     0.00848   0.01526   0.01800   0.04484   0.09790
   1         R1         0.99909   0.00012  -0.00009  -0.01450  -0.01327
   2         R2         0.00651  -0.00268   0.00448   0.03981  -0.02498
   3         R3         0.00651  -0.00809  -0.00277   0.04078  -0.01971
   4         R4         0.00652   0.00820  -0.00198   0.03307  -0.02411
   5         R5        -0.02655  -0.00019   0.00039   0.02605  -0.19478
   6         R6        -0.00689   0.12134  -0.64271   0.34698  -0.19322
   7         R7        -0.00671   0.43780   0.44415   0.35390  -0.25632
   8         R8        -0.00721  -0.57182   0.20490   0.29301  -0.12069
   9         A1        -0.00834   0.00862  -0.04017  -0.20682   0.04887
  10         A2        -0.00834   0.02736   0.02620  -0.20407   0.35630
  11         A3        -0.00835  -0.02830   0.00980  -0.22005  -0.39670
  12         A4        -0.00851   0.04196  -0.00733  -0.30339  -0.36362
  13         A5        -0.00846  -0.02446  -0.02441  -0.16910   0.19781
  14         A6        -0.00846  -0.00969   0.02750  -0.16873   0.17441
  15         A7         0.00179  -0.05710   0.02237  -0.17134  -0.07919
  16         A8         0.00187   0.04846   0.04621  -0.11974   0.09488
  17         A9         0.00185   0.01324  -0.07173  -0.12024   0.09589
  18         A10        0.00004   0.10151  -0.52618   0.01418   0.04486
  19         A11        0.00024   0.50601   0.12080   0.03520   0.39823
  20         D1         0.02018  -0.03075   0.00705   0.56407   0.22189
  21         D2         0.00020  -0.25060  -0.13005   0.02611   0.27996
  22         D3        -0.00041  -0.27363   0.00640   0.03740   0.15505
  23         D4         0.00038   0.22731  -0.16611  -0.03843  -0.13229
                           6         7         8         9        10
     Eigenvalues --     0.10730   0.10813   0.11716   0.13663   0.28494
   1         R1        -0.00967   0.01616   0.00231   0.02871  -0.00066
   2         R2        -0.06814  -0.01703   0.02752   0.03515  -0.25632
   3         R3         0.05363  -0.00702  -0.01902   0.10428  -0.34166
   4         R4        -0.03100   0.09328   0.00233  -0.03516   0.73812
   5         R5        -0.14521   0.24132   0.03624   0.48767   0.00230
   6         R6        -0.31981   0.01850   0.13509   0.23664  -0.07405
   7         R7         0.13120   0.08959  -0.08056   0.34717  -0.09697
   8         R8        -0.15840   0.44846   0.01787   0.08331   0.20638
   9         A1         0.48130   0.41817  -0.15062   0.15631  -0.04642
  10         A2        -0.51789   0.14042   0.14768   0.10076  -0.07127
  11         A3        -0.01249  -0.46555   0.02556   0.25447   0.17613
  12         A4        -0.17218   0.27215   0.02023  -0.22613  -0.11729
  13         A5        -0.08704  -0.11668  -0.54576   0.38888   0.08645
  14         A6         0.20934  -0.06091   0.54851   0.35711   0.09023
  15         A7        -0.03894   0.07407   0.00216  -0.11684  -0.15789
  16         A8         0.00619  -0.07972  -0.19838   0.09342   0.12514
  17         A9         0.08013  -0.06711   0.19125   0.08499   0.10943
  18         A10        0.37463   0.28464  -0.08849  -0.00371   0.04370
  19         A11       -0.20652   0.24184   0.03709  -0.02178   0.08904
  20         D1         0.13660  -0.22509  -0.02606  -0.16270   0.03849
  21         D2         0.04482  -0.11290   0.01725   0.23908  -0.03406
  22         D3        -0.08413  -0.02263  -0.35372   0.10837  -0.20375
  23         D4        -0.16119  -0.02213  -0.34204  -0.09924   0.20268
                          11        12
     Eigenvalues --     0.31123   0.32042
   1         R1         0.00739  -0.01391
   2         R2         0.37578   0.76663
   3         R3        -0.77127   0.21642
   4         R4        -0.23802   0.35332
   5         R5         0.14980  -0.27533
   6         R6         0.05993   0.12261
   7         R7        -0.14300   0.03966
   8         R8        -0.03552   0.06261
   9         A1         0.15733   0.10491
  10         A2        -0.13810  -0.04052
  11         A3        -0.00130  -0.00370
  12         A4        -0.07696  -0.01103
  13         A5         0.02461   0.02563
  14         A6         0.07056   0.04708
  15         A7        -0.10792   0.20458
  16         A8         0.03740   0.24607
  17         A9        -0.18833   0.13582
  18         A10       -0.11114  -0.06405
  19         A11        0.05454   0.01509
  20         D1         0.03738  -0.02916
  21         D2        -0.18035  -0.04139
  22         D3         0.04372   0.01111
  23         D4        -0.06692  -0.02351
 DoSqrt=T IScMMF=    -3 MM Scaling Factor =       0.00000
 En-DIIS/RFO-DIIS/Sim-DIIS IScMMF=       -3 using points:    16   15   14   13   12
 Iter=   1 RLamda=-4.15247358D-02 Sum=-4.74764267D-11.
 Iter=   2 RLamda=-4.74764267D-11 Sum=-1.31213386D-10.
 RFO step:  Lambda=-4.74764267D-11.
 NNeg= 0 NGDIIS= 5 SimSw=  2.50D-01 Rises=F DC= -2.93D-08 SmlDif=  1.00D-05
 NRisDI= 0 DoIntr=F SqrtH=F CThrHd= 10.0 CDAdj=  3.0
 RMS Error=  0.2163378354D-04 NUsed= 5 OKEnD=F EnDIS=F
 Total RFO-DIIS matrix:
                 1             2             3             4             5 
      1   0.000000D+00 -0.100000D+01 -0.100000D+01 -0.100000D+01 -0.100000D+01
      2  -0.100000D+01  0.107645D-07 -0.266498D-06 -0.163580D-05 -0.844907D-05
      3  -0.100000D+01 -0.266498D-06  0.670965D-05  0.408384D-04  0.210173D-03
      4  -0.100000D+01 -0.163580D-05  0.408384D-04  0.250126D-03  0.129300D-02
      5  -0.100000D+01 -0.844907D-05  0.210173D-03  0.129300D-02  0.671655D-02
      6  -0.100000D+01 -0.315779D-04  0.793319D-03  0.484303D-02  0.250031D-01
                 6 
      1  -0.100000D+01
      2  -0.315779D-04
      3   0.793319D-03
      4   0.484303D-02
      5   0.250031D-01
      6   0.939983D-01
 InvSVX:  RCond= 8.47D-11 Info=           0 Equed=N FErr=  1.06D-11 BErr=  1.57D-16
 DIIS inversion failure, remove point   5.
 InvSVX:  RCond= 1.67D-09 Info=           0 Equed=N FErr=  3.95D-13 BErr=  7.99D-17
 DIIS inversion failure, remove point   4.
 InvSVX:  RCond= 6.83D-09 Info=           0 Equed=N FErr=  2.10D-14 BErr=  7.49D-17
 DIIS inversion failure, remove point   3.
 InvSVX:  RCond= 8.16D-06 Info=           0 Equed=N FErr=  9.22D-16 BErr=  0.00D+00
 RFO-DIIS uses    2 points instead of    5
 DidBck=F Rises=F RFO-DIIS coefs:    0.96177    0.03823    0.00000    0.00000    0.00000
 Iteration  1 RMS(Cart)=  0.00002037 RMS(Int)=  0.00000000
 Iteration  2 RMS(Cart)=  0.00000000 RMS(Int)=  0.00000000
 ITry= 1 IFail=0 DXMaxC= 8.87D-05 DCOld= 1.00D+10 DXMaxT= 1.43D+00 DXLimC= 3.00D+00 Rises=F
 ClnCor:  largest displacement from symmetrization is 1.02D-07 for atom     5.
 Variable       Old X    -DE/DX   Delta X   Delta X   Delta X     New X
                                 (Linear)    (Quad)   (Total)
    R1        6.12217  -0.00000  -0.00010   0.00000  -0.00010   6.12207
    R2        2.06288  -0.00000  -0.00000  -0.00000  -0.00000   2.06287
    R3        2.06288  -0.00000  -0.00000  -0.00000  -0.00000   2.06287
    R4        2.06288  -0.00000  -0.00000  -0.00000  -0.00000   2.06287
    R5        2.66578  -0.00000   0.00000  -0.00001  -0.00001   2.66578
    R6        3.88692  -0.00000   0.00000  -0.00000  -0.00000   3.88692
    R7        3.88692  -0.00000   0.00000  -0.00000  -0.00000   3.88692
    R8        3.88692  -0.00000   0.00000  -0.00000  -0.00000   3.88692
    A1        1.22321  -0.00000  -0.00000  -0.00000  -0.00000   1.22321
    A2        1.22321  -0.00000  -0.00000  -0.00000  -0.00000   1.22321
    A3        1.22321  -0.00000  -0.00000  -0.00000  -0.00000   1.22321
    A4        1.90283  -0.00000  -0.00000  -0.00000  -0.00000   1.90282
    A5        1.90283  -0.00000  -0.00000  -0.00000  -0.00000   1.90282
    A6        1.90283  -0.00000  -0.00000  -0.00000  -0.00000   1.90282
    A7        0.89371  -0.00000  -0.00000  -0.00000  -0.00000   0.89371
    A8        0.89371  -0.00000  -0.00000  -0.00000  -0.00000   0.89371
    A9        0.89371  -0.00000  -0.00000  -0.00000  -0.00000   0.89371
   A10        3.14159   0.00000   0.00000   0.00000   0.00000   3.14159
   A11        3.14159  -0.00000   0.00000   0.00000   0.00000   3.14159
    D1       -2.07555   0.00000   0.00000   0.00000   0.00001  -2.07555
    D2        0.58769  -0.00000  -0.00000  -0.00000  -0.00000   0.58769
    D3       -0.58769  -0.00000   0.00000   0.00000   0.00000  -0.58769
    D4        0.58769   0.00000  -0.00000  -0.00000  -0.00000   0.58769
         Item               Value     Threshold  Converged?
 Maximum Force            0.000001     0.000450     YES
 RMS     Force            0.000001     0.000300     YES
 Maximum Displacement     0.000089     0.001800     YES
 RMS     Displacement     0.000020     0.001200     YES
 Predicted change in Energy=-6.560429D-11
 Optimization completed.
    -- Stationary point found.
                           ----------------------------
                           !   Optimized Parameters   !
                           ! (Angstroms and Degrees)  !
 --------------------------                            --------------------------
 ! Name  Definition              Value          Derivative Info.                !
 --------------------------------------------------------------------------------
 ! R1    R(1,2)                  3.2397         -DE/DX =    0.0                 !
 ! R2    R(2,3)                  1.0916         -DE/DX =    0.0                 !
 ! R3    R(2,4)                  1.0916         -DE/DX =    0.0                 !
 ! R4    R(2,5)                  1.0916         -DE/DX =    0.0                 !
 ! R5    R(2,6)                  1.4107         -DE/DX =    0.0                 !
 ! R6    R(3,6)                  2.0569         -DE/DX =    0.0                 !
 ! R7    R(4,6)                  2.0569         -DE/DX =    0.0                 !
 ! R8    R(5,6)                  2.0569         -DE/DX =    0.0                 !
 ! A1    A(1,2,3)               70.0851         -DE/DX =    0.0                 !
 ! A2    A(1,2,4)               70.0851         -DE/DX =    0.0                 !
 ! A3    A(1,2,5)               70.0851         -DE/DX =    0.0                 !
 ! A4    A(3,2,4)              109.0239         -DE/DX =    0.0                 !
 ! A5    A(3,2,5)              109.0239         -DE/DX =    0.0                 !
 ! A6    A(4,2,5)              109.0239         -DE/DX =    0.0                 !
 ! A7    A(3,6,4)               51.206          -DE/DX =    0.0                 !
 ! A8    A(3,6,5)               51.206          -DE/DX =    0.0                 !
 ! A9    A(4,6,5)               51.206          -DE/DX =    0.0                 !
 ! A10   L(1,2,6,3,-1)         180.0            -DE/DX =    0.0                 !
 ! A11   L(1,2,6,3,-2)         180.0            -DE/DX =    0.0                 !
 ! D1    D(3,2,5,4)           -118.9205         -DE/DX =    0.0                 !
 ! D2    D(4,3,6,2)             33.6722         -DE/DX =    0.0                 !
 ! D3    D(5,3,6,2)            -33.6722         -DE/DX =    0.0                 !
 ! D4    D(5,4,6,2)             33.6722         -DE/DX =    0.0                 !
 --------------------------------------------------------------------------------
 Lowest energy point so far.  Saving SCF results.
 Largest change from initial coordinates is atom    2       0.076 Angstoms.
 GradGradGradGradGradGradGradGradGradGradGradGradGradGradGradGradGradGrad

 Leave Link  103 at Tue Oct  6 16:03:01 2020, MaxMem=  2684354560 cpu:               3.1 elap:               0.8
 (Enter /udrive/faculty/rpeverati/g16/g16/l202.exe)
                          Input orientation:                          
 ---------------------------------------------------------------------
 Center     Atomic      Atomic             Coordinates (Angstroms)
 Number     Number       Type             X           Y           Z
 ---------------------------------------------------------------------
      1         17           0        0.000000    0.000000    2.749097
      2          6           0        0.000000    0.000000   -0.490618
      3          1           0       -0.513173   -0.888842   -0.118783
      4          1           0       -0.513173    0.888842   -0.118783
      5          1           0        1.026347   -0.000000   -0.118783
      6          9           0        0.000000    0.000000   -1.901291
 ---------------------------------------------------------------------
                    Distance matrix (angstroms):
                    1          2          3          4          5
     1  Cl   0.000000
     2  C    3.239715   0.000000
     3  H    3.046001   1.091627   0.000000
     4  H    3.046001   1.091627   1.777684   0.000000
     5  H    3.046001   1.091627   1.777684   1.777684   0.000000
     6  F    4.650387   1.410673   2.056872   2.056872   2.056872
                    6
     6  F    0.000000
 Stoichiometry    CH3ClF(1-)
 Framework group  C3V[C3(FCCl),3SGV(H)]
 Deg. of freedom     4
 Full point group                 C3V     NOp   6
 RotChk:  IX=0 Diff= 0.00D+00
 Largest Abelian subgroup         CS      NOp   2
 Largest concise Abelian subgroup CS      NOp   2
                         Standard orientation:                         
 ---------------------------------------------------------------------
 Center     Atomic      Atomic             Coordinates (Angstroms)
 Number     Number       Type             X           Y           Z
 ---------------------------------------------------------------------
      1         17           0        0.000000    0.000000    1.997012
      2          6           0        0.000000    0.000000   -1.242703
      3          1           0        0.000000    1.026347   -0.870868
      4          1           0        0.888842   -0.513173   -0.870868
      5          1           0       -0.888842   -0.513173   -0.870868
      6          9           0        0.000000    0.000000   -2.653376
 ---------------------------------------------------------------------
 Rotational constants (GHZ):         158.6802086           1.7097861           1.7097861
 Leave Link  202 at Tue Oct  6 16:03:02 2020, MaxMem=  2684354560 cpu:               1.4 elap:               0.6
 (Enter /udrive/faculty/rpeverati/g16/g16/l601.exe)
 Copying SCF densities to generalized density rwf, IOpCl= 0 IROHF=0.

 **********************************************************************

            Population analysis using the SCF density.

 **********************************************************************

 Orbital symmetries:
       Occupied  (A1) (A1) (A1) (A1) (A1) (E) (E) (A1) (A1) (A1)
                 (A1) (E) (E) (E) (E) (A1) (E) (E)
       Virtual   (A1) (A1) (E) (E) (A1) (A1) (E) (E) (E) (E) (A1)
                 (E) (E) (A1) (A1) (E) (E) (E) (E) (A1) (A1) (E)
                 (E) (E) (E) (E) (E) (A1) (A1) (E) (E) (E) (E)
                 (A1)
 The electronic state is 1-A1.
 Alpha  occ. eigenvalues -- -101.18996 -24.51111 -10.08123  -9.11713  -6.87459
 Alpha  occ. eigenvalues --   -6.87425  -6.87425  -1.01744  -0.53283  -0.45962
 Alpha  occ. eigenvalues --   -0.31793  -0.31131  -0.31131  -0.18194  -0.18194
 Alpha  occ. eigenvalues --   -0.00949  -0.00750  -0.00750
 Alpha virt. eigenvalues --    0.26520   0.30058   0.33087   0.33087   0.61817
 Alpha virt. eigenvalues --    0.69309   0.69313   0.69313   0.73326   0.73326
 Alpha virt. eigenvalues --    0.82109   1.01651   1.01651   1.10284   1.14602
 Alpha virt. eigenvalues --    1.20126   1.20126   1.20438   1.20438   1.27134
 Alpha virt. eigenvalues --    1.38980   1.40317   1.40317   1.67522   1.67522
 Alpha virt. eigenvalues --    1.98080   1.98080   2.07298   2.23081   2.33210
 Alpha virt. eigenvalues --    2.33210   2.56594   2.56594   3.14551
          Condensed to atoms (all electrons):
               1          2          3          4          5          6
     1  Cl  17.939810  -0.007612   0.007608   0.007608   0.007608   0.000284
     2  C   -0.007612   4.784591   0.369158   0.369158   0.369158   0.213774
     3  H    0.007608   0.369158   0.578404  -0.037580  -0.037580  -0.028920
     4  H    0.007608   0.369158  -0.037580   0.578404  -0.037580  -0.028920
     5  H    0.007608   0.369158  -0.037580  -0.037580   0.578404  -0.028920
     6  F    0.000284   0.213774  -0.028920  -0.028920  -0.028920   9.265892
 Mulliken charges:
               1
     1  Cl  -0.955308
     2  C   -0.098229
     3  H    0.148908
     4  H    0.148908
     5  H    0.148908
     6  F   -0.393189
 Sum of Mulliken charges =  -1.00000
 Mulliken charges with hydrogens summed into heavy atoms:
               1
     1  Cl  -0.955308
     2  C    0.348497
     6  F   -0.393189
 Electronic spatial extent (au):  <R**2>=            602.0525
 Charge=             -1.0000 electrons
 Dipole moment (field-independent basis, Debye):
    X=              0.0000    Y=             -0.0000    Z=             -6.5587  Tot=              6.5587
 Quadrupole moment (field-independent basis, Debye-Ang):
   XX=            -27.2780   YY=            -27.2780   ZZ=            -54.6210
   XY=             -0.0000   XZ=             -0.0000   YZ=              0.0000
 Traceless Quadrupole moment (field-independent basis, Debye-Ang):
   XX=              9.1143   YY=              9.1143   ZZ=            -18.2286
   XY=             -0.0000   XZ=             -0.0000   YZ=              0.0000
 Octapole moment (field-independent basis, Debye-Ang**2):
  XXX=              0.0000  YYY=              0.4933  ZZZ=            -39.5605  XYY=              0.0000
  XXY=             -0.4933  XXZ=            -10.1377  XZZ=              0.0000  YZZ=              0.0000
  YYZ=            -10.1377  XYZ=              0.0000
 Hexadecapole moment (field-independent basis, Debye-Ang**3):
 XXXX=            -35.3941 YYYY=            -35.3941 ZZZZ=           -796.1988 XXXY=              0.0000
 XXXZ=             -0.0000 YYYX=              0.0000 YYYZ=             -0.3658 ZZZX=             -0.0000
 ZZZY=             -0.0000 XXYY=            -11.7980 XXZZ=           -115.8668 YYZZ=           -115.8668
 XXYZ=              0.3658 YYXZ=             -0.0000 ZZXY=             -0.0000
 N-N= 7.975287290724D+01 E-N=-1.594005681791D+03  KE= 5.984338512115D+02
 No NMR shielding tensors so no spin-rotation constants.
 Leave Link  601 at Tue Oct  6 16:03:03 2020, MaxMem=  2684354560 cpu:               4.7 elap:               1.0
 (Enter /udrive/faculty/rpeverati/g16/g16/l9999.exe)

 Test job not archived.
 1\1\GINC-NODE56\FOpt\RB3LYP\6-31G(d)\C1H3Cl1F1(1-)\RPEVERATI\06-Oct-20
 20\0\\#P Opt(MaxCyc=100) B3LYP/6-31G* 5D 7F Integral=UltraFineGrid SCF
 =(NoSymm,XQC,MaxCyc=120) IOp(1/33=1)\\TS search on BH76.\\-1,1\Cl,0.,0
 .,2.7490969108\C,0.,0.,-0.4906179524\H,-0.5131732664,-0.8888421705,-0.
 1187828985\H,-0.5131732664,0.8888421705,-0.1187828985\H,1.0263465328,0
 .,-0.1187828985\F,0.,0.,-1.901290584\\Version=ES64L-G16RevA.03\State=1
 -A1\HF=-599.9958576\RMSD=4.404e-09\RMSF=9.403e-07\Dipole=0.,0.,-2.5803
 762\Quadrupole=6.7762752,6.7762752,-13.5525503,0.,0.,0.\PG=C03V [C3(F1
 C1Cl1),3SGV(H1)]\\@


 WHAT, THEN, IS TIME?  IF NO ONE ASKS ME, I KNOW WHAT IT IS.
 IF I WISH TO EXPLAIN WHAT IT IS TO HIM WHO ASKS ME, I DO NOT KNOW.
                                   -- ST. AUGUSTINE (FIFTH CENTURY)
 Job cpu time:       0 days  0 hours 14 minutes 32.3 seconds.
 Elapsed time:       0 days  0 hours  2 minutes 41.8 seconds.
 File lengths (MBytes):  RWF=      5 Int=      0 D2E=      0 Chk=      1 Scr=      1
 Normal termination of Gaussian 16 at Tue Oct  6 16:03:06 2020.
