 Entering Gaussian System, Link 0=g16
 Input=MN_38_fch3fcomp_BH76_B3LYP_6-31Gs.in
 Output=MN_38_fch3fcomp_BH76_B3LYP_6-31Gs.log
 Initial command:
 /udrive/faculty/rpeverati/g16/g16/l1.exe "/udrive/scratch-directories/gaussian09/rpeverati/Gau-777.inp" -scrdir="/udrive/scratch-directories/gaussian09/rpeverati/"
 Entering Link 1 = /udrive/faculty/rpeverati/g16/g16/l1.exe PID=       791.
  
 Copyright (c) 1988,1990,1992,1993,1995,1998,2003,2009,2016,
            Gaussian, Inc.  All Rights Reserved.
  
 This is part of the Gaussian(R) 16 program.  It is based on
 the Gaussian(R) 09 system (copyright 2009, Gaussian, Inc.),
 the Gaussian(R) 03 system (copyright 2003, Gaussian, Inc.),
 the Gaussian(R) 98 system (copyright 1998, Gaussian, Inc.),
 the Gaussian(R) 94 system (copyright 1995, Gaussian, Inc.),
 the Gaussian 92(TM) system (copyright 1992, Gaussian, Inc.),
 the Gaussian 90(TM) system (copyright 1990, Gaussian, Inc.),
 the Gaussian 88(TM) system (copyright 1988, Gaussian, Inc.),
 the Gaussian 86(TM) system (copyright 1986, Carnegie Mellon
 University), and the Gaussian 82(TM) system (copyright 1983,
 Carnegie Mellon University). Gaussian is a federally registered
 trademark of Gaussian, Inc.
  
 This software contains proprietary and confidential information,
 including trade secrets, belonging to Gaussian, Inc.
  
 This software is provided under written license and may be
 used, copied, transmitted, or stored only in accord with that
 written license.
  
 The following legend is applicable only to US Government
 contracts under FAR:
  
                    RESTRICTED RIGHTS LEGEND
  
 Use, reproduction and disclosure by the US Government is
 subject to restrictions as set forth in subparagraphs (a)
 and (c) of the Commercial Computer Software - Restricted
 Rights clause in FAR 52.227-19.
  
 Gaussian, Inc.
 340 Quinnipiac St., Bldg. 40, Wallingford CT 06492
  
  
 ---------------------------------------------------------------
 Warning -- This program may not be used in any manner that
 competes with the business of Gaussian, Inc. or will provide
 assistance to any competitor of Gaussian, Inc.  The licensee
 of this program is prohibited from giving any competitor of
 Gaussian, Inc. access to this program.  By using this program,
 the user acknowledges that Gaussian, Inc. is engaged in the
 business of creating and licensing software in the field of
 computational chemistry and represents and warrants to the
 licensee that it is not a competitor of Gaussian, Inc. and that
 it will not use this program in any manner prohibited above.
 ---------------------------------------------------------------
  

 Cite this work as:
 Gaussian 16, Revision A.03,
 M. J. Frisch, G. W. Trucks, H. B. Schlegel, G. E. Scuseria, 
 M. A. Robb, J. R. Cheeseman, G. Scalmani, V. Barone, 
 G. A. Petersson, H. Nakatsuji, X. Li, M. Caricato, A. V. Marenich, 
 J. Bloino, B. G. Janesko, R. Gomperts, B. Mennucci, H. P. Hratchian, 
 J. V. Ortiz, A. F. Izmaylov, J. L. Sonnenberg, D. Williams-Young, 
 F. Ding, F. Lipparini, F. Egidi, J. Goings, B. Peng, A. Petrone, 
 T. Henderson, D. Ranasinghe, V. G. Zakrzewski, J. Gao, N. Rega, 
 G. Zheng, W. Liang, M. Hada, M. Ehara, K. Toyota, R. Fukuda, 
 J. Hasegawa, M. Ishida, T. Nakajima, Y. Honda, O. Kitao, H. Nakai, 
 T. Vreven, K. Throssell, J. A. Montgomery, Jr., J. E. Peralta, 
 F. Ogliaro, M. J. Bearpark, J. J. Heyd, E. N. Brothers, K. N. Kudin, 
 V. N. Staroverov, T. A. Keith, R. Kobayashi, J. Normand, 
 K. Raghavachari, A. P. Rendell, J. C. Burant, S. S. Iyengar, 
 J. Tomasi, M. Cossi, J. M. Millam, M. Klene, C. Adamo, R. Cammi, 
 J. W. Ochterski, R. L. Martin, K. Morokuma, O. Farkas, 
 J. B. Foresman, and D. J. Fox, Gaussian, Inc., Wallingford CT, 2016.
 
 ******************************************
 Gaussian 16:  ES64L-G16RevA.03 25-Dec-2016
                 6-Oct-2020 
 ******************************************
 %NoSave
 %nproc=12
 Will use up to   12 processors via shared memory.
 %mem=20GB
 %chk=MN_38_fch3fcomp_BH76_B3LYP_6-31Gs
 ----------------------------------------------------------------------
 #P Opt(MaxCyc=100) B3LYP/6-31G* 5D 7F Integral=UltraFineGrid SCF=(NoSy
 mm,XQC,MaxCyc=120) IOp(1/33=1)
 ----------------------------------------------------------------------
 1/6=100,18=20,19=15,26=4,33=1,38=1/1,3;
 2/9=110,12=2,17=6,18=5,40=1/2;
 3/5=1,6=6,7=1,8=11,11=2,25=1,30=1,71=1,74=-5,75=-5/1,2,3;
 4/9=2/1;
 5/5=2,7=120,8=3,13=1,38=5/2,8;
 6/7=2,8=2,9=2,10=2,28=1/1;
 7//1,2,3,16;
 1/6=100,18=20,19=15,26=4,33=1/3(2);
 2/9=110/2;
 99//99;
 2/9=110/2;
 3/5=1,6=6,7=1,8=11,11=2,25=1,30=1,71=1,74=-5,75=-5/1,2,3;
 4/5=5,9=2,16=3,69=1/1;
 5/5=2,7=120,8=3,13=1,38=5/2,8;
 7//1,2,3,16;
 1/6=100,18=20,19=15,26=4,33=1/3(-5);
 2/9=110/2;
 6/7=2,8=2,9=2,10=2,19=2,28=1/1;
 99/9=1/99;
 Leave Link    1 at Tue Oct  6 15:59:22 2020, MaxMem=  2684354560 cpu:               5.9 elap:               0.6
 (Enter /udrive/faculty/rpeverati/g16/g16/l101.exe)
 ONIOM data not found on unit 2.
 ------------------
 TS search on BH76.
 ------------------
 TstMul:  ICh=    -1
 TstMul:  Mul=     1
 TstMul:  ICh=    -1
 TstMul:  Mul=     1
 Symbolic Z-matrix:
 Charge = -1 Multiplicity = 1
 F                     0.        0.       -1.79137 
 C                     0.        0.       -0.36562 
 H                    -0.51179   0.88645  -0.01759 
 H                    -0.51179  -0.88645  -0.01759 
 H                     1.02358   0.       -0.01759 
 F                     0.        0.        2.20975 
 
 RdStrC is calling ZToCFu for IStruc=1 NZ=     6.
 PrtBox:  NBox=     1 Levels=  1 BoxLen=    8.00 SMaxX=        7.56
          Shift=            0.967145            1.675144            3.385201
 Box      1 Number                   0 centers from      1 to      6:
 After GenITR:
 ITRead=  0  0  0  0  0  0
 MicOpt= -1 -1 -1 -1 -1 -1
 Add virtual bond connecting atoms F6         and C2         Dist= 4.87D+00.
 Add virtual bond connecting atoms F6         and H3         Dist= 4.63D+00.
 Add virtual bond connecting atoms F6         and H4         Dist= 4.63D+00.
 Add virtual bond connecting atoms F6         and H5         Dist= 4.63D+00.
 Add atom      6 valence  4 ND=      0 dihedral       4      3      6      2
 Add atom      6 valence  4 ND=      0 dihedral       5      3      6      2
 Add atom      6 valence  4 ND=      0 dihedral       5      4      6      2
 ITRead=  0  0  0  0  0  0
 MicOpt= -1 -1 -1 -1 -1 -1
 NAtoms=      6 NQM=        6 NQMF=       0 NMMI=      0 NMMIF=      0
                NMic=       0 NMicF=      0.
                    Isotopes and Nuclear Properties:
 (Nuclear quadrupole moments (NQMom) in fm**2, nuclear magnetic moments (NMagM)
  in nuclear magnetons)

  Atom         1           2           3           4           5           6
 IAtWgt=          19          12           1           1           1          19
 AtmWgt=  18.9984033  12.0000000   1.0078250   1.0078250   1.0078250  18.9984033
 NucSpn=           1           0           1           1           1           1
 AtZEff=   0.0000000   0.0000000   0.0000000   0.0000000   0.0000000   0.0000000
 NQMom=    0.0000000   0.0000000   0.0000000   0.0000000   0.0000000   0.0000000
 NMagM=    2.6288670   0.0000000   2.7928460   2.7928460   2.7928460   2.6288670
 AtZNuc=   9.0000000   6.0000000   1.0000000   1.0000000   1.0000000   9.0000000
 No MM parameters found.
 Leave Link  101 at Tue Oct  6 15:59:24 2020, MaxMem=  2684354560 cpu:              12.3 elap:               1.2
 (Enter /udrive/faculty/rpeverati/g16/g16/l103.exe)

 GradGradGradGradGradGradGradGradGradGradGradGradGradGradGradGradGradGrad
 Berny optimization.
 Optmz: redundant internal coordinate code flag= 1
 Initialization pass.
                           ----------------------------
                           !    Initial Parameters    !
                           ! (Angstroms and Degrees)  !
 --------------------------                            --------------------------
 ! Name  Definition              Value          Derivative Info.                !
 --------------------------------------------------------------------------------
 ! R1    R(1,2)                  1.4258         estimate D2E/DX2                !
 ! R2    R(2,3)                  1.0811         estimate D2E/DX2                !
 ! R3    R(2,4)                  1.0811         estimate D2E/DX2                !
 ! R4    R(2,5)                  1.0811         estimate D2E/DX2                !
 ! R5    R(2,6)                  2.5754         estimate D2E/DX2                !
 ! R6    R(3,6)                  2.4513         estimate D2E/DX2                !
 ! R7    R(4,6)                  2.4513         estimate D2E/DX2                !
 ! R8    R(5,6)                  2.4513         estimate D2E/DX2                !
 ! A1    A(1,2,3)              108.7787         estimate D2E/DX2                !
 ! A2    A(1,2,4)              108.7787         estimate D2E/DX2                !
 ! A3    A(1,2,5)              108.7787         estimate D2E/DX2                !
 ! A4    A(3,2,4)              110.1548         estimate D2E/DX2                !
 ! A5    A(3,2,5)              110.1548         estimate D2E/DX2                !
 ! A6    A(4,2,5)              110.1548         estimate D2E/DX2                !
 ! A7    A(3,6,4)               42.4004         estimate D2E/DX2                !
 ! A8    A(3,6,5)               42.4004         estimate D2E/DX2                !
 ! A9    A(4,6,5)               42.4004         estimate D2E/DX2                !
 ! A10   L(1,2,6,3,-1)         180.0            estimate D2E/DX2                !
 ! A11   L(1,2,6,3,-2)         180.0            estimate D2E/DX2                !
 ! D1    D(3,2,5,4)            121.7146         estimate D2E/DX2                !
 ! D2    D(4,3,6,2)             32.4318         estimate D2E/DX2                !
 ! D3    D(5,3,6,2)            -32.4318         estimate D2E/DX2                !
 ! D4    D(5,4,6,2)             32.4318         estimate D2E/DX2                !
 --------------------------------------------------------------------------------
 Maximum allowed force set to 1.00D+20.
 Trust Radius=3.00D-01 FncErr=1.00D-07 GrdErr=1.00D-06 EigMax=2.50D+02 EigMin=1.00D-04
 Number of steps in this run=    100 maximum allowed number of steps=    100.
 GradGradGradGradGradGradGradGradGradGradGradGradGradGradGradGradGradGrad

 Leave Link  103 at Tue Oct  6 15:59:24 2020, MaxMem=  2684354560 cpu:               0.8 elap:               0.3
 (Enter /udrive/faculty/rpeverati/g16/g16/l202.exe)
                          Input orientation:                          
 ---------------------------------------------------------------------
 Center     Atomic      Atomic             Coordinates (Angstroms)
 Number     Number       Type             X           Y           Z
 ---------------------------------------------------------------------
      1          9           0        0.000000    0.000000   -1.791371
      2          6           0        0.000000    0.000000   -0.365617
      3          1           0       -0.511791    0.886448   -0.017587
      4          1           0       -0.511791   -0.886448   -0.017587
      5          1           0        1.023582    0.000000   -0.017587
      6          9           0        0.000000    0.000000    2.209748
 ---------------------------------------------------------------------
                    Distance matrix (angstroms):
                    1          2          3          4          5
     1  F    0.000000
     2  C    1.425754   0.000000
     3  H    2.047934   1.081132   0.000000
     4  H    2.047934   1.081132   1.772896   0.000000
     5  H    2.047934   1.081132   1.772896   1.772896   0.000000
     6  F    4.001119   2.575365   2.451273   2.451273   2.451273
                    6
     6  F    0.000000
 Stoichiometry    CH3F2(1-)
 Framework group  C3V[C3(FCF),3SGV(H)]
 Deg. of freedom     4
 Full point group                 C3V     NOp   6
 Largest Abelian subgroup         CS      NOp   2
 Largest concise Abelian subgroup CS      NOp   2
                         Standard orientation:                         
 ---------------------------------------------------------------------
 Center     Atomic      Atomic             Coordinates (Angstroms)
 Number     Number       Type             X           Y           Z
 ---------------------------------------------------------------------
      1          9           0        0.000000    0.000000   -1.847628
      2          6           0        0.000000    0.000000   -0.421874
      3          1           0       -0.000000    1.023582   -0.073843
      4          1           0       -0.886448   -0.511791   -0.073843
      5          1           0        0.886448   -0.511791   -0.073843
      6          9           0        0.000000    0.000000    2.153492
 ---------------------------------------------------------------------
 Rotational constants (GHZ):         159.5384480           3.2253044           3.2253044
 Leave Link  202 at Tue Oct  6 15:59:25 2020, MaxMem=  2684354560 cpu:               1.2 elap:               0.4
 (Enter /udrive/faculty/rpeverati/g16/g16/l301.exe)
 Standard basis: 6-31G(d) (5D, 7F)
 Ernie: Thresh=  0.10000D-02 Tol=  0.10000D-05 Strict=F.
 There are    37 symmetry adapted cartesian basis functions of A'  symmetry.
 There are    14 symmetry adapted cartesian basis functions of A"  symmetry.
 There are    34 symmetry adapted basis functions of A'  symmetry.
 There are    14 symmetry adapted basis functions of A"  symmetry.
    48 basis functions,    96 primitive gaussians,    51 cartesian basis functions
    14 alpha electrons       14 beta electrons
       nuclear repulsion energy        64.3622347508 Hartrees.
 IExCor=  402 DFT=T Ex+Corr=B3LYP ExCW=0 ScaHFX=  0.200000
 ScaDFX=  0.800000  0.720000  1.000000  0.810000 ScalE2=  1.000000  1.000000
 IRadAn=      5 IRanWt=     -1 IRanGd=            0 ICorTp=0 IEmpDi=  4
 NAtoms=    6 NActive=    6 NUniq=    4 SFac= 2.25D+00 NAtFMM=   60 NAOKFM=F Big=F
 Integral buffers will be    131072 words long.
 Raffenetti 2 integral format.
 Two-electron integral symmetry is turned on.
 Leave Link  301 at Tue Oct  6 15:59:26 2020, MaxMem=  2684354560 cpu:               1.8 elap:               0.4
 (Enter /udrive/faculty/rpeverati/g16/g16/l302.exe)
 NPDir=0 NMtPBC=     1 NCelOv=     1 NCel=       1 NClECP=     1 NCelD=      1
         NCelK=      1 NCelE2=     1 NClLst=     1 CellRange=     0.0.
 One-electron integrals computed using PRISM.
 One-electron integral symmetry used in STVInt
 NBasis=    48 RedAO= T EigKep=  1.87D-02  NBF=    34    14
 NBsUse=    48 1.00D-06 EigRej= -1.00D+00 NBFU=    34    14
 Precomputing XC quadrature grid using
 IXCGrd= 4 IRadAn=           5 IRanWt=          -1 IRanGd=           0 AccXCQ= 0.00D+00.
 Generated NRdTot=       0 NPtTot=           0 NUsed=           0 NTot=          32
 NSgBfM=    51    51    51    51    51 MxSgAt=     6 MxSgA2=     6.
 Leave Link  302 at Tue Oct  6 15:59:26 2020, MaxMem=  2684354560 cpu:               3.7 elap:               0.6
 (Enter /udrive/faculty/rpeverati/g16/g16/l303.exe)
 DipDrv:  MaxL=1.
 Leave Link  303 at Tue Oct  6 15:59:27 2020, MaxMem=  2684354560 cpu:               1.0 elap:               0.3
 (Enter /udrive/faculty/rpeverati/g16/g16/l401.exe)
 SCF N**3 symmetry information disabled.
 ExpMin= 1.61D-01 ExpMax= 7.00D+03 ExpMxC= 1.05D+03 IAcc=3 IRadAn=         5 AccDes= 0.00D+00
 Harris functional with IExCor=  402 and IRadAn=       5 diagonalized for initial guess.
 HarFok:  IExCor=  402 AccDes= 0.00D+00 IRadAn=         5 IDoV= 1 UseB2=F ITyADJ=14
 ICtDFT=  3500011 ScaDFX=  1.000000  1.000000  1.000000  1.000000
 FoFCou: FMM=F IPFlag=           0 FMFlag=      100000 FMFlg1=           0
         NFxFlg=           0 DoJE=T BraDBF=F KetDBF=T FulRan=T
         wScrn=  0.000000 ICntrl=       500 IOpCl=  0 I1Cent=   200000004 NGrid=           0
         NMat0=    1 NMatS0=      1 NMatT0=    0 NMatD0=    1 NMtDS0=    0 NMtDT0=    0
 Petite list used in FoFCou.
 Harris En= -239.792866166424    
 JPrj=0 DoOrth=F DoCkMO=F.
 Initial guess orbital symmetries:
       Occupied  (A1) (A1) (A1) (A1) (A1) (A1) (A1) (E) (E) (E)
                 (E) (A1) (E) (E)
       Virtual   (A1) (A1) (E) (E) (A1) (E) (E) (E) (E) (A1) (A1)
                 (E) (E) (A1) (E) (E) (A1) (E) (E) (A1) (E) (E)
                 (E) (E) (E) (E) (A1) (A1) (A1) (E) (E) (E) (E)
                 (A1)
 The electronic state of the initial guess is 1-A1.
 Leave Link  401 at Tue Oct  6 15:59:28 2020, MaxMem=  2684354560 cpu:               5.4 elap:               0.7
 (Enter /udrive/faculty/rpeverati/g16/g16/l502.exe)
 Keep R1 ints in memory in symmetry-blocked form, NReq=11153107.
 FoFCou: FMM=F IPFlag=           0 FMFlag=           0 FMFlg1=           0
         NFxFlg=           0 DoJE=F BraDBF=F KetDBF=F FulRan=T
         wScrn=  0.000000 ICntrl=       600 IOpCl=  0 I1Cent=           0 NGrid=           0
         NMat0=    1 NMatS0=   1176 NMatT0=    0 NMatD0=    1 NMtDS0=    0 NMtDT0=    0
 Petite list used in FoFCou.
 Closed shell SCF:
 Using DIIS extrapolation, IDIIS=  1040.
 NGot=  2684354560 LenX=  2683985987 LenY=  2683982945
 Requested convergence on RMS density matrix=1.00D-08 within 120 cycles.
 Requested convergence on MAX density matrix=1.00D-06.
 Requested convergence on             energy=1.00D-06.
 No special actions if energy rises.
 Integral accuracy reduced to 1.0D-05 until final iterations.

 Cycle   1  Pass 0  IDiag  1:
 E= -239.384862796766    
 DIIS: error= 9.69D-02 at cycle   1 NSaved=   1.
 NSaved= 1 IEnMin= 1 EnMin= -239.384862796766     IErMin= 1 ErrMin= 9.69D-02
 ErrMax= 9.69D-02  0.00D+00 EMaxC= 1.00D-01 BMatC= 2.02D-01 BMatP= 2.02D-01
 IDIUse=3 WtCom= 3.13D-02 WtEn= 9.69D-01
 Coeff-Com:  0.100D+01
 Coeff-En:   0.100D+01
 Coeff:      0.100D+01
 Gap=     0.220 Goal=   None    Shift=    0.000
 GapD=    0.220 DampG=1.000 DampE=0.500 DampFc=0.5000 IDamp=-1.
 Damping current iteration by 5.00D-01
 RMSDP=3.13D-02 MaxDP=2.63D-01              OVMax= 3.98D-01

 Cycle   2  Pass 0  IDiag  1:
 E= -239.393964821963     Delta-E=       -0.009102025197 Rises=F Damp=T
 DIIS: error= 3.35D-02 at cycle   2 NSaved=   2.
 NSaved= 2 IEnMin= 2 EnMin= -239.393964821963     IErMin= 2 ErrMin= 3.35D-02
 ErrMax= 3.35D-02  0.00D+00 EMaxC= 1.00D-01 BMatC= 3.43D-02 BMatP= 2.02D-01
 IDIUse=3 WtCom= 6.65D-01 WtEn= 3.35D-01
 Coeff-Com:  0.254D+00 0.746D+00
 Coeff-En:   0.471D+00 0.529D+00
 Coeff:      0.326D+00 0.674D+00
 Gap=     0.253 Goal=   None    Shift=    0.000
 RMSDP=1.08D-02 MaxDP=9.35D-02 DE=-9.10D-03 OVMax= 3.17D-01

 Cycle   3  Pass 0  IDiag  1:
 E= -239.516662838679     Delta-E=       -0.122698016716 Rises=F Damp=F
 DIIS: error= 2.13D-02 at cycle   3 NSaved=   3.
 NSaved= 3 IEnMin= 3 EnMin= -239.516662838679     IErMin= 3 ErrMin= 2.13D-02
 ErrMax= 2.13D-02  0.00D+00 EMaxC= 1.00D-01 BMatC= 1.43D-02 BMatP= 3.43D-02
 IDIUse=3 WtCom= 7.87D-01 WtEn= 2.13D-01
 Coeff-Com:  0.121D+00 0.397D+00 0.482D+00
 Coeff-En:   0.000D+00 0.000D+00 0.100D+01
 Coeff:      0.950D-01 0.313D+00 0.592D+00
 Gap=     0.230 Goal=   None    Shift=    0.000
 RMSDP=3.04D-03 MaxDP=3.38D-02 DE=-1.23D-01 OVMax= 3.96D-02

 Cycle   4  Pass 0  IDiag  1:
 E= -239.529463368944     Delta-E=       -0.012800530265 Rises=F Damp=F
 DIIS: error= 5.44D-03 at cycle   4 NSaved=   4.
 NSaved= 4 IEnMin= 4 EnMin= -239.529463368944     IErMin= 4 ErrMin= 5.44D-03
 ErrMax= 5.44D-03  0.00D+00 EMaxC= 1.00D-01 BMatC= 1.00D-03 BMatP= 1.43D-02
 IDIUse=3 WtCom= 9.46D-01 WtEn= 5.44D-02
 Coeff-Com: -0.395D-03 0.631D-01 0.219D+00 0.718D+00
 Coeff-En:   0.000D+00 0.000D+00 0.000D+00 0.100D+01
 Coeff:     -0.373D-03 0.597D-01 0.207D+00 0.733D+00
 Gap=     0.219 Goal=   None    Shift=    0.000
 RMSDP=5.55D-04 MaxDP=8.15D-03 DE=-1.28D-02 OVMax= 7.85D-03

 Cycle   5  Pass 0  IDiag  1:
 E= -239.530302146610     Delta-E=       -0.000838777666 Rises=F Damp=F
 DIIS: error= 6.06D-04 at cycle   5 NSaved=   5.
 NSaved= 5 IEnMin= 5 EnMin= -239.530302146610     IErMin= 5 ErrMin= 6.06D-04
 ErrMax= 6.06D-04  0.00D+00 EMaxC= 1.00D-01 BMatC= 2.15D-05 BMatP= 1.00D-03
 IDIUse=3 WtCom= 9.94D-01 WtEn= 6.06D-03
 Coeff-Com: -0.273D-02 0.115D-01 0.357D-01 0.205D+00 0.751D+00
 Coeff-En:   0.000D+00 0.000D+00 0.000D+00 0.000D+00 0.100D+01
 Coeff:     -0.271D-02 0.114D-01 0.355D-01 0.203D+00 0.752D+00
 Gap=     0.217 Goal=   None    Shift=    0.000
 RMSDP=1.32D-04 MaxDP=1.35D-03 DE=-8.39D-04 OVMax= 2.04D-03

 Cycle   6  Pass 0  IDiag  1:
 E= -239.530315700165     Delta-E=       -0.000013553555 Rises=F Damp=F
 DIIS: error= 3.32D-04 at cycle   6 NSaved=   6.
 NSaved= 6 IEnMin= 6 EnMin= -239.530315700165     IErMin= 6 ErrMin= 3.32D-04
 ErrMax= 3.32D-04  0.00D+00 EMaxC= 1.00D-01 BMatC= 6.33D-06 BMatP= 2.15D-05
 IDIUse=3 WtCom= 9.97D-01 WtEn= 3.32D-03
 Coeff-Com: -0.169D-02 0.437D-03 0.199D-02 0.550D-01 0.443D+00 0.502D+00
 Coeff-En:   0.000D+00 0.000D+00 0.000D+00 0.000D+00 0.110D+00 0.890D+00
 Coeff:     -0.168D-02 0.436D-03 0.198D-02 0.549D-01 0.442D+00 0.503D+00
 Gap=     0.217 Goal=   None    Shift=    0.000
 RMSDP=3.39D-05 MaxDP=4.91D-04 DE=-1.36D-05 OVMax= 6.49D-04

 Cycle   7  Pass 0  IDiag  1:
 E= -239.530319833161     Delta-E=       -0.000004132996 Rises=F Damp=F
 DIIS: error= 7.91D-05 at cycle   7 NSaved=   7.
 NSaved= 7 IEnMin= 7 EnMin= -239.530319833161     IErMin= 7 ErrMin= 7.91D-05
 ErrMax= 7.91D-05  0.00D+00 EMaxC= 1.00D-01 BMatC= 2.13D-07 BMatP= 6.33D-06
 IDIUse=1 WtCom= 1.00D+00 WtEn= 0.00D+00
 Coeff-Com:  0.339D-03-0.793D-03-0.787D-03-0.281D-02 0.649D-01 0.121D+00
 Coeff-Com:  0.818D+00
 Coeff:      0.339D-03-0.793D-03-0.787D-03-0.281D-02 0.649D-01 0.121D+00
 Coeff:      0.818D+00
 Gap=     0.217 Goal=   None    Shift=    0.000
 RMSDP=1.18D-05 MaxDP=1.08D-04 DE=-4.13D-06 OVMax= 1.38D-04

 Cycle   8  Pass 0  IDiag  1:
 E= -239.530320013870     Delta-E=       -0.000000180709 Rises=F Damp=F
 DIIS: error= 1.69D-05 at cycle   8 NSaved=   8.
 NSaved= 8 IEnMin= 8 EnMin= -239.530320013870     IErMin= 8 ErrMin= 1.69D-05
 ErrMax= 1.69D-05  0.00D+00 EMaxC= 1.00D-01 BMatC= 5.77D-09 BMatP= 2.13D-07
 IDIUse=1 WtCom= 1.00D+00 WtEn= 0.00D+00
 Coeff-Com:  0.926D-04-0.122D-03 0.259D-03 0.856D-04-0.215D-02-0.106D-01
 Coeff-Com: -0.208D-01 0.103D+01
 Coeff:      0.926D-04-0.122D-03 0.259D-03 0.856D-04-0.215D-02-0.106D-01
 Coeff:     -0.208D-01 0.103D+01
 Gap=     0.217 Goal=   None    Shift=    0.000
 RMSDP=2.40D-06 MaxDP=2.35D-05 DE=-1.81D-07 OVMax= 2.83D-05

 Initial convergence to 1.0D-05 achieved.  Increase integral accuracy.
 Cycle   9  Pass 1  IDiag  1:
 E= -239.530316528852     Delta-E=        0.000003485018 Rises=F Damp=F
 DIIS: error= 2.89D-06 at cycle   1 NSaved=   1.
 NSaved= 1 IEnMin= 1 EnMin= -239.530316528852     IErMin= 1 ErrMin= 2.89D-06
 ErrMax= 2.89D-06  0.00D+00 EMaxC= 1.00D-01 BMatC= 1.31D-10 BMatP= 1.31D-10
 IDIUse=1 WtCom= 1.00D+00 WtEn= 0.00D+00
 Coeff-Com:  0.100D+01
 Coeff:      0.100D+01
 Gap=     0.217 Goal=   None    Shift=    0.000
 RMSDP=2.40D-06 MaxDP=2.35D-05 DE= 3.49D-06 OVMax= 5.48D-06

 Cycle  10  Pass 1  IDiag  1:
 E= -239.530316528823     Delta-E=        0.000000000029 Rises=F Damp=F
 DIIS: error= 3.26D-06 at cycle   2 NSaved=   2.
 NSaved= 2 IEnMin= 1 EnMin= -239.530316528852     IErMin= 1 ErrMin= 2.89D-06
 ErrMax= 3.26D-06  0.00D+00 EMaxC= 1.00D-01 BMatC= 2.07D-10 BMatP= 1.31D-10
 IDIUse=1 WtCom= 1.00D+00 WtEn= 0.00D+00
 Coeff-Com:  0.561D+00 0.439D+00
 Coeff:      0.561D+00 0.439D+00
 Gap=     0.217 Goal=   None    Shift=    0.000
 RMSDP=3.05D-07 MaxDP=3.42D-06 DE= 2.85D-11 OVMax= 5.36D-06

 Cycle  11  Pass 1  IDiag  1:
 E= -239.530316528953     Delta-E=       -0.000000000129 Rises=F Damp=F
 DIIS: error= 3.66D-07 at cycle   3 NSaved=   3.
 NSaved= 3 IEnMin= 3 EnMin= -239.530316528953     IErMin= 3 ErrMin= 3.66D-07
 ErrMax= 3.66D-07  0.00D+00 EMaxC= 1.00D-01 BMatC= 2.81D-12 BMatP= 1.31D-10
 IDIUse=1 WtCom= 1.00D+00 WtEn= 0.00D+00
 Coeff-Com:  0.104D-01 0.102D+00 0.888D+00
 Coeff:      0.104D-01 0.102D+00 0.888D+00
 Gap=     0.217 Goal=   None    Shift=    0.000
 RMSDP=4.62D-08 MaxDP=3.82D-07 DE=-1.29D-10 OVMax= 6.18D-07

 Cycle  12  Pass 1  IDiag  1:
 E= -239.530316528954     Delta-E=       -0.000000000001 Rises=F Damp=F
 DIIS: error= 9.74D-08 at cycle   4 NSaved=   4.
 NSaved= 4 IEnMin= 4 EnMin= -239.530316528954     IErMin= 4 ErrMin= 9.74D-08
 ErrMax= 9.74D-08  0.00D+00 EMaxC= 1.00D-01 BMatC= 3.63D-13 BMatP= 2.81D-12
 IDIUse=1 WtCom= 1.00D+00 WtEn= 0.00D+00
 Coeff-Com: -0.957D-02 0.355D-01 0.431D+00 0.543D+00
 Coeff:     -0.957D-02 0.355D-01 0.431D+00 0.543D+00
 Gap=     0.217 Goal=   None    Shift=    0.000
 RMSDP=1.19D-08 MaxDP=1.33D-07 DE=-1.48D-12 OVMax= 1.52D-07

 Cycle  13  Pass 1  IDiag  1:
 E= -239.530316528955     Delta-E=       -0.000000000001 Rises=F Damp=F
 DIIS: error= 1.31D-08 at cycle   5 NSaved=   5.
 NSaved= 5 IEnMin= 5 EnMin= -239.530316528955     IErMin= 5 ErrMin= 1.31D-08
 ErrMax= 1.31D-08  0.00D+00 EMaxC= 1.00D-01 BMatC= 7.78D-15 BMatP= 3.63D-13
 IDIUse=1 WtCom= 1.00D+00 WtEn= 0.00D+00
 Coeff-Com: -0.441D-02 0.671D-02 0.109D+00 0.188D+00 0.701D+00
 Coeff:     -0.441D-02 0.671D-02 0.109D+00 0.188D+00 0.701D+00
 Gap=     0.217 Goal=   None    Shift=    0.000
 RMSDP=1.57D-09 MaxDP=1.85D-08 DE=-6.82D-13 OVMax= 2.69D-08

 SCF Done:  E(RB3LYP) =  -239.530316529     A.U. after   13 cycles
            NFock= 13  Conv=0.16D-08     -V/T= 2.0037
 KE= 2.386477272214D+02 PE=-7.071421525805D+02 EE= 1.646018740793D+02
 Leave Link  502 at Tue Oct  6 15:59:30 2020, MaxMem=  2684354560 cpu:              17.8 elap:               1.9
 (Enter /udrive/faculty/rpeverati/g16/g16/l508.exe)
 QCSCF skips out because SCF is already converged.
 Leave Link  508 at Tue Oct  6 15:59:31 2020, MaxMem=  2684354560 cpu:               0.2 elap:               0.4
 (Enter /udrive/faculty/rpeverati/g16/g16/l601.exe)
 Copying SCF densities to generalized density rwf, IOpCl= 0 IROHF=0.

 **********************************************************************

            Population analysis using the SCF density.

 **********************************************************************

 Orbital symmetries:
       Occupied  (A1) (A1) (A1) (A1) (A1) (A1) (A1) (E) (E) (E)
                 (E) (A1) (E) (E)
       Virtual   (A1) (A1) (E) (E) (E) (E) (A1) (E) (E) (A1) (A1)
                 (A1) (E) (E) (E) (E) (A1) (E) (E) (A1) (E) (E)
                 (A1) (A1) (E) (E) (E) (E) (E) (E) (A1) (E) (E)
                 (A1)
 The electronic state is 1-A1.
 Alpha  occ. eigenvalues --  -24.46296 -24.16583 -10.03214  -0.96850  -0.62969
 Alpha  occ. eigenvalues --   -0.48600  -0.26725  -0.26710  -0.26710  -0.13969
 Alpha  occ. eigenvalues --   -0.13969   0.08271   0.08788   0.08788
 Alpha virt. eigenvalues --    0.30534   0.35401   0.37335   0.37335   0.74138
 Alpha virt. eigenvalues --    0.74138   0.75612   1.06263   1.06263   1.09624
 Alpha virt. eigenvalues --    1.20139   1.43044   1.43620   1.43620   1.61587
 Alpha virt. eigenvalues --    1.61587   1.67796   1.72041   1.72041   1.94270
 Alpha virt. eigenvalues --    2.02645   2.02645   2.11903   2.25651   2.29347
 Alpha virt. eigenvalues --    2.29347   2.30112   2.30112   2.40200   2.40200
 Alpha virt. eigenvalues --    2.42137   2.59440   2.59440   3.19156
          Condensed to atoms (all electrons):
               1          2          3          4          5          6
     1  F    9.370900   0.140367  -0.029761  -0.029761  -0.029761   0.000091
     2  C    0.140367   4.855147   0.362972   0.362972   0.362972   0.027002
     3  H   -0.029761   0.362972   0.612263  -0.041474  -0.041474   0.013147
     4  H   -0.029761   0.362972  -0.041474   0.612263  -0.041474   0.013147
     5  H   -0.029761   0.362972  -0.041474  -0.041474   0.612263   0.013147
     6  F    0.000091   0.027002   0.013147   0.013147   0.013147   9.772942
 Mulliken charges:
               1
     1  F   -0.422075
     2  C   -0.111433
     3  H    0.124328
     4  H    0.124328
     5  H    0.124328
     6  F   -0.839476
 Sum of Mulliken charges =  -1.00000
 Mulliken charges with hydrogens summed into heavy atoms:
               1
     1  F   -0.422075
     2  C    0.261551
     6  F   -0.839476
 Electronic spatial extent (au):  <R**2>=            331.7849
 Charge=             -1.0000 electrons
 Dipole moment (field-independent basis, Debye):
    X=             -0.0000    Y=             -0.0000    Z=             -6.0899  Tot=              6.0899
 Quadrupole moment (field-independent basis, Debye-Ang):
   XX=            -17.6788   YY=            -17.6788   ZZ=            -42.5531
   XY=             -0.0000   XZ=             -0.0000   YZ=              0.0000
 Traceless Quadrupole moment (field-independent basis, Debye-Ang):
   XX=              8.2914   YY=              8.2914   ZZ=            -16.5829
   XY=             -0.0000   XZ=             -0.0000   YZ=              0.0000
 Octapole moment (field-independent basis, Debye-Ang**2):
  XXX=              0.0000  YYY=              0.4059  ZZZ=            -31.7136  XYY=              0.0000
  XXY=             -0.4059  XXZ=             -0.6614  XZZ=              0.0000  YZZ=              0.0000
  YYZ=             -0.6614  XYZ=             -0.0000
 Hexadecapole moment (field-independent basis, Debye-Ang**3):
 XXXX=            -20.0197 YYYY=            -20.0197 ZZZZ=           -375.5738 XXXY=              0.0000
 XXXZ=             -0.0000 YYYX=              0.0000 YYYZ=              0.0181 ZZZX=             -0.0000
 ZZZY=              0.0000 XXYY=             -6.6732 XXZZ=            -49.1490 YYZZ=            -49.1490
 XXYZ=             -0.0181 YYXZ=             -0.0000 ZZXY=              0.0000
 N-N= 6.436223475081D+01 E-N=-7.071421520231D+02  KE= 2.386477272214D+02
 No NMR shielding tensors so no spin-rotation constants.
 Leave Link  601 at Tue Oct  6 15:59:31 2020, MaxMem=  2684354560 cpu:               3.9 elap:               0.6
 (Enter /udrive/faculty/rpeverati/g16/g16/l701.exe)
 ... and contract with generalized density number  0.
 Compute integral first derivatives.
 Leave Link  701 at Tue Oct  6 15:59:32 2020, MaxMem=  2684354560 cpu:               3.3 elap:               0.6
 (Enter /udrive/faculty/rpeverati/g16/g16/l702.exe)
 L702 exits ... SP integral derivatives will be done elsewhere.
 Leave Link  702 at Tue Oct  6 15:59:33 2020, MaxMem=  2684354560 cpu:               1.2 elap:               0.4
 (Enter /udrive/faculty/rpeverati/g16/g16/l703.exe)
 Integral derivatives from FoFJK, PRISM(SPDF).
 Compute integral first derivatives, UseDBF=F ICtDFT=           0.
 Calling FoFJK, ICntrl=      2127 FMM=F ISym2X=1 I1Cent= 0 IOpClX= 0 NMat=1 NMatS=1 NMatT=0.
 FoFJK:  IHMeth= 1 ICntrl=    2127 DoSepK=F KAlg= 0 I1Cent=           0 FoldK=F
 IRaf=         0 NMat=       1 IRICut=       1 DoRegI=T DoRafI=F ISym2E= 1 IDoP0=0 IntGTp=1.
 FoFCou: FMM=F IPFlag=           0 FMFlag=      100000 FMFlg1=         800
         NFxFlg=           0 DoJE=F BraDBF=F KetDBF=F FulRan=T
         wScrn=  0.000000 ICntrl=      2127 IOpCl=  0 I1Cent=           0 NGrid=           0
         NMat0=    1 NMatS0=      1 NMatT0=    0 NMatD0=    1 NMtDS0=    0 NMtDT0=    0
 Petite list used in FoFCou.
 Leave Link  703 at Tue Oct  6 15:59:34 2020, MaxMem=  2684354560 cpu:               6.6 elap:               0.8
 (Enter /udrive/faculty/rpeverati/g16/g16/l716.exe)
 Dipole        =-2.22044605D-16-1.11022302D-16-2.39596366D+00
 ***** Axes restored to original set *****
 -------------------------------------------------------------------
 Center     Atomic                   Forces (Hartrees/Bohr)
 Number     Number              X              Y              Z
 -------------------------------------------------------------------
      1        9          -0.000000000    0.000000000   -0.010162411
      2        6          -0.000000000   -0.000000000   -0.000377722
      3        1          -0.001480139    0.002563677    0.006324979
      4        1          -0.001480139   -0.002563677    0.006324979
      5        1           0.002960279    0.000000000    0.006324979
      6        9          -0.000000000    0.000000000   -0.008434804
 -------------------------------------------------------------------
 Cartesian Forces:  Max     0.010162411 RMS     0.004222092
 Leave Link  716 at Tue Oct  6 15:59:34 2020, MaxMem=  2684354560 cpu:               1.4 elap:               0.4
 (Enter /udrive/faculty/rpeverati/g16/g16/l103.exe)

 GradGradGradGradGradGradGradGradGradGradGradGradGradGradGradGradGradGrad
 Berny optimization.
 Optmz: redundant internal coordinate code flag= 1
 FormGI is forming the generalized inverse of G from B-inverse, IUseBI=4.
 Internal  Forces:  Max     0.010162411 RMS     0.003035195
 Search for a local minimum.
 Step number   1 out of a maximum of  100
 All quantities printed in internal units (Hartrees-Bohrs-Radians)
 RMS Force = .30352D-02 SwitMx=.10000D-02 MixMth= 1
 Mixed Optimization -- RFO/linear search
 Second derivative matrix not updated -- first step.
 The second derivative matrix:
                          R1        R2        R3        R4        R5
           R1           0.41605
           R2           0.00000   0.35858
           R3           0.00000   0.00000   0.35858
           R4           0.00000   0.00000   0.00000   0.35858
           R5           0.00000   0.00000   0.00000   0.00000   0.03206
           R6           0.00000   0.00000   0.00000   0.00000   0.00000
           R7           0.00000   0.00000   0.00000   0.00000   0.00000
           R8           0.00000   0.00000   0.00000   0.00000   0.00000
           A1           0.00000   0.00000   0.00000   0.00000   0.00000
           A2           0.00000   0.00000   0.00000   0.00000   0.00000
           A3           0.00000   0.00000   0.00000   0.00000   0.00000
           A4           0.00000   0.00000   0.00000   0.00000   0.00000
           A5           0.00000   0.00000   0.00000   0.00000   0.00000
           A6           0.00000   0.00000   0.00000   0.00000   0.00000
           A7           0.00000   0.00000   0.00000   0.00000   0.00000
           A8           0.00000   0.00000   0.00000   0.00000   0.00000
           A9           0.00000   0.00000   0.00000   0.00000   0.00000
           A10          0.00000   0.00000   0.00000   0.00000   0.00000
           A11          0.00000   0.00000   0.00000   0.00000   0.00000
           D1           0.00000   0.00000   0.00000   0.00000   0.00000
           D2           0.00000   0.00000   0.00000   0.00000   0.00000
           D3           0.00000   0.00000   0.00000   0.00000   0.00000
           D4           0.00000   0.00000   0.00000   0.00000   0.00000
                          R6        R7        R8        A1        A2
           R6           0.02211
           R7           0.00000   0.02211
           R8           0.00000   0.00000   0.02211
           A1           0.00000   0.00000   0.00000   0.16000
           A2           0.00000   0.00000   0.00000   0.00000   0.16000
           A3           0.00000   0.00000   0.00000   0.00000   0.00000
           A4           0.00000   0.00000   0.00000   0.00000   0.00000
           A5           0.00000   0.00000   0.00000   0.00000   0.00000
           A6           0.00000   0.00000   0.00000   0.00000   0.00000
           A7           0.00000   0.00000   0.00000   0.00000   0.00000
           A8           0.00000   0.00000   0.00000   0.00000   0.00000
           A9           0.00000   0.00000   0.00000   0.00000   0.00000
           A10          0.00000   0.00000   0.00000   0.00000   0.00000
           A11          0.00000   0.00000   0.00000   0.00000   0.00000
           D1           0.00000   0.00000   0.00000   0.00000   0.00000
           D2           0.00000   0.00000   0.00000   0.00000   0.00000
           D3           0.00000   0.00000   0.00000   0.00000   0.00000
           D4           0.00000   0.00000   0.00000   0.00000   0.00000
                          A3        A4        A5        A6        A7
           A3           0.16000
           A4           0.00000   0.16000
           A5           0.00000   0.00000   0.16000
           A6           0.00000   0.00000   0.00000   0.16000
           A7           0.00000   0.00000   0.00000   0.00000   0.16000
           A8           0.00000   0.00000   0.00000   0.00000   0.00000
           A9           0.00000   0.00000   0.00000   0.00000   0.00000
           A10          0.00000   0.00000   0.00000   0.00000   0.00000
           A11          0.00000   0.00000   0.00000   0.00000   0.00000
           D1           0.00000   0.00000   0.00000   0.00000   0.00000
           D2           0.00000   0.00000   0.00000   0.00000   0.00000
           D3           0.00000   0.00000   0.00000   0.00000   0.00000
           D4           0.00000   0.00000   0.00000   0.00000   0.00000
                          A8        A9        A10       A11       D1
           A8           0.16000
           A9           0.00000   0.16000
           A10          0.00000   0.00000   0.00230
           A11          0.00000   0.00000   0.00000   0.00230
           D1           0.00000   0.00000   0.00000   0.00000   0.00352
           D2           0.00000   0.00000   0.00000   0.00000   0.00000
           D3           0.00000   0.00000   0.00000   0.00000   0.00000
           D4           0.00000   0.00000   0.00000   0.00000   0.00000
                          D2        D3        D4
           D2           0.00230
           D3           0.00000   0.00230
           D4           0.00000   0.00000   0.00230
 ITU=  0
 Eigenvectors of the second derivative matrix:
                           1         2         3         4         5
     Eigenvalues --     0.01937   0.01957   0.02718   0.06332   0.10012
   1         R1        -0.00000  -0.00000   0.00000  -0.00000   0.00000
   2         R2        -0.00050   0.00294  -0.01151   0.00368  -0.00014
   3         R3         0.00388  -0.00003  -0.01126   0.01113  -0.01082
   4         R4        -0.00336  -0.00286  -0.01124  -0.00431   0.01086
   5         R5        -0.00030  -0.00049  -0.49552   0.38914   0.02315
   6         R6        -0.12003   0.72762  -0.49469  -0.09943  -0.00598
   7         R7         0.68591  -0.25935  -0.49378  -0.09494  -0.20605
   8         R8        -0.56526  -0.46864  -0.49371  -0.08258   0.19067
   9         A1        -0.00544   0.03181   0.02094   0.21705   0.00695
  10         A2         0.03289  -0.01097   0.02100   0.21784   0.56552
  11         A3        -0.02816  -0.02132   0.02101   0.22391  -0.53092
  12         A4         0.00768   0.00499  -0.02430  -0.41432   0.03489
  13         A5        -0.00736   0.00244  -0.01850  -0.11357  -0.07149
  14         A6         0.00037  -0.00697  -0.01850  -0.11376  -0.00388
  15         A7        -0.04466  -0.03731   0.07186  -0.09312   0.02512
  16         A8         0.05465  -0.02101   0.07343  -0.01564  -0.03279
  17         A9        -0.00990   0.05852   0.07340  -0.01465   0.00024
  18         A10       -0.06434   0.38993  -0.00034  -0.00606  -0.00633
  19         A11        0.41244   0.06903  -0.00003  -0.00789   0.55025
  20         D1         0.00502   0.00327  -0.05479  -0.66846  -0.00592
  21         D2         0.06788   0.08163   0.01140   0.12127  -0.05898
  22         D3         0.09105  -0.05482  -0.00774   0.06959  -0.06471
  23         D4         0.03607  -0.10125   0.00786  -0.06980  -0.00942
                           6         7         8         9        10
     Eigenvalues --     0.10324   0.11592   0.11812   0.32840   0.33561
   1         R1         0.00000  -0.00000   0.00000   0.00000   0.00000
   2         R2        -0.00357  -0.01043   0.01970  -0.16511   0.66405
   3         R3        -0.00368   0.04544  -0.01732   0.11063   0.67122
   4         R4         0.00704  -0.03131  -0.00219   0.92151   0.02186
   5         R5         0.01997  -0.22239  -0.01422  -0.00703  -0.00330
   6         R6        -0.21056   0.01817   0.08542   0.00778   0.01690
   7         R7         0.09234   0.04840  -0.07930   0.01619   0.01721
   8         R8         0.09950   0.14652   0.00748   0.02084   0.01310
   9         A1         0.65301  -0.07351  -0.09341  -0.00683   0.01933
  10         A2        -0.30240  -0.11020   0.07463  -0.00182   0.01986
  11         A3        -0.31462  -0.21926  -0.00699   0.02105   0.00181
  12         A4         0.03296  -0.47242  -0.03116  -0.02515   0.02443
  13         A5         0.03377   0.40117   0.60571   0.02293  -0.03177
  14         A6        -0.10178   0.46373  -0.54945  -0.00986  -0.03260
  15         A7         0.01745  -0.12687  -0.00850  -0.01916   0.25727
  16         A8         0.01910   0.08693   0.15958   0.14742   0.11911
  17         A9        -0.04299   0.11195  -0.14649   0.19018   0.12022
  18         A10        0.54065   0.03539  -0.04601   0.00849  -0.00448
  19         A11        0.00563   0.03469   0.02420   0.00968  -0.00780
  20         D1        -0.00350  -0.02223  -0.00199  -0.02289  -0.01178
  21         D2        -0.04899   0.38114   0.02174   0.06237   0.00102
  22         D3         0.04687   0.16997   0.36684  -0.15993   0.06598
  23         D4         0.08868  -0.21253   0.34150   0.14260  -0.06643
                          11        12
     Eigenvalues --     0.33920   0.41605
   1         R1         0.00000   1.00000
   2         R2         0.66583  -0.00000
   3         R3        -0.66525  -0.00000
   4         R4         0.19305  -0.00000
   5         R5        -0.01796   0.00000
   6         R6         0.03196   0.00000
   7         R7        -0.00513  -0.00000
   8         R8        -0.00334  -0.00000
   9         A1         0.00170  -0.00000
  10         A2        -0.02618   0.00000
  11         A3        -0.00137   0.00000
  12         A4        -0.07509  -0.00000
  13         A5        -0.02841  -0.00000
  14         A6         0.12868   0.00000
  15         A7        -0.02247  -0.00000
  16         A8         0.15297  -0.00000
  17         A9        -0.05409  -0.00000
  18         A10       -0.00823  -0.00000
  19         A11        0.01082   0.00000
  20         D1        -0.02803  -0.00000
  21         D2        -0.14246   0.00000
  22         D3         0.03695  -0.00000
  23         D4         0.04805  -0.00000
 Iter=   1 RLamda= 0.00000000D+00 Sum=-1.49860166D-03.
 Iter=   2 RLamda=-1.49860166D-03 Sum=-1.44982718D-03.
 Iter=   3 RLamda=-1.44982718D-03 Sum=-1.45134194D-03.
 Iter=   4 RLamda=-1.45134194D-03 Sum=-1.45129483D-03.
 Iter=   5 RLamda=-1.45129483D-03 Sum=-1.45129629D-03.
 RFO step:  Lambda=-1.45129483D-03 EMin= 1.93662982D-02
 Linear search not attempted -- first point.
 Iteration  1 RMS(Cart)=  0.01870445 RMS(Int)=  0.00028589
 Iteration  2 RMS(Cart)=  0.00017187 RMS(Int)=  0.00019975
 Iteration  3 RMS(Cart)=  0.00000003 RMS(Int)=  0.00019975
 ITry= 1 IFail=0 DXMaxC= 6.16D-02 DCOld= 1.00D+10 DXMaxT= 3.00D-01 DXLimC= 3.00D+00 Rises=F
 ClnCor:  largest displacement from symmetrization is 2.94D-04 for atom     4.
 Variable       Old X    -DE/DX   Delta X   Delta X   Delta X     New X
                                 (Linear)    (Quad)   (Total)
    R1        2.69428   0.01016   0.00000   0.02434   0.02434   2.71863
    R2        2.04304   0.00446   0.00000   0.01173   0.01177   2.05481
    R3        2.04304   0.00453   0.00000   0.01173   0.01177   2.05481
    R4        2.04304   0.00436   0.00000   0.01174   0.01177   2.05481
    R5        4.86673  -0.00049   0.00000  -0.05522  -0.05510   4.81164
    R6        4.63224  -0.00258   0.00000  -0.08633  -0.08635   4.54589
    R7        4.63224  -0.00258   0.00000  -0.08632  -0.08635   4.54589
    R8        4.63224  -0.00268   0.00000  -0.08643  -0.08635   4.54589
    A1        1.89855   0.00129   0.00000   0.01840   0.01841   1.91695
    A2        1.89855   0.00129   0.00000   0.01840   0.01841   1.91695
    A3        1.89855   0.00130   0.00000   0.01840   0.01841   1.91695
    A4        1.92256  -0.00050   0.00000  -0.01740  -0.01829   1.90427
    A5        1.92256  -0.00164   0.00000  -0.01818  -0.01829   1.90427
    A6        1.92256  -0.00164   0.00000  -0.01818  -0.01829   1.90427
    A7        0.74003   0.00200   0.00000   0.01420   0.01420   0.75423
    A8        0.74003   0.00167   0.00000   0.01400   0.01420   0.75423
    A9        0.74003   0.00168   0.00000   0.01400   0.01420   0.75423
   A10        3.14159   0.00001   0.00000   0.00002   0.00000   3.14159
   A11        3.14159   0.00001   0.00000   0.00003  -0.00000   3.14159
    D1        2.12432  -0.00278   0.00000  -0.04572  -0.04531   2.07901
    D2        0.56604  -0.00024   0.00000   0.00142   0.00177   0.56781
    D3       -0.56604  -0.00044   0.00000  -0.00189  -0.00177  -0.56781
    D4        0.56604   0.00043   0.00000   0.00189   0.00177   0.56781
         Item               Value     Threshold  Converged?
 Maximum Force            0.010162     0.000450     NO 
 RMS     Force            0.003035     0.000300     NO 
 Maximum Displacement     0.061601     0.001800     NO 
 RMS     Displacement     0.018716     0.001200     NO 
 Predicted change in Energy=-7.444504D-04
 Lowest energy point so far.  Saving SCF results.
 Largest change from initial coordinates is atom    6       0.033 Angstoms.
 GradGradGradGradGradGradGradGradGradGradGradGradGradGradGradGradGradGrad

 Leave Link  103 at Tue Oct  6 15:59:35 2020, MaxMem=  2684354560 cpu:               2.5 elap:               0.5
 (Enter /udrive/faculty/rpeverati/g16/g16/l202.exe)
                          Input orientation:                          
 ---------------------------------------------------------------------
 Center     Atomic      Atomic             Coordinates (Angstroms)
 Number     Number       Type             X           Y           Z
 ---------------------------------------------------------------------
      1          9           0        0.000000    0.000000   -1.807693
      2          6           0        0.000000    0.000000   -0.369058
      3          1           0       -0.511432    0.885825   -0.000135
      4          1           0       -0.511432   -0.885825   -0.000135
      5          1           0        1.022863   -0.000000   -0.000135
      6          9           0        0.000000    0.000000    2.177150
 ---------------------------------------------------------------------
                    Distance matrix (angstroms):
                    1          2          3          4          5
     1  F    0.000000
     2  C    1.438635   0.000000
     3  H    2.076900   1.087361   0.000000
     4  H    2.076900   1.087361   1.771651   0.000000
     5  H    2.076900   1.087361   1.771651   1.771651   0.000000
     6  F    3.984843   2.546209   2.405581   2.405581   2.405581
                    6
     6  F    0.000000
 Stoichiometry    CH3F2(1-)
 Framework group  C3V[C3(FCF),3SGV(H)]
 Deg. of freedom     4
 Full point group                 C3V     NOp   6
 RotChk:  IX=0 Diff= 0.00D+00
 Largest Abelian subgroup         CS      NOp   2
 Largest concise Abelian subgroup CS      NOp   2
                         Standard orientation:                         
 ---------------------------------------------------------------------
 Center     Atomic      Atomic             Coordinates (Angstroms)
 Number     Number       Type             X           Y           Z
 ---------------------------------------------------------------------
      1          9           0        0.000000    0.000000   -1.848818
      2          6           0        0.000000    0.000000   -0.410183
      3          1           0       -0.000000    1.022863   -0.041260
      4          1           0       -0.885825   -0.511432   -0.041260
      5          1           0        0.885825   -0.511432   -0.041260
      6          9           0        0.000000    0.000000    2.136026
 ---------------------------------------------------------------------
 Rotational constants (GHZ):         159.7628723           3.2558084           3.2558084
 Leave Link  202 at Tue Oct  6 15:59:36 2020, MaxMem=  2684354560 cpu:               1.2 elap:               0.4
 (Enter /udrive/faculty/rpeverati/g16/g16/l301.exe)
 Standard basis: 6-31G(d) (5D, 7F)
 Ernie: Thresh=  0.10000D-02 Tol=  0.10000D-05 Strict=F.
 There are    37 symmetry adapted cartesian basis functions of A'  symmetry.
 There are    14 symmetry adapted cartesian basis functions of A"  symmetry.
 There are    34 symmetry adapted basis functions of A'  symmetry.
 There are    14 symmetry adapted basis functions of A"  symmetry.
    48 basis functions,    96 primitive gaussians,    51 cartesian basis functions
    14 alpha electrons       14 beta electrons
       nuclear repulsion energy        64.3171696247 Hartrees.
 IExCor=  402 DFT=T Ex+Corr=B3LYP ExCW=0 ScaHFX=  0.200000
 ScaDFX=  0.800000  0.720000  1.000000  0.810000 ScalE2=  1.000000  1.000000
 IRadAn=      5 IRanWt=     -1 IRanGd=            0 ICorTp=0 IEmpDi=  4
 NAtoms=    6 NActive=    6 NUniq=    4 SFac= 2.25D+00 NAtFMM=   60 NAOKFM=F Big=F
 Integral buffers will be    131072 words long.
 Raffenetti 2 integral format.
 Two-electron integral symmetry is turned on.
 Leave Link  301 at Tue Oct  6 15:59:36 2020, MaxMem=  2684354560 cpu:               2.1 elap:               0.5
 (Enter /udrive/faculty/rpeverati/g16/g16/l302.exe)
 NPDir=0 NMtPBC=     1 NCelOv=     1 NCel=       1 NClECP=     1 NCelD=      1
         NCelK=      1 NCelE2=     1 NClLst=     1 CellRange=     0.0.
 One-electron integrals computed using PRISM.
 One-electron integral symmetry used in STVInt
 NBasis=    48 RedAO= T EigKep=  1.92D-02  NBF=    34    14
 NBsUse=    48 1.00D-06 EigRej= -1.00D+00 NBFU=    34    14
 Precomputing XC quadrature grid using
 IXCGrd= 4 IRadAn=           5 IRanWt=          -1 IRanGd=           0 AccXCQ= 0.00D+00.
 Generated NRdTot=       0 NPtTot=           0 NUsed=           0 NTot=          32
 NSgBfM=    51    51    51    51    51 MxSgAt=     6 MxSgA2=     6.
 Leave Link  302 at Tue Oct  6 15:59:37 2020, MaxMem=  2684354560 cpu:               3.7 elap:               0.7
 (Enter /udrive/faculty/rpeverati/g16/g16/l303.exe)
 DipDrv:  MaxL=1.
 Leave Link  303 at Tue Oct  6 15:59:38 2020, MaxMem=  2684354560 cpu:               1.2 elap:               0.6
 (Enter /udrive/faculty/rpeverati/g16/g16/l401.exe)
 Initial guess from the checkpoint file:  "MN_38_fch3fcomp_BH76_B3LYP_6-31Gs.chk"
 SCF N**3 symmetry information disabled.
 B after Tr=     0.000000    0.000000    0.000000
         Rot=    1.000000   -0.000000    0.000000    0.000000 Ang=   0.00 deg.
 Guess basis will be translated and rotated to current coordinates.
 JPrj=2 DoOrth=T DoCkMO=T.
 Initial guess orbital symmetries:
       Occupied  (A1) (A1) (A1) (A1) (A1) (A1) (A1) (E) (E) (E)
                 (E) (A1) (E) (E)
       Virtual   (A1) (A1) (E) (E) (E) (E) (A1) (E) (E) (A1) (A1)
                 (A1) (E) (E) (E) (E) (A1) (E) (E) (A1) (E) (E)
                 (A1) (A1) (E) (E) (E) (E) (E) (E) (A1) (E) (E)
                 (A1)
 The electronic state of the initial guess is 1-A1.
 Generating alternative initial guess.
 ExpMin= 1.61D-01 ExpMax= 7.00D+03 ExpMxC= 1.05D+03 IAcc=2 IRadAn=         4 AccDes= 0.00D+00
 Harris functional with IExCor=  402 and IRadAn=       4 diagonalized for initial guess.
 HarFok:  IExCor=  402 AccDes= 0.00D+00 IRadAn=         4 IDoV= 1 UseB2=F ITyADJ=14
 ICtDFT=  3500011 ScaDFX=  1.000000  1.000000  1.000000  1.000000
 FoFCou: FMM=F IPFlag=           0 FMFlag=      100000 FMFlg1=           0
         NFxFlg=           0 DoJE=T BraDBF=F KetDBF=T FulRan=T
         wScrn=  0.000000 ICntrl=       500 IOpCl=  0 I1Cent=   200000004 NGrid=           0
         NMat0=    1 NMatS0=      1 NMatT0=    0 NMatD0=    1 NMtDS0=    0 NMtDT0=    0
 Petite list used in FoFCou.
 Harris En= -239.792932674458    
 Leave Link  401 at Tue Oct  6 15:59:39 2020, MaxMem=  2684354560 cpu:               8.2 elap:               1.0
 (Enter /udrive/faculty/rpeverati/g16/g16/l502.exe)
 Keep R1 ints in memory in symmetry-blocked form, NReq=11153107.
 FoFCou: FMM=F IPFlag=           0 FMFlag=           0 FMFlg1=           0
         NFxFlg=           0 DoJE=F BraDBF=F KetDBF=F FulRan=T
         wScrn=  0.000000 ICntrl=       600 IOpCl=  0 I1Cent=           0 NGrid=           0
         NMat0=    1 NMatS0=   1176 NMatT0=    0 NMatD0=    1 NMtDS0=    0 NMtDT0=    0
 Petite list used in FoFCou.
 Closed shell SCF:
 Using DIIS extrapolation, IDIIS=  1040.
 NGot=  2684354560 LenX=  2683985987 LenY=  2683982945
 Requested convergence on RMS density matrix=1.00D-08 within 120 cycles.
 Requested convergence on MAX density matrix=1.00D-06.
 Requested convergence on             energy=1.00D-06.
 No special actions if energy rises.
 Integral accuracy reduced to 1.0D-05 until final iterations.

 Cycle   1  Pass 0  IDiag  1:
 E= -239.531243270013    
 DIIS: error= 1.22D-03 at cycle   1 NSaved=   1.
 NSaved= 1 IEnMin= 1 EnMin= -239.531243270013     IErMin= 1 ErrMin= 1.22D-03
 ErrMax= 1.22D-03  0.00D+00 EMaxC= 1.00D-01 BMatC= 1.23D-04 BMatP= 1.23D-04
 IDIUse=3 WtCom= 9.88D-01 WtEn= 1.22D-02
 Coeff-Com:  0.100D+01
 Coeff-En:   0.100D+01
 Coeff:      0.100D+01
 Gap=     0.225 Goal=   None    Shift=    0.000
 GapD=    0.225 DampG=1.000 DampE=1.000 DampFc=1.0000 IDamp=-1.
 RMSDP=3.83D-04 MaxDP=3.28D-03              OVMax= 3.69D-03

 Cycle   2  Pass 0  IDiag  1:
 E= -239.531354869661     Delta-E=       -0.000111599648 Rises=F Damp=F
 DIIS: error= 8.60D-04 at cycle   2 NSaved=   2.
 NSaved= 2 IEnMin= 2 EnMin= -239.531354869661     IErMin= 2 ErrMin= 8.60D-04
 ErrMax= 8.60D-04  0.00D+00 EMaxC= 1.00D-01 BMatC= 3.26D-05 BMatP= 1.23D-04
 IDIUse=3 WtCom= 9.91D-01 WtEn= 8.60D-03
 Coeff-Com:  0.288D+00 0.712D+00
 Coeff-En:   0.000D+00 0.100D+01
 Coeff:      0.285D+00 0.715D+00
 Gap=     0.221 Goal=   None    Shift=    0.000
 RMSDP=1.99D-04 MaxDP=1.76D-03 DE=-1.12D-04 OVMax= 2.85D-03

 Cycle   3  Pass 0  IDiag  1:
 E= -239.531367822339     Delta-E=       -0.000012952678 Rises=F Damp=F
 DIIS: error= 7.30D-04 at cycle   3 NSaved=   3.
 NSaved= 3 IEnMin= 3 EnMin= -239.531367822339     IErMin= 3 ErrMin= 7.30D-04
 ErrMax= 7.30D-04  0.00D+00 EMaxC= 1.00D-01 BMatC= 2.01D-05 BMatP= 3.26D-05
 IDIUse=3 WtCom= 9.93D-01 WtEn= 7.30D-03
 Coeff-Com:  0.276D-02 0.439D+00 0.558D+00
 Coeff-En:   0.000D+00 0.370D+00 0.630D+00
 Coeff:      0.274D-02 0.438D+00 0.559D+00
 Gap=     0.223 Goal=   None    Shift=    0.000
 RMSDP=8.51D-05 MaxDP=8.42D-04 DE=-1.30D-05 OVMax= 1.48D-03

 Cycle   4  Pass 0  IDiag  1:
 E= -239.531383252791     Delta-E=       -0.000015430452 Rises=F Damp=F
 DIIS: error= 1.03D-04 at cycle   4 NSaved=   4.
 NSaved= 4 IEnMin= 4 EnMin= -239.531383252791     IErMin= 4 ErrMin= 1.03D-04
 ErrMax= 1.03D-04  0.00D+00 EMaxC= 1.00D-01 BMatC= 3.52D-07 BMatP= 2.01D-05
 IDIUse=3 WtCom= 9.99D-01 WtEn= 1.03D-03
 Coeff-Com: -0.522D-02 0.197D+00 0.266D+00 0.543D+00
 Coeff-En:   0.000D+00 0.000D+00 0.000D+00 0.100D+01
 Coeff:     -0.522D-02 0.197D+00 0.265D+00 0.543D+00
 Gap=     0.223 Goal=   None    Shift=    0.000
 RMSDP=1.08D-05 MaxDP=1.25D-04 DE=-1.54D-05 OVMax= 1.06D-04

 Cycle   5  Pass 0  IDiag  1:
 E= -239.531383511082     Delta-E=       -0.000000258291 Rises=F Damp=F
 DIIS: error= 1.39D-05 at cycle   5 NSaved=   5.
 NSaved= 5 IEnMin= 5 EnMin= -239.531383511082     IErMin= 5 ErrMin= 1.39D-05
 ErrMax= 1.39D-05  0.00D+00 EMaxC= 1.00D-01 BMatC= 7.46D-09 BMatP= 3.52D-07
 IDIUse=1 WtCom= 1.00D+00 WtEn= 0.00D+00
 Coeff-Com: -0.214D-02 0.291D-01 0.424D-01 0.161D+00 0.770D+00
 Coeff:     -0.214D-02 0.291D-01 0.424D-01 0.161D+00 0.770D+00
 Gap=     0.223 Goal=   None    Shift=    0.000
 RMSDP=1.85D-06 MaxDP=1.95D-05 DE=-2.58D-07 OVMax= 2.97D-05

 Initial convergence to 1.0D-05 achieved.  Increase integral accuracy.
 Cycle   6  Pass 1  IDiag  1:
 E= -239.531380406054     Delta-E=        0.000003105028 Rises=F Damp=F
 DIIS: error= 6.19D-06 at cycle   1 NSaved=   1.
 NSaved= 1 IEnMin= 1 EnMin= -239.531380406054     IErMin= 1 ErrMin= 6.19D-06
 ErrMax= 6.19D-06  0.00D+00 EMaxC= 1.00D-01 BMatC= 1.79D-09 BMatP= 1.79D-09
 IDIUse=1 WtCom= 1.00D+00 WtEn= 0.00D+00
 Coeff-Com:  0.100D+01
 Coeff:      0.100D+01
 Gap=     0.223 Goal=   None    Shift=    0.000
 RMSDP=1.85D-06 MaxDP=1.95D-05 DE= 3.11D-06 OVMax= 2.29D-05

 Cycle   7  Pass 1  IDiag  1:
 E= -239.531380404589     Delta-E=        0.000000001465 Rises=F Damp=F
 DIIS: error= 9.59D-06 at cycle   2 NSaved=   2.
 NSaved= 2 IEnMin= 1 EnMin= -239.531380406054     IErMin= 1 ErrMin= 6.19D-06
 ErrMax= 9.59D-06  0.00D+00 EMaxC= 1.00D-01 BMatC= 4.22D-09 BMatP= 1.79D-09
 IDIUse=1 WtCom= 1.00D+00 WtEn= 0.00D+00
 Coeff-Com:  0.606D+00 0.394D+00
 Coeff:      0.606D+00 0.394D+00
 Gap=     0.223 Goal=   None    Shift=    0.000
 RMSDP=9.50D-07 MaxDP=1.22D-05 DE= 1.46D-09 OVMax= 1.42D-05

 Cycle   8  Pass 1  IDiag  1:
 E= -239.531380407258     Delta-E=       -0.000000002669 Rises=F Damp=F
 DIIS: error= 3.37D-07 at cycle   3 NSaved=   3.
 NSaved= 3 IEnMin= 3 EnMin= -239.531380407258     IErMin= 3 ErrMin= 3.37D-07
 ErrMax= 3.37D-07  0.00D+00 EMaxC= 1.00D-01 BMatC= 3.17D-12 BMatP= 1.79D-09
 IDIUse=1 WtCom= 1.00D+00 WtEn= 0.00D+00
 Coeff-Com:  0.139D+00 0.911D-01 0.770D+00
 Coeff:      0.139D+00 0.911D-01 0.770D+00
 Gap=     0.223 Goal=   None    Shift=    0.000
 RMSDP=7.33D-08 MaxDP=8.20D-07 DE=-2.67D-09 OVMax= 6.91D-07

 Cycle   9  Pass 1  IDiag  1:
 E= -239.531380407259     Delta-E=       -0.000000000001 Rises=F Damp=F
 DIIS: error= 2.66D-07 at cycle   4 NSaved=   4.
 NSaved= 4 IEnMin= 4 EnMin= -239.531380407259     IErMin= 4 ErrMin= 2.66D-07
 ErrMax= 2.66D-07  0.00D+00 EMaxC= 1.00D-01 BMatC= 1.63D-12 BMatP= 3.17D-12
 IDIUse=1 WtCom= 1.00D+00 WtEn= 0.00D+00
 Coeff-Com:  0.123D-02 0.142D-02 0.414D+00 0.583D+00
 Coeff:      0.123D-02 0.142D-02 0.414D+00 0.583D+00
 Gap=     0.223 Goal=   None    Shift=    0.000
 RMSDP=2.69D-08 MaxDP=3.31D-07 DE=-1.25D-12 OVMax= 5.43D-07

 Cycle  10  Pass 1  IDiag  1:
 E= -239.531380407260     Delta-E=       -0.000000000001 Rises=F Damp=F
 DIIS: error= 4.14D-08 at cycle   5 NSaved=   5.
 NSaved= 5 IEnMin= 5 EnMin= -239.531380407260     IErMin= 5 ErrMin= 4.14D-08
 ErrMax= 4.14D-08  0.00D+00 EMaxC= 1.00D-01 BMatC= 6.73D-14 BMatP= 1.63D-12
 IDIUse=1 WtCom= 1.00D+00 WtEn= 0.00D+00
 Coeff-Com: -0.656D-02-0.353D-02 0.133D+00 0.259D+00 0.618D+00
 Coeff:     -0.656D-02-0.353D-02 0.133D+00 0.259D+00 0.618D+00
 Gap=     0.223 Goal=   None    Shift=    0.000
 RMSDP=9.66D-09 MaxDP=1.20D-07 DE=-1.02D-12 OVMax= 9.90D-08

 SCF Done:  E(RB3LYP) =  -239.531380407     A.U. after   10 cycles
            NFock= 10  Conv=0.97D-08     -V/T= 2.0039
 KE= 2.385989466259D+02 PE=-7.070336657334D+02 EE= 1.645861690755D+02
 Leave Link  502 at Tue Oct  6 15:59:41 2020, MaxMem=  2684354560 cpu:              13.8 elap:               1.5
 (Enter /udrive/faculty/rpeverati/g16/g16/l508.exe)
 QCSCF skips out because SCF is already converged.
 Leave Link  508 at Tue Oct  6 15:59:42 2020, MaxMem=  2684354560 cpu:               0.2 elap:               0.4
 (Enter /udrive/faculty/rpeverati/g16/g16/l701.exe)
 ... and contract with generalized density number  0.
 Compute integral first derivatives.
 Leave Link  701 at Tue Oct  6 15:59:43 2020, MaxMem=  2684354560 cpu:               3.7 elap:               0.7
 (Enter /udrive/faculty/rpeverati/g16/g16/l702.exe)
 L702 exits ... SP integral derivatives will be done elsewhere.
 Leave Link  702 at Tue Oct  6 15:59:43 2020, MaxMem=  2684354560 cpu:               1.1 elap:               0.5
 (Enter /udrive/faculty/rpeverati/g16/g16/l703.exe)
 Integral derivatives from FoFJK, PRISM(SPDF).
 Compute integral first derivatives, UseDBF=F ICtDFT=           0.
 Calling FoFJK, ICntrl=      2127 FMM=F ISym2X=1 I1Cent= 0 IOpClX= 0 NMat=1 NMatS=1 NMatT=0.
 FoFJK:  IHMeth= 1 ICntrl=    2127 DoSepK=F KAlg= 0 I1Cent=           0 FoldK=F
 IRaf=         0 NMat=       1 IRICut=       1 DoRegI=T DoRafI=F ISym2E= 1 IDoP0=0 IntGTp=1.
 FoFCou: FMM=F IPFlag=           0 FMFlag=      100000 FMFlg1=         800
         NFxFlg=           0 DoJE=F BraDBF=F KetDBF=F FulRan=T
         wScrn=  0.000000 ICntrl=      2127 IOpCl=  0 I1Cent=           0 NGrid=           0
         NMat0=    1 NMatS0=      1 NMatT0=    0 NMatD0=    1 NMtDS0=    0 NMtDT0=    0
 Petite list used in FoFCou.
 Leave Link  703 at Tue Oct  6 15:59:44 2020, MaxMem=  2684354560 cpu:               6.6 elap:               0.9
 (Enter /udrive/faculty/rpeverati/g16/g16/l716.exe)
 Dipole        =-4.44089210D-16-3.33066907D-16-2.30919426D+00
 ***** Axes restored to original set *****
 -------------------------------------------------------------------
 Center     Atomic                   Forces (Hartrees/Bohr)
 Number     Number              X              Y              Z
 -------------------------------------------------------------------
      1        9          -0.000000000    0.000000000   -0.000828515
      2        6          -0.000000000   -0.000000000    0.001892253
      3        1           0.000111295   -0.000192769    0.002121647
      4        1           0.000111295    0.000192769    0.002121647
      5        1          -0.000222590    0.000000000    0.002121647
      6        9          -0.000000000    0.000000000   -0.007428680
 -------------------------------------------------------------------
 Cartesian Forces:  Max     0.007428680 RMS     0.002015291
 Leave Link  716 at Tue Oct  6 15:59:45 2020, MaxMem=  2684354560 cpu:               1.2 elap:               0.6
 (Enter /udrive/faculty/rpeverati/g16/g16/l103.exe)

 GradGradGradGradGradGradGradGradGradGradGradGradGradGradGradGradGradGrad
 Berny optimization.
 Optmz: redundant internal coordinate code flag= 1
 Using GEDIIS/GDIIS optimizer.
 Red2BG:  D1=  5.15D-01 OD1=  7.13D-02 B2RMS=  0.00D+00 IAprox=0
 FormGI is forming the generalized inverse of G from B-inverse, IUseBI=4.
 Internal  Forces:  Max     0.001984486 RMS     0.000865559
 Search for a local minimum.
 Step number   2 out of a maximum of  100
 All quantities printed in internal units (Hartrees-Bohrs-Radians)
 RMS Force = .86556D-03 SwitMx=.10000D-02 MixMth= 2
 Mixed Optimization -- En-DIIS/RFO-DIIS
 Update second derivatives using D2CorX and points    1    2
 DE= -1.06D-03 DEPred=-7.44D-04 R= 1.43D+00
 TightC=F SS=  1.41D+00  RLast= 1.76D-01 DXNew= 5.0454D-01 5.2904D-01
 Trust test= 1.43D+00 RLast= 1.76D-01 DXMaxT set to 5.05D-01
 The second derivative matrix:
                          R1        R2        R3        R4        R5
           R1           0.45671
           R2           0.01765   0.36624
           R3           0.01860   0.00806   0.36704
           R4           0.01678   0.00729   0.00768   0.36551
           R5           0.03080   0.01295   0.01310   0.01281   0.03277
           R6           0.00564   0.00230   0.00223   0.00236  -0.00367
           R7           0.00558   0.00227   0.00221   0.00234  -0.00368
           R8           0.00447   0.00181   0.00173   0.00188  -0.00386
           A1          -0.00648  -0.00261  -0.00249  -0.00272   0.00602
           A2          -0.00645  -0.00260  -0.00247  -0.00271   0.00602
           A3          -0.00626  -0.00252  -0.00239  -0.00263   0.00606
           A4           0.01532   0.00635   0.00630   0.00639  -0.00456
           A5           0.00242   0.00089   0.00074   0.00103  -0.00663
           A6           0.00232   0.00085   0.00069   0.00099  -0.00664
           A7           0.00173   0.00083   0.00098   0.00069   0.00572
           A8          -0.00201  -0.00075  -0.00063  -0.00086   0.00512
           A9          -0.00185  -0.00068  -0.00056  -0.00079   0.00515
           A10          0.00012   0.00005   0.00005   0.00005   0.00002
           A11          0.00016   0.00007   0.00007   0.00007   0.00003
           D1          -0.03057  -0.01294  -0.01320  -0.01270  -0.00529
           D2          -0.00332  -0.00140  -0.00143  -0.00138  -0.00052
           D3          -0.00439  -0.00186  -0.00190  -0.00182  -0.00071
           D4           0.00431   0.00182   0.00186   0.00179   0.00070
                          R6        R7        R8        A1        A2
           R6           0.02011
           R7          -0.00200   0.02011
           R8          -0.00192  -0.00192   0.02028
           A1           0.00294   0.00293   0.00279   0.15576
           A2           0.00294   0.00293   0.00279  -0.00424   0.15576
           A3           0.00292   0.00291   0.00277  -0.00422  -0.00421
           A4          -0.00355  -0.00355  -0.00349   0.00536   0.00536
           A5          -0.00263  -0.00262  -0.00244   0.00370   0.00370
           A6          -0.00263  -0.00262  -0.00244   0.00369   0.00368
           A7           0.00179   0.00178   0.00160  -0.00241  -0.00240
           A8           0.00205   0.00205   0.00191  -0.00289  -0.00289
           A9           0.00204   0.00204   0.00189  -0.00287  -0.00287
           A10         -0.00001  -0.00001  -0.00001   0.00002   0.00002
           A11         -0.00001  -0.00001  -0.00001   0.00002   0.00002
           D1           0.00203   0.00205   0.00236  -0.00376  -0.00377
           D2           0.00024   0.00024   0.00027  -0.00043  -0.00043
           D3           0.00031   0.00031   0.00035  -0.00056  -0.00056
           D4          -0.00030  -0.00030  -0.00035   0.00055   0.00055
                          A3        A4        A5        A6        A7
           A3           0.15581
           A4           0.00535   0.15423
           A5           0.00366  -0.00513   0.15698
           A6           0.00365  -0.00513  -0.00300   0.15701
           A7          -0.00237   0.00380   0.00175   0.00174   0.15921
           A8          -0.00286   0.00399   0.00236   0.00235  -0.00138
           A9          -0.00284   0.00398   0.00234   0.00233  -0.00136
           A10          0.00002  -0.00001  -0.00002  -0.00002   0.00002
           A11          0.00002  -0.00001  -0.00003  -0.00003   0.00003
           D1          -0.00382   0.00125   0.00486   0.00489  -0.00479
           D2          -0.00044   0.00017   0.00055   0.00055  -0.00053
           D3          -0.00057   0.00021   0.00072   0.00072  -0.00070
           D4           0.00056  -0.00021  -0.00070  -0.00071   0.00068
                          A8        A9        A10       A11       D1
           A8           0.15815
           A9          -0.00183   0.15819
           A10          0.00002   0.00002   0.00230
           A11          0.00002   0.00002   0.00000   0.00230
           D1          -0.00374  -0.00378  -0.00003  -0.00004   0.01239
           D2          -0.00042  -0.00043  -0.00000  -0.00000   0.00092
           D3          -0.00055  -0.00056  -0.00000  -0.00001   0.00124
           D4           0.00054   0.00055   0.00000   0.00001  -0.00122
                          D2        D3        D4
           D2           0.00240
           D3           0.00013   0.00247
           D4          -0.00013  -0.00017   0.00247
 ITU=  1  0
 Use linear search instead of GDIIS.
 Eigenvectors of the second derivative matrix:
                           1         2         3         4         5
     Eigenvalues --     0.01120   0.01939   0.01963   0.07178   0.09965
   1         R1         0.04337  -0.00014   0.00007  -0.04549   0.00377
   2         R2         0.01423   0.00036   0.00331  -0.01932   0.00214
   3         R3         0.01433  -0.00430  -0.00018  -0.00696   0.01143
   4         R4         0.01428   0.00369  -0.00293  -0.03128  -0.00789
   5         R5        -0.44672  -0.00006   0.00027   0.39949  -0.03077
   6         R6        -0.49997   0.09418   0.73202  -0.05078   0.00414
   7         R7        -0.50010  -0.67561  -0.28293  -0.04486   0.20567
   8         R8        -0.50120   0.58044  -0.44761  -0.02487  -0.19252
   9         A1         0.04763   0.00420   0.03195   0.18976  -0.00484
  10         A2         0.04762  -0.03283  -0.01203   0.19042  -0.56907
  11         A3         0.04760   0.02902  -0.02027   0.20630   0.52489
  12         A4        -0.05163  -0.00814   0.00509  -0.47519  -0.01833
  13         A5        -0.04656   0.00793   0.00294  -0.05943   0.07107
  14         A6        -0.04657  -0.00018  -0.00767  -0.05965  -0.00306
  15         A7         0.07808   0.04760  -0.03709  -0.13072  -0.02083
  16         A8         0.07960  -0.05576  -0.02388  -0.01992   0.03534
  17         A9         0.07962   0.00812   0.06089  -0.01812  -0.00133
  18         A10        0.00023   0.05025   0.38947  -0.01091   0.01069
  19         A11        0.00034  -0.41454   0.05438  -0.01642  -0.55251
  20         D1        -0.11743  -0.00529   0.00338  -0.64584   0.01788
  21         D2         0.01231  -0.07641   0.08109   0.17123   0.05301
  22         D3        -0.00887  -0.09503  -0.05837   0.09814   0.06500
  23         D4         0.00884  -0.03118  -0.10847  -0.09873   0.01612
                           6         7         8         9        10
     Eigenvalues --     0.10313   0.11708   0.11803   0.32959   0.33923
   1         R1         0.00306  -0.00500   0.03662  -0.04382   0.01310
   2         R2         0.00436   0.01805   0.01255  -0.40551   0.57305
   3         R3         0.00516  -0.02772   0.05945  -0.13809  -0.75669
   4         R4        -0.00476   0.00136  -0.01145   0.84462   0.14744
   5         R5        -0.02495   0.03991  -0.29128   0.00357  -0.01928
   6         R6         0.20687   0.08631   0.03186   0.00445   0.02836
   7         R7        -0.08942  -0.09161   0.02383   0.01217  -0.00760
   8         R8        -0.10279  -0.02098   0.13693   0.01582  -0.00720
   9         A1        -0.65328  -0.08186  -0.12542  -0.01032  -0.00299
  10         A2         0.29451   0.10660  -0.11988  -0.00625  -0.02741
  11         A3         0.31871   0.04069  -0.23269   0.01913  -0.00346
  12         A4        -0.01917   0.05346  -0.39947  -0.03148  -0.07463
  13         A5        -0.04501   0.50721   0.52479   0.03031  -0.02389
  14         A6         0.10477  -0.62698   0.35902  -0.00142   0.13282
  15         A7        -0.01380   0.01367  -0.10361  -0.11510  -0.05825
  16         A8        -0.02183   0.14106   0.13347   0.09142   0.13030
  17         A9         0.04637  -0.17205   0.09647   0.13335  -0.07869
  18         A10       -0.54133  -0.05815   0.01845   0.00868  -0.00662
  19         A11       -0.01112   0.02008   0.03333   0.01071   0.01038
  20         D1         0.01200  -0.00583   0.03707  -0.02110  -0.02619
  21         D2         0.04284  -0.05200   0.36337   0.05714  -0.14321
  22         D3        -0.05603   0.33015   0.22827  -0.17370   0.03245
  23         D4        -0.09162   0.37795  -0.12927   0.15772   0.04813
                          11        12
     Eigenvalues --     0.34733   0.46762
   1         R1        -0.26518   0.96034
   2         R2         0.62960   0.14557
   3         R3         0.53700   0.14886
   4         R4         0.36258   0.13501
   5         R5         0.03212   0.05991
   6         R6         0.03573   0.02838
   7         R7         0.03344   0.02837
   8         R8         0.03098   0.02670
   9         A1         0.02340   0.01933
  10         A2         0.02180   0.01940
  11         A3         0.01790   0.01950
  12         A4        -0.00066  -0.00513
  13         A5        -0.03708  -0.02675
  14         A6        -0.02621  -0.02712
  15         A7         0.21865   0.05036
  16         A8         0.17498   0.04174
  17         A9         0.16039   0.04227
  18         A10       -0.00193   0.00008
  19         A11       -0.00173   0.00006
  20         D1        -0.03810  -0.03797
  21         D2        -0.00221  -0.00298
  22         D3         0.00673  -0.00853
  23         D4        -0.00105   0.00830
 Iter=   1 RLamda= 0.00000000D+00 Sum=-8.84613027D-04.
 Iter=   2 RLamda=-8.84613027D-04 Sum=-8.45190913D-04.
 Iter=   3 RLamda=-8.45190913D-04 Sum=-8.46830008D-04.
 Iter=   4 RLamda=-8.46830008D-04 Sum=-8.46761654D-04.
 Iter=   5 RLamda=-8.46761654D-04 Sum=-8.46764504D-04.
 RFO step:  Lambda=-8.46761654D-04 EMin= 1.11964859D-02
 Quartic linear search produced a step of  0.92584.
 Iteration  1 RMS(Cart)=  0.03519659 RMS(Int)=  0.00061418
 Iteration  2 RMS(Cart)=  0.00026140 RMS(Int)=  0.00052081
 Iteration  3 RMS(Cart)=  0.00000006 RMS(Int)=  0.00052081
 ITry= 1 IFail=0 DXMaxC= 1.48D-01 DCOld= 1.00D+10 DXMaxT= 5.05D-01 DXLimC= 3.00D+00 Rises=F
 ClnCor:  largest displacement from symmetrization is 3.43D-04 for atom     3.
 Variable       Old X    -DE/DX   Delta X   Delta X   Delta X     New X
                                 (Linear)    (Quad)   (Total)
    R1        2.71863   0.00083   0.02254  -0.00555   0.01699   2.73561
    R2        2.05481   0.00051   0.01090  -0.00448   0.00601   2.06083
    R3        2.05481   0.00050   0.01090  -0.00448   0.00601   2.06083
    R4        2.05481   0.00048   0.01090  -0.00449   0.00601   2.06083
    R5        4.81164  -0.00198  -0.05101  -0.11066  -0.16165   4.64998
    R6        4.54589  -0.00191  -0.07994  -0.09753  -0.17735   4.36854
    R7        4.54589  -0.00191  -0.07994  -0.09750  -0.17735   4.36854
    R8        4.54589  -0.00192  -0.07994  -0.09780  -0.17735   4.36854
    A1        1.91695   0.00008   0.01704  -0.00145   0.01572   1.93267
    A2        1.91695   0.00008   0.01704  -0.00145   0.01572   1.93267
    A3        1.91695   0.00008   0.01704  -0.00145   0.01572   1.93267
    A4        1.90427  -0.00004  -0.01693   0.00136  -0.01619   1.88809
    A5        1.90427  -0.00011  -0.01693   0.00152  -0.01619   1.88809
    A6        1.90427  -0.00011  -0.01693   0.00152  -0.01619   1.88809
    A7        0.75423   0.00052   0.01315   0.01565   0.02987   0.78410
    A8        0.75423   0.00050   0.01315   0.01572   0.02987   0.78410
    A9        0.75423   0.00049   0.01315   0.01572   0.02987   0.78410
   A10        3.14159   0.00000   0.00000   0.00004   0.00000   3.14159
   A11        3.14159   0.00000   0.00000   0.00009   0.00000   3.14159
    D1        2.07901  -0.00017  -0.04195   0.00344  -0.03755   2.04146
    D2        0.56781   0.00003   0.00164   0.00208   0.00387   0.57169
    D3       -0.56781  -0.00007  -0.00164  -0.00193  -0.00387  -0.57169
    D4        0.56781   0.00007   0.00164   0.00194   0.00387   0.57169
         Item               Value     Threshold  Converged?
 Maximum Force            0.001984     0.000450     NO 
 RMS     Force            0.000866     0.000300     NO 
 Maximum Displacement     0.148097     0.001800     NO 
 RMS     Displacement     0.035242     0.001200     NO 
 Predicted change in Energy=-7.070672D-04
 Lowest energy point so far.  Saving SCF results.
 Largest change from initial coordinates is atom    6       0.096 Angstoms.
 GradGradGradGradGradGradGradGradGradGradGradGradGradGradGradGradGradGrad

 Leave Link  103 at Tue Oct  6 15:59:46 2020, MaxMem=  2684354560 cpu:               2.0 elap:               0.5
 (Enter /udrive/faculty/rpeverati/g16/g16/l202.exe)
                          Input orientation:                          
 ---------------------------------------------------------------------
 Center     Atomic      Atomic             Coordinates (Angstroms)
 Number     Number       Type             X           Y           Z
 ---------------------------------------------------------------------
      1          9           0        0.000000   -0.000000   -1.809509
      2          6           0        0.000000   -0.000000   -0.361885
      3          1           0       -0.509956    0.883271    0.024201
      4          1           0       -0.509956   -0.883271    0.024201
      5          1           0        1.019913   -0.000000    0.024201
      6          9           0        0.000000   -0.000000    2.098781
 ---------------------------------------------------------------------
                    Distance matrix (angstroms):
                    1          2          3          4          5
     1  F    0.000000
     2  C    1.447624   0.000000
     3  H    2.098265   1.090543   0.000000
     4  H    2.098265   1.090543   1.766541   0.000000
     5  H    2.098265   1.090543   1.766541   1.766541   0.000000
     6  F    3.908290   2.460666   2.311731   2.311731   2.311731
                    6
     6  F    0.000000
 Stoichiometry    CH3F2(1-)
 Framework group  C3V[C3(FCF),3SGV(H)]
 Deg. of freedom     4
 Full point group                 C3V     NOp   6
 RotChk:  IX=0 Diff= 0.00D+00
 Largest Abelian subgroup         CS      NOp   2
 Largest concise Abelian subgroup CS      NOp   2
                         Standard orientation:                         
 ---------------------------------------------------------------------
 Center     Atomic      Atomic             Coordinates (Angstroms)
 Number     Number       Type             X           Y           Z
 ---------------------------------------------------------------------
      1          9           0        0.000000    0.000000   -1.828203
      2          6           0        0.000000    0.000000   -0.380579
      3          1           0       -0.000000    1.019913    0.005507
      4          1           0       -0.883271   -0.509956    0.005507
      5          1           0        0.883271   -0.509956    0.005507
      6          9           0        0.000000    0.000000    2.080087
 ---------------------------------------------------------------------
 Rotational constants (GHZ):         160.6884177           3.3915759           3.3915759
 Leave Link  202 at Tue Oct  6 15:59:46 2020, MaxMem=  2684354560 cpu:               1.1 elap:               0.4
 (Enter /udrive/faculty/rpeverati/g16/g16/l301.exe)
 Standard basis: 6-31G(d) (5D, 7F)
 Ernie: Thresh=  0.10000D-02 Tol=  0.10000D-05 Strict=F.
 There are    37 symmetry adapted cartesian basis functions of A'  symmetry.
 There are    14 symmetry adapted cartesian basis functions of A"  symmetry.
 There are    34 symmetry adapted basis functions of A'  symmetry.
 There are    14 symmetry adapted basis functions of A"  symmetry.
    48 basis functions,    96 primitive gaussians,    51 cartesian basis functions
    14 alpha electrons       14 beta electrons
       nuclear repulsion energy        64.9427747443 Hartrees.
 IExCor=  402 DFT=T Ex+Corr=B3LYP ExCW=0 ScaHFX=  0.200000
 ScaDFX=  0.800000  0.720000  1.000000  0.810000 ScalE2=  1.000000  1.000000
 IRadAn=      5 IRanWt=     -1 IRanGd=            0 ICorTp=0 IEmpDi=  4
 NAtoms=    6 NActive=    6 NUniq=    4 SFac= 2.25D+00 NAtFMM=   60 NAOKFM=F Big=F
 Integral buffers will be    131072 words long.
 Raffenetti 2 integral format.
 Two-electron integral symmetry is turned on.
 Leave Link  301 at Tue Oct  6 15:59:47 2020, MaxMem=  2684354560 cpu:               1.6 elap:               0.4
 (Enter /udrive/faculty/rpeverati/g16/g16/l302.exe)
 NPDir=0 NMtPBC=     1 NCelOv=     1 NCel=       1 NClECP=     1 NCelD=      1
         NCelK=      1 NCelE2=     1 NClLst=     1 CellRange=     0.0.
 One-electron integrals computed using PRISM.
 One-electron integral symmetry used in STVInt
 NBasis=    48 RedAO= T EigKep=  1.93D-02  NBF=    34    14
 NBsUse=    48 1.00D-06 EigRej= -1.00D+00 NBFU=    34    14
 Precomputing XC quadrature grid using
 IXCGrd= 4 IRadAn=           5 IRanWt=          -1 IRanGd=           0 AccXCQ= 0.00D+00.
 Generated NRdTot=       0 NPtTot=           0 NUsed=           0 NTot=          32
 NSgBfM=    51    51    51    51    51 MxSgAt=     6 MxSgA2=     6.
 Leave Link  302 at Tue Oct  6 15:59:48 2020, MaxMem=  2684354560 cpu:               3.6 elap:               0.6
 (Enter /udrive/faculty/rpeverati/g16/g16/l303.exe)
 DipDrv:  MaxL=1.
 Leave Link  303 at Tue Oct  6 15:59:49 2020, MaxMem=  2684354560 cpu:               1.3 elap:               0.4
 (Enter /udrive/faculty/rpeverati/g16/g16/l401.exe)
 Initial guess from the checkpoint file:  "MN_38_fch3fcomp_BH76_B3LYP_6-31Gs.chk"
 SCF N**3 symmetry information disabled.
 B after Tr=    -0.000000   -0.000000   -0.000000
         Rot=    1.000000    0.000000   -0.000000    0.000000 Ang=   0.00 deg.
 Guess basis will be translated and rotated to current coordinates.
 JPrj=2 DoOrth=T DoCkMO=T.
 Initial guess orbital symmetries:
       Occupied  (A1) (A1) (A1) (A1) (A1) (A1) (A1) (E) (E) (E)
                 (E) (A1) (E) (E)
       Virtual   (A1) (A1) (E) (E) (E) (E) (A1) (E) (E) (A1) (A1)
[...]
           A9          -0.00541   0.15463
           A10          0.00003   0.00003   0.00230
           A11          0.00004   0.00004   0.00000   0.00230
           D1          -0.00551  -0.00567  -0.00012  -0.00015   0.02606
           D2          -0.00072  -0.00075  -0.00002  -0.00002   0.00308
           D3          -0.00074  -0.00076  -0.00001  -0.00002   0.00292
           D4           0.00072   0.00074   0.00001   0.00002  -0.00285
                          D2        D3        D4
           D2           0.00272
           D3           0.00039   0.00268
           D4          -0.00038  -0.00037   0.00266
 ITU=  1  1  1  1  1  1  0
 Eigenvectors of the second derivative matrix:
                           1         2         3         4         5
     Eigenvalues --     0.00863   0.01960   0.01983   0.03463   0.09941
   1         R1         0.02790  -0.00110   0.00080  -0.22684  -0.01981
   2         R2        -0.01059   0.00089   0.00388   0.02240   0.00181
   3         R3        -0.01050  -0.00474  -0.00039   0.02369  -0.01490
   4         R4        -0.01041   0.00434  -0.00371   0.01908   0.01735
   5         R5        -0.54150   0.00170  -0.00095   0.36300   0.02514
   6         R6        -0.47569   0.12481   0.72642  -0.15730  -0.01174
   7         R7        -0.47575  -0.68718  -0.25159  -0.15463  -0.20268
   8         R8        -0.47663   0.55841  -0.47127  -0.16094   0.18310
   9         A1        -0.00409   0.00693   0.03133   0.23739   0.02650
  10         A2        -0.00409  -0.03269  -0.01155   0.23770   0.54813
  11         A3        -0.00410   0.02996  -0.02278   0.23701  -0.52602
  12         A4         0.00446  -0.01245   0.00871  -0.31512   0.09927
  13         A5         0.00405   0.01016   0.00447  -0.20632  -0.10900
  14         A6         0.00404  -0.00200  -0.01011  -0.20637  -0.03995
  15         A7         0.09166   0.05137  -0.04387  -0.05519   0.04879
  16         A8         0.09164  -0.06381  -0.02399  -0.02245  -0.04621
  17         A9         0.09166   0.01212   0.06800  -0.02247  -0.00969
  18         A10        0.00017   0.06734   0.38774   0.00014   0.00964
  19         A11        0.00028  -0.41364   0.07300   0.00216   0.54514
  20         D1         0.01001  -0.01029   0.00724  -0.61618   0.03383
  21         D2         0.01253  -0.06899   0.08748   0.04342  -0.10616
  22         D3        -0.01269  -0.09520  -0.05841   0.02919  -0.08980
  23         D4         0.01267  -0.04063  -0.10559  -0.02887   0.01315
                           6         7         8         9        10
     Eigenvalues --     0.10295   0.10754   0.11688   0.30134   0.32916
   1         R1        -0.02411   0.10115   0.00109  -0.59679   0.08023
   2         R2        -0.00157  -0.01627   0.01903   0.33774  -0.50446
   3         R3        -0.00754   0.03213  -0.01874   0.43782  -0.30459
   4         R4         0.01416  -0.03768  -0.00058   0.46375   0.73796
   5         R5         0.03007  -0.12372  -0.00128  -0.08515   0.00767
   6         R6        -0.20250  -0.03192   0.09217   0.04201  -0.00690
   7         R7         0.09668   0.02016  -0.08972   0.04649  -0.00029
   8         R8         0.06833   0.16497  -0.00095   0.05221   0.00813
   9         A1         0.64059   0.07971  -0.10150  -0.03752  -0.01183
  10         A2        -0.32156  -0.04898   0.09185  -0.03540  -0.00800
  11         A3        -0.26089  -0.26951   0.00722  -0.03620   0.02532
  12         A4         0.12153  -0.51260  -0.00543   0.00968  -0.03378
  13         A5        -0.01312   0.38787   0.57303   0.05714   0.02632
  14         A6        -0.16783   0.36877  -0.56512   0.04471   0.00185
  15         A7         0.04558  -0.15132  -0.00183   0.15462  -0.17697
  16         A8         0.01197   0.09347   0.16888   0.17384   0.05619
  17         A9        -0.06605   0.09250  -0.16671   0.19032   0.08946
  18         A10        0.52823   0.11913  -0.05684   0.00081   0.01060
  19         A11       -0.02797   0.08943   0.02591  -0.00031   0.01403
  20         D1         0.04221  -0.18182  -0.00199   0.07016  -0.02445
  21         D2        -0.11186   0.37741   0.00188   0.05546   0.04209
  22         D3         0.02462   0.20046   0.35996  -0.02943  -0.16948
  23         D4         0.13042  -0.18564   0.35553   0.02405   0.15809
                          11        12
     Eigenvalues --     0.33847   0.41712
   1         R1        -0.02005   0.75734
   2         R2         0.64441   0.34589
   3         R3        -0.69379   0.36148
   4         R4         0.14998   0.30328
   5         R5        -0.01881   0.07840
   6         R6         0.03425   0.00194
   7         R7        -0.00734   0.00217
   8         R8        -0.00387  -0.00423
   9         A1         0.00235   0.05357
  10         A2        -0.03009   0.05398
  11         A3        -0.00243   0.05386
  12         A4        -0.07203  -0.01035
  13         A5        -0.03003  -0.07639
  14         A6         0.13289  -0.07823
  15         A7        -0.03478   0.14282
  16         A8         0.15224   0.11135
  17         A9        -0.07103   0.11399
  18         A10       -0.00988   0.00022
  19         A11        0.01194  -0.00006
  20         D1        -0.02753  -0.10129
  21         D2        -0.14420  -0.00896
  22         D3         0.03723  -0.02397
  23         D4         0.04014   0.02299
 DoSqrt=T IScMMF=    -3 MM Scaling Factor =       0.00000
 En-DIIS/RFO-DIIS/Sim-DIIS IScMMF=       -3 using points:     7    6    5    4
 Iter=   1 RLamda=-4.13687564D-02 Sum=-5.89277067D-07.
 Iter=   2 RLamda=-5.89277067D-07 Sum=-8.24261607D-07.
 Iter=   3 RLamda=-8.24261607D-07 Sum=-8.24258959D-07.
 RFO step:  Lambda=-8.24261607D-07.
 NNeg= 0 NGDIIS= 4 SimSw=  2.50D-01 Rises=F DC= -1.26D-06 SmlDif=  1.00D-05
 NRisDI= 0 DoIntr=F SqrtH=F CThrHd= 10.0 CDAdj=  3.0
 RMS Error=  0.7000138980D-03 NUsed= 4 OKEnD=F EnDIS=F
 Total RFO-DIIS matrix:
                 1             2             3             4             5 
      1   0.000000D+00 -0.100000D+01 -0.100000D+01 -0.100000D+01 -0.100000D+01
      2  -0.100000D+01  0.112704D-04  0.285258D-04  0.796489D-04  0.113104D-03
      3  -0.100000D+01  0.285258D-04  0.794158D-04  0.202942D-03  0.191995D-03
      4  -0.100000D+01  0.796489D-04  0.202942D-03  0.685864D-03  0.124584D-02
      5  -0.100000D+01  0.113104D-03  0.191995D-03  0.124584D-02  0.412249D-02
 InvSVX:  RCond= 6.16D-08 Info=           0 Equed=N FErr=  5.26D-13 BErr=  5.78D-17
 DIIS inversion failure, remove point   4.
 InvSVX:  RCond= 2.12D-06 Info=           0 Equed=N FErr=  5.39D-15 BErr=  6.53D-17
 RFO-DIIS uses    3 points instead of    4
 DidBck=F Rises=F RFO-DIIS coefs:    1.36519   -0.29651   -0.06868    0.00000
 Iteration  1 RMS(Cart)=  0.00034246 RMS(Int)=  0.00000199
 Iteration  2 RMS(Cart)=  0.00000017 RMS(Int)=  0.00000198
 ITry= 1 IFail=0 DXMaxC= 1.09D-03 DCOld= 1.00D+10 DXMaxT= 8.49D-01 DXLimC= 3.00D+00 Rises=F
 ClnCor:  largest displacement from symmetrization is 5.05D-06 for atom     4.
 Variable       Old X    -DE/DX   Delta X   Delta X   Delta X     New X
                                 (Linear)    (Quad)   (Total)
    R1        2.73827   0.00043   0.00057   0.00111   0.00169   2.73996
    R2        2.05360   0.00005  -0.00021   0.00017  -0.00004   2.05356
    R3        2.05360   0.00005  -0.00021   0.00017  -0.00004   2.05356
    R4        2.05360   0.00005  -0.00021   0.00017  -0.00004   2.05356
    R5        4.51562   0.00000  -0.00055  -0.00011  -0.00065   4.51496
    R6        4.27106   0.00001   0.00104  -0.00016   0.00088   4.27194
    R7        4.27106   0.00001   0.00104  -0.00016   0.00088   4.27194
    R8        4.27106   0.00001   0.00104  -0.00015   0.00088   4.27194
    A1        1.92117  -0.00000  -0.00076   0.00004  -0.00072   1.92045
    A2        1.92117  -0.00000  -0.00076   0.00004  -0.00072   1.92045
    A3        1.92117  -0.00000  -0.00076   0.00004  -0.00072   1.92045
    A4        1.89998   0.00000   0.00078  -0.00004   0.00073   1.90071
    A5        1.89998   0.00000   0.00078  -0.00004   0.00073   1.90071
    A6        1.89998   0.00000   0.00078  -0.00004   0.00073   1.90071
    A7        0.80366   0.00002  -0.00006   0.00009   0.00003   0.80369
    A8        0.80366   0.00002  -0.00006   0.00009   0.00003   0.80369
    A9        0.80366   0.00002  -0.00006   0.00009   0.00003   0.80369
   A10        3.14159  -0.00000   0.00000  -0.00000   0.00000   3.14159
   A11        3.14159  -0.00000  -0.00000  -0.00000   0.00000   3.14159
    D1        2.06882   0.00000   0.00182  -0.00010   0.00173   2.07055
    D2        0.57433   0.00000  -0.00001   0.00001   0.00000   0.57434
    D3       -0.57433  -0.00000   0.00001  -0.00001  -0.00000  -0.57434
    D4        0.57433   0.00000  -0.00001   0.00001   0.00000   0.57434
         Item               Value     Threshold  Converged?
 Maximum Force            0.000432     0.000450     YES
 RMS     Force            0.000092     0.000300     YES
 Maximum Displacement     0.001091     0.001800     YES
 RMS     Displacement     0.000342     0.001200     YES
 Predicted change in Energy=-4.079946D-07
 Optimization completed.
    -- Stationary point found.
                           ----------------------------
                           !   Optimized Parameters   !
                           ! (Angstroms and Degrees)  !
 --------------------------                            --------------------------
 ! Name  Definition              Value          Derivative Info.                !
 --------------------------------------------------------------------------------
 ! R1    R(1,2)                  1.449          -DE/DX =    0.0004              !
 ! R2    R(2,3)                  1.0867         -DE/DX =    0.0                 !
 ! R3    R(2,4)                  1.0867         -DE/DX =    0.0                 !
 ! R4    R(2,5)                  1.0867         -DE/DX =    0.0                 !
 ! R5    R(2,6)                  2.3896         -DE/DX =    0.0                 !
 ! R6    R(3,6)                  2.2601         -DE/DX =    0.0                 !
 ! R7    R(4,6)                  2.2601         -DE/DX =    0.0                 !
 ! R8    R(5,6)                  2.2601         -DE/DX =    0.0                 !
 ! A1    A(1,2,3)              110.0751         -DE/DX =    0.0                 !
 ! A2    A(1,2,4)              110.0751         -DE/DX =    0.0                 !
 ! A3    A(1,2,5)              110.0751         -DE/DX =    0.0                 !
 ! A4    A(3,2,4)              108.8606         -DE/DX =    0.0                 !
 ! A5    A(3,2,5)              108.8606         -DE/DX =    0.0                 !
 ! A6    A(4,2,5)              108.8606         -DE/DX =    0.0                 !
 ! A7    A(3,6,4)               46.0461         -DE/DX =    0.0                 !
 ! A8    A(3,6,5)               46.0461         -DE/DX =    0.0                 !
 ! A9    A(4,6,5)               46.0461         -DE/DX =    0.0                 !
 ! A10   L(1,2,6,3,-1)         180.0            -DE/DX =    0.0                 !
 ! A11   L(1,2,6,3,-2)         180.0            -DE/DX =    0.0                 !
 ! D1    D(3,2,5,4)            118.5345         -DE/DX =    0.0                 !
 ! D2    D(4,3,6,2)             32.9067         -DE/DX =    0.0                 !
 ! D3    D(5,3,6,2)            -32.9067         -DE/DX =    0.0                 !
 ! D4    D(5,4,6,2)             32.9067         -DE/DX =    0.0                 !
 --------------------------------------------------------------------------------
 Lowest energy point so far.  Saving SCF results.
 Largest change from initial coordinates is atom    6       0.119 Angstoms.
 GradGradGradGradGradGradGradGradGradGradGradGradGradGradGradGradGradGrad

 Leave Link  103 at Tue Oct  6 16:00:38 2020, MaxMem=  2684354560 cpu:               3.1 elap:               0.7
 (Enter /udrive/faculty/rpeverati/g16/g16/l202.exe)
                          Input orientation:                          
 ---------------------------------------------------------------------
 Center     Atomic      Atomic             Coordinates (Angstroms)
 Number     Number       Type             X           Y           Z
 ---------------------------------------------------------------------
      1          9           0        0.000000   -0.000000   -1.792273
      2          6           0        0.000000   -0.000000   -0.343242
      3          1           0       -0.510347    0.883946    0.029777
      4          1           0       -0.510347   -0.883946    0.029777
      5          1           0        1.020693   -0.000000    0.029777
      6          9           0        0.000000   -0.000000    2.046320
 ---------------------------------------------------------------------
                    Distance matrix (angstroms):
                    1          2          3          4          5
     1  F    0.000000
     2  C    1.449032   0.000000
     3  H    2.088464   1.086719   0.000000
     4  H    2.088464   1.086719   1.767893   0.000000
     5  H    2.088464   1.086719   1.767893   1.767893   0.000000
     6  F    3.838594   2.389562   2.260147   2.260147   2.260147
                    6
     6  F    0.000000
 Stoichiometry    CH3F2(1-)
 Framework group  C3V[C3(FCF),3SGV(H)]
 Deg. of freedom     4
 Full point group                 C3V     NOp   6
 RotChk:  IX=0 Diff= 0.00D+00
 Largest Abelian subgroup         CS      NOp   2
 Largest concise Abelian subgroup CS      NOp   2
                         Standard orientation:                         
 ---------------------------------------------------------------------
 Center     Atomic      Atomic             Coordinates (Angstroms)
 Number     Number       Type             X           Y           Z
 ---------------------------------------------------------------------
      1          9           0        0.000000    0.000000   -1.803988
      2          6           0        0.000000    0.000000   -0.354957
      3          1           0       -0.000000    1.020693    0.018062
      4          1           0       -0.883946   -0.510347    0.018062
      5          1           0        0.883946   -0.510347    0.018062
      6          9           0        0.000000    0.000000    2.034605
 ---------------------------------------------------------------------
 Rotational constants (GHZ):         160.4427962           3.5203004           3.5203004
 Leave Link  202 at Tue Oct  6 16:00:39 2020, MaxMem=  2684354560 cpu:               1.7 elap:               0.5
 (Enter /udrive/faculty/rpeverati/g16/g16/l601.exe)
 Copying SCF densities to generalized density rwf, IOpCl= 0 IROHF=0.

 **********************************************************************

            Population analysis using the SCF density.

 **********************************************************************

 Orbital symmetries:
       Occupied  (A1) (A1) (A1) (A1) (A1) (A1) (A1) (E) (E) (E)
                 (E) (A1) (E) (E)
       Virtual   (A1) (A1) (E) (E) (E) (E) (A1) (E) (E) (A1) (A1)
                 (A1) (E) (E) (E) (E) (A1) (E) (E) (A1) (E) (E)
                 (A1) (A1) (E) (E) (E) (E) (E) (E) (A1) (E) (E)
                 (A1)
 The electronic state is 1-A1.
 Alpha  occ. eigenvalues --  -24.44846 -24.17842 -10.01995  -0.94780  -0.64454
 Alpha  occ. eigenvalues --   -0.47078  -0.25175  -0.24762  -0.24762  -0.12793
 Alpha  occ. eigenvalues --   -0.12793   0.07105   0.07524   0.07524
 Alpha virt. eigenvalues --    0.31672   0.35725   0.38393   0.38393   0.75356
 Alpha virt. eigenvalues --    0.75356   0.77280   1.07058   1.07058   1.12108
 Alpha virt. eigenvalues --    1.23935   1.44539   1.44852   1.44852   1.61096
 Alpha virt. eigenvalues --    1.61096   1.66303   1.74006   1.74006   1.99281
 Alpha virt. eigenvalues --    2.04171   2.04171   2.12380   2.24997   2.28113
 Alpha virt. eigenvalues --    2.28113   2.29176   2.29176   2.38886   2.38886
 Alpha virt. eigenvalues --    2.46900   2.60257   2.60257   3.18581
          Condensed to atoms (all electrons):
               1          2          3          4          5          6
     1  F    9.384643   0.137655  -0.029439  -0.029439  -0.029439   0.000199
     2  C    0.137655   4.873282   0.361043   0.361043   0.361043   0.026367
     3  H   -0.029439   0.361043   0.619217  -0.043718  -0.043718   0.015354
     4  H   -0.029439   0.361043  -0.043718   0.619217  -0.043718   0.015354
     5  H   -0.029439   0.361043  -0.043718  -0.043718   0.619217   0.015354
     6  F    0.000199   0.026367   0.015354   0.015354   0.015354   9.736545
 Mulliken charges:
               1
     1  F   -0.434178
     2  C   -0.120434
     3  H    0.121262
     4  H    0.121262
     5  H    0.121262
     6  F   -0.809174
 Sum of Mulliken charges =  -1.00000
 Mulliken charges with hydrogens summed into heavy atoms:
               1
     1  F   -0.434178
     2  C    0.243352
     6  F   -0.809174
 Electronic spatial extent (au):  <R**2>=            307.7953
 Charge=             -1.0000 electrons
 Dipole moment (field-independent basis, Debye):
    X=             -0.0000    Y=             -0.0000    Z=             -5.1296  Tot=              5.1296
 Quadrupole moment (field-independent basis, Debye-Ang):
   XX=            -17.7986   YY=            -17.7986   ZZ=            -40.1164
   XY=             -0.0000   XZ=              0.0000   YZ=              0.0000
 Traceless Quadrupole moment (field-independent basis, Debye-Ang):
   XX=              7.4393   YY=              7.4393   ZZ=            -14.8786
   XY=             -0.0000   XZ=              0.0000   YZ=              0.0000
 Octapole moment (field-independent basis, Debye-Ang**2):
  XXX=              0.0000  YYY=              0.3770  ZZZ=            -24.7812  XYY=              0.0000
  XXY=             -0.3770  XXZ=             -0.5411  XZZ=              0.0000  YZZ=              0.0000
  YYZ=             -0.5411  XYZ=             -0.0000
 Hexadecapole moment (field-independent basis, Debye-Ang**3):
 XXXX=            -20.2939 YYYY=            -20.2939 ZZZZ=           -332.1626 XXXY=              0.0000
 XXXZ=             -0.0000 YYYX=              0.0000 YYYZ=              0.0601 ZZZX=              0.0000
 ZZZY=              0.0000 XXYY=             -6.7646 XXZZ=            -45.3481 YYZZ=            -45.3481
 XXYZ=             -0.0601 YYXZ=              0.0000 ZZXY=              0.0000
 N-N= 6.567135521528D+01 E-N=-7.098896689488D+02  KE= 2.386131051990D+02
 No NMR shielding tensors so no spin-rotation constants.
 Leave Link  601 at Tue Oct  6 16:00:40 2020, MaxMem=  2684354560 cpu:               4.0 elap:               0.7
 (Enter /udrive/faculty/rpeverati/g16/g16/l9999.exe)

 Test job not archived.
 1\1\GINC-NODE34\FOpt\RB3LYP\6-31G(d)\C1H3F2(1-)\RPEVERATI\06-Oct-2020\
 0\\#P Opt(MaxCyc=100) B3LYP/6-31G* 5D 7F Integral=UltraFineGrid SCF=(N
 oSymm,XQC,MaxCyc=120) IOp(1/33=1)\\TS search on BH76.\\-1,1\F,0.,0.,-1
 .7922733185\C,0.,0.,-0.3432415553\H,-0.5103466802,0.8839463796,0.02977
 68736\H,-0.5103466802,-0.8839463796,0.0297768736\H,1.0206933604,0.,0.0
 297768736\F,0.,0.,2.0463202943\\Version=ES64L-G16RevA.03\State=1-A1\HF
 =-239.532606\RMSD=2.129e-09\RMSF=1.396e-04\Dipole=0.,0.,-2.0181323\Qua
 drupole=5.5309243,5.5309243,-11.0618485,0.,0.,0.\PG=C03V [C3(F1C1F1),3
 SGV(H1)]\\@


 OUR LITTLE SYSTEMS HAVE THEIR DAY,    
   THEY HAVE THEIR DAY AND CEASE TO BE.
   THEY ARE BUT BROKEN LIGHTS OF THEE, 
 AND THOU, OH LORD, ART MORE THAN THEY.
          -------------------          
 LET KNOWLEDGE GROW FROM MORE TO MORE, 
   BUT MORE OF REVERENCE IN US DWELL.  
   THAT MIND AND SOUL, ACCORDING WELL, 
 MAY MAKE ONE MUSIC AS BEFORE.....     
          -------------------          
                    LORD TENNYSON      
 Job cpu time:       0 days  0 hours  5 minutes 51.3 seconds.
 Elapsed time:       0 days  0 hours  0 minutes 59.7 seconds.
 File lengths (MBytes):  RWF=      5 Int=      0 D2E=      0 Chk=      1 Scr=      1
 Normal termination of Gaussian 16 at Tue Oct  6 16:00:41 2020.
