 Entering Gaussian System, Link 0=g16
 Input=MN_32_co_BH76_B3LYP_6-31Gs.in
 Output=MN_32_co_BH76_B3LYP_6-31Gs.log
 Initial command:
 /udrive/faculty/rpeverati/g16/g16/l1.exe "/udrive/scratch-directories/gaussian09/rpeverati/Gau-12672.inp" -scrdir="/udrive/scratch-directories/gaussian09/rpeverati/"
 Entering Link 1 = /udrive/faculty/rpeverati/g16/g16/l1.exe PID=     12691.
  
 Copyright (c) 1988,1990,1992,1993,1995,1998,2003,2009,2016,
            Gaussian, Inc.  All Rights Reserved.
  
 This is part of the Gaussian(R) 16 program.  It is based on
 the Gaussian(R) 09 system (copyright 2009, Gaussian, Inc.),
 the Gaussian(R) 03 system (copyright 2003, Gaussian, Inc.),
 the Gaussian(R) 98 system (copyright 1998, Gaussian, Inc.),
 the Gaussian(R) 94 system (copyright 1995, Gaussian, Inc.),
 the Gaussian 92(TM) system (copyright 1992, Gaussian, Inc.),
 the Gaussian 90(TM) system (copyright 1990, Gaussian, Inc.),
 the Gaussian 88(TM) system (copyright 1988, Gaussian, Inc.),
 the Gaussian 86(TM) system (copyright 1986, Carnegie Mellon
 University), and the Gaussian 82(TM) system (copyright 1983,
 Carnegie Mellon University). Gaussian is a federally registered
 trademark of Gaussian, Inc.
  
 This software contains proprietary and confidential information,
 including trade secrets, belonging to Gaussian, Inc.
  
 This software is provided under written license and may be
 used, copied, transmitted, or stored only in accord with that
 written license.
  
 The following legend is applicable only to US Government
 contracts under FAR:
  
                    RESTRICTED RIGHTS LEGEND
  
 Use, reproduction and disclosure by the US Government is
 subject to restrictions as set forth in subparagraphs (a)
 and (c) of the Commercial Computer Software - Restricted
 Rights clause in FAR 52.227-19.
  
 Gaussian, Inc.
 340 Quinnipiac St., Bldg. 40, Wallingford CT 06492
  
  
 ---------------------------------------------------------------
 Warning -- This program may not be used in any manner that
 competes with the business of Gaussian, Inc. or will provide
 assistance to any competitor of Gaussian, Inc.  The licensee
 of this program is prohibited from giving any competitor of
 Gaussian, Inc. access to this program.  By using this program,
 the user acknowledges that Gaussian, Inc. is engaged in the
 business of creating and licensing software in the field of
 computational chemistry and represents and warrants to the
 licensee that it is not a competitor of Gaussian, Inc. and that
 it will not use this program in any manner prohibited above.
 ---------------------------------------------------------------
  

 Cite this work as:
 Gaussian 16, Revision A.03,
 M. J. Frisch, G. W. Trucks, H. B. Schlegel, G. E. Scuseria, 
 M. A. Robb, J. R. Cheeseman, G. Scalmani, V. Barone, 
 G. A. Petersson, H. Nakatsuji, X. Li, M. Caricato, A. V. Marenich, 
 J. Bloino, B. G. Janesko, R. Gomperts, B. Mennucci, H. P. Hratchian, 
 J. V. Ortiz, A. F. Izmaylov, J. L. Sonnenberg, D. Williams-Young, 
 F. Ding, F. Lipparini, F. Egidi, J. Goings, B. Peng, A. Petrone, 
 T. Henderson, D. Ranasinghe, V. G. Zakrzewski, J. Gao, N. Rega, 
 G. Zheng, W. Liang, M. Hada, M. Ehara, K. Toyota, R. Fukuda, 
 J. Hasegawa, M. Ishida, T. Nakajima, Y. Honda, O. Kitao, H. Nakai, 
 T. Vreven, K. Throssell, J. A. Montgomery, Jr., J. E. Peralta, 
 F. Ogliaro, M. J. Bearpark, J. J. Heyd, E. N. Brothers, K. N. Kudin, 
 V. N. Staroverov, T. A. Keith, R. Kobayashi, J. Normand, 
 K. Raghavachari, A. P. Rendell, J. C. Burant, S. S. Iyengar, 
 J. Tomasi, M. Cossi, J. M. Millam, M. Klene, C. Adamo, R. Cammi, 
 J. W. Ochterski, R. L. Martin, K. Morokuma, O. Farkas, 
 J. B. Foresman, and D. J. Fox, Gaussian, Inc., Wallingford CT, 2016.
 
 ******************************************
 Gaussian 16:  ES64L-G16RevA.03 25-Dec-2016
                 6-Oct-2020 
 ******************************************
 %NoSave
 %nproc=12
 Will use up to   12 processors via shared memory.
 %mem=20GB
 %chk=MN_32_co_BH76_B3LYP_6-31Gs
 ----------------------------------------------------------------------
 #P Opt(MaxCyc=100) B3LYP/6-31G* 5D 7F Integral=UltraFineGrid SCF=(NoSy
 mm,XQC,MaxCyc=120) IOp(1/33=1)
 ----------------------------------------------------------------------
 1/6=100,18=20,19=15,26=4,33=1,38=1/1,3;
 2/9=110,12=2,17=6,18=5,40=1/2;
 3/5=1,6=6,7=1,8=11,11=2,25=1,30=1,71=1,74=-5,75=-5/1,2,3;
 4/9=2/1;
 5/5=2,7=120,8=3,13=1,38=5/2,8;
 6/7=2,8=2,9=2,10=2,28=1/1;
 7//1,2,3,16;
 1/6=100,18=20,19=15,26=4,33=1/3(2);
 2/9=110/2;
 99//99;
 2/9=110/2;
 3/5=1,6=6,7=1,8=11,11=2,25=1,30=1,71=1,74=-5,75=-5/1,2,3;
 4/5=5,9=2,16=3,69=1/1;
 5/5=2,7=120,8=3,13=1,38=5/2,8;
 7//1,2,3,16;
 1/6=100,18=20,19=15,26=4,33=1/3(-5);
 2/9=110/2;
 6/7=2,8=2,9=2,10=2,19=2,28=1/1;
 99/9=1/99;
 Leave Link    1 at Tue Oct  6 15:59:10 2020, MaxMem=  2684354560 cpu:               4.3 elap:               0.4
 (Enter /udrive/faculty/rpeverati/g16/g16/l101.exe)
 ONIOM data not found on unit 2.
 ------------------
 TS search on BH76.
 ------------------
 TstMul:  ICh=     0
 TstMul:  Mul=     1
 TstMul:  ICh=     0
 TstMul:  Mul=     1
 Symbolic Z-matrix:
 Charge =  0 Multiplicity = 1
 O                     0.        0.        0.48412 
 C                     0.        0.       -0.64549 
 
 RdStrC is calling ZToCFu for IStruc=1 NZ=     2.
 PrtBox:  NBox=     1 Levels=  1 BoxLen=    8.00 SMaxX=        2.13
          Shift=            0.000000            0.000000            1.219800
 Box      1 Number                   0 centers from      1 to      2:
 After GenITR:
 ITRead=  0  0
 MicOpt= -1 -1
 ITRead=  0  0
 MicOpt= -1 -1
 NAtoms=      2 NQM=        2 NQMF=       0 NMMI=      0 NMMIF=      0
                NMic=       0 NMicF=      0.
                    Isotopes and Nuclear Properties:
 (Nuclear quadrupole moments (NQMom) in fm**2, nuclear magnetic moments (NMagM)
  in nuclear magnetons)

  Atom         1           2
 IAtWgt=          16          12
 AtmWgt=  15.9949146  12.0000000
 NucSpn=           0           0
 AtZEff=   0.0000000   0.0000000
 NQMom=    0.0000000   0.0000000
 NMagM=    0.0000000   0.0000000
 AtZNuc=   8.0000000   6.0000000
 No MM parameters found.
 Leave Link  101 at Tue Oct  6 15:59:11 2020, MaxMem=  2684354560 cpu:               4.0 elap:               0.5
 (Enter /udrive/faculty/rpeverati/g16/g16/l103.exe)

 GradGradGradGradGradGradGradGradGradGradGradGradGradGradGradGradGradGrad
 Berny optimization.
 Optmz: redundant internal coordinate code flag= 1
 Initialization pass.
                           ----------------------------
                           !    Initial Parameters    !
                           ! (Angstroms and Degrees)  !
 --------------------------                            --------------------------
 ! Name  Definition              Value          Derivative Info.                !
 --------------------------------------------------------------------------------
 ! R1    R(1,2)                  1.1296         estimate D2E/DX2                !
 --------------------------------------------------------------------------------
 Maximum allowed force set to 1.00D+20.
 Trust Radius=3.00D-01 FncErr=1.00D-07 GrdErr=1.00D-06 EigMax=2.50D+02 EigMin=1.00D-04
 Number of steps in this run=    100 maximum allowed number of steps=    100.
 GradGradGradGradGradGradGradGradGradGradGradGradGradGradGradGradGradGrad

 Leave Link  103 at Tue Oct  6 15:59:11 2020, MaxMem=  2684354560 cpu:               0.7 elap:               0.3
 (Enter /udrive/faculty/rpeverati/g16/g16/l202.exe)
                          Input orientation:                          
 ---------------------------------------------------------------------
 Center     Atomic      Atomic             Coordinates (Angstroms)
 Number     Number       Type             X           Y           Z
 ---------------------------------------------------------------------
      1          8           0        0.000000    0.000000    0.484118
      2          6           0        0.000000    0.000000   -0.645490
 ---------------------------------------------------------------------
 Stoichiometry    CO
 Framework group  C*V[C*(CO)]
 Deg. of freedom     1
 Full point group                 C*V     NOp   4
 Largest Abelian subgroup         C2V     NOp   4
 Largest concise Abelian subgroup C1      NOp   1
                         Standard orientation:                         
 ---------------------------------------------------------------------
 Center     Atomic      Atomic             Coordinates (Angstroms)
 Number     Number       Type             X           Y           Z
 ---------------------------------------------------------------------
      1          8           0        0.000000    0.000000    0.484118
      2          6           0        0.000000    0.000000   -0.645491
 ---------------------------------------------------------------------
 Rotational constants (GHZ):           0.0000000          57.7666452          57.7666452
 Leave Link  202 at Tue Oct  6 15:59:12 2020, MaxMem=  2684354560 cpu:               1.0 elap:               0.4
 (Enter /udrive/faculty/rpeverati/g16/g16/l301.exe)
 Standard basis: 6-31G(d) (5D, 7F)
 Ernie: Thresh=  0.10000D-02 Tol=  0.10000D-05 Strict=F.
 There are    16 symmetry adapted cartesian basis functions of A1  symmetry.
 There are     2 symmetry adapted cartesian basis functions of A2  symmetry.
 There are     6 symmetry adapted cartesian basis functions of B1  symmetry.
 There are     6 symmetry adapted cartesian basis functions of B2  symmetry.
 There are    14 symmetry adapted basis functions of A1  symmetry.
 There are     2 symmetry adapted basis functions of A2  symmetry.
 There are     6 symmetry adapted basis functions of B1  symmetry.
 There are     6 symmetry adapted basis functions of B2  symmetry.
    28 basis functions,    56 primitive gaussians,    30 cartesian basis functions
     7 alpha electrons        7 beta electrons
       nuclear repulsion energy        22.4861113181 Hartrees.
 IExCor=  402 DFT=T Ex+Corr=B3LYP ExCW=0 ScaHFX=  0.200000
 ScaDFX=  0.800000  0.720000  1.000000  0.810000 ScalE2=  1.000000  1.000000
 IRadAn=      5 IRanWt=     -1 IRanGd=            0 ICorTp=0 IEmpDi=  4
 NAtoms=    2 NActive=    2 NUniq=    2 SFac= 1.00D+00 NAtFMM=   60 NAOKFM=F Big=F
 Integral buffers will be    131072 words long.
 Raffenetti 2 integral format.
 Two-electron integral symmetry is turned on.
 Leave Link  301 at Tue Oct  6 15:59:13 2020, MaxMem=  2684354560 cpu:               1.5 elap:               0.4
 (Enter /udrive/faculty/rpeverati/g16/g16/l302.exe)
 NPDir=0 NMtPBC=     1 NCelOv=     1 NCel=       1 NClECP=     1 NCelD=      1
         NCelK=      1 NCelE2=     1 NClLst=     1 CellRange=     0.0.
 One-electron integrals computed using PRISM.
 One-electron integral symmetry used in STVInt
 NBasis=    28 RedAO= T EigKep=  1.52D-02  NBF=    14     2     6     6
 NBsUse=    28 1.00D-06 EigRej= -1.00D+00 NBFU=    14     2     6     6
 Precomputing XC quadrature grid using
 IXCGrd= 4 IRadAn=           5 IRanWt=          -1 IRanGd=           0 AccXCQ= 0.00D+00.
 Generated NRdTot=       0 NPtTot=           0 NUsed=           0 NTot=          32
 NSgBfM=    30    30    30    30    30 MxSgAt=     2 MxSgA2=     2.
 Leave Link  302 at Tue Oct  6 15:59:13 2020, MaxMem=  2684354560 cpu:               3.1 elap:               0.5
 (Enter /udrive/faculty/rpeverati/g16/g16/l303.exe)
 DipDrv:  MaxL=1.
 Leave Link  303 at Tue Oct  6 15:59:14 2020, MaxMem=  2684354560 cpu:               1.0 elap:               0.4
 (Enter /udrive/faculty/rpeverati/g16/g16/l401.exe)
 SCF N**3 symmetry information disabled.
 ExpMin= 1.69D-01 ExpMax= 5.48D+03 ExpMxC= 8.25D+02 IAcc=3 IRadAn=         5 AccDes= 0.00D+00
 Harris functional with IExCor=  402 and IRadAn=       5 diagonalized for initial guess.
 HarFok:  IExCor=  402 AccDes= 0.00D+00 IRadAn=         5 IDoV= 1 UseB2=F ITyADJ=14
 ICtDFT=  3500011 ScaDFX=  1.000000  1.000000  1.000000  1.000000
 FoFCou: FMM=F IPFlag=           0 FMFlag=      100000 FMFlg1=           0
         NFxFlg=           0 DoJE=T BraDBF=F KetDBF=T FulRan=T
         wScrn=  0.000000 ICntrl=       500 IOpCl=  0 I1Cent=   200000004 NGrid=           0
         NMat0=    1 NMatS0=      1 NMatT0=    0 NMatD0=    1 NMtDS0=    0 NMtDT0=    0
 Petite list used in FoFCou.
 Harris En= -113.292398098412    
 JPrj=0 DoOrth=F DoCkMO=F.
 Initial guess orbital symmetries:
       Occupied  (SG) (SG) (SG) (SG) (PI) (PI) (SG)
       Virtual   (PI) (PI) (SG) (PI) (PI) (SG) (SG) (SG) (PI) (PI)
                 (DLTA) (DLTA) (SG) (PI) (PI) (DLTA) (DLTA) (SG)
                 (PI) (PI) (SG)
 The electronic state of the initial guess is 1-SG.
 Leave Link  401 at Tue Oct  6 15:59:15 2020, MaxMem=  2684354560 cpu:               4.7 elap:               0.7
 (Enter /udrive/faculty/rpeverati/g16/g16/l502.exe)
 Keep R1 ints in memory in symmetry-blocked form, NReq=10432253.
 FoFCou: FMM=F IPFlag=           0 FMFlag=           0 FMFlg1=           0
         NFxFlg=           0 DoJE=F BraDBF=F KetDBF=F FulRan=T
         wScrn=  0.000000 ICntrl=       600 IOpCl=  0 I1Cent=           0 NGrid=           0
         NMat0=    1 NMatS0=    406 NMatT0=    0 NMatD0=    1 NMtDS0=    0 NMtDT0=    0
 Petite list used in FoFCou.
 Closed shell SCF:
 Using DIIS extrapolation, IDIIS=  1040.
 NGot=  2684354560 LenX=  2684327255 LenY=  2684325914
 Requested convergence on RMS density matrix=1.00D-08 within 120 cycles.
 Requested convergence on MAX density matrix=1.00D-06.
 Requested convergence on             energy=1.00D-06.
 No special actions if energy rises.
 Integral accuracy reduced to 1.0D-05 until final iterations.

 Cycle   1  Pass 0  IDiag  1:
 E= -113.288400283011    
 DIIS: error= 3.04D-02 at cycle   1 NSaved=   1.
 NSaved= 1 IEnMin= 1 EnMin= -113.288400283011     IErMin= 1 ErrMin= 3.04D-02
 ErrMax= 3.04D-02  0.00D+00 EMaxC= 1.00D-01 BMatC= 2.63D-02 BMatP= 2.63D-02
 IDIUse=3 WtCom= 6.96D-01 WtEn= 3.04D-01
 Coeff-Com:  0.100D+01
 Coeff-En:   0.100D+01
 Coeff:      0.100D+01
 Gap=     0.374 Goal=   None    Shift=    0.000
 GapD=    0.374 DampG=1.000 DampE=0.500 DampFc=0.5000 IDamp=-1.
 Damping current iteration by 5.00D-01
 RMSDP=8.27D-03 MaxDP=1.06D-01              OVMax= 1.32D-01

 Cycle   2  Pass 0  IDiag  1:
 E= -113.286098068070     Delta-E=        0.002302214941 Rises=F Damp=T
 DIIS: error= 2.12D-02 at cycle   2 NSaved=   2.
 NSaved= 2 IEnMin= 1 EnMin= -113.288400283011     IErMin= 2 ErrMin= 2.12D-02
 ErrMax= 2.12D-02  0.00D+00 EMaxC= 1.00D-01 BMatC= 9.08D-03 BMatP= 2.63D-02
 IDIUse=3 WtCom= 7.88D-01 WtEn= 2.12D-01
 Coeff-Com:  0.352D+00 0.648D+00
 Coeff-En:   0.541D+00 0.459D+00
 Coeff:      0.392D+00 0.608D+00
 Gap=     0.353 Goal=   None    Shift=    0.000
 RMSDP=3.46D-03 MaxDP=4.92D-02 DE= 2.30D-03 OVMax= 1.01D-01

 Cycle   3  Pass 0  IDiag  1:
 E= -113.306161146589     Delta-E=       -0.020063078519 Rises=F Damp=F
 DIIS: error= 4.30D-03 at cycle   3 NSaved=   3.
 NSaved= 3 IEnMin= 3 EnMin= -113.306161146589     IErMin= 3 ErrMin= 4.30D-03
 ErrMax= 4.30D-03  0.00D+00 EMaxC= 1.00D-01 BMatC= 5.36D-04 BMatP= 9.08D-03
 IDIUse=3 WtCom= 9.57D-01 WtEn= 4.30D-02
 Coeff-Com:  0.807D-01 0.223D+00 0.697D+00
 Coeff-En:   0.000D+00 0.000D+00 0.100D+01
 Coeff:      0.773D-01 0.213D+00 0.710D+00
 Gap=     0.352 Goal=   None    Shift=    0.000
 RMSDP=1.20D-03 MaxDP=2.02D-02 DE=-2.01D-02 OVMax= 9.15D-03

 Cycle   4  Pass 0  IDiag  1:
 E= -113.306744395226     Delta-E=       -0.000583248637 Rises=F Damp=F
 DIIS: error= 7.87D-04 at cycle   4 NSaved=   4.
 NSaved= 4 IEnMin= 4 EnMin= -113.306744395226     IErMin= 4 ErrMin= 7.87D-04
 ErrMax= 7.87D-04  0.00D+00 EMaxC= 1.00D-01 BMatC= 1.72D-05 BMatP= 5.36D-04
 IDIUse=3 WtCom= 9.92D-01 WtEn= 7.87D-03
 Coeff-Com:  0.416D-02 0.207D-02 0.145D+00 0.849D+00
 Coeff-En:   0.000D+00 0.000D+00 0.000D+00 0.100D+01
 Coeff:      0.413D-02 0.205D-02 0.144D+00 0.850D+00
 Gap=     0.352 Goal=   None    Shift=    0.000
 RMSDP=1.29D-04 MaxDP=1.60D-03 DE=-5.83D-04 OVMax= 1.26D-03

 Cycle   5  Pass 0  IDiag  1:
 E= -113.306761115626     Delta-E=       -0.000016720399 Rises=F Damp=F
 DIIS: error= 9.65D-05 at cycle   5 NSaved=   5.
 NSaved= 5 IEnMin= 5 EnMin= -113.306761115626     IErMin= 5 ErrMin= 9.65D-05
 ErrMax= 9.65D-05  0.00D+00 EMaxC= 1.00D-01 BMatC= 2.82D-07 BMatP= 1.72D-05
 IDIUse=1 WtCom= 1.00D+00 WtEn= 0.00D+00
 Coeff-Com:  0.121D-02-0.338D-02 0.260D-01 0.188D+00 0.788D+00
 Coeff:      0.121D-02-0.338D-02 0.260D-01 0.188D+00 0.788D+00
 Gap=     0.352 Goal=   None    Shift=    0.000
 RMSDP=1.34D-05 MaxDP=1.78D-04 DE=-1.67D-05 OVMax= 1.26D-04

 Cycle   6  Pass 0  IDiag  1:
 E= -113.306761338356     Delta-E=       -0.000000222730 Rises=F Damp=F
 DIIS: error= 1.31D-05 at cycle   6 NSaved=   6.
 NSaved= 6 IEnMin= 6 EnMin= -113.306761338356     IErMin= 6 ErrMin= 1.31D-05
 ErrMax= 1.31D-05  0.00D+00 EMaxC= 1.00D-01 BMatC= 3.58D-09 BMatP= 2.82D-07
 IDIUse=1 WtCom= 1.00D+00 WtEn= 0.00D+00
 Coeff-Com:  0.196D-03-0.506D-03 0.101D-02 0.810D-02 0.228D-01 0.968D+00
 Coeff:      0.196D-03-0.506D-03 0.101D-02 0.810D-02 0.228D-01 0.968D+00
 Gap=     0.352 Goal=   None    Shift=    0.000
 RMSDP=1.20D-06 MaxDP=1.14D-05 DE=-2.23D-07 OVMax= 1.86D-05

 Initial convergence to 1.0D-05 achieved.  Increase integral accuracy.
 Cycle   7  Pass 1  IDiag  1:
 E= -113.306760213730     Delta-E=        0.000001124626 Rises=F Damp=F
 DIIS: error= 7.61D-07 at cycle   1 NSaved=   1.
 NSaved= 1 IEnMin= 1 EnMin= -113.306760213730     IErMin= 1 ErrMin= 7.61D-07
 ErrMax= 7.61D-07  0.00D+00 EMaxC= 1.00D-01 BMatC= 2.00D-11 BMatP= 2.00D-11
 IDIUse=1 WtCom= 1.00D+00 WtEn= 0.00D+00
 Coeff-Com:  0.100D+01
 Coeff:      0.100D+01
 Gap=     0.352 Goal=   None    Shift=    0.000
 RMSDP=1.20D-06 MaxDP=1.14D-05 DE= 1.12D-06 OVMax= 1.66D-06

 Cycle   8  Pass 1  IDiag  1:
 E= -113.306760213751     Delta-E=       -0.000000000021 Rises=F Damp=F
 DIIS: error= 1.17D-07 at cycle   2 NSaved=   2.
 NSaved= 2 IEnMin= 2 EnMin= -113.306760213751     IErMin= 2 ErrMin= 1.17D-07
 ErrMax= 1.17D-07  0.00D+00 EMaxC= 1.00D-01 BMatC= 6.27D-13 BMatP= 2.00D-11
 IDIUse=1 WtCom= 1.00D+00 WtEn= 0.00D+00
 Coeff-Com:  0.377D-01 0.962D+00
 Coeff:      0.377D-01 0.962D+00
 Gap=     0.352 Goal=   None    Shift=    0.000
 RMSDP=5.48D-08 MaxDP=4.80D-07 DE=-2.12D-11 OVMax= 6.02D-07

 Cycle   9  Pass 1  IDiag  1:
 E= -113.306760213750     Delta-E=        0.000000000001 Rises=F Damp=F
 DIIS: error= 2.76D-07 at cycle   3 NSaved=   3.
 NSaved= 3 IEnMin= 2 EnMin= -113.306760213751     IErMin= 2 ErrMin= 1.17D-07
 ErrMax= 2.76D-07  0.00D+00 EMaxC= 1.00D-01 BMatC= 1.52D-12 BMatP= 6.27D-13
 IDIUse=1 WtCom= 1.00D+00 WtEn= 0.00D+00
 Coeff-Com: -0.958D-03 0.625D+00 0.376D+00
 Coeff:     -0.958D-03 0.625D+00 0.376D+00
 Gap=     0.352 Goal=   None    Shift=    0.000
 RMSDP=3.14D-08 MaxDP=3.51D-07 DE= 5.12D-13 OVMax= 4.56D-07

 Cycle  10  Pass 1  IDiag  1:
 E= -113.306760213752     Delta-E=       -0.000000000001 Rises=F Damp=F
 DIIS: error= 5.57D-08 at cycle   4 NSaved=   4.
 NSaved= 4 IEnMin= 4 EnMin= -113.306760213752     IErMin= 4 ErrMin= 5.57D-08
 ErrMax= 5.57D-08  0.00D+00 EMaxC= 1.00D-01 BMatC= 9.82D-14 BMatP= 6.27D-13
 IDIUse=1 WtCom= 1.00D+00 WtEn= 0.00D+00
 Coeff-Com: -0.805D-02 0.175D+00 0.217D+00 0.616D+00
 Coeff:     -0.805D-02 0.175D+00 0.217D+00 0.616D+00
 Gap=     0.352 Goal=   None    Shift=    0.000
 RMSDP=7.30D-09 MaxDP=8.96D-08 DE=-1.19D-12 OVMax= 8.11D-08

 SCF Done:  E(RB3LYP) =  -113.306760214     A.U. after   10 cycles
            NFock= 10  Conv=0.73D-08     -V/T= 2.0062
 KE= 1.126140884547D+02 PE=-3.109299932465D+02 EE= 6.252303325993D+01
 Leave Link  502 at Tue Oct  6 15:59:16 2020, MaxMem=  2684354560 cpu:               8.5 elap:               1.1
 (Enter /udrive/faculty/rpeverati/g16/g16/l508.exe)
 QCSCF skips out because SCF is already converged.
 Leave Link  508 at Tue Oct  6 15:59:17 2020, MaxMem=  2684354560 cpu:               0.3 elap:               0.4
 (Enter /udrive/faculty/rpeverati/g16/g16/l601.exe)
 Copying SCF densities to generalized density rwf, IOpCl= 0 IROHF=0.

 **********************************************************************

            Population analysis using the SCF density.

 **********************************************************************

 Orbital symmetries:
       Occupied  (SG) (SG) (SG) (SG) (PI) (PI) (SG)
       Virtual   (PI) (PI) (SG) (PI) (PI) (SG) (SG) (SG) (PI) (PI)
                 (DLTA) (DLTA) (SG) (PI) (PI) (DLTA) (DLTA) (SG)
                 (PI) (PI) (SG)
 The electronic state is 1-SG.
 Alpha  occ. eigenvalues --  -19.25303 -10.29864  -1.16209  -0.56930  -0.46978
 Alpha  occ. eigenvalues --   -0.46978  -0.37004
 Alpha virt. eigenvalues --   -0.01800  -0.01800   0.26497   0.51199   0.51199
 Alpha virt. eigenvalues --    0.58503   0.76289   0.83392   0.91713   0.91713
 Alpha virt. eigenvalues --    1.47660   1.47660   1.50976   1.54715   1.54715
 Alpha virt. eigenvalues --    1.94748   1.94748   2.43714   2.60839   2.60839
 Alpha virt. eigenvalues --    2.96673
          Condensed to atoms (all electrons):
               1          2
     1  O    7.552948   0.597627
     2  C    0.597627   5.251798
 Mulliken charges:
               1
     1  O   -0.150575
     2  C    0.150575
 Sum of Mulliken charges =  -0.00000
 Mulliken charges with hydrogens summed into heavy atoms:
               1
     1  O   -0.150575
     2  C    0.150575
 Electronic spatial extent (au):  <R**2>=             39.0904
 Charge=             -0.0000 electrons
 Dipole moment (field-independent basis, Debye):
    X=              0.0000    Y=              0.0000    Z=              0.0912  Tot=              0.0912
 Quadrupole moment (field-independent basis, Debye-Ang):
   XX=             -9.8290   YY=             -9.8290   ZZ=            -11.9064
   XY=             -0.0000   XZ=              0.0000   YZ=              0.0000
 Traceless Quadrupole moment (field-independent basis, Debye-Ang):
   XX=              0.6925   YY=              0.6925   ZZ=             -1.3849
   XY=             -0.0000   XZ=              0.0000   YZ=              0.0000
 Octapole moment (field-independent basis, Debye-Ang**2):
  XXX=              0.0000  YYY=             -0.0000  ZZZ=              5.6996  XYY=              0.0000
  XXY=             -0.0000  XXZ=              1.0667  XZZ=              0.0000  YZZ=              0.0000
  YYZ=              1.0667  XYZ=              0.0000
 Hexadecapole moment (field-independent basis, Debye-Ang**3):
 XXXX=             -7.7526 YYYY=             -7.7526 ZZZZ=            -33.8683 XXXY=             -0.0000
 XXXZ=              0.0000 YYYX=             -0.0000 YYYZ=              0.0000 ZZZX=              0.0000
 ZZZY=              0.0000 XXYY=             -2.5842 XXZZ=             -6.4070 YYZZ=             -6.4070
 XXYZ=              0.0000 YYXZ=              0.0000 ZZXY=             -0.0000
 N-N= 2.248611131814D+01 E-N=-3.109299913529D+02  KE= 1.126140884547D+02
 No NMR shielding tensors so no spin-rotation constants.
 Leave Link  601 at Tue Oct  6 15:59:17 2020, MaxMem=  2684354560 cpu:               2.8 elap:               0.5
 (Enter /udrive/faculty/rpeverati/g16/g16/l701.exe)
 ... and contract with generalized density number  0.
 Compute integral first derivatives.
 Leave Link  701 at Tue Oct  6 15:59:18 2020, MaxMem=  2684354560 cpu:               3.1 elap:               0.5
 (Enter /udrive/faculty/rpeverati/g16/g16/l702.exe)
 L702 exits ... SP integral derivatives will be done elsewhere.
 Leave Link  702 at Tue Oct  6 15:59:19 2020, MaxMem=  2684354560 cpu:               0.7 elap:               0.3
 (Enter /udrive/faculty/rpeverati/g16/g16/l703.exe)
 Integral derivatives from FoFJK, PRISM(SPDF).
 Compute integral first derivatives, UseDBF=F ICtDFT=           0.
 Calling FoFJK, ICntrl=      2127 FMM=F ISym2X=1 I1Cent= 0 IOpClX= 0 NMat=1 NMatS=1 NMatT=0.
 FoFJK:  IHMeth= 1 ICntrl=    2127 DoSepK=F KAlg= 0 I1Cent=           0 FoldK=F
 IRaf=         0 NMat=       1 IRICut=       1 DoRegI=T DoRafI=F ISym2E= 1 IDoP0=0 IntGTp=1.
 FoFCou: FMM=F IPFlag=           0 FMFlag=      100000 FMFlg1=         800
         NFxFlg=           0 DoJE=F BraDBF=F KetDBF=F FulRan=T
         wScrn=  0.000000 ICntrl=      2127 IOpCl=  0 I1Cent=           0 NGrid=           0
         NMat0=    1 NMatS0=      1 NMatT0=    0 NMatD0=    1 NMtDS0=    0 NMtDT0=    0
 Petite list used in FoFCou.
 Leave Link  703 at Tue Oct  6 15:59:20 2020, MaxMem=  2684354560 cpu:               4.4 elap:               0.7
 (Enter /udrive/faculty/rpeverati/g16/g16/l716.exe)
 Dipole        = 0.00000000D+00 8.13811439D-33 3.58894050D-02
 ***** Axes restored to original set *****
 -------------------------------------------------------------------
 Center     Atomic                   Forces (Hartrees/Bohr)
 Number     Number              X              Y              Z
 -------------------------------------------------------------------
      1        8           0.000000000    0.000000000    0.020030438
      2        6          -0.000000000   -0.000000000   -0.020030438
 -------------------------------------------------------------------
 Cartesian Forces:  Max     0.020030438 RMS     0.011564579
 Leave Link  716 at Tue Oct  6 15:59:21 2020, MaxMem=  2684354560 cpu:               1.2 elap:               0.7
 (Enter /udrive/faculty/rpeverati/g16/g16/l103.exe)

 GradGradGradGradGradGradGradGradGradGradGradGradGradGradGradGradGradGrad
 Berny optimization.
 Optmz: redundant internal coordinate code flag= 1
 FormGI is forming the generalized inverse of G from B-inverse, IUseBI=4.
 Internal  Forces:  Max     0.020030438 RMS     0.020030438
 Search for a local minimum.
 Step number   1 out of a maximum of  100
 All quantities printed in internal units (Hartrees-Bohrs-Radians)
 RMS Force = .20030D-01 SwitMx=.10000D-02 MixMth= 1
 Mixed Optimization -- RFO/linear search
 Second derivative matrix not updated -- first step.
 The second derivative matrix:
                          R1
           R1           1.49939
 ITU=  0
 Eigenvectors of the second derivative matrix:
                           1
     Eigenvalues --     1.49939
   1         R1         1.00000
 RFO step:  Lambda=-2.67540232D-04 EMin= 1.49938901D+00
 Linear search not attempted -- first point.
 Iteration  1 RMS(Cart)=  0.00944460 RMS(Int)=  0.00000000
 Iteration  2 RMS(Cart)=  0.00000000 RMS(Int)=  0.00000000
 ITry= 1 IFail=0 DXMaxC= 6.68D-03 DCOld= 1.00D+10 DXMaxT= 3.00D-01 DXLimC= 3.00D+00 Rises=F
 ClnCor:  largest displacement from symmetrization is 0.00D+00 for atom     0.
 Variable       Old X    -DE/DX   Delta X   Delta X   Delta X     New X
                                 (Linear)    (Quad)   (Total)
    R1        2.13465   0.02003   0.00000   0.01336   0.01336   2.14801
         Item               Value     Threshold  Converged?
 Maximum Force            0.020030     0.000450     NO 
 RMS     Force            0.020030     0.000300     NO 
 Maximum Displacement     0.006678     0.001800     NO 
 RMS     Displacement     0.009445     0.001200     NO 
 Predicted change in Energy=-1.337940D-04
 Lowest energy point so far.  Saving SCF results.
 Largest change from initial coordinates is atom    1       0.004 Angstoms.
 GradGradGradGradGradGradGradGradGradGradGradGradGradGradGradGradGradGrad

 Leave Link  103 at Tue Oct  6 15:59:21 2020, MaxMem=  2684354560 cpu:               1.2 elap:               0.3
 (Enter /udrive/faculty/rpeverati/g16/g16/l202.exe)
                          Input orientation:                          
 ---------------------------------------------------------------------
 Center     Atomic      Atomic             Coordinates (Angstroms)
 Number     Number       Type             X           Y           Z
 ---------------------------------------------------------------------
      1          8           0        0.000000    0.000000    0.487652
      2          6           0        0.000000    0.000000   -0.649024
 ---------------------------------------------------------------------
 Stoichiometry    CO
 Framework group  C*V[C*(CO)]
 Deg. of freedom     1
 Full point group                 C*V     NOp   4
 RotChk:  IX=0 Diff= 0.00D+00
 Largest Abelian subgroup         C2V     NOp   4
 Largest concise Abelian subgroup C1      NOp   1
                         Standard orientation:                         
 ---------------------------------------------------------------------
 Center     Atomic      Atomic             Coordinates (Angstroms)
 Number     Number       Type             X           Y           Z
 ---------------------------------------------------------------------
      1          8           0        0.000000    0.000000    0.487147
      2          6           0        0.000000    0.000000   -0.649530
 ---------------------------------------------------------------------
 Rotational constants (GHZ):           0.0000000          57.0504728          57.0504728
 Leave Link  202 at Tue Oct  6 15:59:21 2020, MaxMem=  2684354560 cpu:               0.7 elap:               0.2
 (Enter /udrive/faculty/rpeverati/g16/g16/l301.exe)
 Standard basis: 6-31G(d) (5D, 7F)
 Ernie: Thresh=  0.10000D-02 Tol=  0.10000D-05 Strict=F.
 There are    16 symmetry adapted cartesian basis functions of A1  symmetry.
 There are     2 symmetry adapted cartesian basis functions of A2  symmetry.
 There are     6 symmetry adapted cartesian basis functions of B1  symmetry.
 There are     6 symmetry adapted cartesian basis functions of B2  symmetry.
 There are    14 symmetry adapted basis functions of A1  symmetry.
 There are     2 symmetry adapted basis functions of A2  symmetry.
 There are     6 symmetry adapted basis functions of B1  symmetry.
 There are     6 symmetry adapted basis functions of B2  symmetry.
    28 basis functions,    56 primitive gaussians,    30 cartesian basis functions
     7 alpha electrons        7 beta electrons
       nuclear repulsion energy        22.3462887832 Hartrees.
 IExCor=  402 DFT=T Ex+Corr=B3LYP ExCW=0 ScaHFX=  0.200000
 ScaDFX=  0.800000  0.720000  1.000000  0.810000 ScalE2=  1.000000  1.000000
 IRadAn=      5 IRanWt=     -1 IRanGd=            0 ICorTp=0 IEmpDi=  4
 NAtoms=    2 NActive=    2 NUniq=    2 SFac= 1.00D+00 NAtFMM=   60 NAOKFM=F Big=F
 Integral buffers will be    131072 words long.
 Raffenetti 2 integral format.
 Two-electron integral symmetry is turned on.
 Leave Link  301 at Tue Oct  6 15:59:22 2020, MaxMem=  2684354560 cpu:               1.5 elap:               0.4
 (Enter /udrive/faculty/rpeverati/g16/g16/l302.exe)
 NPDir=0 NMtPBC=     1 NCelOv=     1 NCel=       1 NClECP=     1 NCelD=      1
         NCelK=      1 NCelE2=     1 NClLst=     1 CellRange=     0.0.
 One-electron integrals computed using PRISM.
 One-electron integral symmetry used in STVInt
 NBasis=    28 RedAO= T EigKep=  1.54D-02  NBF=    14     2     6     6
 NBsUse=    28 1.00D-06 EigRej= -1.00D+00 NBFU=    14     2     6     6
 Precomputing XC quadrature grid using
 IXCGrd= 4 IRadAn=           5 IRanWt=          -1 IRanGd=           0 AccXCQ= 0.00D+00.
 Generated NRdTot=       0 NPtTot=           0 NUsed=           0 NTot=          32
 NSgBfM=    30    30    30    30    30 MxSgAt=     2 MxSgA2=     2.
 Leave Link  302 at Tue Oct  6 15:59:23 2020, MaxMem=  2684354560 cpu:               3.0 elap:               0.5
 (Enter /udrive/faculty/rpeverati/g16/g16/l303.exe)
 DipDrv:  MaxL=1.
 Leave Link  303 at Tue Oct  6 15:59:23 2020, MaxMem=  2684354560 cpu:               0.8 elap:               0.4
 (Enter /udrive/faculty/rpeverati/g16/g16/l401.exe)
 Initial guess from the checkpoint file:  "MN_32_co_BH76_B3LYP_6-31Gs.chk"
 SCF N**3 symmetry information disabled.
 B after Tr=     0.000000    0.000000   -0.000000
         Rot=    1.000000    0.000000    0.000000    0.000000 Ang=   0.00 deg.
 Guess basis will be translated and rotated to current coordinates.
 JPrj=2 DoOrth=T DoCkMO=T.
 Initial guess orbital symmetries:
       Occupied  (SG) (SG) (SG) (SG) (PI) (PI) (SG)
       Virtual   (PI) (PI) (SG) (PI) (PI) (SG) (SG) (SG) (PI) (PI)
                 (DLTA) (DLTA) (SG) (PI) (PI) (DLTA) (DLTA) (SG)
                 (PI) (PI) (SG)
 The electronic state of the initial guess is 1-SG.
 Leave Link  401 at Tue Oct  6 15:59:24 2020, MaxMem=  2684354560 cpu:               1.9 elap:               0.4
 (Enter /udrive/faculty/rpeverati/g16/g16/l502.exe)
 Keep R1 ints in memory in symmetry-blocked form, NReq=10432253.
 FoFCou: FMM=F IPFlag=           0 FMFlag=           0 FMFlg1=           0
         NFxFlg=           0 DoJE=F BraDBF=F KetDBF=F FulRan=T
         wScrn=  0.000000 ICntrl=       600 IOpCl=  0 I1Cent=           0 NGrid=           0
         NMat0=    1 NMatS0=    406 NMatT0=    0 NMatD0=    1 NMtDS0=    0 NMtDT0=    0
 Petite list used in FoFCou.
 Closed shell SCF:
 Using DIIS extrapolation, IDIIS=  1040.
 NGot=  2684354560 LenX=  2684327255 LenY=  2684325914
 Requested convergence on RMS density matrix=1.00D-08 within 120 cycles.
 Requested convergence on MAX density matrix=1.00D-06.
 Requested convergence on             energy=1.00D-06.
 No special actions if energy rises.

 Cycle   1  Pass 1  IDiag  1:
 E= -113.306876886713    
 DIIS: error= 9.00D-04 at cycle   1 NSaved=   1.
 NSaved= 1 IEnMin= 1 EnMin= -113.306876886713     IErMin= 1 ErrMin= 9.00D-04
 ErrMax= 9.00D-04  0.00D+00 EMaxC= 1.00D-01 BMatC= 3.14D-05 BMatP= 3.14D-05
 IDIUse=3 WtCom= 9.91D-01 WtEn= 9.00D-03
 Coeff-Com:  0.100D+01
 Coeff-En:   0.100D+01
 Coeff:      0.100D+01
 Gap=     0.350 Goal=   None    Shift=    0.000
 RMSDP=2.60D-04 MaxDP=1.79D-03              OVMax= 2.16D-03

 Cycle   2  Pass 1  IDiag  1:
 E= -113.306901196310     Delta-E=       -0.000024309596 Rises=F Damp=F
 DIIS: error= 6.04D-04 at cycle   2 NSaved=   2.
 NSaved= 2 IEnMin= 2 EnMin= -113.306901196310     IErMin= 2 ErrMin= 6.04D-04
 ErrMax= 6.04D-04  0.00D+00 EMaxC= 1.00D-01 BMatC= 1.20D-05 BMatP= 3.14D-05
 IDIUse=3 WtCom= 9.94D-01 WtEn= 6.04D-03
 Coeff-Com:  0.346D+00 0.654D+00
 Coeff-En:   0.000D+00 0.100D+01
 Coeff:      0.344D+00 0.656D+00
 Gap=     0.350 Goal=   None    Shift=    0.000
 RMSDP=1.16D-04 MaxDP=1.42D-03 DE=-2.43D-05 OVMax= 1.73D-03

 Cycle   3  Pass 1  IDiag  1:
 E= -113.306902094682     Delta-E=       -0.000000898373 Rises=F Damp=F
 DIIS: error= 6.93D-04 at cycle   3 NSaved=   3.
 NSaved= 3 IEnMin= 3 EnMin= -113.306902094682     IErMin= 2 ErrMin= 6.04D-04
 ErrMax= 6.93D-04  0.00D+00 EMaxC= 1.00D-01 BMatC= 1.05D-05 BMatP= 1.20D-05
 IDIUse=3 WtCom= 9.93D-01 WtEn= 6.93D-03
 Coeff-Com:  0.910D-01 0.470D+00 0.439D+00
 Coeff-En:   0.000D+00 0.477D+00 0.523D+00
 Coeff:      0.904D-01 0.470D+00 0.439D+00
 Gap=     0.350 Goal=   None    Shift=    0.000
 RMSDP=7.65D-05 MaxDP=7.56D-04 DE=-8.98D-07 OVMax= 1.16D-03

 Cycle   4  Pass 1  IDiag  1:
 E= -113.306909573879     Delta-E=       -0.000007479196 Rises=F Damp=F
 DIIS: error= 1.51D-04 at cycle   4 NSaved=   4.
 NSaved= 4 IEnMin= 4 EnMin= -113.306909573879     IErMin= 4 ErrMin= 1.51D-04
 ErrMax= 1.51D-04  0.00D+00 EMaxC= 1.00D-01 BMatC= 4.43D-07 BMatP= 1.05D-05
 IDIUse=3 WtCom= 9.98D-01 WtEn= 1.51D-03
 Coeff-Com: -0.100D-01 0.101D+00 0.221D+00 0.688D+00
 Coeff-En:   0.000D+00 0.000D+00 0.276D-01 0.972D+00
 Coeff:     -0.100D-01 0.101D+00 0.221D+00 0.688D+00
 Gap=     0.350 Goal=   None    Shift=    0.000
 RMSDP=1.81D-05 MaxDP=2.42D-04 DE=-7.48D-06 OVMax= 2.21D-04

 Cycle   5  Pass 1  IDiag  1:
 E= -113.306909970888     Delta-E=       -0.000000397009 Rises=F Damp=F
 DIIS: error= 1.11D-06 at cycle   5 NSaved=   5.
 NSaved= 5 IEnMin= 5 EnMin= -113.306909970888     IErMin= 5 ErrMin= 1.11D-06
 ErrMax= 1.11D-06  0.00D+00 EMaxC= 1.00D-01 BMatC= 5.08D-11 BMatP= 4.43D-07
 IDIUse=1 WtCom= 1.00D+00 WtEn= 0.00D+00
 Coeff-Com: -0.462D-03-0.150D-02 0.179D-02 0.142D-01 0.986D+00
 Coeff:     -0.462D-03-0.150D-02 0.179D-02 0.142D-01 0.986D+00
 Gap=     0.350 Goal=   None    Shift=    0.000
 RMSDP=5.19D-07 MaxDP=9.18D-06 DE=-3.97D-07 OVMax= 3.42D-06

 Cycle   6  Pass 1  IDiag  1:
 E= -113.306909970943     Delta-E=       -0.000000000055 Rises=F Damp=F
 DIIS: error= 1.47D-07 at cycle   6 NSaved=   6.
 NSaved= 6 IEnMin= 6 EnMin= -113.306909970943     IErMin= 6 ErrMin= 1.47D-07
 ErrMax= 1.47D-07  0.00D+00 EMaxC= 1.00D-01 BMatC= 9.53D-13 BMatP= 5.08D-11
 IDIUse=1 WtCom= 1.00D+00 WtEn= 0.00D+00
 Coeff-Com: -0.854D-05-0.936D-03-0.107D-02-0.206D-02 0.178D+00 0.826D+00
 Coeff:     -0.854D-05-0.936D-03-0.107D-02-0.206D-02 0.178D+00 0.826D+00
 Gap=     0.350 Goal=   None    Shift=    0.000
 RMSDP=4.31D-08 MaxDP=7.52D-07 DE=-5.45D-11 OVMax= 3.48D-07

 Cycle   7  Pass 1  IDiag  1:
 E= -113.306909970944     Delta-E=       -0.000000000001 Rises=F Damp=F
 DIIS: error= 3.50D-08 at cycle   7 NSaved=   7.
 NSaved= 7 IEnMin= 7 EnMin= -113.306909970944     IErMin= 7 ErrMin= 3.50D-08
 ErrMax= 3.50D-08  0.00D+00 EMaxC= 1.00D-01 BMatC= 2.92D-14 BMatP= 9.53D-13
 IDIUse=1 WtCom= 1.00D+00 WtEn= 0.00D+00
 Coeff-Com:  0.183D-05 0.963D-05-0.456D-04-0.223D-04-0.552D-02 0.236D-01
 Coeff-Com:  0.982D+00
 Coeff:      0.183D-05 0.963D-05-0.456D-04-0.223D-04-0.552D-02 0.236D-01
 Coeff:      0.982D+00
 Gap=     0.350 Goal=   None    Shift=    0.000
 RMSDP=5.42D-09 MaxDP=7.56D-08 DE=-8.53D-13 OVMax= 5.01D-08

 SCF Done:  E(RB3LYP) =  -113.306909971     A.U. after    7 cycles
            NFock=  7  Conv=0.54D-08     -V/T= 2.0065
 KE= 1.125793498566D+02 PE=-3.106312784597D+02 EE= 6.239872984907D+01
 Leave Link  502 at Tue Oct  6 15:59:25 2020, MaxMem=  2684354560 cpu:               7.2 elap:               0.9
 (Enter /udrive/faculty/rpeverati/g16/g16/l508.exe)
 QCSCF skips out because SCF is already converged.
 Leave Link  508 at Tue Oct  6 15:59:26 2020, MaxMem=  2684354560 cpu:               0.4 elap:               0.3
 (Enter /udrive/faculty/rpeverati/g16/g16/l701.exe)
 ... and contract with generalized density number  0.
 Compute integral first derivatives.
 Leave Link  701 at Tue Oct  6 15:59:26 2020, MaxMem=  2684354560 cpu:               3.4 elap:               0.6
 (Enter /udrive/faculty/rpeverati/g16/g16/l702.exe)
 L702 exits ... SP integral derivatives will be done elsewhere.
 Leave Link  702 at Tue Oct  6 15:59:27 2020, MaxMem=  2684354560 cpu:               0.6 elap:               0.3
 (Enter /udrive/faculty/rpeverati/g16/g16/l703.exe)
 Integral derivatives from FoFJK, PRISM(SPDF).
 Compute integral first derivatives, UseDBF=F ICtDFT=           0.
 Calling FoFJK, ICntrl=      2127 FMM=F ISym2X=1 I1Cent= 0 IOpClX= 0 NMat=1 NMatS=1 NMatT=0.
 FoFJK:  IHMeth= 1 ICntrl=    2127 DoSepK=F KAlg= 0 I1Cent=           0 FoldK=F
 IRaf=         0 NMat=       1 IRICut=       1 DoRegI=T DoRafI=F ISym2E= 1 IDoP0=0 IntGTp=1.
 FoFCou: FMM=F IPFlag=           0 FMFlag=      100000 FMFlg1=         800
         NFxFlg=           0 DoJE=F BraDBF=F KetDBF=F FulRan=T
         wScrn=  0.000000 ICntrl=      2127 IOpCl=  0 I1Cent=           0 NGrid=           0
         NMat0=    1 NMatS0=      1 NMatT0=    0 NMatD0=    1 NMtDS0=    0 NMtDT0=    0
 Petite list used in FoFCou.
 Leave Link  703 at Tue Oct  6 15:59:28 2020, MaxMem=  2684354560 cpu:               4.2 elap:               0.6
 (Enter /udrive/faculty/rpeverati/g16/g16/l716.exe)
 Dipole        = 0.00000000D+00 6.60063221D-32 2.66274571D-02
 ***** Axes restored to original set *****
 -------------------------------------------------------------------
 Center     Atomic                   Forces (Hartrees/Bohr)
 Number     Number              X              Y              Z
 -------------------------------------------------------------------
      1        8          -0.000000000   -0.000000000    0.002537036
      2        6           0.000000000    0.000000000   -0.002537036
 -------------------------------------------------------------------
 Cartesian Forces:  Max     0.002537036 RMS     0.001464759
 Leave Link  716 at Tue Oct  6 15:59:28 2020, MaxMem=  2684354560 cpu:               0.7 elap:               0.4
 (Enter /udrive/faculty/rpeverati/g16/g16/l103.exe)

 GradGradGradGradGradGradGradGradGradGradGradGradGradGradGradGradGradGrad
 Berny optimization.
 Optmz: redundant internal coordinate code flag= 1
 Using GEDIIS/GDIIS optimizer.
 Red2BG:  D1=  2.00D+00 OD1=  0.00D+00 B2RMS=  0.00D+00 IAprox=1
 Red2BG is reusing G-inverse.
 Internal  Forces:  Max     0.002537036 RMS     0.002537036
 Search for a local minimum.
 Step number   2 out of a maximum of  100
 All quantities printed in internal units (Hartrees-Bohrs-Radians)
 RMS Force = .25370D-02 SwitMx=.10000D-02 MixMth= 1
 Mixed Optimization -- RFO/linear search
 Update second derivatives using D2CorX and points    1    2
 DE= -1.50D-04 DEPred=-1.34D-04 R= 1.12D+00
 TightC=F SS=  1.41D+00  RLast= 1.34D-02 DXNew= 5.0454D-01 4.0070D-02
 Trust test= 1.12D+00 RLast= 1.34D-02 DXMaxT set to 3.00D-01
 The second derivative matrix:
                          R1
           R1           1.30971
 ITU=  1  0
 Use linear search instead of GDIIS.
 Eigenvectors of the second derivative matrix:
                           1
     Eigenvalues --     1.30971
   1         R1         1.00000
 RFO step:  Lambda= 0.00000000D+00 EMin= 1.30971147D+00
 Quartic linear search produced a step of  0.14922.
 Iteration  1 RMS(Cart)=  0.00140929 RMS(Int)=  0.00000000
 Iteration  2 RMS(Cart)=  0.00000000 RMS(Int)=  0.00000000
 ITry= 1 IFail=0 DXMaxC= 9.97D-04 DCOld= 1.00D+10 DXMaxT= 3.00D-01 DXLimC= 3.00D+00 Rises=F
 ClnCor:  largest displacement from symmetrization is 0.00D+00 for atom     0.
 Variable       Old X    -DE/DX   Delta X   Delta X   Delta X     New X
                                 (Linear)    (Quad)   (Total)
    R1        2.14801   0.00254   0.00199  -0.00000   0.00199   2.15000
         Item               Value     Threshold  Converged?
 Maximum Force            0.002537     0.000450     NO 
 RMS     Force            0.002537     0.000300     NO 
 Maximum Displacement     0.000997     0.001800     YES
 RMS     Displacement     0.001409     0.001200     NO 
 Predicted change in Energy=-2.455192D-06
 Lowest energy point so far.  Saving SCF results.
 Largest change from initial coordinates is atom    2       0.005 Angstoms.
 GradGradGradGradGradGradGradGradGradGradGradGradGradGradGradGradGradGrad

 Leave Link  103 at Tue Oct  6 15:59:29 2020, MaxMem=  2684354560 cpu:               1.5 elap:               0.5
 (Enter /udrive/faculty/rpeverati/g16/g16/l202.exe)
                          Input orientation:                          
 ---------------------------------------------------------------------
 Center     Atomic      Atomic             Coordinates (Angstroms)
 Number     Number       Type             X           Y           Z
 ---------------------------------------------------------------------
      1          8           0        0.000000    0.000000    0.488180
      2          6           0        0.000000    0.000000   -0.649552
 ---------------------------------------------------------------------
 Stoichiometry    CO
 Framework group  C*V[C*(CO)]
 Deg. of freedom     1
 Full point group                 C*V     NOp   4
 RotChk:  IX=0 Diff= 0.00D+00
 Largest Abelian subgroup         C2V     NOp   4
 Largest concise Abelian subgroup C1      NOp   1
                         Standard orientation:                         
 ---------------------------------------------------------------------
 Center     Atomic      Atomic             Coordinates (Angstroms)
 Number     Number       Type             X           Y           Z
 ---------------------------------------------------------------------
      1          8           0        0.000000    0.000000    0.487599
      2          6           0        0.000000    0.000000   -0.650132
 ---------------------------------------------------------------------
 Rotational constants (GHZ):           0.0000000          56.9447512          56.9447512
 Leave Link  202 at Tue Oct  6 15:59:30 2020, MaxMem=  2684354560 cpu:               0.8 elap:               0.3
 (Enter /udrive/faculty/rpeverati/g16/g16/l301.exe)
 Standard basis: 6-31G(d) (5D, 7F)
 Ernie: Thresh=  0.10000D-02 Tol=  0.10000D-05 Strict=F.
 There are    16 symmetry adapted cartesian basis functions of A1  symmetry.
 There are     2 symmetry adapted cartesian basis functions of A2  symmetry.
 There are     6 symmetry adapted cartesian basis functions of B1  symmetry.
 There are     6 symmetry adapted cartesian basis functions of B2  symmetry.
 There are    14 symmetry adapted basis functions of A1  symmetry.
 There are     2 symmetry adapted basis functions of A2  symmetry.
 There are     6 symmetry adapted basis functions of B1  symmetry.
 There are     6 symmetry adapted basis functions of B2  symmetry.
    28 basis functions,    56 primitive gaussians,    30 cartesian basis functions
     7 alpha electrons        7 beta electrons
       nuclear repulsion energy        22.3255739701 Hartrees.
 IExCor=  402 DFT=T Ex+Corr=B3LYP ExCW=0 ScaHFX=  0.200000
 ScaDFX=  0.800000  0.720000  1.000000  0.810000 ScalE2=  1.000000  1.000000
 IRadAn=      5 IRanWt=     -1 IRanGd=            0 ICorTp=0 IEmpDi=  4
 NAtoms=    2 NActive=    2 NUniq=    2 SFac= 1.00D+00 NAtFMM=   60 NAOKFM=F Big=F
 Integral buffers will be    131072 words long.
 Raffenetti 2 integral format.
 Two-electron integral symmetry is turned on.
 Leave Link  301 at Tue Oct  6 15:59:30 2020, MaxMem=  2684354560 cpu:               1.9 elap:               0.6
 (Enter /udrive/faculty/rpeverati/g16/g16/l302.exe)
 NPDir=0 NMtPBC=     1 NCelOv=     1 NCel=       1 NClECP=     1 NCelD=      1
         NCelK=      1 NCelE2=     1 NClLst=     1 CellRange=     0.0.
 One-electron integrals computed using PRISM.
 One-electron integral symmetry used in STVInt
 NBasis=    28 RedAO= T EigKep=  1.55D-02  NBF=    14     2     6     6
 NBsUse=    28 1.00D-06 EigRej= -1.00D+00 NBFU=    14     2     6     6
 Precomputing XC quadrature grid using
 IXCGrd= 4 IRadAn=           5 IRanWt=          -1 IRanGd=           0 AccXCQ= 0.00D+00.
 Generated NRdTot=       0 NPtTot=           0 NUsed=           0 NTot=          32
 NSgBfM=    30    30    30    30    30 MxSgAt=     2 MxSgA2=     2.
 Leave Link  302 at Tue Oct  6 15:59:31 2020, MaxMem=  2684354560 cpu:               2.9 elap:               0.5
 (Enter /udrive/faculty/rpeverati/g16/g16/l303.exe)
 DipDrv:  MaxL=1.
 Leave Link  303 at Tue Oct  6 15:59:32 2020, MaxMem=  2684354560 cpu:               0.9 elap:               0.5
 (Enter /udrive/faculty/rpeverati/g16/g16/l401.exe)
 Initial guess from the checkpoint file:  "MN_32_co_BH76_B3LYP_6-31Gs.chk"
 SCF N**3 symmetry information disabled.
 B after Tr=     0.000000    0.000000    0.000000
         Rot=    1.000000    0.000000    0.000000    0.000000 Ang=   0.00 deg.
 Guess basis will be translated and rotated to current coordinates.
 JPrj=2 DoOrth=T DoCkMO=T.
 Initial guess orbital symmetries:
       Occupied  (SG) (SG) (SG) (SG) (PI) (PI) (SG)
       Virtual   (PI) (PI) (SG) (PI) (PI) (SG) (SG) (SG) (PI) (PI)
                 (DLTA) (DLTA) (SG) (PI) (PI) (DLTA) (DLTA) (SG)
                 (PI) (PI) (SG)
 The electronic state of the initial guess is 1-SG.
 Leave Link  401 at Tue Oct  6 15:59:32 2020, MaxMem=  2684354560 cpu:               1.8 elap:               0.5
 (Enter /udrive/faculty/rpeverati/g16/g16/l502.exe)
 Keep R1 ints in memory in symmetry-blocked form, NReq=10432253.
 FoFCou: FMM=F IPFlag=           0 FMFlag=           0 FMFlg1=           0
         NFxFlg=           0 DoJE=F BraDBF=F KetDBF=F FulRan=T
         wScrn=  0.000000 ICntrl=       600 IOpCl=  0 I1Cent=           0 NGrid=           0
         NMat0=    1 NMatS0=    406 NMatT0=    0 NMatD0=    1 NMtDS0=    0 NMtDT0=    0
 Petite list used in FoFCou.
 Closed shell SCF:
 Using DIIS extrapolation, IDIIS=  1040.
 NGot=  2684354560 LenX=  2684327255 LenY=  2684325914
 Requested convergence on RMS density matrix=1.00D-08 within 120 cycles.
 Requested convergence on MAX density matrix=1.00D-06.
 Requested convergence on             energy=1.00D-06.
 No special actions if energy rises.

 Cycle   1  Pass 1  IDiag  1:
 E= -113.306911765885    
 DIIS: error= 1.33D-04 at cycle   1 NSaved=   1.
 NSaved= 1 IEnMin= 1 EnMin= -113.306911765885     IErMin= 1 ErrMin= 1.33D-04
 ErrMax= 1.33D-04  0.00D+00 EMaxC= 1.00D-01 BMatC= 6.91D-07 BMatP= 6.91D-07
 IDIUse=3 WtCom= 9.99D-01 WtEn= 1.33D-03
 Coeff-Com:  0.100D+01
 Coeff-En:   0.100D+01
 Coeff:      0.100D+01
 Gap=     0.350 Goal=   None    Shift=    0.000
 RMSDP=3.87D-05 MaxDP=2.68D-04              OVMax= 3.20D-04

 Cycle   2  Pass 1  IDiag  1:
 E= -113.306912301699     Delta-E=       -0.000000535813 Rises=F Damp=F
 DIIS: error= 8.98D-05 at cycle   2 NSaved=   2.
 NSaved= 2 IEnMin= 2 EnMin= -113.306912301699     IErMin= 2 ErrMin= 8.98D-05
 ErrMax= 8.98D-05  0.00D+00 EMaxC= 1.00D-01 BMatC= 2.66D-07 BMatP= 6.91D-07
 IDIUse=1 WtCom= 1.00D+00 WtEn= 0.00D+00
 Coeff-Com:  0.347D+00 0.653D+00
 Coeff:      0.347D+00 0.653D+00
 Gap=     0.350 Goal=   None    Shift=    0.000
 RMSDP=1.72D-05 MaxDP=2.10D-04 DE=-5.36D-07 OVMax= 2.57D-04

 Cycle   3  Pass 1  IDiag  1:
 E= -113.306912322032     Delta-E=       -0.000000020334 Rises=F Damp=F
 DIIS: error= 1.03D-04 at cycle   3 NSaved=   3.
 NSaved= 3 IEnMin= 3 EnMin= -113.306912322032     IErMin= 2 ErrMin= 8.98D-05
 ErrMax= 1.03D-04  0.00D+00 EMaxC= 1.00D-01 BMatC= 2.31D-07 BMatP= 2.66D-07
 IDIUse=3 WtCom= 9.99D-01 WtEn= 1.03D-03
 Coeff-Com:  0.908D-01 0.470D+00 0.440D+00
 Coeff-En:   0.000D+00 0.477D+00 0.523D+00
 Coeff:      0.907D-01 0.470D+00 0.440D+00
 Gap=     0.350 Goal=   None    Shift=    0.000
 RMSDP=1.14D-05 MaxDP=1.13D-04 DE=-2.03D-08 OVMax= 1.73D-04

 Cycle   4  Pass 1  IDiag  1:
 E= -113.306912487083     Delta-E=       -0.000000165051 Rises=F Damp=F
 DIIS: error= 2.23D-05 at cycle   4 NSaved=   4.
 NSaved= 4 IEnMin= 4 EnMin= -113.306912487083     IErMin= 4 ErrMin= 2.23D-05
 ErrMax= 2.23D-05  0.00D+00 EMaxC= 1.00D-01 BMatC= 9.69D-09 BMatP= 2.31D-07
 IDIUse=1 WtCom= 1.00D+00 WtEn= 0.00D+00
 Coeff-Com: -0.101D-01 0.100D+00 0.221D+00 0.689D+00
 Coeff:     -0.101D-01 0.100D+00 0.221D+00 0.689D+00
 Gap=     0.350 Goal=   None    Shift=    0.000
 RMSDP=2.68D-06 MaxDP=3.58D-05 DE=-1.65D-07 OVMax= 3.26D-05

 Cycle   5  Pass 1  IDiag  1:
 E= -113.306912495775     Delta-E=       -0.000000008692 Rises=F Damp=F
 DIIS: error= 1.87D-07 at cycle   5 NSaved=   5.
 NSaved= 5 IEnMin= 5 EnMin= -113.306912495775     IErMin= 5 ErrMin= 1.87D-07
 ErrMax= 1.87D-07  0.00D+00 EMaxC= 1.00D-01 BMatC= 1.20D-12 BMatP= 9.69D-09
 IDIUse=1 WtCom= 1.00D+00 WtEn= 0.00D+00
 Coeff-Com: -0.455D-03-0.159D-02 0.197D-02 0.129D-01 0.987D+00
 Coeff:     -0.455D-03-0.159D-02 0.197D-02 0.129D-01 0.987D+00
 Gap=     0.350 Goal=   None    Shift=    0.000
 RMSDP=7.38D-08 MaxDP=1.29D-06 DE=-8.69D-09 OVMax= 4.83D-07

 Cycle   6  Pass 1  IDiag  1:
 E= -113.306912495776     Delta-E=       -0.000000000001 Rises=F Damp=F
 DIIS: error= 2.09D-08 at cycle   6 NSaved=   6.
 NSaved= 6 IEnMin= 6 EnMin= -113.306912495776     IErMin= 6 ErrMin= 2.09D-08
 ErrMax= 2.09D-08  0.00D+00 EMaxC= 1.00D-01 BMatC= 1.98D-14 BMatP= 1.20D-12
 IDIUse=1 WtCom= 1.00D+00 WtEn= 0.00D+00
 Coeff-Com: -0.827D-05-0.926D-03-0.996D-03-0.218D-02 0.178D+00 0.826D+00
 Coeff:     -0.827D-05-0.926D-03-0.996D-03-0.218D-02 0.178D+00 0.826D+00
 Gap=     0.350 Goal=   None    Shift=    0.000
 RMSDP=6.25D-09 MaxDP=1.09D-07 DE=-1.25D-12 OVMax= 5.05D-08

 SCF Done:  E(RB3LYP) =  -113.306912496     A.U. after    6 cycles
            NFock=  6  Conv=0.62D-08     -V/T= 2.0065
 KE= 1.125742623842D+02 PE=-3.105870482272D+02 EE= 6.238029937712D+01
 Leave Link  502 at Tue Oct  6 15:59:34 2020, MaxMem=  2684354560 cpu:               7.1 elap:               0.9
 (Enter /udrive/faculty/rpeverati/g16/g16/l508.exe)
 QCSCF skips out because SCF is already converged.
 Leave Link  508 at Tue Oct  6 15:59:34 2020, MaxMem=  2684354560 cpu:               0.3 elap:               0.3
 (Enter /udrive/faculty/rpeverati/g16/g16/l701.exe)
 ... and contract with generalized density number  0.
 Compute integral first derivatives.
 Leave Link  701 at Tue Oct  6 15:59:35 2020, MaxMem=  2684354560 cpu:               3.8 elap:               0.7
 (Enter /udrive/faculty/rpeverati/g16/g16/l702.exe)
 L702 exits ... SP integral derivatives will be done elsewhere.
 Leave Link  702 at Tue Oct  6 15:59:35 2020, MaxMem=  2684354560 cpu:               1.2 elap:               0.4
 (Enter /udrive/faculty/rpeverati/g16/g16/l703.exe)
 Integral derivatives from FoFJK, PRISM(SPDF).
 Compute integral first derivatives, UseDBF=F ICtDFT=           0.
 Calling FoFJK, ICntrl=      2127 FMM=F ISym2X=1 I1Cent= 0 IOpClX= 0 NMat=1 NMatS=1 NMatT=0.
 FoFJK:  IHMeth= 1 ICntrl=    2127 DoSepK=F KAlg= 0 I1Cent=           0 FoldK=F
 IRaf=         0 NMat=       1 IRICut=       1 DoRegI=T DoRafI=F ISym2E= 1 IDoP0=0 IntGTp=1.
 FoFCou: FMM=F IPFlag=           0 FMFlag=      100000 FMFlg1=         800
         NFxFlg=           0 DoJE=F BraDBF=F KetDBF=F FulRan=T
         wScrn=  0.000000 ICntrl=      2127 IOpCl=  0 I1Cent=           0 NGrid=           0
         NMat0=    1 NMatS0=      1 NMatT0=    0 NMatD0=    1 NMtDS0=    0 NMtDT0=    0
 Petite list used in FoFCou.
 Leave Link  703 at Tue Oct  6 15:59:36 2020, MaxMem=  2684354560 cpu:               4.4 elap:               0.7
 (Enter /udrive/faculty/rpeverati/g16/g16/l716.exe)
 Dipole        = 0.00000000D+00-2.31782836D-32 2.52448330D-02
 ***** Axes restored to original set *****
 -------------------------------------------------------------------
 Center     Atomic                   Forces (Hartrees/Bohr)
 Number     Number              X              Y              Z
 -------------------------------------------------------------------
      1        8           0.000000000    0.000000000   -0.000000255
      2        6          -0.000000000   -0.000000000    0.000000255
 -------------------------------------------------------------------
 Cartesian Forces:  Max     0.000000255 RMS     0.000000147
 Leave Link  716 at Tue Oct  6 15:59:37 2020, MaxMem=  2684354560 cpu:               1.3 elap:               0.5
 (Enter /udrive/faculty/rpeverati/g16/g16/l103.exe)

 GradGradGradGradGradGradGradGradGradGradGradGradGradGradGradGradGradGrad
 Berny optimization.
 Optmz: redundant internal coordinate code flag= 1
 Using GEDIIS/GDIIS optimizer.
 Red2BG:  D1=  2.00D+00 OD1=  0.00D+00 B2RMS=  0.00D+00 IAprox=1
 Red2BG is reusing G-inverse.
 Internal  Forces:  Max     0.000000255 RMS     0.000000255
 Search for a local minimum.
 Step number   3 out of a maximum of  100
 All quantities printed in internal units (Hartrees-Bohrs-Radians)
 RMS Force = .25515D-06 SwitMx=.10000D-02 MixMth= 2
 Mixed Optimization -- En-DIIS/RFO-DIIS
 Update second derivatives using D2CorX and points    2    3
 DE= -2.52D-06 DEPred=-2.46D-06 R= 1.03D+00
 TightC=F SS=  1.41D+00  RLast= 1.99D-03 DXNew= 5.0454D-01 5.9791D-03
 Trust test= 1.03D+00 RLast= 1.99D-03 DXMaxT set to 3.00D-01
 The second derivative matrix:
                          R1
           R1           1.27308
 ITU=  1  1
 Use linear search instead of GDIIS.
 Eigenvectors of the second derivative matrix:
                           1
     Eigenvalues --     1.27308
   1         R1         1.00000
 RFO step:  Lambda= 0.00000000D+00 EMin= 1.27308131D+00
 Quartic linear search produced a step of -0.00010.
 Iteration  1 RMS(Cart)=  0.00000014 RMS(Int)=  0.00000000
 ITry= 1 IFail=0 DXMaxC= 1.01D-07 DCOld= 1.00D+10 DXMaxT= 3.00D-01 DXLimC= 3.00D+00 Rises=F
 ClnCor:  largest displacement from symmetrization is 0.00D+00 for atom     0.
 Variable       Old X    -DE/DX   Delta X   Delta X   Delta X     New X
                                 (Linear)    (Quad)   (Total)
    R1        2.15000  -0.00000  -0.00000   0.00000  -0.00000   2.15000
         Item               Value     Threshold  Converged?
 Maximum Force            0.000000     0.000450     YES
 RMS     Force            0.000000     0.000300     YES
 Maximum Displacement     0.000000     0.001800     YES
 RMS     Displacement     0.000000     0.001200     YES
 Predicted change in Energy=-2.556858D-14
 Optimization completed.
    -- Stationary point found.
                           ----------------------------
                           !   Optimized Parameters   !
                           ! (Angstroms and Degrees)  !
 --------------------------                            --------------------------
 ! Name  Definition              Value          Derivative Info.                !
 --------------------------------------------------------------------------------
 ! R1    R(1,2)                  1.1377         -DE/DX =    0.0                 !
 --------------------------------------------------------------------------------
 Lowest energy point so far.  Saving SCF results.
 Largest change from initial coordinates is atom    2       0.005 Angstoms.
 GradGradGradGradGradGradGradGradGradGradGradGradGradGradGradGradGradGrad

 Leave Link  103 at Tue Oct  6 15:59:38 2020, MaxMem=  2684354560 cpu:               2.1 elap:               0.5
 (Enter /udrive/faculty/rpeverati/g16/g16/l202.exe)
                          Input orientation:                          
 ---------------------------------------------------------------------
 Center     Atomic      Atomic             Coordinates (Angstroms)
 Number     Number       Type             X           Y           Z
 ---------------------------------------------------------------------
      1          8           0        0.000000    0.000000    0.488180
      2          6           0        0.000000    0.000000   -0.649552
 ---------------------------------------------------------------------
 Stoichiometry    CO
 Framework group  C*V[C*(CO)]
 Deg. of freedom     1
 Full point group                 C*V     NOp   4
 RotChk:  IX=0 Diff= 0.00D+00
 Largest Abelian subgroup         C2V     NOp   4
 Largest concise Abelian subgroup C1      NOp   1
                         Standard orientation:                         
 ---------------------------------------------------------------------
 Center     Atomic      Atomic             Coordinates (Angstroms)
 Number     Number       Type             X           Y           Z
 ---------------------------------------------------------------------
      1          8           0        0.000000    0.000000    0.487599
      2          6           0        0.000000    0.000000   -0.650132
 ---------------------------------------------------------------------
 Rotational constants (GHZ):           0.0000000          56.9447512          56.9447512
 Leave Link  202 at Tue Oct  6 15:59:38 2020, MaxMem=  2684354560 cpu:               0.9 elap:               0.4
 (Enter /udrive/faculty/rpeverati/g16/g16/l601.exe)
 Copying SCF densities to generalized density rwf, IOpCl= 0 IROHF=0.

 **********************************************************************

            Population analysis using the SCF density.

 **********************************************************************

 Orbital symmetries:
       Occupied  (SG) (SG) (SG) (SG) (PI) (PI) (SG)
       Virtual   (PI) (PI) (SG) (PI) (PI) (SG) (SG) (SG) (PI) (PI)
                 (DLTA) (DLTA) (SG) (PI) (PI) (DLTA) (DLTA) (SG)
                 (PI) (PI) (SG)
 The electronic state is 1-SG.
 Alpha  occ. eigenvalues --  -19.25322 -10.30125  -1.15748  -0.56929  -0.46702
 Alpha  occ. eigenvalues --   -0.46702  -0.37084
 Alpha virt. eigenvalues --   -0.02124  -0.02124   0.26405   0.51223   0.51223
 Alpha virt. eigenvalues --    0.58464   0.75138   0.83281   0.91691   0.91691
 Alpha virt. eigenvalues --    1.47934   1.47934   1.50769   1.54094   1.54094
 Alpha virt. eigenvalues --    1.94303   1.94303   2.41998   2.59966   2.59966
 Alpha virt. eigenvalues --    2.95348
          Condensed to atoms (all electrons):
               1          2
     1  O    7.567039   0.590340
     2  C    0.590340   5.252282
 Mulliken charges:
               1
     1  O   -0.157379
     2  C    0.157379
 Sum of Mulliken charges =  -0.00000
 Mulliken charges with hydrogens summed into heavy atoms:
               1
     1  O   -0.157379
     2  C    0.157379
 Electronic spatial extent (au):  <R**2>=             39.3462
 Charge=             -0.0000 electrons
 Dipole moment (field-independent basis, Debye):
    X=              0.0000    Y=             -0.0000    Z=              0.0642  Tot=              0.0642
 Quadrupole moment (field-independent basis, Debye-Ang):
   XX=             -9.8472   YY=             -9.8472   ZZ=            -11.9108
   XY=             -0.0000   XZ=              0.0000   YZ=              0.0000
 Traceless Quadrupole moment (field-independent basis, Debye-Ang):
   XX=              0.6879   YY=              0.6879   ZZ=             -1.3757
   XY=             -0.0000   XZ=              0.0000   YZ=              0.0000
 Octapole moment (field-independent basis, Debye-Ang**2):
  XXX=              0.0000  YYY=             -0.0000  ZZZ=              5.7101  XYY=              0.0000
  XXY=              0.0000  XXZ=              1.0650  XZZ=              0.0000  YZZ=             -0.0000
  YYZ=              1.0650  XYZ=             -0.0000
 Hexadecapole moment (field-independent basis, Debye-Ang**3):
 XXXX=             -7.7795 YYYY=             -7.7795 ZZZZ=            -34.1959 XXXY=              0.0000
 XXXZ=              0.0000 YYYX=              0.0000 YYYZ=              0.0000 ZZZX=              0.0000
 ZZZY=              0.0000 XXYY=             -2.5932 XXZZ=             -6.4611 YYZZ=             -6.4611
 XXYZ=              0.0000 YYXZ=              0.0000 ZZXY=             -0.0000
 N-N= 2.232557397008D+01 E-N=-3.105870482404D+02  KE= 1.125742623842D+02
 No NMR shielding tensors so no spin-rotation constants.
 Leave Link  601 at Tue Oct  6 15:59:39 2020, MaxMem=  2684354560 cpu:               2.9 elap:               0.6
 (Enter /udrive/faculty/rpeverati/g16/g16/l9999.exe)

 Test job not archived.
 1\1\GINC-NODE33\FOpt\RB3LYP\6-31G(d)\C1O1\RPEVERATI\06-Oct-2020\0\\#P 
 Opt(MaxCyc=100) B3LYP/6-31G* 5D 7F Integral=UltraFineGrid SCF=(NoSymm,
 XQC,MaxCyc=120) IOp(1/33=1)\\TS search on BH76.\\0,1\O,0.,0.,0.4881796
 603\C,0.,0.,-0.6495517215\\Version=ES64L-G16RevA.03\State=1-SG\HF=-113
 .3069125\RMSD=6.246e-09\RMSF=1.473e-07\Dipole=0.,0.,0.0252448\Quadrupo
 le=0.5114108,0.5114108,-1.0228216,0.,0.,0.\PG=C*V [C*(C1O1)]\\@


 IF THE FACTS DO NOT CONFORM TO THE THEORY, THEY MUST BE DISPOSED OF.
 Job cpu time:       0 days  0 hours  1 minutes 42.7 seconds.
 Elapsed time:       0 days  0 hours  0 minutes 21.7 seconds.
 File lengths (MBytes):  RWF=      5 Int=      0 D2E=      0 Chk=      1 Scr=      1
 Normal termination of Gaussian 16 at Tue Oct  6 15:59:41 2020.
