 Entering Gaussian System, Link 0=g16
 Input=MN_44_H2S_BH76_B3LYP_6-31Gs.in
 Output=MN_44_H2S_BH76_B3LYP_6-31Gs.log
 Initial command:
 /udrive/faculty/rpeverati/g16/g16/l1.exe "/udrive/scratch-directories/gaussian09/rpeverati/Gau-31814.inp" -scrdir="/udrive/scratch-directories/gaussian09/rpeverati/"
 Entering Link 1 = /udrive/faculty/rpeverati/g16/g16/l1.exe PID=     31815.
  
 Copyright (c) 1988,1990,1992,1993,1995,1998,2003,2009,2016,
            Gaussian, Inc.  All Rights Reserved.
  
 This is part of the Gaussian(R) 16 program.  It is based on
 the Gaussian(R) 09 system (copyright 2009, Gaussian, Inc.),
 the Gaussian(R) 03 system (copyright 2003, Gaussian, Inc.),
 the Gaussian(R) 98 system (copyright 1998, Gaussian, Inc.),
 the Gaussian(R) 94 system (copyright 1995, Gaussian, Inc.),
 the Gaussian 92(TM) system (copyright 1992, Gaussian, Inc.),
 the Gaussian 90(TM) system (copyright 1990, Gaussian, Inc.),
 the Gaussian 88(TM) system (copyright 1988, Gaussian, Inc.),
 the Gaussian 86(TM) system (copyright 1986, Carnegie Mellon
 University), and the Gaussian 82(TM) system (copyright 1983,
 Carnegie Mellon University). Gaussian is a federally registered
 trademark of Gaussian, Inc.
  
 This software contains proprietary and confidential information,
 including trade secrets, belonging to Gaussian, Inc.
  
 This software is provided under written license and may be
 used, copied, transmitted, or stored only in accord with that
 written license.
  
 The following legend is applicable only to US Government
 contracts under FAR:
  
                    RESTRICTED RIGHTS LEGEND
  
 Use, reproduction and disclosure by the US Government is
 subject to restrictions as set forth in subparagraphs (a)
 and (c) of the Commercial Computer Software - Restricted
 Rights clause in FAR 52.227-19.
  
 Gaussian, Inc.
 340 Quinnipiac St., Bldg. 40, Wallingford CT 06492
  
  
 ---------------------------------------------------------------
 Warning -- This program may not be used in any manner that
 competes with the business of Gaussian, Inc. or will provide
 assistance to any competitor of Gaussian, Inc.  The licensee
 of this program is prohibited from giving any competitor of
 Gaussian, Inc. access to this program.  By using this program,
 the user acknowledges that Gaussian, Inc. is engaged in the
 business of creating and licensing software in the field of
 computational chemistry and represents and warrants to the
 licensee that it is not a competitor of Gaussian, Inc. and that
 it will not use this program in any manner prohibited above.
 ---------------------------------------------------------------
  

 Cite this work as:
 Gaussian 16, Revision A.03,
 M. J. Frisch, G. W. Trucks, H. B. Schlegel, G. E. Scuseria, 
 M. A. Robb, J. R. Cheeseman, G. Scalmani, V. Barone, 
 G. A. Petersson, H. Nakatsuji, X. Li, M. Caricato, A. V. Marenich, 
 J. Bloino, B. G. Janesko, R. Gomperts, B. Mennucci, H. P. Hratchian, 
 J. V. Ortiz, A. F. Izmaylov, J. L. Sonnenberg, D. Williams-Young, 
 F. Ding, F. Lipparini, F. Egidi, J. Goings, B. Peng, A. Petrone, 
 T. Henderson, D. Ranasinghe, V. G. Zakrzewski, J. Gao, N. Rega, 
 G. Zheng, W. Liang, M. Hada, M. Ehara, K. Toyota, R. Fukuda, 
 J. Hasegawa, M. Ishida, T. Nakajima, Y. Honda, O. Kitao, H. Nakai, 
 T. Vreven, K. Throssell, J. A. Montgomery, Jr., J. E. Peralta, 
 F. Ogliaro, M. J. Bearpark, J. J. Heyd, E. N. Brothers, K. N. Kudin, 
 V. N. Staroverov, T. A. Keith, R. Kobayashi, J. Normand, 
 K. Raghavachari, A. P. Rendell, J. C. Burant, S. S. Iyengar, 
 J. Tomasi, M. Cossi, J. M. Millam, M. Klene, C. Adamo, R. Cammi, 
 J. W. Ochterski, R. L. Martin, K. Morokuma, O. Farkas, 
 J. B. Foresman, and D. J. Fox, Gaussian, Inc., Wallingford CT, 2016.
 
 ******************************************
 Gaussian 16:  ES64L-G16RevA.03 25-Dec-2016
                 6-Oct-2020 
 ******************************************
 %NoSave
 %nproc=12
 Will use up to   12 processors via shared memory.
 %mem=20GB
 %chk=MN_44_H2S_BH76_B3LYP_6-31Gs
 ----------------------------------------------------------------------
 #P Opt(MaxCyc=100) B3LYP/6-31G* 5D 7F Integral=UltraFineGrid SCF=(NoSy
 mm,XQC,MaxCyc=120) IOp(1/33=1)
 ----------------------------------------------------------------------
 1/6=100,18=20,19=15,26=4,33=1,38=1/1,3;
 2/9=110,12=2,17=6,18=5,40=1/2;
 3/5=1,6=6,7=1,8=11,11=2,25=1,30=1,71=1,74=-5,75=-5/1,2,3;
 4/9=2/1;
 5/5=2,7=120,8=3,13=1,38=5/2,8;
 6/7=2,8=2,9=2,10=2,28=1/1;
 7//1,2,3,16;
 1/6=100,18=20,19=15,26=4,33=1/3(2);
 2/9=110/2;
 99//99;
 2/9=110/2;
 3/5=1,6=6,7=1,8=11,11=2,25=1,30=1,71=1,74=-5,75=-5/1,2,3;
 4/5=5,9=2,16=3,69=1/1;
 5/5=2,7=120,8=3,13=1,38=5/2,8;
 7//1,2,3,16;
 1/6=100,18=20,19=15,26=4,33=1/3(-5);
 2/9=110/2;
 6/7=2,8=2,9=2,10=2,19=2,28=1/1;
 99/9=1/99;
 Leave Link    1 at Tue Oct  6 15:59:33 2020, MaxMem=  2684354560 cpu:               9.2 elap:               0.9
 (Enter /udrive/faculty/rpeverati/g16/g16/l101.exe)
 ONIOM data not found on unit 2.
 ------------------
 TS search on BH76.
 ------------------
 TstMul:  ICh=     0
 TstMul:  Mul=     1
 TstMul:  ICh=     0
 TstMul:  Mul=     1
 Symbolic Z-matrix:
 Charge =  0 Multiplicity = 1
 S                     0.        0.        0.10252 
 H                     0.        0.96625  -0.82016 
 H                     0.       -0.96625  -0.82016 
 
 RdStrC is calling ZToCFu for IStruc=1 NZ=     3.
 PrtBox:  NBox=     1 Levels=  1 BoxLen=    8.00 SMaxX=        3.65
          Shift=            0.000000            1.825950            1.549870
 Box      1 Number                   0 centers from      1 to      3:
 After GenITR:
 ITRead=  0  0  0
 MicOpt= -1 -1 -1
 ITRead=  0  0  0
 MicOpt= -1 -1 -1
 NAtoms=      3 NQM=        3 NQMF=       0 NMMI=      0 NMMIF=      0
                NMic=       0 NMicF=      0.
                    Isotopes and Nuclear Properties:
 (Nuclear quadrupole moments (NQMom) in fm**2, nuclear magnetic moments (NMagM)
  in nuclear magnetons)

  Atom         1           2           3
 IAtWgt=          32           1           1
 AtmWgt=  31.9720718   1.0078250   1.0078250
 NucSpn=           0           1           1
 AtZEff=   0.0000000   0.0000000   0.0000000
 NQMom=    0.0000000   0.0000000   0.0000000
 NMagM=    0.0000000   2.7928460   2.7928460
 AtZNuc=  16.0000000   1.0000000   1.0000000
 No MM parameters found.
 Leave Link  101 at Tue Oct  6 15:59:35 2020, MaxMem=  2684354560 cpu:              19.6 elap:               1.8
 (Enter /udrive/faculty/rpeverati/g16/g16/l103.exe)

 GradGradGradGradGradGradGradGradGradGradGradGradGradGradGradGradGradGrad
 Berny optimization.
 Optmz: redundant internal coordinate code flag= 1
 Initialization pass.
                           ----------------------------
                           !    Initial Parameters    !
                           ! (Angstroms and Degrees)  !
 --------------------------                            --------------------------
 ! Name  Definition              Value          Derivative Info.                !
 --------------------------------------------------------------------------------
 ! R1    R(1,2)                  1.336          estimate D2E/DX2                !
 ! R2    R(1,3)                  1.336          estimate D2E/DX2                !
 ! A1    A(2,1,3)               92.6431         estimate D2E/DX2                !
 --------------------------------------------------------------------------------
 Maximum allowed force set to 1.00D+20.
 Trust Radius=3.00D-01 FncErr=1.00D-07 GrdErr=1.00D-06 EigMax=2.50D+02 EigMin=1.00D-04
 Number of steps in this run=    100 maximum allowed number of steps=    100.
 GradGradGradGradGradGradGradGradGradGradGradGradGradGradGradGradGradGrad

 Leave Link  103 at Tue Oct  6 15:59:36 2020, MaxMem=  2684354560 cpu:               1.2 elap:               0.5
 (Enter /udrive/faculty/rpeverati/g16/g16/l202.exe)
                          Input orientation:                          
 ---------------------------------------------------------------------
 Center     Atomic      Atomic             Coordinates (Angstroms)
 Number     Number       Type             X           Y           Z
 ---------------------------------------------------------------------
      1         16           0        0.000000    0.000000    0.102519
      2          1           0        0.000000    0.966251   -0.820156
      3          1           0        0.000000   -0.966251   -0.820156
 ---------------------------------------------------------------------
                    Distance matrix (angstroms):
                    1          2          3
     1  S    0.000000
     2  H    1.336028   0.000000
     3  H    1.336028   1.932502   0.000000
 Stoichiometry    H2S
 Framework group  C2V[C2(S),SGV(H2)]
 Deg. of freedom     2
 Full point group                 C2V     NOp   4
 Largest Abelian subgroup         C2V     NOp   4
 Largest concise Abelian subgroup C2      NOp   2
                         Standard orientation:                         
 ---------------------------------------------------------------------
 Center     Atomic      Atomic             Coordinates (Angstroms)
 Number     Number       Type             X           Y           Z
 ---------------------------------------------------------------------
      1         16           0        0.000000   -0.000000    0.102519
      2          1           0        0.000000    0.966251   -0.820156
      3          1           0       -0.000000   -0.966251   -0.820156
 ---------------------------------------------------------------------
 Rotational constants (GHZ):         313.0803827         268.5480684         144.5547099
 Leave Link  202 at Tue Oct  6 15:59:37 2020, MaxMem=  2684354560 cpu:               1.3 elap:               0.6
 (Enter /udrive/faculty/rpeverati/g16/g16/l301.exe)
 Standard basis: 6-31G(d) (5D, 7F)
 Ernie: Thresh=  0.10000D-02 Tol=  0.10000D-05 Strict=F.
 There are    12 symmetry adapted cartesian basis functions of A1  symmetry.
 There are     1 symmetry adapted cartesian basis functions of A2  symmetry.
 There are     4 symmetry adapted cartesian basis functions of B1  symmetry.
 There are     6 symmetry adapted cartesian basis functions of B2  symmetry.
 There are    11 symmetry adapted basis functions of A1  symmetry.
 There are     1 symmetry adapted basis functions of A2  symmetry.
 There are     4 symmetry adapted basis functions of B1  symmetry.
 There are     6 symmetry adapted basis functions of B2  symmetry.
    22 basis functions,    60 primitive gaussians,    23 cartesian basis functions
     9 alpha electrons        9 beta electrons
       nuclear repulsion energy        12.9484693483 Hartrees.
 IExCor=  402 DFT=T Ex+Corr=B3LYP ExCW=0 ScaHFX=  0.200000
 ScaDFX=  0.800000  0.720000  1.000000  0.810000 ScalE2=  1.000000  1.000000
 IRadAn=      5 IRanWt=     -1 IRanGd=            0 ICorTp=0 IEmpDi=  4
 NAtoms=    3 NActive=    3 NUniq=    2 SFac= 2.25D+00 NAtFMM=   60 NAOKFM=F Big=F
 Integral buffers will be    131072 words long.
 Raffenetti 2 integral format.
 Two-electron integral symmetry is turned on.
 Leave Link  301 at Tue Oct  6 15:59:38 2020, MaxMem=  2684354560 cpu:               1.9 elap:               0.7
 (Enter /udrive/faculty/rpeverati/g16/g16/l302.exe)
 NPDir=0 NMtPBC=     1 NCelOv=     1 NCel=       1 NClECP=     1 NCelD=      1
         NCelK=      1 NCelE2=     1 NClLst=     1 CellRange=     0.0.
 One-electron integrals computed using PRISM.
 One-electron integral symmetry used in STVInt
 NBasis=    22 RedAO= T EigKep=  3.08D-02  NBF=    11     1     4     6
 NBsUse=    22 1.00D-06 EigRej= -1.00D+00 NBFU=    11     1     4     6
 Precomputing XC quadrature grid using
 IXCGrd= 4 IRadAn=           5 IRanWt=          -1 IRanGd=           0 AccXCQ= 0.00D+00.
 Generated NRdTot=       0 NPtTot=           0 NUsed=           0 NTot=          32
 NSgBfM=    23    23    23    23    23 MxSgAt=     3 MxSgA2=     3.
 Leave Link  302 at Tue Oct  6 15:59:39 2020, MaxMem=  2684354560 cpu:               3.6 elap:               0.9
 (Enter /udrive/faculty/rpeverati/g16/g16/l303.exe)
 DipDrv:  MaxL=1.
 Leave Link  303 at Tue Oct  6 15:59:40 2020, MaxMem=  2684354560 cpu:               1.3 elap:               0.5
 (Enter /udrive/faculty/rpeverati/g16/g16/l401.exe)
 SCF N**3 symmetry information disabled.
 ExpMin= 1.17D-01 ExpMax= 2.19D+04 ExpMxC= 3.30D+03 IAcc=3 IRadAn=         5 AccDes= 0.00D+00
 Harris functional with IExCor=  402 and IRadAn=       5 diagonalized for initial guess.
 HarFok:  IExCor=  402 AccDes= 0.00D+00 IRadAn=         5 IDoV= 1 UseB2=F ITyADJ=14
 ICtDFT=  3500011 ScaDFX=  1.000000  1.000000  1.000000  1.000000
 FoFCou: FMM=F IPFlag=           0 FMFlag=      100000 FMFlg1=           0
         NFxFlg=           0 DoJE=T BraDBF=F KetDBF=T FulRan=T
         wScrn=  0.000000 ICntrl=       500 IOpCl=  0 I1Cent=   200000004 NGrid=           0
         NMat0=    1 NMatS0=      1 NMatT0=    0 NMatD0=    1 NMtDS0=    0 NMtDT0=    0
 Petite list used in FoFCou.
 Harris En= -399.323048475429    
 JPrj=0 DoOrth=F DoCkMO=F.
 Initial guess orbital symmetries:
       Occupied  (A1) (A1) (B2) (A1) (B1) (A1) (B2) (A1) (B1)
       Virtual   (B2) (A1) (B2) (A1) (A1) (B1) (B2) (A1) (A2) (B1)
                 (A1) (A1) (B2)
 The electronic state of the initial guess is 1-A1.
 Leave Link  401 at Tue Oct  6 15:59:41 2020, MaxMem=  2684354560 cpu:               4.1 elap:               0.7
 (Enter /udrive/faculty/rpeverati/g16/g16/l502.exe)
 Keep R1 ints in memory in symmetry-blocked form, NReq=10376515.
 FoFCou: FMM=F IPFlag=           0 FMFlag=           0 FMFlg1=           0
         NFxFlg=           0 DoJE=F BraDBF=F KetDBF=F FulRan=T
         wScrn=  0.000000 ICntrl=       600 IOpCl=  0 I1Cent=           0 NGrid=           0
         NMat0=    1 NMatS0=    253 NMatT0=    0 NMatD0=    1 NMtDS0=    0 NMtDT0=    0
 Petite list used in FoFCou.
 Closed shell SCF:
 Using DIIS extrapolation, IDIIS=  1040.
 NGot=  2684354560 LenX=  2684342189 LenY=  2684341219
 Requested convergence on RMS density matrix=1.00D-08 within 120 cycles.
 Requested convergence on MAX density matrix=1.00D-06.
 Requested convergence on             energy=1.00D-06.
 No special actions if energy rises.
 Integral accuracy reduced to 1.0D-05 until final iterations.

 Cycle   1  Pass 0  IDiag  1:
 E= -399.379194841644    
 DIIS: error= 1.18D-02 at cycle   1 NSaved=   1.
 NSaved= 1 IEnMin= 1 EnMin= -399.379194841644     IErMin= 1 ErrMin= 1.18D-02
 ErrMax= 1.18D-02  0.00D+00 EMaxC= 1.00D-01 BMatC= 2.68D-03 BMatP= 2.68D-03
 IDIUse=3 WtCom= 8.82D-01 WtEn= 1.18D-01
 Coeff-Com:  0.100D+01
 Coeff-En:   0.100D+01
 Coeff:      0.100D+01
 Gap=     0.277 Goal=   None    Shift=    0.000
 GapD=    0.277 DampG=1.000 DampE=0.500 DampFc=0.5000 IDamp=-1.
 Damping current iteration by 5.00D-01
 RMSDP=5.63D-03 MaxDP=5.33D-02              OVMax= 3.11D-02

 Cycle   2  Pass 0  IDiag  1:
 E= -399.380796927894     Delta-E=       -0.001602086250 Rises=F Damp=T
 DIIS: error= 3.76D-03 at cycle   2 NSaved=   2.
 NSaved= 2 IEnMin= 2 EnMin= -399.380796927894     IErMin= 2 ErrMin= 3.76D-03
 ErrMax= 3.76D-03  0.00D+00 EMaxC= 1.00D-01 BMatC= 4.98D-04 BMatP= 2.68D-03
 IDIUse=3 WtCom= 9.62D-01 WtEn= 3.76D-02
 Coeff-Com: -0.273D+00 0.127D+01
 Coeff-En:   0.000D+00 0.100D+01
 Coeff:     -0.263D+00 0.126D+01
 Gap=     0.286 Goal=   None    Shift=    0.000
 RMSDP=1.16D-03 MaxDP=6.39D-03 DE=-1.60D-03 OVMax= 1.69D-02

 Cycle   3  Pass 0  IDiag  1:
 E= -399.382231735314     Delta-E=       -0.001434807420 Rises=F Damp=F
 DIIS: error= 1.43D-03 at cycle   3 NSaved=   3.
 NSaved= 3 IEnMin= 3 EnMin= -399.382231735314     IErMin= 3 ErrMin= 1.43D-03
 ErrMax= 1.43D-03  0.00D+00 EMaxC= 1.00D-01 BMatC= 5.76D-05 BMatP= 4.98D-04
 IDIUse=3 WtCom= 9.86D-01 WtEn= 1.43D-02
 Coeff-Com: -0.166D+00 0.380D+00 0.786D+00
 Coeff-En:   0.000D+00 0.000D+00 0.100D+01
 Coeff:     -0.164D+00 0.375D+00 0.789D+00
 Gap=     0.284 Goal=   None    Shift=    0.000
 RMSDP=5.54D-04 MaxDP=4.19D-03 DE=-1.43D-03 OVMax= 3.85D-03

 Cycle   4  Pass 0  IDiag  1:
 E= -399.382306526680     Delta-E=       -0.000074791367 Rises=F Damp=F
 DIIS: error= 2.14D-04 at cycle   4 NSaved=   4.
 NSaved= 4 IEnMin= 4 EnMin= -399.382306526680     IErMin= 4 ErrMin= 2.14D-04
 ErrMax= 2.14D-04  0.00D+00 EMaxC= 1.00D-01 BMatC= 7.68D-07 BMatP= 5.76D-05
 IDIUse=3 WtCom= 9.98D-01 WtEn= 2.14D-03
 Coeff-Com: -0.540D-01 0.120D+00 0.280D+00 0.654D+00
 Coeff-En:   0.000D+00 0.000D+00 0.000D+00 0.100D+01
 Coeff:     -0.539D-01 0.120D+00 0.279D+00 0.655D+00
 Gap=     0.284 Goal=   None    Shift=    0.000
 RMSDP=5.16D-05 MaxDP=2.74D-04 DE=-7.48D-05 OVMax= 4.45D-04

 Cycle   5  Pass 0  IDiag  1:
 E= -399.382307576493     Delta-E=       -0.000001049813 Rises=F Damp=F
 DIIS: error= 9.21D-06 at cycle   5 NSaved=   5.
 NSaved= 5 IEnMin= 5 EnMin= -399.382307576493     IErMin= 5 ErrMin= 9.21D-06
 ErrMax= 9.21D-06  0.00D+00 EMaxC= 1.00D-01 BMatC= 1.42D-09 BMatP= 7.68D-07
 IDIUse=1 WtCom= 1.00D+00 WtEn= 0.00D+00
 Coeff-Com:  0.184D-02-0.449D-02-0.734D-02 0.234D-01 0.987D+00
 Coeff:      0.184D-02-0.449D-02-0.734D-02 0.234D-01 0.987D+00
 Gap=     0.284 Goal=   None    Shift=    0.000
 RMSDP=1.51D-06 MaxDP=7.17D-06 DE=-1.05D-06 OVMax= 9.52D-06

 Initial convergence to 1.0D-05 achieved.  Increase integral accuracy.
 Cycle   6  Pass 1  IDiag  1:
 E= -399.382307166128     Delta-E=        0.000000410365 Rises=F Damp=F
 DIIS: error= 9.29D-07 at cycle   1 NSaved=   1.
 NSaved= 1 IEnMin= 1 EnMin= -399.382307166128     IErMin= 1 ErrMin= 9.29D-07
 ErrMax= 9.29D-07  0.00D+00 EMaxC= 1.00D-01 BMatC= 1.59D-11 BMatP= 1.59D-11
 IDIUse=1 WtCom= 1.00D+00 WtEn= 0.00D+00
 Coeff-Com:  0.100D+01
 Coeff:      0.100D+01
 Gap=     0.284 Goal=   None    Shift=    0.000
 RMSDP=1.51D-06 MaxDP=7.17D-06 DE= 4.10D-07 OVMax= 2.86D-06

 Cycle   7  Pass 1  IDiag  1:
 E= -399.382307166151     Delta-E=       -0.000000000023 Rises=F Damp=F
 DIIS: error= 3.34D-07 at cycle   2 NSaved=   2.
 NSaved= 2 IEnMin= 2 EnMin= -399.382307166151     IErMin= 2 ErrMin= 3.34D-07
 ErrMax= 3.34D-07  0.00D+00 EMaxC= 1.00D-01 BMatC= 3.51D-12 BMatP= 1.59D-11
 IDIUse=1 WtCom= 1.00D+00 WtEn= 0.00D+00
 Coeff-Com:  0.289D+00 0.711D+00
 Coeff:      0.289D+00 0.711D+00
 Gap=     0.284 Goal=   None    Shift=    0.000
 RMSDP=1.54D-07 MaxDP=1.70D-06 DE=-2.27D-11 OVMax= 6.55D-07

 Cycle   8  Pass 1  IDiag  1:
 E= -399.382307166155     Delta-E=       -0.000000000004 Rises=F Damp=F
 DIIS: error= 9.92D-08 at cycle   3 NSaved=   3.
 NSaved= 3 IEnMin= 3 EnMin= -399.382307166155     IErMin= 3 ErrMin= 9.92D-08
 ErrMax= 9.92D-08  0.00D+00 EMaxC= 1.00D-01 BMatC= 2.34D-13 BMatP= 3.51D-12
 IDIUse=1 WtCom= 1.00D+00 WtEn= 0.00D+00
 Coeff-Com:  0.998D-02 0.200D+00 0.790D+00
 Coeff:      0.998D-02 0.200D+00 0.790D+00
 Gap=     0.284 Goal=   None    Shift=    0.000
 RMSDP=3.82D-08 MaxDP=3.26D-07 DE=-3.75D-12 OVMax= 2.73D-07

 Cycle   9  Pass 1  IDiag  1:
 E= -399.382307166155     Delta-E=       -0.000000000001 Rises=F Damp=F
 DIIS: error= 2.45D-08 at cycle   4 NSaved=   4.
 NSaved= 4 IEnMin= 4 EnMin= -399.382307166155     IErMin= 4 ErrMin= 2.45D-08
 ErrMax= 2.45D-08  0.00D+00 EMaxC= 1.00D-01 BMatC= 1.85D-14 BMatP= 2.34D-13
 IDIUse=1 WtCom= 1.00D+00 WtEn= 0.00D+00
 Coeff-Com: -0.649D-02 0.536D-01 0.317D+00 0.636D+00
 Coeff:     -0.649D-02 0.536D-01 0.317D+00 0.636D+00
 Gap=     0.284 Goal=   None    Shift=    0.000
 RMSDP=9.90D-09 MaxDP=6.23D-08 DE=-6.82D-13 OVMax= 7.41D-08

 SCF Done:  E(RB3LYP) =  -399.382307166     A.U. after    9 cycles
            NFock=  9  Conv=0.99D-08     -V/T= 2.0017
 KE= 3.987029682699D+02 PE=-9.755093282847D+02 EE= 1.644755835004D+02
 Leave Link  502 at Tue Oct  6 15:59:43 2020, MaxMem=  2684354560 cpu:               7.3 elap:               1.1
 (Enter /udrive/faculty/rpeverati/g16/g16/l508.exe)
 QCSCF skips out because SCF is already converged.
 Leave Link  508 at Tue Oct  6 15:59:43 2020, MaxMem=  2684354560 cpu:               0.3 elap:               0.3
 (Enter /udrive/faculty/rpeverati/g16/g16/l601.exe)
 Copying SCF densities to generalized density rwf, IOpCl= 0 IROHF=0.

 **********************************************************************

            Population analysis using the SCF density.

 **********************************************************************

 Orbital symmetries:
       Occupied  (A1) (A1) (B2) (A1) (B1) (A1) (B2) (A1) (B1)
       Virtual   (B2) (A1) (B2) (A1) (A1) (B1) (B2) (A1) (A1) (A2)
                 (B1) (A1) (B2)
 The electronic state is 1-A1.
 Alpha  occ. eigenvalues --  -88.86242  -7.94443  -5.90823  -5.90498  -5.89757
 Alpha  occ. eigenvalues --   -0.75132  -0.45486  -0.36852  -0.26163
 Alpha virt. eigenvalues --    0.02256   0.06062   0.31365   0.32818   0.34669
 Alpha virt. eigenvalues --    0.36509   0.67379   0.73323   0.75728   0.75894
 Alpha virt. eigenvalues --    0.76612   1.02664   1.20538
          Condensed to atoms (all electrons):
               1          2          3
     1  S   15.689940   0.273450   0.273450
     2  H    0.273450   0.626119  -0.017988
     3  H    0.273450  -0.017988   0.626119
 Mulliken charges:
               1
     1  S   -0.236840
     2  H    0.118420
     3  H    0.118420
 Sum of Mulliken charges =  -0.00000
 Mulliken charges with hydrogens summed into heavy atoms:
               1
     1  S   -0.000000
 Electronic spatial extent (au):  <R**2>=             43.5051
 Charge=             -0.0000 electrons
 Dipole moment (field-independent basis, Debye):
    X=             -0.0000    Y=              0.0000    Z=             -1.4333  Tot=              1.4333
 Quadrupole moment (field-independent basis, Debye-Ang):
   XX=            -16.5557   YY=            -12.1841   ZZ=            -13.5376
   XY=              0.0000   XZ=              0.0000   YZ=              0.0000
 Traceless Quadrupole moment (field-independent basis, Debye-Ang):
   XX=             -2.4633   YY=              1.9084   ZZ=              0.5549
   XY=              0.0000   XZ=              0.0000   YZ=              0.0000
 Octapole moment (field-independent basis, Debye-Ang**2):
  XXX=              0.0000  YYY=              0.0000  ZZZ=             -1.6606  XYY=              0.0000
  XXY=             -0.0000  XXZ=             -0.6341  XZZ=              0.0000  YZZ=              0.0000
  YYZ=             -0.9811  XYZ=             -0.0000
 Hexadecapole moment (field-independent basis, Debye-Ang**3):
 XXXX=            -23.0369 YYYY=            -21.7655 ZZZZ=            -23.6199 XXXY=             -0.0000
 XXXZ=             -0.0000 YYYX=             -0.0000 YYYZ=             -0.0000 ZZZX=             -0.0000
 ZZZY=              0.0000 XXYY=             -7.7245 XXZZ=             -7.9623 YYZZ=             -6.8095
 XXYZ=              0.0000 YYXZ=              0.0000 ZZXY=             -0.0000
 N-N= 1.294846934825D+01 E-N=-9.755093268617D+02  KE= 3.987029682699D+02
 No NMR shielding tensors so no spin-rotation constants.
 Leave Link  601 at Tue Oct  6 15:59:44 2020, MaxMem=  2684354560 cpu:               3.2 elap:               0.6
 (Enter /udrive/faculty/rpeverati/g16/g16/l701.exe)
 ... and contract with generalized density number  0.
 Compute integral first derivatives.
 Leave Link  701 at Tue Oct  6 15:59:46 2020, MaxMem=  2684354560 cpu:               4.0 elap:               0.7
 (Enter /udrive/faculty/rpeverati/g16/g16/l702.exe)
 L702 exits ... SP integral derivatives will be done elsewhere.
 Leave Link  702 at Tue Oct  6 15:59:46 2020, MaxMem=  2684354560 cpu:               1.8 elap:               0.5
 (Enter /udrive/faculty/rpeverati/g16/g16/l703.exe)
 Integral derivatives from FoFJK, PRISM(SPDF).
 Compute integral first derivatives, UseDBF=F ICtDFT=           0.
 Calling FoFJK, ICntrl=      2127 FMM=F ISym2X=1 I1Cent= 0 IOpClX= 0 NMat=1 NMatS=1 NMatT=0.
 FoFJK:  IHMeth= 1 ICntrl=    2127 DoSepK=F KAlg= 0 I1Cent=           0 FoldK=F
 IRaf=         0 NMat=       1 IRICut=       1 DoRegI=T DoRafI=F ISym2E= 1 IDoP0=0 IntGTp=1.
 FoFCou: FMM=F IPFlag=           0 FMFlag=      100000 FMFlg1=         800
         NFxFlg=           0 DoJE=F BraDBF=F KetDBF=F FulRan=T
         wScrn=  0.000000 ICntrl=      2127 IOpCl=  0 I1Cent=           0 NGrid=           0
         NMat0=    1 NMatS0=      1 NMatT0=    0 NMatD0=    1 NMtDS0=    0 NMtDT0=    0
 Petite list used in FoFCou.
 Leave Link  703 at Tue Oct  6 15:59:47 2020, MaxMem=  2684354560 cpu:               5.2 elap:               0.7
 (Enter /udrive/faculty/rpeverati/g16/g16/l716.exe)
 Dipole        =-2.31168364D-17 0.00000000D+00-5.63898821D-01
 ***** Axes restored to original set *****
 -------------------------------------------------------------------
 Center     Atomic                   Forces (Hartrees/Bohr)
 Number     Number              X              Y              Z
 -------------------------------------------------------------------
      1       16          -0.000000000   -0.000000000    0.009267317
      2        1           0.000000000    0.005394279   -0.004633658
      3        1           0.000000000   -0.005394279   -0.004633658
 -------------------------------------------------------------------
 Cartesian Forces:  Max     0.009267317 RMS     0.004558523
 Leave Link  716 at Tue Oct  6 15:59:48 2020, MaxMem=  2684354560 cpu:               2.2 elap:               0.7
 (Enter /udrive/faculty/rpeverati/g16/g16/l103.exe)

 GradGradGradGradGradGradGradGradGradGradGradGradGradGradGradGradGradGrad
 Berny optimization.
 Optmz: redundant internal coordinate code flag= 1
 FormGI is forming the generalized inverse of G from B-inverse, IUseBI=4.
 Internal  Forces:  Max     0.007101341 RMS     0.005823814
 Search for a local minimum.
 Step number   1 out of a maximum of  100
 All quantities printed in internal units (Hartrees-Bohrs-Radians)
 RMS Force = .58238D-02 SwitMx=.10000D-02 MixMth= 1
 Mixed Optimization -- RFO/linear search
 Second derivative matrix not updated -- first step.
 The second derivative matrix:
                          R1        R2        A1
           R1           0.26743
           R2           0.00000   0.26743
           A1           0.00000   0.00000   0.16000
 ITU=  0
 Eigenvectors of the second derivative matrix:
                           1         2         3
     Eigenvalues --     0.16000   0.26743   0.26743
   1         R1         0.00000   0.70711  -0.70711
   2         R2         0.00000   0.70711   0.70711
   3         A1         1.00000  -0.00000  -0.00000
 Iter=   1 RLamda= 0.00000000D+00 Sum=-3.82721241D-04.
 Iter=   2 RLamda=-3.82721241D-04 Sum=-3.82168962D-04.
 Iter=   3 RLamda=-3.82168962D-04 Sum=-3.82169757D-04.
 RFO step:  Lambda=-3.82168962D-04 EMin= 1.60000000D-01
 Linear search not attempted -- first point.
 Iteration  1 RMS(Cart)=  0.02076325 RMS(Int)=  0.00003629
 Iteration  2 RMS(Cart)=  0.00004998 RMS(Int)=  0.00000000
 Iteration  3 RMS(Cart)=  0.00000000 RMS(Int)=  0.00000000
 ITry= 1 IFail=0 DXMaxC= 2.44D-02 DCOld= 1.00D+10 DXMaxT= 3.00D-01 DXLimC= 3.00D+00 Rises=F
 ClnCor:  largest displacement from symmetrization is 1.11D-15 for atom     3.
 Variable       Old X    -DE/DX   Delta X   Delta X   Delta X     New X
                                 (Linear)    (Quad)   (Total)
    R1        2.52473   0.00710   0.00000   0.02652   0.02652   2.55124
    R2        2.52473   0.00710   0.00000   0.02652   0.02652   2.55124
    A1        1.61693   0.00094   0.00000   0.00589   0.00589   1.62282
         Item               Value     Threshold  Converged?
 Maximum Force            0.007101     0.000450     NO 
 RMS     Force            0.005824     0.000300     NO 
 Maximum Displacement     0.024358     0.001800     NO 
 RMS     Displacement     0.020793     0.001200     NO 
 Predicted change in Energy=-1.913602D-04
 Lowest energy point so far.  Saving SCF results.
 Largest change from initial coordinates is atom    2       0.013 Angstoms.
 GradGradGradGradGradGradGradGradGradGradGradGradGradGradGradGradGradGrad

 Leave Link  103 at Tue Oct  6 15:59:50 2020, MaxMem=  2684354560 cpu:               8.5 elap:               1.1
 (Enter /udrive/faculty/rpeverati/g16/g16/l202.exe)
                          Input orientation:                          
 ---------------------------------------------------------------------
 Center     Atomic      Atomic             Coordinates (Angstroms)
 Number     Number       Type             X           Y           Z
 ---------------------------------------------------------------------
      1         16           0        0.000000    0.000000    0.107060
      2          1           0        0.000000    0.979141   -0.822426
      3          1           0       -0.000000   -0.979141   -0.822426
 ---------------------------------------------------------------------
                    Distance matrix (angstroms):
                    1          2          3
     1  S    0.000000
     2  H    1.350060   0.000000
     3  H    1.350060   1.958282   0.000000
 Stoichiometry    H2S
 Framework group  C2V[C2(S),SGV(H2)]
 Deg. of freedom     2
 Full point group                 C2V     NOp   4
 RotChk:  IX=0 Diff= 2.84D-16
 Largest Abelian subgroup         C2V     NOp   4
 Largest concise Abelian subgroup C2      NOp   2
                         Standard orientation:                         
 ---------------------------------------------------------------------
 Center     Atomic      Atomic             Coordinates (Angstroms)
 Number     Number       Type             X           Y           Z
 ---------------------------------------------------------------------
      1         16           0        0.000000   -0.000000    0.103276
      2          1           0        0.000000    0.979141   -0.826210
      3          1           0       -0.000000   -0.979141   -0.826210
 ---------------------------------------------------------------------
 Rotational constants (GHZ):         308.5088265         261.5240304         141.5400371
 Leave Link  202 at Tue Oct  6 15:59:50 2020, MaxMem=  2684354560 cpu:               0.8 elap:               0.3
 (Enter /udrive/faculty/rpeverati/g16/g16/l301.exe)
 Standard basis: 6-31G(d) (5D, 7F)
 Ernie: Thresh=  0.10000D-02 Tol=  0.10000D-05 Strict=F.
 There are    12 symmetry adapted cartesian basis functions of A1  symmetry.
 There are     1 symmetry adapted cartesian basis functions of A2  symmetry.
 There are     4 symmetry adapted cartesian basis functions of B1  symmetry.
 There are     6 symmetry adapted cartesian basis functions of B2  symmetry.
 There are    11 symmetry adapted basis functions of A1  symmetry.
 There are     1 symmetry adapted basis functions of A2  symmetry.
 There are     4 symmetry adapted basis functions of B1  symmetry.
 There are     6 symmetry adapted basis functions of B2  symmetry.
    22 basis functions,    60 primitive gaussians,    23 cartesian basis functions
     9 alpha electrons        9 beta electrons
       nuclear repulsion energy        12.8131297731 Hartrees.
 IExCor=  402 DFT=T Ex+Corr=B3LYP ExCW=0 ScaHFX=  0.200000
 ScaDFX=  0.800000  0.720000  1.000000  0.810000 ScalE2=  1.000000  1.000000
 IRadAn=      5 IRanWt=     -1 IRanGd=            0 ICorTp=0 IEmpDi=  4
 NAtoms=    3 NActive=    3 NUniq=    2 SFac= 2.25D+00 NAtFMM=   60 NAOKFM=F Big=F
 Integral buffers will be    131072 words long.
 Raffenetti 2 integral format.
 Two-electron integral symmetry is turned on.
 Leave Link  301 at Tue Oct  6 15:59:51 2020, MaxMem=  2684354560 cpu:               2.1 elap:               0.6
 (Enter /udrive/faculty/rpeverati/g16/g16/l302.exe)
 NPDir=0 NMtPBC=     1 NCelOv=     1 NCel=       1 NClECP=     1 NCelD=      1
         NCelK=      1 NCelE2=     1 NClLst=     1 CellRange=     0.0.
 One-electron integrals computed using PRISM.
 One-electron integral symmetry used in STVInt
 NBasis=    22 RedAO= T EigKep=  3.20D-02  NBF=    11     1     4     6
 NBsUse=    22 1.00D-06 EigRej= -1.00D+00 NBFU=    11     1     4     6
 Precomputing XC quadrature grid using
 IXCGrd= 4 IRadAn=           5 IRanWt=          -1 IRanGd=           0 AccXCQ= 0.00D+00.
 Generated NRdTot=       0 NPtTot=           0 NUsed=           0 NTot=          32
 NSgBfM=    23    23    23    23    23 MxSgAt=     3 MxSgA2=     3.
 Leave Link  302 at Tue Oct  6 15:59:52 2020, MaxMem=  2684354560 cpu:               3.8 elap:               0.6
 (Enter /udrive/faculty/rpeverati/g16/g16/l303.exe)
 DipDrv:  MaxL=1.
 Leave Link  303 at Tue Oct  6 15:59:53 2020, MaxMem=  2684354560 cpu:               1.5 elap:               0.5
 (Enter /udrive/faculty/rpeverati/g16/g16/l401.exe)
 Initial guess from the checkpoint file:  "MN_44_H2S_BH76_B3LYP_6-31Gs.chk"
 SCF N**3 symmetry information disabled.
 B after Tr=    -0.000000    0.000000   -0.000000
         Rot=    1.000000   -0.000000   -0.000000    0.000000 Ang=   0.00 deg.
 Guess basis will be translated and rotated to current coordinates.
 JPrj=2 DoOrth=T DoCkMO=T.
 Initial guess orbital symmetries:
       Occupied  (A1) (A1) (B2) (A1) (B1) (A1) (B2) (A1) (B1)
       Virtual   (B2) (A1) (B2) (A1) (A1) (B1) (B2) (A1) (A1) (A2)
                 (B1) (A1) (B2)
 The electronic state of the initial guess is 1-A1.
 Generating alternative initial guess.
 ExpMin= 1.17D-01 ExpMax= 2.19D+04 ExpMxC= 3.30D+03 IAcc=2 IRadAn=         4 AccDes= 0.00D+00
 Harris functional with IExCor=  402 and IRadAn=       4 diagonalized for initial guess.
 HarFok:  IExCor=  402 AccDes= 0.00D+00 IRadAn=         4 IDoV= 1 UseB2=F ITyADJ=14
 ICtDFT=  3500011 ScaDFX=  1.000000  1.000000  1.000000  1.000000
 FoFCou: FMM=F IPFlag=           0 FMFlag=      100000 FMFlg1=           0
         NFxFlg=           0 DoJE=T BraDBF=F KetDBF=T FulRan=T
         wScrn=  0.000000 ICntrl=       500 IOpCl=  0 I1Cent=   200000004 NGrid=           0
         NMat0=    1 NMatS0=      1 NMatT0=    0 NMatD0=    1 NMtDS0=    0 NMtDT0=    0
 Petite list used in FoFCou.
 Harris En= -399.321897309601    
 Leave Link  401 at Tue Oct  6 15:59:54 2020, MaxMem=  2684354560 cpu:               7.3 elap:               1.0
 (Enter /udrive/faculty/rpeverati/g16/g16/l502.exe)
 Keep R1 ints in memory in symmetry-blocked form, NReq=10376515.
 FoFCou: FMM=F IPFlag=           0 FMFlag=           0 FMFlg1=           0
         NFxFlg=           0 DoJE=F BraDBF=F KetDBF=F FulRan=T
         wScrn=  0.000000 ICntrl=       600 IOpCl=  0 I1Cent=           0 NGrid=           0
         NMat0=    1 NMatS0=    253 NMatT0=    0 NMatD0=    1 NMtDS0=    0 NMtDT0=    0
 Petite list used in FoFCou.
 Closed shell SCF:
 Using DIIS extrapolation, IDIIS=  1040.
 NGot=  2684354560 LenX=  2684342189 LenY=  2684341219
 Requested convergence on RMS density matrix=1.00D-08 within 120 cycles.
 Requested convergence on MAX density matrix=1.00D-06.
 Requested convergence on             energy=1.00D-06.
 No special actions if energy rises.
 Integral accuracy reduced to 1.0D-05 until final iterations.

 Cycle   1  Pass 0  IDiag  1:
 E= -399.382441435521    
 DIIS: error= 1.39D-03 at cycle   1 NSaved=   1.
 NSaved= 1 IEnMin= 1 EnMin= -399.382441435521     IErMin= 1 ErrMin= 1.39D-03
 ErrMax= 1.39D-03  0.00D+00 EMaxC= 1.00D-01 BMatC= 2.85D-05 BMatP= 2.85D-05
 IDIUse=3 WtCom= 9.86D-01 WtEn= 1.39D-02
 Coeff-Com:  0.100D+01
 Coeff-En:   0.100D+01
 Coeff:      0.100D+01
 Gap=     0.281 Goal=   None    Shift=    0.000
 GapD=    0.281 DampG=1.000 DampE=1.000 DampFc=1.0000 IDamp=-1.
 RMSDP=4.67D-04 MaxDP=3.18D-03              OVMax= 3.34D-03

 Cycle   2  Pass 0  IDiag  1:
 E= -399.382482985352     Delta-E=       -0.000041549832 Rises=F Damp=F
 DIIS: error= 3.63D-04 at cycle   2 NSaved=   2.
 NSaved= 2 IEnMin= 2 EnMin= -399.382482985352     IErMin= 2 ErrMin= 3.63D-04
 ErrMax= 3.63D-04  0.00D+00 EMaxC= 1.00D-01 BMatC= 3.94D-06 BMatP= 2.85D-05
 IDIUse=3 WtCom= 9.96D-01 WtEn= 3.63D-03
 Coeff-Com:  0.220D+00 0.780D+00
 Coeff-En:   0.000D+00 0.100D+01
 Coeff:      0.219D+00 0.781D+00
 Gap=     0.281 Goal=   None    Shift=    0.000
 RMSDP=1.62D-04 MaxDP=1.60D-03 DE=-4.15D-05 OVMax= 8.14D-04

 Cycle   3  Pass 0  IDiag  1:
 E= -399.382487719875     Delta-E=       -0.000004734523 Rises=F Damp=F
 DIIS: error= 1.07D-04 at cycle   3 NSaved=   3.
 NSaved= 3 IEnMin= 3 EnMin= -399.382487719875     IErMin= 3 ErrMin= 1.07D-04
 ErrMax= 1.07D-04  0.00D+00 EMaxC= 1.00D-01 BMatC= 4.03D-07 BMatP= 3.94D-06
 IDIUse=3 WtCom= 9.99D-01 WtEn= 1.07D-03
 Coeff-Com:  0.106D-01 0.241D+00 0.748D+00
 Coeff-En:   0.000D+00 0.000D+00 0.100D+01
 Coeff:      0.106D-01 0.241D+00 0.748D+00
 Gap=     0.281 Goal=   None    Shift=    0.000
 RMSDP=4.50D-05 MaxDP=4.03D-04 DE=-4.73D-06 OVMax= 2.48D-04

 Cycle   4  Pass 0  IDiag  1:
 E= -399.382488202407     Delta-E=       -0.000000482532 Rises=F Damp=F
 DIIS: error= 2.74D-05 at cycle   4 NSaved=   4.
 NSaved= 4 IEnMin= 4 EnMin= -399.382488202407     IErMin= 4 ErrMin= 2.74D-05
 ErrMax= 2.74D-05  0.00D+00 EMaxC= 1.00D-01 BMatC= 2.06D-08 BMatP= 4.03D-07
 IDIUse=1 WtCom= 1.00D+00 WtEn= 0.00D+00
 Coeff-Com: -0.347D-02 0.742D-01 0.295D+00 0.634D+00
 Coeff:     -0.347D-02 0.742D-01 0.295D+00 0.634D+00
 Gap=     0.281 Goal=   None    Shift=    0.000
 RMSDP=1.16D-05 MaxDP=7.42D-05 DE=-4.83D-07 OVMax= 8.77D-05

 Cycle   5  Pass 0  IDiag  1:
 E= -399.382488231462     Delta-E=       -0.000000029055 Rises=F Damp=F
 DIIS: error= 3.15D-06 at cycle   5 NSaved=   5.
 NSaved= 5 IEnMin= 5 EnMin= -399.382488231462     IErMin= 5 ErrMin= 3.15D-06
 ErrMax= 3.15D-06  0.00D+00 EMaxC= 1.00D-01 BMatC= 3.67D-10 BMatP= 2.06D-08
 IDIUse=1 WtCom= 1.00D+00 WtEn= 0.00D+00
 Coeff-Com: -0.747D-03-0.115D-02 0.159D-03 0.120D+00 0.882D+00
 Coeff:     -0.747D-03-0.115D-02 0.159D-03 0.120D+00 0.882D+00
 Gap=     0.281 Goal=   None    Shift=    0.000
 RMSDP=1.37D-06 MaxDP=1.32D-05 DE=-2.91D-08 OVMax= 8.37D-06

 Initial convergence to 1.0D-05 achieved.  Increase integral accuracy.
 Cycle   6  Pass 1  IDiag  1:
 E= -399.382485623970     Delta-E=        0.000002607492 Rises=F Damp=F
 DIIS: error= 5.81D-07 at cycle   1 NSaved=   1.
 NSaved= 1 IEnMin= 1 EnMin= -399.382485623970     IErMin= 1 ErrMin= 5.81D-07
 ErrMax= 5.81D-07  0.00D+00 EMaxC= 1.00D-01 BMatC= 9.52D-12 BMatP= 9.52D-12
 IDIUse=1 WtCom= 1.00D+00 WtEn= 0.00D+00
 Coeff-Com:  0.100D+01
 Coeff:      0.100D+01
 Gap=     0.281 Goal=   None    Shift=    0.000
 RMSDP=1.37D-06 MaxDP=1.32D-05 DE= 2.61D-06 OVMax= 2.09D-06

 Cycle   7  Pass 1  IDiag  1:
 E= -399.382485623984     Delta-E=       -0.000000000014 Rises=F Damp=F
 DIIS: error= 2.57D-07 at cycle   2 NSaved=   2.
 NSaved= 2 IEnMin= 2 EnMin= -399.382485623984     IErMin= 2 ErrMin= 2.57D-07
 ErrMax= 2.57D-07  0.00D+00 EMaxC= 1.00D-01 BMatC= 1.77D-12 BMatP= 9.52D-12
 IDIUse=1 WtCom= 1.00D+00 WtEn= 0.00D+00
 Coeff-Com:  0.247D+00 0.753D+00
 Coeff:      0.247D+00 0.753D+00
 Gap=     0.281 Goal=   None    Shift=    0.000
 RMSDP=1.24D-07 MaxDP=1.33D-06 DE=-1.40D-11 OVMax= 5.66D-07

 Cycle   8  Pass 1  IDiag  1:
 E= -399.382485623985     Delta-E=       -0.000000000002 Rises=F Damp=F
 DIIS: error= 9.65D-08 at cycle   3 NSaved=   3.
 NSaved= 3 IEnMin= 3 EnMin= -399.382485623985     IErMin= 3 ErrMin= 9.65D-08
 ErrMax= 9.65D-08  0.00D+00 EMaxC= 1.00D-01 BMatC= 2.67D-13 BMatP= 1.77D-12
 IDIUse=1 WtCom= 1.00D+00 WtEn= 0.00D+00
 Coeff-Com: -0.842D-02 0.266D+00 0.743D+00
 Coeff:     -0.842D-02 0.266D+00 0.743D+00
 Gap=     0.281 Goal=   None    Shift=    0.000
 RMSDP=3.99D-08 MaxDP=3.27D-07 DE=-1.76D-12 OVMax= 2.70D-07

 Cycle   9  Pass 1  IDiag  1:
 E= -399.382485623987     Delta-E=       -0.000000000001 Rises=F Damp=F
 DIIS: error= 2.07D-08 at cycle   4 NSaved=   4.
 NSaved= 4 IEnMin= 4 EnMin= -399.382485623987     IErMin= 4 ErrMin= 2.07D-08
 ErrMax= 2.07D-08  0.00D+00 EMaxC= 1.00D-01 BMatC= 9.25D-15 BMatP= 2.67D-13
 IDIUse=1 WtCom= 1.00D+00 WtEn= 0.00D+00
 Coeff-Com: -0.106D-01 0.760D-01 0.278D+00 0.656D+00
 Coeff:     -0.106D-01 0.760D-01 0.278D+00 0.656D+00
 Gap=     0.281 Goal=   None    Shift=    0.000
 RMSDP=6.60D-09 MaxDP=3.87D-08 DE=-1.31D-12 OVMax= 4.91D-08

 SCF Done:  E(RB3LYP) =  -399.382485624     A.U. after    9 cycles
            NFock=  9  Conv=0.66D-08     -V/T= 2.0018
 KE= 3.986665055779D+02 PE=-9.752067174282D+02 EE= 1.643445964533D+02
 Leave Link  502 at Tue Oct  6 15:59:56 2020, MaxMem=  2684354560 cpu:               8.4 elap:               1.1
 (Enter /udrive/faculty/rpeverati/g16/g16/l508.exe)
 QCSCF skips out because SCF is already converged.
 Leave Link  508 at Tue Oct  6 15:59:56 2020, MaxMem=  2684354560 cpu:               0.7 elap:               0.5
 (Enter /udrive/faculty/rpeverati/g16/g16/l701.exe)
 ... and contract with generalized density number  0.
 Compute integral first derivatives.
 Leave Link  701 at Tue Oct  6 15:59:57 2020, MaxMem=  2684354560 cpu:               3.8 elap:               0.8
 (Enter /udrive/faculty/rpeverati/g16/g16/l702.exe)
 L702 exits ... SP integral derivatives will be done elsewhere.
 Leave Link  702 at Tue Oct  6 15:59:58 2020, MaxMem=  2684354560 cpu:               1.8 elap:               0.5
 (Enter /udrive/faculty/rpeverati/g16/g16/l703.exe)
 Integral derivatives from FoFJK, PRISM(SPDF).
 Compute integral first derivatives, UseDBF=F ICtDFT=           0.
 Calling FoFJK, ICntrl=      2127 FMM=F ISym2X=1 I1Cent= 0 IOpClX= 0 NMat=1 NMatS=1 NMatT=0.
 FoFJK:  IHMeth= 1 ICntrl=    2127 DoSepK=F KAlg= 0 I1Cent=           0 FoldK=F
 IRaf=         0 NMat=       1 IRICut=       1 DoRegI=T DoRafI=F ISym2E= 1 IDoP0=0 IntGTp=1.
 FoFCou: FMM=F IPFlag=           0 FMFlag=      100000 FMFlg1=         800
         NFxFlg=           0 DoJE=F BraDBF=F KetDBF=F FulRan=T
         wScrn=  0.000000 ICntrl=      2127 IOpCl=  0 I1Cent=           0 NGrid=           0
         NMat0=    1 NMatS0=      1 NMatT0=    0 NMatD0=    1 NMtDS0=    0 NMtDT0=    0
 Petite list used in FoFCou.
 Leave Link  703 at Tue Oct  6 15:59:59 2020, MaxMem=  2684354560 cpu:               6.1 elap:               0.9
 (Enter /udrive/faculty/rpeverati/g16/g16/l716.exe)
 Dipole        =-2.33344462D-17-2.22044605D-16-5.60767492D-01
 ***** Axes restored to original set *****
 -------------------------------------------------------------------
 Center     Atomic                   Forces (Hartrees/Bohr)
 Number     Number              X              Y              Z
 -------------------------------------------------------------------
      1       16          -0.000000000    0.000000000   -0.000065611
      2        1           0.000000000   -0.000397098    0.000032805
      3        1           0.000000000    0.000397098    0.000032805
 -------------------------------------------------------------------
 Cartesian Forces:  Max     0.000397098 RMS     0.000189100
 Leave Link  716 at Tue Oct  6 16:00:00 2020, MaxMem=  2684354560 cpu:               1.3 elap:               0.4
 (Enter /udrive/faculty/rpeverati/g16/g16/l103.exe)

 GradGradGradGradGradGradGradGradGradGradGradGradGradGradGradGradGradGrad
 Berny optimization.
 Optmz: redundant internal coordinate code flag= 1
 Using GEDIIS/GDIIS optimizer.
 Red2BG:  D1=  4.29D-01 OD1=  6.36D-03 B2RMS=  0.00D+00 IAprox=0
 FormGI is forming the generalized inverse of G from B-inverse, IUseBI=4.
 Internal  Forces:  Max     0.000636791 RMS     0.000446627
 Search for a local minimum.
 Step number   2 out of a maximum of  100
 All quantities printed in internal units (Hartrees-Bohrs-Radians)
 RMS Force = .44663D-03 SwitMx=.10000D-02 MixMth= 2
 Mixed Optimization -- En-DIIS/RFO-DIIS
 Update second derivatives using D2CorX and points    1    2
 DE= -1.78D-04 DEPred=-1.91D-04 R= 9.33D-01
 TightC=F SS=  1.41D+00  RLast= 3.80D-02 DXNew= 5.0454D-01 1.1388D-01
 Trust test= 9.33D-01 RLast= 3.80D-02 DXMaxT set to 3.00D-01
 The second derivative matrix:
                          R1        R2        A1
           R1           0.27218
           R2           0.00476   0.27218
           A1           0.01162   0.01162   0.16389
 ITU=  1  0
 Use linear search instead of GDIIS.
 Eigenvectors of the second derivative matrix:
                           1         2         3
     Eigenvalues --     0.16155   0.26743   0.27928
   1         R1        -0.09968  -0.70711   0.70005
   2         R2        -0.09968   0.70711   0.70005
   3         A1         0.99001   0.00000   0.14097
 Iter=   1 RLamda= 0.00000000D+00 Sum=-1.97074302D-06.
 Iter=   2 RLamda=-1.97074302D-06 Sum=-1.97071898D-06.
 RFO step:  Lambda=-1.97074302D-06 EMin= 1.61548503D-01
 Quartic linear search produced a step of -0.05210.
 Iteration  1 RMS(Cart)=  0.00354754 RMS(Int)=  0.00000378
 Iteration  2 RMS(Cart)=  0.00000265 RMS(Int)=  0.00000000
 Iteration  3 RMS(Cart)=  0.00000000 RMS(Int)=  0.00000000
 ITry= 1 IFail=0 DXMaxC= 4.04D-03 DCOld= 1.00D+10 DXMaxT= 3.00D-01 DXLimC= 3.00D+00 Rises=F
 ClnCor:  largest displacement from symmetrization is 4.97D-16 for atom     3.
 Variable       Old X    -DE/DX   Delta X   Delta X   Delta X     New X
                                 (Linear)    (Quad)   (Total)
    R1        2.55124  -0.00031  -0.00138   0.00037  -0.00101   2.55023
    R2        2.55124  -0.00031  -0.00138   0.00037  -0.00101   2.55023
    A1        1.62282  -0.00064  -0.00031  -0.00345  -0.00376   1.61906
         Item               Value     Threshold  Converged?
 Maximum Force            0.000637     0.000450     NO 
 RMS     Force            0.000447     0.000300     NO 
 Maximum Displacement     0.004039     0.001800     NO 
 RMS     Displacement     0.003548     0.001200     NO 
 Predicted change in Energy=-1.492395D-06
 Lowest energy point so far.  Saving SCF results.
 Largest change from initial coordinates is atom    2       0.013 Angstoms.
 GradGradGradGradGradGradGradGradGradGradGradGradGradGradGradGradGradGrad

 Leave Link  103 at Tue Oct  6 16:00:01 2020, MaxMem=  2684354560 cpu:               1.4 elap:               0.5
 (Enter /udrive/faculty/rpeverati/g16/g16/l202.exe)
                          Input orientation:                          
 ---------------------------------------------------------------------
 Center     Atomic      Atomic             Coordinates (Angstroms)
 Number     Number       Type             X           Y           Z
 ---------------------------------------------------------------------
      1         16           0        0.000000    0.000000    0.108039
      2          1           0        0.000000    0.977004   -0.822916
      3          1           0       -0.000000   -0.977004   -0.822916
 ---------------------------------------------------------------------
                    Distance matrix (angstroms):
                    1          2          3
     1  S    0.000000
     2  H    1.349524   0.000000
     3  H    1.349524   1.954007   0.000000
 Stoichiometry    H2S
 Framework group  C2V[C2(S),SGV(H2)]
 Deg. of freedom     2
 Full point group                 C2V     NOp   4
 RotChk:  IX=0 Diff= 2.84D-16
 Largest Abelian subgroup         C2V     NOp   4
 Largest concise Abelian subgroup C2      NOp   2
                         Standard orientation:                         
 ---------------------------------------------------------------------
 Center     Atomic      Atomic             Coordinates (Angstroms)
 Number     Number       Type             X           Y           Z
 ---------------------------------------------------------------------
      1         16           0        0.000000    0.000000    0.103440
      2          1           0        0.000000    0.977004   -0.827516
      3          1           0       -0.000000   -0.977004   -0.827516
 ---------------------------------------------------------------------
 Rotational constants (GHZ):         307.5356263         262.6695644         141.6687367
 Leave Link  202 at Tue Oct  6 16:00:02 2020, MaxMem=  2684354560 cpu:               1.2 elap:               0.6
 (Enter /udrive/faculty/rpeverati/g16/g16/l301.exe)
 Standard basis: 6-31G(d) (5D, 7F)
 Ernie: Thresh=  0.10000D-02 Tol=  0.10000D-05 Strict=F.
 There are    12 symmetry adapted cartesian basis functions of A1  symmetry.
 There are     1 symmetry adapted cartesian basis functions of A2  symmetry.
 There are     4 symmetry adapted cartesian basis functions of B1  symmetry.
 There are     6 symmetry adapted cartesian basis functions of B2  symmetry.
 There are    11 symmetry adapted basis functions of A1  symmetry.
 There are     1 symmetry adapted basis functions of A2  symmetry.
 There are     4 symmetry adapted basis functions of B1  symmetry.
 There are     6 symmetry adapted basis functions of B2  symmetry.
    22 basis functions,    60 primitive gaussians,    23 cartesian basis functions
     9 alpha electrons        9 beta electrons
       nuclear repulsion energy        12.8187031974 Hartrees.
 IExCor=  402 DFT=T Ex+Corr=B3LYP ExCW=0 ScaHFX=  0.200000
 ScaDFX=  0.800000  0.720000  1.000000  0.810000 ScalE2=  1.000000  1.000000
 IRadAn=      5 IRanWt=     -1 IRanGd=            0 ICorTp=0 IEmpDi=  4
 NAtoms=    3 NActive=    3 NUniq=    2 SFac= 2.25D+00 NAtFMM=   60 NAOKFM=F Big=F
 Integral buffers will be    131072 words long.
 Raffenetti 2 integral format.
 Two-electron integral symmetry is turned on.
 Leave Link  301 at Tue Oct  6 16:00:03 2020, MaxMem=  2684354560 cpu:               2.8 elap:               0.7
 (Enter /udrive/faculty/rpeverati/g16/g16/l302.exe)
 NPDir=0 NMtPBC=     1 NCelOv=     1 NCel=       1 NClECP=     1 NCelD=      1
         NCelK=      1 NCelE2=     1 NClLst=     1 CellRange=     0.0.
 One-electron integrals computed using PRISM.
 One-electron integral symmetry used in STVInt
 NBasis=    22 RedAO= T EigKep=  3.19D-02  NBF=    11     1     4     6
 NBsUse=    22 1.00D-06 EigRej= -1.00D+00 NBFU=    11     1     4     6
 Precomputing XC quadrature grid using
 IXCGrd= 4 IRadAn=           5 IRanWt=          -1 IRanGd=           0 AccXCQ= 0.00D+00.
 Generated NRdTot=       0 NPtTot=           0 NUsed=           0 NTot=          32
 NSgBfM=    23    23    23    23    23 MxSgAt=     3 MxSgA2=     3.
 Leave Link  302 at Tue Oct  6 16:00:04 2020, MaxMem=  2684354560 cpu:               3.6 elap:               0.5
 (Enter /udrive/faculty/rpeverati/g16/g16/l303.exe)
 DipDrv:  MaxL=1.
 Leave Link  303 at Tue Oct  6 16:00:05 2020, MaxMem=  2684354560 cpu:               1.3 elap:               0.7
 (Enter /udrive/faculty/rpeverati/g16/g16/l401.exe)
 Initial guess from the checkpoint file:  "MN_44_H2S_BH76_B3LYP_6-31Gs.chk"
 SCF N**3 symmetry information disabled.
 B after Tr=     0.000000    0.000000    0.000000
         Rot=    1.000000    0.000000   -0.000000   -0.000000 Ang=   0.00 deg.
 Guess basis will be translated and rotated to current coordinates.
 JPrj=2 DoOrth=T DoCkMO=T.
 Initial guess orbital symmetries:
       Occupied  (A1) (A1) (B2) (A1) (B1) (A1) (B2) (A1) (B1)
       Virtual   (B2) (A1) (B2) (A1) (A1) (B1) (B2) (A1) (A1) (A2)
                 (B1) (A1) (B2)
 The electronic state of the initial guess is 1-A1.
 Leave Link  401 at Tue Oct  6 16:00:05 2020, MaxMem=  2684354560 cpu:               2.4 elap:               0.5
 (Enter /udrive/faculty/rpeverati/g16/g16/l502.exe)
 Keep R1 ints in memory in symmetry-blocked form, NReq=10376515.
 FoFCou: FMM=F IPFlag=           0 FMFlag=           0 FMFlg1=           0
         NFxFlg=           0 DoJE=F BraDBF=F KetDBF=F FulRan=T
         wScrn=  0.000000 ICntrl=       600 IOpCl=  0 I1Cent=           0 NGrid=           0
         NMat0=    1 NMatS0=    253 NMatT0=    0 NMatD0=    1 NMtDS0=    0 NMtDT0=    0
 Petite list used in FoFCou.
 Closed shell SCF:
 Using DIIS extrapolation, IDIIS=  1040.
 NGot=  2684354560 LenX=  2684342189 LenY=  2684341219
 Requested convergence on RMS density matrix=1.00D-08 within 120 cycles.
 Requested convergence on MAX density matrix=1.00D-06.
 Requested convergence on             energy=1.00D-06.
 No special actions if energy rises.

 Cycle   1  Pass 1  IDiag  1:
 E= -399.382486545700    
 DIIS: error= 1.49D-04 at cycle   1 NSaved=   1.
 NSaved= 1 IEnMin= 1 EnMin= -399.382486545700     IErMin= 1 ErrMin= 1.49D-04
 ErrMax= 1.49D-04  0.00D+00 EMaxC= 1.00D-01 BMatC= 2.57D-07 BMatP= 2.57D-07
 IDIUse=3 WtCom= 9.99D-01 WtEn= 1.49D-03
 Coeff-Com:  0.100D+01
 Coeff-En:   0.100D+01
 Coeff:      0.100D+01
 Gap=     0.281 Goal=   None    Shift=    0.000
 RMSDP=4.91D-05 MaxDP=2.81D-04              OVMax= 3.04D-04

 Cycle   2  Pass 1  IDiag  1:
 E= -399.382486956417     Delta-E=       -0.000000410717 Rises=F Damp=F
 DIIS: error= 3.23D-05 at cycle   2 NSaved=   2.
 NSaved= 2 IEnMin= 2 EnMin= -399.382486956417     IErMin= 2 ErrMin= 3.23D-05
 ErrMax= 3.23D-05  0.00D+00 EMaxC= 1.00D-01 BMatC= 1.58D-08 BMatP= 2.57D-07
 IDIUse=1 WtCom= 1.00D+00 WtEn= 0.00D+00
 Coeff-Com:  0.107D+00 0.893D+00
 Coeff:      0.107D+00 0.893D+00
 Gap=     0.281 Goal=   None    Shift=    0.000
 RMSDP=9.19D-06 MaxDP=6.99D-05 DE=-4.11D-07 OVMax= 7.93D-05

 Cycle   3  Pass 1  IDiag  1:
 E= -399.382486974817     Delta-E=       -0.000000018399 Rises=F Damp=F
 DIIS: error= 1.18D-05 at cycle   3 NSaved=   3.
 NSaved= 3 IEnMin= 3 EnMin= -399.382486974817     IErMin= 3 ErrMin= 1.18D-05
 ErrMax= 1.18D-05  0.00D+00 EMaxC= 1.00D-01 BMatC= 2.64D-09 BMatP= 1.58D-08
 IDIUse=1 WtCom= 1.00D+00 WtEn= 0.00D+00
 Coeff-Com: -0.225D-01 0.269D+00 0.753D+00
 Coeff:     -0.225D-01 0.269D+00 0.753D+00
 Gap=     0.281 Goal=   None    Shift=    0.000
 RMSDP=2.73D-06 MaxDP=1.86D-05 DE=-1.84D-08 OVMax= 1.44D-05

 Cycle   4  Pass 1  IDiag  1:
 E= -399.382486978147     Delta-E=       -0.000000003331 Rises=F Damp=F
 DIIS: error= 3.76D-07 at cycle   4 NSaved=   4.
 NSaved= 4 IEnMin= 4 EnMin= -399.382486978147     IErMin= 4 ErrMin= 3.76D-07
 ErrMax= 3.76D-07  0.00D+00 EMaxC= 1.00D-01 BMatC= 2.76D-12 BMatP= 2.64D-09
 IDIUse=1 WtCom= 1.00D+00 WtEn= 0.00D+00
 Coeff-Com: -0.277D-02 0.246D-01 0.719D-01 0.906D+00
 Coeff:     -0.277D-02 0.246D-01 0.719D-01 0.906D+00
 Gap=     0.281 Goal=   None    Shift=    0.000
 RMSDP=2.17D-07 MaxDP=1.64D-06 DE=-3.33D-09 OVMax= 1.25D-06

 Cycle   5  Pass 1  IDiag  1:
 E= -399.382486978149     Delta-E=       -0.000000000002 Rises=F Damp=F
 DIIS: error= 2.28D-07 at cycle   5 NSaved=   5.
 NSaved= 5 IEnMin= 5 EnMin= -399.382486978149     IErMin= 5 ErrMin= 2.28D-07
 ErrMax= 2.28D-07  0.00D+00 EMaxC= 1.00D-01 BMatC= 1.40D-12 BMatP= 2.76D-12
 IDIUse=1 WtCom= 1.00D+00 WtEn= 0.00D+00
 Coeff-Com:  0.259D-03-0.571D-02-0.155D-01 0.417D+00 0.604D+00
 Coeff:      0.259D-03-0.571D-02-0.155D-01 0.417D+00 0.604D+00
 Gap=     0.281 Goal=   None    Shift=    0.000
 RMSDP=8.59D-08 MaxDP=6.90D-07 DE=-1.65D-12 OVMax= 5.94D-07

 Cycle   6  Pass 1  IDiag  1:
 E= -399.382486978151     Delta-E=       -0.000000000002 Rises=F Damp=F
 DIIS: error= 8.59D-09 at cycle   6 NSaved=   6.
 NSaved= 6 IEnMin= 6 EnMin= -399.382486978151     IErMin= 6 ErrMin= 8.59D-09
 ErrMax= 8.59D-09  0.00D+00 EMaxC= 1.00D-01 BMatC= 1.55D-15 BMatP= 1.40D-12
 IDIUse=1 WtCom= 1.00D+00 WtEn= 0.00D+00
 Coeff-Com:  0.425D-04-0.585D-03-0.151D-02 0.141D-01 0.501D-01 0.938D+00
 Coeff:      0.425D-04-0.585D-03-0.151D-02 0.141D-01 0.501D-01 0.938D+00
 Gap=     0.281 Goal=   None    Shift=    0.000
 RMSDP=3.60D-09 MaxDP=3.72D-08 DE=-2.22D-12 OVMax= 1.22D-08

 SCF Done:  E(RB3LYP) =  -399.382486978     A.U. after    6 cycles
            NFock=  6  Conv=0.36D-08     -V/T= 2.0018
 KE= 3.986680017132D+02 PE=-9.752189599610D+02 EE= 1.643497680722D+02
 Leave Link  502 at Tue Oct  6 16:00:07 2020, MaxMem=  2684354560 cpu:               8.2 elap:               1.0
 (Enter /udrive/faculty/rpeverati/g16/g16/l508.exe)
 QCSCF skips out because SCF is already converged.
 Leave Link  508 at Tue Oct  6 16:00:07 2020, MaxMem=  2684354560 cpu:               0.3 elap:               0.3
 (Enter /udrive/faculty/rpeverati/g16/g16/l701.exe)
 ... and contract with generalized density number  0.
 Compute integral first derivatives.
 Leave Link  701 at Tue Oct  6 16:00:08 2020, MaxMem=  2684354560 cpu:               2.9 elap:               0.6
 (Enter /udrive/faculty/rpeverati/g16/g16/l702.exe)
 L702 exits ... SP integral derivatives will be done elsewhere.
 Leave Link  702 at Tue Oct  6 16:00:09 2020, MaxMem=  2684354560 cpu:               1.7 elap:               0.5
 (Enter /udrive/faculty/rpeverati/g16/g16/l703.exe)
 Integral derivatives from FoFJK, PRISM(SPDF).
 Compute integral first derivatives, UseDBF=F ICtDFT=           0.
 Calling FoFJK, ICntrl=      2127 FMM=F ISym2X=1 I1Cent= 0 IOpClX= 0 NMat=1 NMatS=1 NMatT=0.
 FoFJK:  IHMeth= 1 ICntrl=    2127 DoSepK=F KAlg= 0 I1Cent=           0 FoldK=F
 IRaf=         0 NMat=       1 IRICut=       1 DoRegI=T DoRafI=F ISym2E= 1 IDoP0=0 IntGTp=1.
 FoFCou: FMM=F IPFlag=           0 FMFlag=      100000 FMFlg1=         800
         NFxFlg=           0 DoJE=F BraDBF=F KetDBF=F FulRan=T
         wScrn=  0.000000 ICntrl=      2127 IOpCl=  0 I1Cent=           0 NGrid=           0
         NMat0=    1 NMatS0=      1 NMatT0=    0 NMatD0=    1 NMtDS0=    0 NMtDT0=    0
 Petite list used in FoFCou.
 Leave Link  703 at Tue Oct  6 16:00:10 2020, MaxMem=  2684354560 cpu:               5.4 elap:               0.9
 (Enter /udrive/faculty/rpeverati/g16/g16/l716.exe)
 Dipole        =-2.32607288D-17 0.00000000D+00-5.60463049D-01
 ***** Axes restored to original set *****
 -------------------------------------------------------------------
 Center     Atomic                   Forces (Hartrees/Bohr)
 Number     Number              X              Y              Z
 -------------------------------------------------------------------
      1       16          -0.000000000   -0.000000000   -0.000060103
      2        1           0.000000000    0.000018616    0.000030052
      3        1           0.000000000   -0.000018616    0.000030052
 -------------------------------------------------------------------
 Cartesian Forces:  Max     0.000060103 RMS     0.000026059
 Leave Link  716 at Tue Oct  6 16:00:11 2020, MaxMem=  2684354560 cpu:               2.3 elap:               0.5
 (Enter /udrive/faculty/rpeverati/g16/g16/l103.exe)

 GradGradGradGradGradGradGradGradGradGradGradGradGradGradGradGradGradGrad
 Berny optimization.
 Optmz: redundant internal coordinate code flag= 1
 Using GEDIIS/GDIIS optimizer.
 Red2BG:  D1=  4.28D-01 OD1=  1.17D-03 B2RMS=  0.00D+00 IAprox=0
 FormGI is forming the generalized inverse of G from B-inverse, IUseBI=4.
 Internal  Forces:  Max     0.000088234 RMS     0.000051285
 Search for a local minimum.
 Step number   3 out of a maximum of  100
 All quantities printed in internal units (Hartrees-Bohrs-Radians)
 RMS Force = .51285D-04 SwitMx=.10000D-02 MixMth= 2
 Mixed Optimization -- En-DIIS/RFO-DIIS
 Swapping is turned off.
 Update second derivatives using D2CorX and points    1    2    3
 DE= -1.35D-06 DEPred=-1.49D-06 R= 9.07D-01
 TightC=F SS=  1.41D+00  RLast= 4.02D-03 DXNew= 5.0454D-01 1.2072D-02
 Trust test= 9.07D-01 RLast= 4.02D-03 DXMaxT set to 3.00D-01
 The second derivative matrix:
                          R1        R2        A1
           R1           0.26666
           R2          -0.00077   0.26666
           A1           0.00904   0.00904   0.18794
 ITU=  1  1  0
 Eigenvectors of the second derivative matrix:
                           1         2         3
     Eigenvalues --     0.18590   0.26743   0.26794
   1         R1         0.11154   0.70711  -0.69825
   2         R2         0.11154  -0.70711  -0.69825
   3         A1        -0.98748  -0.00000  -0.15774
 DoSqrt=T IScMMF=    -3 MM Scaling Factor =       0.00000
 En-DIIS/RFO-DIIS/Sim-DIIS IScMMF=       -3 using points:     3    2
 Iter=   1 RLamda= 0.00000000D+00 Sum=-4.24212856D-08.
 Iter=   2 RLamda=-4.24212856D-08 Sum=-4.24212760D-08.
 RFO step:  Lambda=-4.24212856D-08.
 NNeg= 0 NGDIIS= 2 SimSw=  2.50D-03 Rises=F DC= -1.35D-06 SmlDif=  1.00D-05
 NRisDI= 0 DoIntr=F SqrtH=F CThrHd= 10.0 CDAdj=  3.0
 RMS Error=  0.2757465420D-03 NUsed= 2 OKEnD=F EnDIS=F
 Total RFO-DIIS matrix:
                 1             2             3 
      1   0.000000D+00 -0.100000D+01 -0.100000D+01
      2  -0.100000D+01  0.228108D-06 -0.146511D-05
      3  -0.100000D+01 -0.146511D-05  0.130342D-04
 InvSVX:  RCond= 1.82D-05 Info=           0 Equed=N FErr=  9.99D-16 BErr=  7.77D-17
 DidBck=F Rises=F RFO-DIIS coefs:    0.89543    0.10457
 Iteration  1 RMS(Cart)=  0.00038397 RMS(Int)=  0.00000006
 Iteration  2 RMS(Cart)=  0.00000005 RMS(Int)=  0.00000000
 ITry= 1 IFail=0 DXMaxC= 3.85D-04 DCOld= 1.00D+10 DXMaxT= 3.00D-01 DXLimC= 3.00D+00 Rises=F
 ClnCor:  largest displacement from symmetrization is 8.01D-16 for atom     3.
 Variable       Old X    -DE/DX   Delta X   Delta X   Delta X     New X
                                 (Linear)    (Quad)   (Total)
    R1        2.55023  -0.00001   0.00011  -0.00015  -0.00004   2.55019
    R2        2.55023  -0.00001   0.00011  -0.00015  -0.00004   2.55019
    A1        1.61906   0.00009   0.00039   0.00008   0.00047   1.61953
         Item               Value     Threshold  Converged?
 Maximum Force            0.000088     0.000450     YES
 RMS     Force            0.000051     0.000300     YES
 Maximum Displacement     0.000385     0.001800     YES
 RMS     Displacement     0.000384     0.001200     YES
 Predicted change in Energy=-2.121064D-08
 Optimization completed.
    -- Stationary point found.
                           ----------------------------
                           !   Optimized Parameters   !
                           ! (Angstroms and Degrees)  !
 --------------------------                            --------------------------
 ! Name  Definition              Value          Derivative Info.                !
 --------------------------------------------------------------------------------
 ! R1    R(1,2)                  1.3495         -DE/DX =    0.0                 !
 ! R2    R(1,3)                  1.3495         -DE/DX =    0.0                 !
 ! A1    A(2,1,3)               92.7651         -DE/DX =    0.0001              !
 --------------------------------------------------------------------------------
 Lowest energy point so far.  Saving SCF results.
 Largest change from initial coordinates is atom    2       0.013 Angstoms.
 GradGradGradGradGradGradGradGradGradGradGradGradGradGradGradGradGradGrad

 Leave Link  103 at Tue Oct  6 16:00:12 2020, MaxMem=  2684354560 cpu:               2.1 elap:               0.5
 (Enter /udrive/faculty/rpeverati/g16/g16/l202.exe)
                          Input orientation:                          
 ---------------------------------------------------------------------
 Center     Atomic      Atomic             Coordinates (Angstroms)
 Number     Number       Type             X           Y           Z
 ---------------------------------------------------------------------
      1         16           0        0.000000    0.000000    0.108039
      2          1           0       -0.000000    0.977004   -0.822916
      3          1           0       -0.000000   -0.977004   -0.822916
 ---------------------------------------------------------------------
                    Distance matrix (angstroms):
                    1          2          3
     1  S    0.000000
     2  H    1.349524   0.000000
     3  H    1.349524   1.954007   0.000000
 Stoichiometry    H2S
 Framework group  C2V[C2(S),SGV(H2)]
 Deg. of freedom     2
 Full point group                 C2V     NOp   4
 RotChk:  IX=0 Diff= 7.97D-16
 Largest Abelian subgroup         C2V     NOp   4
 Largest concise Abelian subgroup C2      NOp   2
                         Standard orientation:                         
 ---------------------------------------------------------------------
 Center     Atomic      Atomic             Coordinates (Angstroms)
 Number     Number       Type             X           Y           Z
 ---------------------------------------------------------------------
      1         16           0       -0.000000   -0.000000    0.103440
      2          1           0        0.000000    0.977004   -0.827516
      3          1           0       -0.000000   -0.977004   -0.827516
 ---------------------------------------------------------------------
 Rotational constants (GHZ):         307.5356263         262.6695644         141.6687367
 Leave Link  202 at Tue Oct  6 16:00:13 2020, MaxMem=  2684354560 cpu:               0.7 elap:               0.5
 (Enter /udrive/faculty/rpeverati/g16/g16/l601.exe)
 Copying SCF densities to generalized density rwf, IOpCl= 0 IROHF=0.

 **********************************************************************

            Population analysis using the SCF density.

 **********************************************************************

 Orbital symmetries:
       Occupied  (A1) (A1) (B2) (A1) (B1) (A1) (B2) (A1) (B1)
       Virtual   (B2) (A1) (B2) (A1) (A1) (B1) (B2) (A1) (A1) (A2)
                 (B1) (A1) (B2)
 The electronic state is 1-A1.
 Alpha  occ. eigenvalues --  -88.86423  -7.94555  -5.90940  -5.90617  -5.89871
 Alpha  occ. eigenvalues --   -0.74842  -0.45232  -0.36807  -0.26155
 Alpha virt. eigenvalues --    0.01958   0.05563   0.31512   0.33256   0.34608
 Alpha virt. eigenvalues --    0.36495   0.67490   0.73353   0.75398   0.75933
 Alpha virt. eigenvalues --    0.76645   1.01631   1.18999
          Condensed to atoms (all electrons):
               1          2          3
     1  S   15.690702   0.272431   0.272431
     2  H    0.272431   0.627129  -0.017342
     3  H    0.272431  -0.017342   0.627129
 Mulliken charges:
               1
     1  S   -0.235564
     2  H    0.117782
     3  H    0.117782
 Sum of Mulliken charges =  -0.00000
 Mulliken charges with hydrogens summed into heavy atoms:
               1
     1  S   -0.000000
 Electronic spatial extent (au):  <R**2>=             43.7882
 Charge=             -0.0000 electrons
 Dipole moment (field-independent basis, Debye):
    X=             -0.0000    Y=              0.0000    Z=             -1.4246  Tot=              1.4246
 Quadrupole moment (field-independent basis, Debye-Ang):
   XX=            -16.5852   YY=            -12.1926   ZZ=            -13.5486
   XY=              0.0000   XZ=              0.0000   YZ=             -0.0000
 Traceless Quadrupole moment (field-independent basis, Debye-Ang):
   XX=             -2.4765   YY=              1.9162   ZZ=              0.5602
   XY=              0.0000   XZ=              0.0000   YZ=             -0.0000
 Octapole moment (field-independent basis, Debye-Ang**2):
  XXX=              0.0000  YYY=             -0.0000  ZZZ=             -1.6025  XYY=              0.0000
  XXY=             -0.0000  XXZ=             -0.6081  XZZ=              0.0000  YZZ=              0.0000
  YYZ=             -0.9944  XYZ=             -0.0000
 Hexadecapole moment (field-independent basis, Debye-Ang**3):
 XXXX=            -23.0823 YYYY=            -22.0697 ZZZZ=            -23.8427 XXXY=             -0.0000
 XXXZ=             -0.0000 YYYX=             -0.0000 YYYZ=              0.0000 ZZZX=             -0.0000
 ZZZY=             -0.0000 XXYY=             -7.7960 XXZZ=             -8.0134 YYZZ=             -6.8633
 XXYZ=              0.0000 YYXZ=              0.0000 ZZXY=             -0.0000
 N-N= 1.281870319739D+01 E-N=-9.752189593270D+02  KE= 3.986680017132D+02
 No NMR shielding tensors so no spin-rotation constants.
 Leave Link  601 at Tue Oct  6 16:00:14 2020, MaxMem=  2684354560 cpu:               3.5 elap:               0.8
 (Enter /udrive/faculty/rpeverati/g16/g16/l9999.exe)

 Test job not archived.
 1\1\GINC-NODE51\FOpt\RB3LYP\6-31G(d)\H2S1\RPEVERATI\06-Oct-2020\0\\#P 
 Opt(MaxCyc=100) B3LYP/6-31G* 5D 7F Integral=UltraFineGrid SCF=(NoSymm,
 XQC,MaxCyc=120) IOp(1/33=1)\\TS search on BH76.\\0,1\S,0.,0.,0.1080394
 828\H,0.,0.9770035763,-0.8229160808\H,0.,-0.9770035763,-0.8229160808\\
 Version=ES64L-G16RevA.03\State=1-A1\HF=-399.382487\RMSD=3.600e-09\RMSF
 =2.606e-05\Dipole=0.,0.,-0.560463\Quadrupole=-1.841182,1.4246607,0.416
 5213,0.,0.,0.\PG=C02V [C2(S1),SGV(H2)]\\@


 THERE'S NOTHING SO GREAT AS THE GREAT OUTDOORS.

                                       -- ZIGGY
 Job cpu time:       0 days  0 hours  2 minutes 35.8 seconds.
 Elapsed time:       0 days  0 hours  0 minutes 29.3 seconds.
 File lengths (MBytes):  RWF=      5 Int=      0 D2E=      0 Chk=      1 Scr=      1
 Normal termination of Gaussian 16 at Tue Oct  6 16:00:15 2020.
