 Entering Gaussian System, Link 0=g16
 Input=MN_52_hf2ts_BH76_B3LYP_631Gs.in
 Output=MN_52_hf2ts_BH76_B3LYP_631Gs.log
 Initial command:
 /udrive/faculty/rpeverati/g16/g16/l1.exe "/udrive/scratch-directories/gaussian09/rpeverati/Gau-37271.inp" -scrdir="/udrive/scratch-directories/gaussian09/rpeverati/"
 Entering Link 1 = /udrive/faculty/rpeverati/g16/g16/l1.exe PID=     37272.
  
 Copyright (c) 1988,1990,1992,1993,1995,1998,2003,2009,2016,
            Gaussian, Inc.  All Rights Reserved.
  
 This is part of the Gaussian(R) 16 program.  It is based on
 the Gaussian(R) 09 system (copyright 2009, Gaussian, Inc.),
 the Gaussian(R) 03 system (copyright 2003, Gaussian, Inc.),
 the Gaussian(R) 98 system (copyright 1998, Gaussian, Inc.),
 the Gaussian(R) 94 system (copyright 1995, Gaussian, Inc.),
 the Gaussian 92(TM) system (copyright 1992, Gaussian, Inc.),
 the Gaussian 90(TM) system (copyright 1990, Gaussian, Inc.),
 the Gaussian 88(TM) system (copyright 1988, Gaussian, Inc.),
 the Gaussian 86(TM) system (copyright 1986, Carnegie Mellon
 University), and the Gaussian 82(TM) system (copyright 1983,
 Carnegie Mellon University). Gaussian is a federally registered
 trademark of Gaussian, Inc.
  
 This software contains proprietary and confidential information,
 including trade secrets, belonging to Gaussian, Inc.
  
 This software is provided under written license and may be
 used, copied, transmitted, or stored only in accord with that
 written license.
  
 The following legend is applicable only to US Government
 contracts under FAR:
  
                    RESTRICTED RIGHTS LEGEND
  
 Use, reproduction and disclosure by the US Government is
 subject to restrictions as set forth in subparagraphs (a)
 and (c) of the Commercial Computer Software - Restricted
 Rights clause in FAR 52.227-19.
  
 Gaussian, Inc.
 340 Quinnipiac St., Bldg. 40, Wallingford CT 06492
  
  
 ---------------------------------------------------------------
 Warning -- This program may not be used in any manner that
 competes with the business of Gaussian, Inc. or will provide
 assistance to any competitor of Gaussian, Inc.  The licensee
 of this program is prohibited from giving any competitor of
 Gaussian, Inc. access to this program.  By using this program,
 the user acknowledges that Gaussian, Inc. is engaged in the
 business of creating and licensing software in the field of
 computational chemistry and represents and warrants to the
 licensee that it is not a competitor of Gaussian, Inc. and that
 it will not use this program in any manner prohibited above.
 ---------------------------------------------------------------
  

 Cite this work as:
 Gaussian 16, Revision A.03,
 M. J. Frisch, G. W. Trucks, H. B. Schlegel, G. E. Scuseria, 
 M. A. Robb, J. R. Cheeseman, G. Scalmani, V. Barone, 
 G. A. Petersson, H. Nakatsuji, X. Li, M. Caricato, A. V. Marenich, 
 J. Bloino, B. G. Janesko, R. Gomperts, B. Mennucci, H. P. Hratchian, 
 J. V. Ortiz, A. F. Izmaylov, J. L. Sonnenberg, D. Williams-Young, 
 F. Ding, F. Lipparini, F. Egidi, J. Goings, B. Peng, A. Petrone, 
 T. Henderson, D. Ranasinghe, V. G. Zakrzewski, J. Gao, N. Rega, 
 G. Zheng, W. Liang, M. Hada, M. Ehara, K. Toyota, R. Fukuda, 
 J. Hasegawa, M. Ishida, T. Nakajima, Y. Honda, O. Kitao, H. Nakai, 
 T. Vreven, K. Throssell, J. A. Montgomery, Jr., J. E. Peralta, 
 F. Ogliaro, M. J. Bearpark, J. J. Heyd, E. N. Brothers, K. N. Kudin, 
 V. N. Staroverov, T. A. Keith, R. Kobayashi, J. Normand, 
 K. Raghavachari, A. P. Rendell, J. C. Burant, S. S. Iyengar, 
 J. Tomasi, M. Cossi, J. M. Millam, M. Klene, C. Adamo, R. Cammi, 
 J. W. Ochterski, R. L. Martin, K. Morokuma, O. Farkas, 
 J. B. Foresman, and D. J. Fox, Gaussian, Inc., Wallingford CT, 2016.
 
 ******************************************
 Gaussian 16:  ES64L-G16RevA.03 25-Dec-2016
                 6-Oct-2020 
 ******************************************
 %NoSave
 %nproc=12
 Will use up to   12 processors via shared memory.
 %mem=20GB
 %chk=MN_52_hf2ts_BH76_B3LYP_631Gs
 ----------------------------------------------------------------------
 #P Opt(TS,MaxCyc=50,NoEigenTest,MaxStep=10,CalcFC) B3LYP/6-31G* 5D 7F 
 Integral=UltraFineGrid SCF=(NoSymm,XQC,MaxCyc=120) IOp(1/33=1)
 ----------------------------------------------------------------------
 1/5=1,6=50,8=10,10=4,11=1,18=20,26=4,33=1,38=1/1,3;
 2/9=110,12=2,17=6,18=5,40=1/2;
 3/5=1,6=6,7=1,8=11,11=2,25=1,30=1,71=2,74=-5,75=-5,140=1/1,2,3;
 4/9=2/1;
 5/5=2,7=120,8=3,13=1,38=5/2,8;
 8/6=4,10=90,11=11/1;
 11/6=1,8=1,9=11,15=111,16=1/1,2,10;
 10/6=1,13=1/2;
 6/7=2,8=2,9=2,10=2,28=1/1;
 7/10=1,18=20,25=1/1,2,3,16;
 1/5=1,6=50,8=10,10=4,11=1,18=20,26=4,33=1/3(2);
 2/9=110/2;
 99//99;
 2/9=110/2;
 3/5=1,6=6,7=1,8=11,11=2,25=1,30=1,71=1,74=-5,75=-5/1,2,3;
 4/5=5,9=2,16=3,69=1/1;
 5/5=2,7=120,8=3,13=1,38=5/2,8;
 7//1,2,3,16;
 1/5=1,6=50,8=10,11=1,18=20,26=4,33=1/3(-5);
 2/9=110/2;
 6/7=2,8=2,9=2,10=2,19=2,28=1/1;
 99/9=1/99;
 Leave Link    1 at Tue Oct  6 16:30:08 2020, MaxMem=  2684354560 cpu:               7.5 elap:               0.7
 (Enter /udrive/faculty/rpeverati/g16/g16/l101.exe)
 ONIOM data not found on unit 2.
 ------------------
 TS search on BH76.
 ------------------
 TstMul:  ICh=     0
 TstMul:  Mul=     2
 TstMul:  ICh=     0
 TstMul:  Mul=     2
 Symbolic Z-matrix:
 Charge =  0 Multiplicity = 2
 H                     0.        0.       -2.23128 
 F                     0.        0.       -0.61622 
 F                     0.        0.        0.86414 
 
 RdStrC is calling ZToCFu for IStruc=1 NZ=     3.
 PrtBox:  NBox=     1 Levels=  1 BoxLen=    8.00 SMaxX=        5.85
          Shift=            0.000000            0.000000            4.216500
 Box      1 Number                   0 centers from      1 to      3:
 After GenITR:
 ITRead=  0  0  0
 MicOpt= -1 -1 -1
 Add virtual bond connecting atoms F2         and H1         Dist= 3.05D+00.
 ITRead=  0  0  0
 MicOpt= -1 -1 -1
 NAtoms=      3 NQM=        3 NQMF=       0 NMMI=      0 NMMIF=      0
                NMic=       0 NMicF=      0.
                    Isotopes and Nuclear Properties:
 (Nuclear quadrupole moments (NQMom) in fm**2, nuclear magnetic moments (NMagM)
  in nuclear magnetons)

  Atom         1           2           3
 IAtWgt=           1          19          19
 AtmWgt=   1.0078250  18.9984033  18.9984033
 NucSpn=           1           1           1
 AtZEff=   0.0000000   0.0000000   0.0000000
 NQMom=    0.0000000   0.0000000   0.0000000
 NMagM=    2.7928460   2.6288670   2.6288670
 AtZNuc=   1.0000000   9.0000000   9.0000000
 No MM parameters found.
 Leave Link  101 at Tue Oct  6 16:30:09 2020, MaxMem=  2684354560 cpu:              11.6 elap:               1.2
 (Enter /udrive/faculty/rpeverati/g16/g16/l103.exe)

 GradGradGradGradGradGradGradGradGradGradGradGradGradGradGradGradGradGrad
 Berny optimization.
 Optmz: redundant internal coordinate code flag= 1
 Initialization pass.
                           ----------------------------
                           !    Initial Parameters    !
                           ! (Angstroms and Degrees)  !
 --------------------------                            --------------------------
 ! Name  Definition              Value          Derivative Info.                !
 --------------------------------------------------------------------------------
 ! R1    R(1,2)                  1.6151         calculate D2E/DX2 analytically  !
 ! R2    R(2,3)                  1.4804         calculate D2E/DX2 analytically  !
 ! A1    L(1,2,3,-1,-1)        180.0            calculate D2E/DX2 analytically  !
 ! A2    L(1,2,3,-2,-2)        180.0            calculate D2E/DX2 analytically  !
 --------------------------------------------------------------------------------
 Maximum allowed force set to 1.00D+20.
 Trust Radius=1.00D-01 FncErr=1.00D-07 GrdErr=1.00D-06 EigMax=2.50D+02 EigMin=1.00D-04
 Number of steps in this run=     50 maximum allowed number of steps=    100.
 Search for a saddle point of order  1.
 GradGradGradGradGradGradGradGradGradGradGradGradGradGradGradGradGradGrad

 Leave Link  103 at Tue Oct  6 16:30:11 2020, MaxMem=  2684354560 cpu:               2.5 elap:               0.7
 (Enter /udrive/faculty/rpeverati/g16/g16/l202.exe)
                          Input orientation:                          
 ---------------------------------------------------------------------
 Center     Atomic      Atomic             Coordinates (Angstroms)
 Number     Number       Type             X           Y           Z
 ---------------------------------------------------------------------
      1          1           0        0.000000    0.000000   -2.231276
      2          9           0        0.000000    0.000000   -0.616216
      3          9           0        0.000000    0.000000    0.864136
 ---------------------------------------------------------------------
                    Distance matrix (angstroms):
                    1          2          3
     1  H    0.000000
     2  F    1.615059   0.000000
     3  F    3.095412   1.480352   0.000000
 Stoichiometry    F2H(2)
 Framework group  C*V[C*(HFF)]
 Deg. of freedom     2
 Full point group                 C*V     NOp   4
 Largest Abelian subgroup         C2V     NOp   4
 Largest concise Abelian subgroup C1      NOp   1
                         Standard orientation:                         
 ---------------------------------------------------------------------
 Center     Atomic      Atomic             Coordinates (Angstroms)
 Number     Number       Type             X           Y           Z
 ---------------------------------------------------------------------
      1          1           0        0.000000    0.000000   -2.231276
      2          9           0        0.000000    0.000000   -0.616216
      3          9           0        0.000000    0.000000    0.864136
 ---------------------------------------------------------------------
 Rotational constants (GHZ):           0.0000000          19.2429738          19.2429738
 Leave Link  202 at Tue Oct  6 16:30:12 2020, MaxMem=  2684354560 cpu:               1.2 elap:               0.7
 (Enter /udrive/faculty/rpeverati/g16/g16/l301.exe)
 Standard basis: 6-31G(d) (5D, 7F)
 Ernie: Thresh=  0.10000D-02 Tol=  0.10000D-05 Strict=F.
 There are    18 symmetry adapted cartesian basis functions of A1  symmetry.
 There are     2 symmetry adapted cartesian basis functions of A2  symmetry.
 There are     6 symmetry adapted cartesian basis functions of B1  symmetry.
 There are     6 symmetry adapted cartesian basis functions of B2  symmetry.
 There are    16 symmetry adapted basis functions of A1  symmetry.
 There are     2 symmetry adapted basis functions of A2  symmetry.
 There are     6 symmetry adapted basis functions of B1  symmetry.
 There are     6 symmetry adapted basis functions of B2  symmetry.
    30 basis functions,    60 primitive gaussians,    32 cartesian basis functions
    10 alpha electrons        9 beta electrons
       nuclear repulsion energy        33.4423025658 Hartrees.
 IExCor=  402 DFT=T Ex+Corr=B3LYP ExCW=0 ScaHFX=  0.200000
 ScaDFX=  0.800000  0.720000  1.000000  0.810000 ScalE2=  1.000000  1.000000
 IRadAn=      5 IRanWt=     -1 IRanGd=            0 ICorTp=0 IEmpDi=  4
 NAtoms=    3 NActive=    3 NUniq=    3 SFac= 1.00D+00 NAtFMM=   60 NAOKFM=F Big=F
 Integral buffers will be    131072 words long.
 Raffenetti 2 integral format.
 Two-electron integral symmetry is turned on.
 Leave Link  301 at Tue Oct  6 16:30:12 2020, MaxMem=  2684354560 cpu:               1.4 elap:               0.6
 (Enter /udrive/faculty/rpeverati/g16/g16/l302.exe)
 NPDir=0 NMtPBC=     1 NCelOv=     1 NCel=       1 NClECP=     1 NCelD=      1
         NCelK=      1 NCelE2=     1 NClLst=     1 CellRange=     0.0.
 One-electron integrals computed using PRISM.
 One-electron integral symmetry used in STVInt
 NBasis=    30 RedAO= T EigKep=  3.96D-02  NBF=    16     2     6     6
 NBsUse=    30 1.00D-06 EigRej= -1.00D+00 NBFU=    16     2     6     6
 Precomputing XC quadrature grid using
 IXCGrd= 4 IRadAn=           5 IRanWt=          -1 IRanGd=           0 AccXCQ= 0.00D+00.
 Generated NRdTot=       0 NPtTot=           0 NUsed=           0 NTot=          32
 NSgBfM=    32    32    32    32    32 MxSgAt=     3 MxSgA2=     3.
 Leave Link  302 at Tue Oct  6 16:30:14 2020, MaxMem=  2684354560 cpu:               2.7 elap:               0.8
 (Enter /udrive/faculty/rpeverati/g16/g16/l303.exe)
 DipDrv:  MaxL=1.
 Leave Link  303 at Tue Oct  6 16:30:15 2020, MaxMem=  2684354560 cpu:               1.6 elap:               0.7
 (Enter /udrive/faculty/rpeverati/g16/g16/l401.exe)
 SCF N**3 symmetry information disabled.
 ExpMin= 1.61D-01 ExpMax= 7.00D+03 ExpMxC= 1.05D+03 IAcc=3 IRadAn=         5 AccDes= 0.00D+00
 Harris functional with IExCor=  402 and IRadAn=       5 diagonalized for initial guess.
 HarFok:  IExCor=  402 AccDes= 0.00D+00 IRadAn=         5 IDoV= 1 UseB2=F ITyADJ=14
 ICtDFT=  3500011 ScaDFX=  1.000000  1.000000  1.000000  1.000000
 FoFCou: FMM=F IPFlag=           0 FMFlag=      100000 FMFlg1=           0
         NFxFlg=           0 DoJE=T BraDBF=F KetDBF=T FulRan=T
         wScrn=  0.000000 ICntrl=       500 IOpCl=  0 I1Cent=   200000004 NGrid=           0
         NMat0=    1 NMatS0=      1 NMatT0=    0 NMatD0=    1 NMtDS0=    0 NMtDT0=    0
 Petite list used in FoFCou.
 Harris En= -199.996692990565    
 JPrj=0 DoOrth=F DoCkMO=F.
 Initial guess orbital symmetries:
 Alpha Orbitals:
       Occupied  (SG) (SG) (SG) (SG) (SG) (PI) (PI) (PI) (PI) (SG)
       Virtual   (SG) (SG) (PI) (PI) (SG) (PI) (PI) (SG) (SG) (PI)
                 (PI) (DLTA) (DLTA) (SG) (DLTA) (DLTA) (SG) (PI)
                 (PI) (SG)
 Beta  Orbitals:
       Occupied  (SG) (SG) (SG) (SG) (SG) (PI) (PI) (PI) (PI)
       Virtual   (SG) (SG) (SG) (PI) (PI) (SG) (PI) (PI) (SG) (SG)
                 (PI) (PI) (DLTA) (DLTA) (SG) (DLTA) (DLTA) (SG)
                 (PI) (PI) (SG)
 The electronic state of the initial guess is 2-SG.
 Initial guess <Sx>= 0.0000 <Sy>= 0.0000 <Sz>= 0.5000 <S**2>= 0.7500 S= 0.5000
 Leave Link  401 at Tue Oct  6 16:30:16 2020, MaxMem=  2684354560 cpu:               4.4 elap:               0.8
 (Enter /udrive/faculty/rpeverati/g16/g16/l502.exe)
 Keep R1 and R2 ints in memory in symmetry-blocked form, NReq=10459988.
 FoFCou: FMM=F IPFlag=           0 FMFlag=           0 FMFlg1=           0
         NFxFlg=           0 DoJE=F BraDBF=F KetDBF=F FulRan=T
         wScrn=  0.000000 ICntrl=       600 IOpCl=  0 I1Cent=           0 NGrid=           0
         NMat0=    1 NMatS0=    465 NMatT0=    0 NMatD0=    1 NMtDS0=    0 NMtDT0=    0
 Petite list used in FoFCou.
 UHF open shell SCF:
 Using DIIS extrapolation, IDIIS=  1040.
 NGot=  2684354560 LenX=  2684288269 LenY=  2684286804
 Requested convergence on RMS density matrix=1.00D-08 within 120 cycles.
 Requested convergence on MAX density matrix=1.00D-06.
 Requested convergence on             energy=1.00D-06.
 No special actions if energy rises.
 Integral accuracy reduced to 1.0D-05 until final iterations.

 Cycle   1  Pass 0  IDiag  1:
 E= -199.953555046888    
 DIIS: error= 3.38D-02 at cycle   1 NSaved=   1.
 NSaved= 1 IEnMin= 1 EnMin= -199.953555046888     IErMin= 1 ErrMin= 3.38D-02
 ErrMax= 3.38D-02  0.00D+00 EMaxC= 1.00D-01 BMatC= 1.21D-01 BMatP= 1.21D-01
 IDIUse=3 WtCom= 6.62D-01 WtEn= 3.38D-01
 Coeff-Com:  0.100D+01
 Coeff-En:   0.100D+01
 Coeff:      0.100D+01
 Gap=     0.159 Goal=   None    Shift=    0.000
 Gap=     0.107 Goal=   None    Shift=    0.000
 GapD=    0.107 DampG=1.000 DampE=0.500 DampFc=0.5000 IDamp=-1.
 Damping current iteration by 5.00D-01
 RMSDP=1.63D-02 MaxDP=1.99D-01              OVMax= 4.75D-01

 Cycle   2  Pass 0  IDiag  1:
 E= -199.964829486271     Delta-E=       -0.011274439383 Rises=F Damp=T
 DIIS: error= 1.74D-02 at cycle   2 NSaved=   2.
 NSaved= 2 IEnMin= 2 EnMin= -199.964829486271     IErMin= 2 ErrMin= 1.74D-02
 ErrMax= 1.74D-02  0.00D+00 EMaxC= 1.00D-01 BMatC= 5.41D-02 BMatP= 1.21D-01
 IDIUse=3 WtCom= 8.26D-01 WtEn= 1.74D-01
 Coeff-Com:  0.375D+00 0.625D+00
 Coeff-En:   0.372D+00 0.628D+00
 Coeff:      0.374D+00 0.626D+00
 Gap=     0.224 Goal=   None    Shift=    0.000
 Gap=     0.170 Goal=   None    Shift=    0.000
 RMSDP=3.91D-03 MaxDP=7.01D-02 DE=-1.13D-02 OVMax= 1.96D-01

 Cycle   3  Pass 0  IDiag  1:
 E= -199.997370151909     Delta-E=       -0.032540665638 Rises=F Damp=F
 DIIS: error= 1.16D-02 at cycle   3 NSaved=   3.
 NSaved= 3 IEnMin= 3 EnMin= -199.997370151909     IErMin= 3 ErrMin= 1.16D-02
 ErrMax= 1.16D-02  0.00D+00 EMaxC= 1.00D-01 BMatC= 2.53D-02 BMatP= 5.41D-02
 IDIUse=3 WtCom= 8.84D-01 WtEn= 1.16D-01
 Coeff-Com:  0.255D+00 0.301D+00 0.444D+00
 Coeff-En:   0.000D+00 0.000D+00 0.100D+01
 Coeff:      0.226D+00 0.266D+00 0.509D+00
 Gap=     0.202 Goal=   None    Shift=    0.000
 Gap=     0.185 Goal=   None    Shift=    0.000
 RMSDP=1.88D-03 MaxDP=2.94D-02 DE=-3.25D-02 OVMax= 4.82D-02

 Cycle   4  Pass 0  IDiag  1:
 E= -200.001381416260     Delta-E=       -0.004011264351 Rises=F Damp=F
 DIIS: error= 6.58D-03 at cycle   4 NSaved=   4.
 NSaved= 4 IEnMin= 4 EnMin= -200.001381416260     IErMin= 4 ErrMin= 6.58D-03
 ErrMax= 6.58D-03  0.00D+00 EMaxC= 1.00D-01 BMatC= 6.63D-03 BMatP= 2.53D-02
 IDIUse=3 WtCom= 9.34D-01 WtEn= 6.58D-02
 Coeff-Com:  0.721D-01-0.140D+00 0.302D+00 0.766D+00
 Coeff-En:   0.000D+00 0.000D+00 0.541D-01 0.946D+00
 Coeff:      0.674D-01-0.131D+00 0.286D+00 0.778D+00
 Gap=     0.211 Goal=   None    Shift=    0.000
 Gap=     0.199 Goal=   None    Shift=    0.000
 RMSDP=1.13D-03 MaxDP=1.83D-02 DE=-4.01D-03 OVMax= 3.36D-02

 Cycle   5  Pass 0  IDiag  1:
 E= -200.002978390373     Delta-E=       -0.001596974113 Rises=F Damp=F
 DIIS: error= 2.17D-03 at cycle   5 NSaved=   5.
 NSaved= 5 IEnMin= 5 EnMin= -200.002978390373     IErMin= 5 ErrMin= 2.17D-03
 ErrMax= 2.17D-03  0.00D+00 EMaxC= 1.00D-01 BMatC= 4.33D-04 BMatP= 6.63D-03
 IDIUse=3 WtCom= 9.78D-01 WtEn= 2.17D-02
 Coeff-Com: -0.447D-01 0.369D-01-0.131D+00-0.255D-01 0.116D+01
 Coeff-En:   0.000D+00 0.000D+00 0.000D+00 0.000D+00 0.100D+01
 Coeff:     -0.437D-01 0.361D-01-0.128D+00-0.249D-01 0.116D+01
 Gap=     0.215 Goal=   None    Shift=    0.000
 Gap=     0.198 Goal=   None    Shift=    0.000
 RMSDP=4.57D-04 MaxDP=9.04D-03 DE=-1.60D-03 OVMax= 1.50D-02

 Cycle   6  Pass 0  IDiag  1:
 E= -200.003179101463     Delta-E=       -0.000200711091 Rises=F Damp=F
 DIIS: error= 6.18D-04 at cycle   6 NSaved=   6.
 NSaved= 6 IEnMin= 6 EnMin= -200.003179101463     IErMin= 6 ErrMin= 6.18D-04
 ErrMax= 6.18D-04  0.00D+00 EMaxC= 1.00D-01 BMatC= 2.84D-05 BMatP= 4.33D-04
 IDIUse=3 WtCom= 9.94D-01 WtEn= 6.18D-03
 Coeff-Com: -0.521D-02 0.153D-01-0.127D-01-0.114D+00-0.857D-01 0.120D+01
 Coeff-En:   0.000D+00 0.000D+00 0.000D+00 0.000D+00 0.000D+00 0.100D+01
 Coeff:     -0.518D-02 0.152D-01-0.126D-01-0.113D+00-0.852D-01 0.120D+01
 Gap=     0.216 Goal=   None    Shift=    0.000
 Gap=     0.199 Goal=   None    Shift=    0.000
 RMSDP=2.28D-04 MaxDP=3.54D-03 DE=-2.01D-04 OVMax= 6.36D-03

 Cycle   7  Pass 0  IDiag  1:
 E= -200.003212543098     Delta-E=       -0.000033441634 Rises=F Damp=F
 DIIS: error= 2.02D-04 at cycle   7 NSaved=   7.
 NSaved= 7 IEnMin= 7 EnMin= -200.003212543098     IErMin= 7 ErrMin= 2.02D-04
 ErrMax= 2.02D-04  0.00D+00 EMaxC= 1.00D-01 BMatC= 3.99D-06 BMatP= 2.84D-05
 IDIUse=3 WtCom= 9.98D-01 WtEn= 2.02D-03
 Coeff-Com:  0.506D-02-0.459D-02 0.202D-01 0.176D-01-0.155D+00-0.329D+00
 Coeff-Com:  0.145D+01
 Coeff-En:   0.000D+00 0.000D+00 0.000D+00 0.000D+00 0.000D+00 0.000D+00
 Coeff-En:   0.100D+01
 Coeff:      0.505D-02-0.458D-02 0.201D-01 0.176D-01-0.155D+00-0.328D+00
 Coeff:      0.144D+01
 Gap=     0.217 Goal=   None    Shift=    0.000
 Gap=     0.200 Goal=   None    Shift=    0.000
 RMSDP=1.45D-04 MaxDP=2.20D-03 DE=-3.34D-05 OVMax= 3.92D-03

 Cycle   8  Pass 0  IDiag  1:
 E= -200.003219975897     Delta-E=       -0.000007432799 Rises=F Damp=F
 DIIS: error= 7.24D-05 at cycle   8 NSaved=   8.
 NSaved= 8 IEnMin= 8 EnMin= -200.003219975897     IErMin= 8 ErrMin= 7.24D-05
 ErrMax= 7.24D-05  0.00D+00 EMaxC= 1.00D-01 BMatC= 3.76D-07 BMatP= 3.99D-06
 IDIUse=1 WtCom= 1.00D+00 WtEn= 0.00D+00
 Coeff-Com: -0.626D-03-0.313D-03 0.106D-02 0.109D-01 0.180D-01-0.135D+00
 Coeff-Com: -0.393D-01 0.115D+01
 Coeff:     -0.626D-03-0.313D-03 0.106D-02 0.109D-01 0.180D-01-0.135D+00
 Coeff:     -0.393D-01 0.115D+01
 Gap=     0.217 Goal=   None    Shift=    0.000
 Gap=     0.199 Goal=   None    Shift=    0.000
 RMSDP=3.46D-05 MaxDP=5.06D-04 DE=-7.43D-06 OVMax= 9.76D-04

 Cycle   9  Pass 0  IDiag  1:
 E= -200.003220346075     Delta-E=       -0.000000370178 Rises=F Damp=F
 DIIS: error= 1.37D-05 at cycle   9 NSaved=   9.
 NSaved= 9 IEnMin= 9 EnMin= -200.003220346075     IErMin= 9 ErrMin= 1.37D-05
 ErrMax= 1.37D-05  0.00D+00 EMaxC= 1.00D-01 BMatC= 2.06D-08 BMatP= 3.76D-07
 IDIUse=1 WtCom= 1.00D+00 WtEn= 0.00D+00
 Coeff-Com: -0.314D-03 0.408D-03-0.273D-03 0.915D-03 0.628D-02-0.947D-02
 Coeff-Com: -0.479D-01 0.144D+00 0.906D+00
 Coeff:     -0.314D-03 0.408D-03-0.273D-03 0.915D-03 0.628D-02-0.947D-02
 Coeff:     -0.479D-01 0.144D+00 0.906D+00
 Gap=     0.217 Goal=   None    Shift=    0.000
 Gap=     0.199 Goal=   None    Shift=    0.000
 RMSDP=2.69D-06 MaxDP=3.80D-05 DE=-3.70D-07 OVMax= 9.62D-05

 Initial convergence to 1.0D-05 achieved.  Increase integral accuracy.
 Cycle  10  Pass 1  IDiag  1:
 E= -200.003129411499     Delta-E=        0.000090934576 Rises=F Damp=F
 DIIS: error= 3.68D-06 at cycle   1 NSaved=   1.
 NSaved= 1 IEnMin= 1 EnMin= -200.003129411499     IErMin= 1 ErrMin= 3.68D-06
 ErrMax= 3.68D-06  0.00D+00 EMaxC= 1.00D-01 BMatC= 1.57D-09 BMatP= 1.57D-09
 IDIUse=1 WtCom= 1.00D+00 WtEn= 0.00D+00
 Coeff-Com:  0.100D+01
 Coeff:      0.100D+01
 Gap=     0.217 Goal=   None    Shift=    0.000
 Gap=     0.199 Goal=   None    Shift=    0.000
 RMSDP=2.69D-06 MaxDP=3.80D-05 DE= 9.09D-05 OVMax= 1.18D-05

 Cycle  11  Pass 1  IDiag  1:
 E= -200.003129411785     Delta-E=       -0.000000000286 Rises=F Damp=F
 DIIS: error= 1.82D-06 at cycle   2 NSaved=   2.
 NSaved= 2 IEnMin= 2 EnMin= -200.003129411785     IErMin= 2 ErrMin= 1.82D-06
 ErrMax= 1.82D-06  0.00D+00 EMaxC= 1.00D-01 BMatC= 6.16D-10 BMatP= 1.57D-09
 IDIUse=1 WtCom= 1.00D+00 WtEn= 0.00D+00
 Coeff-Com:  0.360D+00 0.640D+00
 Coeff:      0.360D+00 0.640D+00
 Gap=     0.217 Goal=   None    Shift=    0.000
 Gap=     0.199 Goal=   None    Shift=    0.000
 RMSDP=3.77D-07 MaxDP=6.34D-06 DE=-2.86D-10 OVMax= 7.89D-06

 Cycle  12  Pass 1  IDiag  1:
 E= -200.003129411806     Delta-E=       -0.000000000021 Rises=F Damp=F
 DIIS: error= 1.81D-06 at cycle   3 NSaved=   3.
 NSaved= 3 IEnMin= 3 EnMin= -200.003129411806     IErMin= 3 ErrMin= 1.81D-06
 ErrMax= 1.81D-06  0.00D+00 EMaxC= 1.00D-01 BMatC= 4.63D-10 BMatP= 6.16D-10
 IDIUse=1 WtCom= 1.00D+00 WtEn= 0.00D+00
 Coeff-Com:  0.105D+00 0.464D+00 0.431D+00
 Coeff:      0.105D+00 0.464D+00 0.431D+00
 Gap=     0.217 Goal=   None    Shift=    0.000
 Gap=     0.199 Goal=   None    Shift=    0.000
 RMSDP=2.36D-07 MaxDP=3.11D-06 DE=-2.10D-11 OVMax= 5.61D-06

 Cycle  13  Pass 1  IDiag  1:
 E= -200.003129411887     Delta-E=       -0.000000000082 Rises=F Damp=F
 DIIS: error= 3.61D-07 at cycle   4 NSaved=   4.
 NSaved= 4 IEnMin= 4 EnMin= -200.003129411887     IErMin= 4 ErrMin= 3.61D-07
 ErrMax= 3.61D-07  0.00D+00 EMaxC= 1.00D-01 BMatC= 1.38D-11 BMatP= 4.63D-10
 IDIUse=1 WtCom= 1.00D+00 WtEn= 0.00D+00
 Coeff-Com: -0.338D-01 0.447D-01 0.174D+00 0.815D+00
 Coeff:     -0.338D-01 0.447D-01 0.174D+00 0.815D+00
 Gap=     0.217 Goal=   None    Shift=    0.000
 Gap=     0.199 Goal=   None    Shift=    0.000
 RMSDP=4.71D-08 MaxDP=8.44D-07 DE=-8.15D-11 OVMax= 1.51D-06

 Cycle  14  Pass 1  IDiag  1:
 E= -200.003129411891     Delta-E=       -0.000000000004 Rises=F Damp=F
 DIIS: error= 9.18D-08 at cycle   5 NSaved=   5.
 NSaved= 5 IEnMin= 5 EnMin= -200.003129411891     IErMin= 5 ErrMin= 9.18D-08
 ErrMax= 9.18D-08  0.00D+00 EMaxC= 1.00D-01 BMatC= 1.02D-12 BMatP= 1.38D-11
 IDIUse=1 WtCom= 1.00D+00 WtEn= 0.00D+00
 Coeff-Com: -0.103D-01-0.173D-01 0.284D-01 0.167D+00 0.833D+00
 Coeff:     -0.103D-01-0.173D-01 0.284D-01 0.167D+00 0.833D+00
 Gap=     0.217 Goal=   None    Shift=    0.000
 Gap=     0.199 Goal=   None    Shift=    0.000
 RMSDP=3.09D-08 MaxDP=4.90D-07 DE=-3.64D-12 OVMax= 7.69D-07

 Cycle  15  Pass 1  IDiag  1:
 E= -200.003129411892     Delta-E=       -0.000000000001 Rises=F Damp=F
 DIIS: error= 6.79D-08 at cycle   6 NSaved=   6.
 NSaved= 6 IEnMin= 6 EnMin= -200.003129411892     IErMin= 6 ErrMin= 6.79D-08
 ErrMax= 6.79D-08  0.00D+00 EMaxC= 1.00D-01 BMatC= 5.99D-13 BMatP= 1.02D-12
 IDIUse=1 WtCom= 1.00D+00 WtEn= 0.00D+00
 Coeff-Com:  0.428D-02-0.240D-01-0.406D-01-0.182D+00 0.548D+00 0.694D+00
 Coeff:      0.428D-02-0.240D-01-0.406D-01-0.182D+00 0.548D+00 0.694D+00
 Gap=     0.217 Goal=   None    Shift=    0.000
 Gap=     0.199 Goal=   None    Shift=    0.000
 RMSDP=1.62D-08 MaxDP=2.61D-07 DE=-5.97D-13 OVMax= 4.64D-07

 Cycle  16  Pass 1  IDiag  1:
 E= -200.003129411892     Delta-E=       -0.000000000000 Rises=F Damp=F
 DIIS: error= 2.60D-08 at cycle   7 NSaved=   7.
 NSaved= 7 IEnMin= 7 EnMin= -200.003129411892     IErMin= 7 ErrMin= 2.60D-08
 ErrMax= 2.60D-08  0.00D+00 EMaxC= 1.00D-01 BMatC= 6.31D-14 BMatP= 5.99D-13
 IDIUse=1 WtCom= 1.00D+00 WtEn= 0.00D+00
 Coeff-Com:  0.193D-02 0.296D-02-0.110D-01-0.207D-01-0.152D+00-0.358D+00
 Coeff-Com:  0.154D+01
 Coeff:      0.193D-02 0.296D-02-0.110D-01-0.207D-01-0.152D+00-0.358D+00
 Coeff:      0.154D+01
 Gap=     0.217 Goal=   None    Shift=    0.000
 Gap=     0.199 Goal=   None    Shift=    0.000
 RMSDP=1.52D-08 MaxDP=2.33D-07 DE=-3.69D-13 OVMax= 4.62D-07

 Cycle  17  Pass 1  IDiag  1:
 E= -200.003129411892     Delta-E=       -0.000000000000 Rises=F Damp=F
 DIIS: error= 8.76D-09 at cycle   8 NSaved=   8.
 NSaved= 8 IEnMin= 8 EnMin= -200.003129411892     IErMin= 8 ErrMin= 8.76D-09
 ErrMax= 8.76D-09  0.00D+00 EMaxC= 1.00D-01 BMatC= 4.79D-15 BMatP= 6.31D-14
 IDIUse=1 WtCom= 1.00D+00 WtEn= 0.00D+00
 Coeff-Com: -0.297D-03 0.214D-02 0.642D-02 0.190D-01-0.586D-01-0.744D-01
 Coeff-Com: -0.582D-01 0.116D+01
 Coeff:     -0.297D-03 0.214D-02 0.642D-02 0.190D-01-0.586D-01-0.744D-01
 Coeff:     -0.582D-01 0.116D+01
 Gap=     0.217 Goal=   None    Shift=    0.000
 Gap=     0.199 Goal=   None    Shift=    0.000
 RMSDP=4.45D-09 MaxDP=7.41D-08 DE=-2.27D-13 OVMax= 9.89D-08

 SCF Done:  E(UB3LYP) =  -200.003129412     A.U. after   17 cycles
            NFock= 17  Conv=0.44D-08     -V/T= 2.0044
 <Sx>= 0.0000 <Sy>= 0.0000 <Sz>= 0.5000 <S**2>= 0.7820 S= 0.5159
 <L.S>= 0.000000000000E+00
 KE= 1.991274417090D+02 PE=-5.452592771657D+02 EE= 1.126864034790D+02
 Annihilation of the first spin contaminant:
 S**2 before annihilation     0.7820,   after     0.7500
 Leave Link  502 at Tue Oct  6 16:30:18 2020, MaxMem=  2684354560 cpu:              14.0 elap:               1.7
 (Enter /udrive/faculty/rpeverati/g16/g16/l508.exe)
 QCSCF skips out because SCF is already converged.
 Leave Link  508 at Tue Oct  6 16:30:18 2020, MaxMem=  2684354560 cpu:               0.5 elap:               0.3
 (Enter /udrive/faculty/rpeverati/g16/g16/l801.exe)
 DoSCS=F DFT=T ScalE2(SS,OS)=  1.000000  1.000000
 Range of M.O.s used for correlation:     1    30
 NBasis=    30 NAE=    10 NBE=     9 NFC=     0 NFV=     0
 NROrb=     30 NOA=    10 NOB=     9 NVA=    20 NVB=    21
 Leave Link  801 at Tue Oct  6 16:30:19 2020, MaxMem=  2684354560 cpu:               1.6 elap:               0.5
 (Enter /udrive/faculty/rpeverati/g16/g16/l1101.exe)
 Using compressed storage, NAtomX=     3.
 Will process      4 centers per pass.
 Leave Link 1101 at Tue Oct  6 16:30:20 2020, MaxMem=  2684354560 cpu:               5.1 elap:               0.9
 (Enter /udrive/faculty/rpeverati/g16/g16/l1102.exe)
 Symmetrizing basis deriv contribution to polar:
 IMax=3 JMax=2 DiffMx= 0.00D+00
 Leave Link 1102 at Tue Oct  6 16:30:21 2020, MaxMem=  2684354560 cpu:               1.4 elap:               0.4
 (Enter /udrive/faculty/rpeverati/g16/g16/l1110.exe)
 Forming Gx(P) for the SCF density, NAtomX=     3.
 Integral derivatives from FoFJK, PRISM(SPDF).
 Do as many integral derivatives as possible in FoFJK.
 G2DrvN: MDV=    2684354220.
 G2DrvN: will do     4 centers at a time, making    1 passes.
 Calling FoFCou, ICntrl=  3107 FMM=F I1Cent=   0 AccDes= 0.00D+00.
 FoFJK:  IHMeth= 1 ICntrl=    3107 DoSepK=F KAlg= 0 I1Cent=           0 FoldK=F
 IRaf=         0 NMat=       1 IRICut=       1 DoRegI=T DoRafI=F ISym2E= 1 IDoP0=0 IntGTp=1.
 FoFCou: FMM=F IPFlag=           0 FMFlag=      100000 FMFlg1=           0
         NFxFlg=           0 DoJE=F BraDBF=F KetDBF=F FulRan=T
         wScrn=  0.000000 ICntrl=      3107 IOpCl=  1 I1Cent=           0 NGrid=           0
         NMat0=    1 NMatS0=      1 NMatT0=    0 NMatD0=    1 NMtDS0=    0 NMtDT0=    0
 Petite list used in FoFCou.
 End of G2Drv F.D. properties file   721 does not exist.
 End of G2Drv F.D. properties file   722 does not exist.
 End of G2Drv F.D. properties file   788 does not exist.
 Leave Link 1110 at Tue Oct  6 16:30:22 2020, MaxMem=  2684354560 cpu:               9.1 elap:               1.1
 (Enter /udrive/faculty/rpeverati/g16/g16/l1002.exe)
 Minotr:  UHF open shell wavefunction.
          IDoAtm=111
          Direct CPHF calculation.
          Differentiating once with respect to nuclear coordinates.
          Using symmetry in CPHF.
          Requested convergence is 1.0D-08 RMS, and 1.0D-07 maximum.
          Secondary convergence is 1.0D-12 RMS, and 1.0D-12 maximum.
          NewPWx=T KeepS1=F KeepF1=F KeepIn=T MapXYZ=F SortEE=F KeepMc=T.
          881 words used for storage of precomputed grid.
 Keep R1 and R2 ints in memory in symmetry-blocked form, NReq=10420774.
 FoFCou: FMM=F IPFlag=           0 FMFlag=           0 FMFlg1=           0
         NFxFlg=           0 DoJE=F BraDBF=F KetDBF=F FulRan=T
         wScrn=  0.000000 ICntrl=       600 IOpCl=  0 I1Cent=           0 NGrid=           0
         NMat0=    1 NMatS0=    465 NMatT0=    0 NMatD0=    1 NMtDS0=    0 NMtDT0=    0
 Petite list used in FoFCou.
          MDV=    2684354560 using IRadAn=       1.
          Solving linear equations simultaneously, MaxMat=       0.
          There are    12 degrees of freedom in the 1st order CPHF.  IDoFFX=6 NUNeed=     0.
      6 vectors produced by pass  0 Test12= 3.24D-15 8.33D-09 XBig12= 8.12D-02 2.49D-01.
 AX will form     6 AO Fock derivatives at one time.
      6 vectors produced by pass  1 Test12= 3.24D-15 8.33D-09 XBig12= 2.62D-02 1.22D-01.
      6 vectors produced by pass  2 Test12= 3.24D-15 8.33D-09 XBig12= 1.19D-02 6.42D-02.
      6 vectors produced by pass  3 Test12= 3.24D-15 8.33D-09 XBig12= 1.18D-03 1.07D-02.
      6 vectors produced by pass  4 Test12= 3.24D-15 8.33D-09 XBig12= 8.21D-06 1.32D-03.
      6 vectors produced by pass  5 Test12= 3.24D-15 8.33D-09 XBig12= 7.75D-08 1.23D-04.
      6 vectors produced by pass  6 Test12= 3.24D-15 8.33D-09 XBig12= 8.00D-10 8.49D-06.
      2 vectors produced by pass  7 Test12= 3.24D-15 8.33D-09 XBig12= 1.88D-12 4.45D-07.
      2 vectors produced by pass  8 Test12= 3.24D-15 8.33D-09 XBig12= 8.47D-15 2.77D-08.
 InvSVY:  IOpt=1 It=  1 EMax= 3.33D-16
 Solved reduced A of dimension    46 with     6 vectors.
 End of Minotr F.D. properties file   721 does not exist.
 End of Minotr F.D. properties file   722 does not exist.
 End of Minotr F.D. properties file   788 does not exist.
 Leave Link 1002 at Tue Oct  6 16:30:24 2020, MaxMem=  2684354560 cpu:              18.6 elap:               2.1
 (Enter /udrive/faculty/rpeverati/g16/g16/l601.exe)
 Copying SCF densities to generalized density rwf, IOpCl= 1 IROHF=0.

 **********************************************************************

            Population analysis using the SCF density.

 **********************************************************************

 Orbital symmetries:
 Alpha Orbitals:
       Occupied  (SG) (SG) (SG) (SG) (SG) (PI) (PI) (PI) (PI) (SG)
       Virtual   (SG) (SG) (PI) (PI) (SG) (PI) (PI) (SG) (SG) (PI)
                 (PI) (DLTA) (DLTA) (SG) (SG) (DLTA) (DLTA) (PI)
                 (PI) (SG)
 Beta  Orbitals:
       Occupied  (SG) (SG) (SG) (SG) (SG) (PI) (PI) (PI) (PI)
       Virtual   (SG) (SG) (SG) (PI) (PI) (SG) (PI) (PI) (SG) (SG)
                 (PI) (PI) (DLTA) (DLTA) (SG) (SG) (DLTA) (DLTA)
                 (PI) (PI) (SG)
 The electronic state is 2-SG.
 Alpha  occ. eigenvalues --  -24.75838 -24.74190  -1.27115  -1.08435  -0.57260
 Alpha  occ. eigenvalues --   -0.47807  -0.47807  -0.37152  -0.37152  -0.33807
 Alpha virt. eigenvalues --   -0.12083   0.66231   1.07764   1.07764   1.16537
 Alpha virt. eigenvalues --    1.25797   1.25797   1.31473   1.37028   1.57005
 Alpha virt. eigenvalues --    1.57005   1.74451   1.74451   1.75768   1.91436
 Alpha virt. eigenvalues --    1.93743   1.93743   2.37938   2.37938   3.52182
  Beta  occ. eigenvalues --  -24.76095 -24.72930  -1.25975  -1.06953  -0.54617
  Beta  occ. eigenvalues --   -0.47424  -0.47424  -0.36467  -0.36467
  Beta virt. eigenvalues --   -0.16530  -0.04988   0.79977   1.08002   1.08002
  Beta virt. eigenvalues --    1.19512   1.26131   1.26131   1.32579   1.37771
  Beta virt. eigenvalues --    1.57502   1.57502   1.74561   1.74561   1.76985
  Beta virt. eigenvalues --    1.92439   1.93880   1.93880   2.38586   2.38586
  Beta virt. eigenvalues --    3.53203
          Condensed to atoms (all electrons):
               1          2          3
     1  H    0.815150   0.021717   0.005143
     2  F    0.021717   9.043355   0.028331
     3  F    0.005143   0.028331   9.031111
          Atomic-Atomic Spin Densities.
               1          2          3
     1  H    0.783295  -0.024291   0.006499
     2  F   -0.024291  -0.051995  -0.056238
     3  F    0.006499  -0.056238   0.416761
 Mulliken charges and spin densities:
               1          2
     1  H    0.157989   0.765503
     2  F   -0.093403  -0.132524
     3  F   -0.064586   0.367021
 Sum of Mulliken charges =  -0.00000   1.00000
 Mulliken charges and spin densities with hydrogens summed into heavy atoms:
               1          2
     2  F    0.064586   0.632979
     3  F   -0.064586   0.367021
 APT charges:
               1
     1  H    0.214161
     2  F   -0.142185
     3  F   -0.071975
 Sum of APT charges =  -0.00000
 APT charges with hydrogens summed into heavy atoms:
               1
     2  F    0.071975
     3  F   -0.071975
 Electronic spatial extent (au):  <R**2>=             74.2507
 Charge=             -0.0000 electrons
 Dipole moment (field-independent basis, Debye):
    X=              0.0000    Y=              0.0000    Z=             -1.5636  Tot=              1.5636
 Quadrupole moment (field-independent basis, Debye-Ang):
   XX=            -10.4690   YY=            -10.4690   ZZ=             -6.3232
   XY=              0.0000   XZ=              0.0000   YZ=             -0.0000
 Traceless Quadrupole moment (field-independent basis, Debye-Ang):
   XX=             -1.3819   YY=             -1.3819   ZZ=              2.7639
   XY=              0.0000   XZ=              0.0000   YZ=             -0.0000
 Octapole moment (field-independent basis, Debye-Ang**2):
  XXX=              0.0000  YYY=              0.0000  ZZZ=             -4.6730  XYY=              0.0000
  XXY=              0.0000  XXZ=              1.1456  XZZ=              0.0000  YZZ=             -0.0000
  YYZ=              1.1456  XYZ=              0.0000
 Hexadecapole moment (field-independent basis, Debye-Ang**3):
 XXXX=             -5.9972 YYYY=             -5.9972 ZZZZ=            -44.1113 XXXY=              0.0000
 XXXZ=              0.0000 YYYX=              0.0000 YYYZ=             -0.0000 ZZZX=              0.0000
 ZZZY=             -0.0000 XXYY=             -1.9991 XXZZ=            -12.3362 YYZZ=            -12.3362
 XXYZ=              0.0000 YYXZ=              0.0000 ZZXY=              0.0000
 N-N= 3.344230256578D+01 E-N=-5.452592773189D+02  KE= 1.991274417090D+02
  Exact polarizability:   0.000   0.000   0.000   0.000   0.000   0.000
 Approx polarizability:   3.448  -0.000   3.448  -0.000   0.000  53.025
                          Isotropic Fermi Contact Couplings
        Atom                 a.u.       MegaHertz       Gauss      10(-4) cm-1
     1  H(1)               0.25907    1157.99232     413.20046     386.26466
     2  F(19)              0.56182    2363.82449     843.47136     788.48698
     3  F(19)              0.05660     238.13202      84.97142      79.43229
 --------------------------------------------------------
       Center         ----  Spin Dipole Couplings  ----
                      3XX-RR        3YY-RR        3ZZ-RR
 --------------------------------------------------------
     1   Atom        0.005545      0.005545     -0.011090
     2   Atom        0.467087      0.467087     -0.934174
     3   Atom       -1.187859     -1.187859      2.375718
 --------------------------------------------------------
                        XY            XZ            YZ
 --------------------------------------------------------
     1   Atom        0.000000      0.000000      0.000000
     2   Atom        0.000000      0.000000      0.000000
     3   Atom        0.000000      0.000000      0.000000
 --------------------------------------------------------


 ---------------------------------------------------------------------------------
              Anisotropic Spin Dipole Couplings in Principal Axis System
 ---------------------------------------------------------------------------------

       Atom             a.u.   MegaHertz   Gauss  10(-4) cm-1        Axes

              Baa    -0.0111    -5.917    -2.111    -1.974  0.0000  0.0000  1.0000
     1 H(1)   Bbb     0.0055     2.959     1.056     0.987  0.0000  1.0000  0.0000
              Bcc     0.0055     2.959     1.056     0.987  1.0000  0.0000  0.0000
 
              Baa    -0.9342  -469.166  -167.410  -156.497  0.0000  0.0000  1.0000
     2 F(19)  Bbb     0.4671   234.583    83.705    78.248  0.0000  1.0000  0.0000
              Bcc     0.4671   234.583    83.705    78.248  1.0000  0.0000  0.0000
 
              Baa    -1.1879  -596.573  -212.872  -198.995  0.0000  1.0000  0.0000
     3 F(19)  Bbb    -1.1879  -596.573  -212.872  -198.995  1.0000  0.0000  0.0000
              Bcc     2.3757  1193.146   425.744   397.991  0.0000  0.0000  1.0000
 

 ---------------------------------------------------------------------------------

 No NMR shielding tensors so no spin-rotation constants.
 Leave Link  601 at Tue Oct  6 16:30:26 2020, MaxMem=  2684354560 cpu:               4.4 elap:               0.8
 (Enter /udrive/faculty/rpeverati/g16/g16/l701.exe)
 ... and contract with generalized density number  0.
 Compute integral second derivatives.
 Leave Link  701 at Tue Oct  6 16:30:27 2020, MaxMem=  2684354560 cpu:               3.8 elap:               0.7
 (Enter /udrive/faculty/rpeverati/g16/g16/l702.exe)
 L702 exits ... SP integral derivatives will be done elsewhere.
 Leave Link  702 at Tue Oct  6 16:30:27 2020, MaxMem=  2684354560 cpu:               1.4 elap:               0.5
 (Enter /udrive/faculty/rpeverati/g16/g16/l703.exe)
 Integral derivatives from FoFJK, PRISM(SPDF).
 Compute integral second derivatives, UseDBF=F ICtDFT=           0.
 Calling FoFJK, ICntrl=    100147 FMM=F ISym2X=1 I1Cent= 0 IOpClX= 1 NMat=1 NMatS=1 NMatT=0.
 FoFJK:  IHMeth= 1 ICntrl=  100147 DoSepK=F KAlg= 0 I1Cent=           0 FoldK=F
 IRaf=         0 NMat=       1 IRICut=       1 DoRegI=T DoRafI=F ISym2E= 1 IDoP0=0 IntGTp=1.
 FoFCou: FMM=F IPFlag=           0 FMFlag=      100000 FMFlg1=         800
         NFxFlg=           0 DoJE=F BraDBF=F KetDBF=F FulRan=T
         wScrn=  0.000000 ICntrl=    100147 IOpCl=  1 I1Cent=           0 NGrid=           0
         NMat0=    1 NMatS0=      1 NMatT0=    0 NMatD0=    1 NMtDS0=    0 NMtDT0=    0
 Petite list used in FoFCou.
 Leave Link  703 at Tue Oct  6 16:30:29 2020, MaxMem=  2684354560 cpu:               6.9 elap:               0.9
 (Enter /udrive/faculty/rpeverati/g16/g16/l716.exe)
 Dipole        = 0.00000000D+00 1.84498281D-32-6.15184152D-01
 Polarizability= 0.00000000D+00 0.00000000D+00 0.00000000D+00
                 0.00000000D+00 0.00000000D+00 0.00000000D+00
 ***** Axes restored to original set *****
 -------------------------------------------------------------------
 Center     Atomic                   Forces (Hartrees/Bohr)
 Number     Number              X              Y              Z
 -------------------------------------------------------------------
      1        1           0.000000000    0.000000000    0.017690497
      2        9           0.000000000    0.000000000   -0.045957447
      3        9          -0.000000000   -0.000000000    0.028266950
 -------------------------------------------------------------------
 Cartesian Forces:  Max     0.045957447 RMS     0.018926939
 Force constants in Cartesian coordinates: 
                1             2             3             4             5 
      1  0.605604D-02
      2  0.000000D+00  0.605604D-02
      3  0.000000D+00  0.000000D+00 -0.360656D-01
      4 -0.633976D-02  0.000000D+00  0.000000D+00 -0.313331D-02
      5  0.000000D+00 -0.633976D-02  0.000000D+00  0.000000D+00 -0.313331D-02
      6  0.000000D+00  0.000000D+00  0.144520D+00  0.000000D+00  0.000000D+00
      7  0.283725D-03  0.000000D+00  0.000000D+00  0.947307D-02  0.000000D+00
      8  0.000000D+00  0.283725D-03  0.000000D+00  0.000000D+00  0.947307D-02
      9  0.000000D+00  0.000000D+00 -0.108454D+00  0.000000D+00  0.000000D+00
                6             7             8             9 
      6 -0.924175D-01
      7  0.000000D+00 -0.975680D-02
      8  0.000000D+00  0.000000D+00 -0.975680D-02
      9 -0.521023D-01  0.000000D+00  0.000000D+00  0.160557D+00
 FormGI is forming the generalized inverse of G from B-inverse, IUseBI=4.
 Force constants in internal coordinates: 
                1             2             3             4 
      1 -0.360656D-01
      2  0.108454D+00  0.160557D+00
      3  0.000000D+00  0.000000D+00  0.250527D-02
      4  0.000000D+00  0.000000D+00  0.000000D+00  0.250527D-02
 Leave Link  716 at Tue Oct  6 16:30:29 2020, MaxMem=  2684354560 cpu:               1.4 elap:               0.5
 (Enter /udrive/faculty/rpeverati/g16/g16/l103.exe)

 GradGradGradGradGradGradGradGradGradGradGradGradGradGradGradGradGradGrad
 Berny optimization.
 Optmz: redundant internal coordinate code flag= 1
 Red2BG:  D1=  7.05D-01 OD1=  3.33D-16 B2RMS=  0.00D+00 IAprox=1
 Red2BG is reusing G-inverse.
 Internal  Forces:  Max     0.028266950 RMS     0.016673138
 Search for a saddle point.
 Step number   1 out of a maximum of   50
 All quantities printed in internal units (Hartrees-Bohrs-Radians)
 Swapping is turned off.
 Second derivative matrix not updated -- analytic derivatives used.
 The second derivative matrix:
                          R1        R2        A1        A2
           R1          -0.03607
           R2           0.10845   0.16056
           A1           0.00000   0.00000   0.00251
           A2          -0.00000   0.00000   0.00000   0.00251
 ITU=  0
 Eigenvectors of the second derivative matrix:
                           1         2         3         4
     Eigenvalues --    -0.08414   0.00251   0.00251   0.20863
   1         R1        -0.91422  -0.00000  -0.00000  -0.40521
   2         R2         0.40521  -0.00000  -0.00000  -0.91422
   3         A1        -0.00000  -0.00087   1.00000  -0.00000
   4         A2        -0.00000   1.00000   0.00087  -0.00000
 RLam0= 8.26D-03.
 Iter=   1 RLamda= 0.00000000D+00 Sum=-1.67148974D-03.
 Iter=   2 RLamda=-1.67148974D-03 Sum=-1.65820441D-03.
 Iter=   3 RLamda=-1.65820441D-03 Sum=-1.65830917D-03.
 Iter=   4 RLamda=-1.65830917D-03 Sum=-1.65830835D-03.
 RFO step:  Lambda0=8.260697362D-03 Lambda=-1.65830917D-03.
 Linear search not attempted -- option 19 set.
 Maximum step size (   0.100) exceeded in Quadratic search.
    -- Step size scaled by   0.321
 Iteration  1 RMS(Cart)=  0.03814226 RMS(Int)=  0.00000000
 Iteration  2 RMS(Cart)=  0.00000000 RMS(Int)=  0.00000000
 ITry= 1 IFail=0 DXMaxC= 6.18D-02 DCOld= 1.00D+10 DXMaxT= 1.00D-01 DXLimC= 3.00D+00 Rises=F
 ClnCor:  largest displacement from symmetrization is 3.52D-11 for atom     2.
 Variable       Old X    -DE/DX   Delta X   Delta X   Delta X     New X
                                 (Linear)    (Quad)   (Total)
    R1        3.05202  -0.01769   0.00000   0.09918   0.09918   3.15120
    R2        2.79746   0.02827   0.00000  -0.01282  -0.01282   2.78464
    A1        3.14159  -0.00000   0.00000  -0.00000   0.00000   3.14159
    A2        3.14159   0.00000   0.00000   0.00000   0.00000   3.14159
         Item               Value     Threshold  Converged?
 Maximum Force            0.028267     0.000450     NO 
 RMS     Force            0.016673     0.000300     NO 
 Maximum Displacement     0.061845     0.001800     NO 
 RMS     Displacement     0.038142     0.001200     NO 
 Predicted change in Energy= 1.814697D-03
 Lowest energy point so far.  Saving SCF results.
 Largest change from initial coordinates is atom    1       0.013 Angstoms.
 GradGradGradGradGradGradGradGradGradGradGradGradGradGradGradGradGradGrad

 Leave Link  103 at Tue Oct  6 16:30:30 2020, MaxMem=  2684354560 cpu:               1.2 elap:               0.4
 (Enter /udrive/faculty/rpeverati/g16/g16/l202.exe)
                          Input orientation:                          
 ---------------------------------------------------------------------
 Center     Atomic      Atomic             Coordinates (Angstroms)
 Number     Number       Type             X           Y           Z
 ---------------------------------------------------------------------
      1          1           0        0.000000    0.000000   -2.264003
      2          9           0        0.000000    0.000000   -0.596462
      3          9           0        0.000000    0.000000    0.877108
 ---------------------------------------------------------------------
                    Distance matrix (angstroms):
                    1          2          3
     1  H    0.000000
     2  F    1.667541   0.000000
     3  F    3.141111   1.473570   0.000000
 Stoichiometry    F2H(2)
 Framework group  C*V[C*(HFF)]
 Deg. of freedom     2
 Full point group                 C*V     NOp   4
 RotChk:  IX=0 Diff= 0.00D+00
 Largest Abelian subgroup         C2V     NOp   4
 Largest concise Abelian subgroup C1      NOp   1
                         Standard orientation:                         
 ---------------------------------------------------------------------
 Center     Atomic      Atomic             Coordinates (Angstroms)
 Number     Number       Type             X           Y           Z
 ---------------------------------------------------------------------
      1          1           0        0.000000    0.000000   -2.277782
      2          9           0        0.000000    0.000000   -0.610242
      3          9           0        0.000000    0.000000    0.863329
 ---------------------------------------------------------------------
 Rotational constants (GHZ):           0.0000000          19.2143709          19.2143709
 Leave Link  202 at Tue Oct  6 16:30:31 2020, MaxMem=  2684354560 cpu:               1.4 elap:               0.4
 (Enter /udrive/faculty/rpeverati/g16/g16/l301.exe)
 Standard basis: 6-31G(d) (5D, 7F)
 Ernie: Thresh=  0.10000D-02 Tol=  0.10000D-05 Strict=F.
 There are    18 symmetry adapted cartesian basis functions of A1  symmetry.
 There are     2 symmetry adapted cartesian basis functions of A2  symmetry.
 There are     6 symmetry adapted cartesian basis functions of B1  symmetry.
 There are     6 symmetry adapted cartesian basis functions of B2  symmetry.
 There are    16 symmetry adapted basis functions of A1  symmetry.
 There are     2 symmetry adapted basis functions of A2  symmetry.
 There are     6 symmetry adapted basis functions of B1  symmetry.
 There are     6 symmetry adapted basis functions of B2  symmetry.
    30 basis functions,    60 primitive gaussians,    32 cartesian basis functions
    10 alpha electrons        9 beta electrons
       nuclear repulsion energy        33.4603690775 Hartrees.
 IExCor=  402 DFT=T Ex+Corr=B3LYP ExCW=0 ScaHFX=  0.200000
 ScaDFX=  0.800000  0.720000  1.000000  0.810000 ScalE2=  1.000000  1.000000
 IRadAn=      5 IRanWt=     -1 IRanGd=            0 ICorTp=0 IEmpDi=  4
 NAtoms=    3 NActive=    3 NUniq=    3 SFac= 1.00D+00 NAtFMM=   60 NAOKFM=F Big=F
 Integral buffers will be    131072 words long.
 Raffenetti 2 integral format.
 Two-electron integral symmetry is turned on.
 Leave Link  301 at Tue Oct  6 16:30:31 2020, MaxMem=  2684354560 cpu:               2.1 elap:               0.4
 (Enter /udrive/faculty/rpeverati/g16/g16/l302.exe)
 NPDir=0 NMtPBC=     1 NCelOv=     1 NCel=       1 NClECP=     1 NCelD=      1
         NCelK=      1 NCelE2=     1 NClLst=     1 CellRange=     0.0.
 One-electron integrals computed using PRISM.
 One-electron integral symmetry used in STVInt
 NBasis=    30 RedAO= T EigKep=  3.85D-02  NBF=    16     2     6     6
 NBsUse=    30 1.00D-06 EigRej= -1.00D+00 NBFU=    16     2     6     6
 Precomputing XC quadrature grid using
 IXCGrd= 4 IRadAn=           5 IRanWt=          -1 IRanGd=           0 AccXCQ= 0.00D+00.
 Generated NRdTot=       0 NPtTot=           0 NUsed=           0 NTot=          32
 NSgBfM=    32    32    32    32    32 MxSgAt=     3 MxSgA2=     3.
 Leave Link  302 at Tue Oct  6 16:30:32 2020, MaxMem=  2684354560 cpu:               2.7 elap:               0.5
 (Enter /udrive/faculty/rpeverati/g16/g16/l303.exe)
 DipDrv:  MaxL=1.
 Leave Link  303 at Tue Oct  6 16:30:33 2020, MaxMem=  2684354560 cpu:               1.0 elap:               0.4
 (Enter /udrive/faculty/rpeverati/g16/g16/l401.exe)
 Initial guess from the checkpoint file:  "MN_52_hf2ts_BH76_B3LYP_631Gs.chk"
 SCF N**3 symmetry information disabled.
 B after Tr=     0.000000    0.000000    0.000000
         Rot=    1.000000    0.000000    0.000000    0.000000 Ang=   0.00 deg.
 Guess basis will be translated and rotated to current coordinates.
 JPrj=2 DoOrth=T DoCkMO=T.
 Initial guess orbital symmetries:
 Alpha Orbitals:
       Occupied  (SG) (SG) (SG) (SG) (SG) (PI) (PI) (PI) (PI) (SG)
       Virtual   (SG) (SG) (PI) (PI) (SG) (PI) (PI) (SG) (SG) (PI)
                 (PI) (DLTA) (DLTA) (SG) (SG) (DLTA) (DLTA) (PI)
                 (PI) (SG)
 Beta  Orbitals:
       Occupied  (SG) (SG) (SG) (SG) (SG) (PI) (PI) (PI) (PI)
       Virtual   (SG) (SG) (SG) (PI) (PI) (SG) (PI) (PI) (SG) (SG)
                 (PI) (PI) (DLTA) (DLTA) (SG) (SG) (DLTA) (DLTA)
                 (PI) (PI) (SG)
 The electronic state of the initial guess is 2-SG.
 Initial guess <Sx>= 0.0000 <Sy>= 0.0000 <Sz>= 0.5000 <S**2>= 0.7823 S= 0.5160
 Generating alternative initial guess.
 ExpMin= 1.61D-01 ExpMax= 7.00D+03 ExpMxC= 1.05D+03 IAcc=2 IRadAn=         4 AccDes= 0.00D+00
 Harris functional with IExCor=  402 and IRadAn=       4 diagonalized for initial guess.
 HarFok:  IExCor=  402 AccDes= 0.00D+00 IRadAn=         4 IDoV= 1 UseB2=F ITyADJ=14
 ICtDFT=  3500011 ScaDFX=  1.000000  1.000000  1.000000  1.000000
 FoFCou: FMM=F IPFlag=           0 FMFlag=      100000 FMFlg1=           0
         NFxFlg=           0 DoJE=T BraDBF=F KetDBF=T FulRan=T
         wScrn=  0.000000 ICntrl=       500 IOpCl=  0 I1Cent=   200000004 NGrid=           0
         NMat0=    1 NMatS0=      1 NMatT0=    0 NMatD0=    1 NMtDS0=    0 NMtDT0=    0
 Petite list used in FoFCou.
 Harris En= -199.994408566742    
 Leave Link  401 at Tue Oct  6 16:30:34 2020, MaxMem=  2684354560 cpu:               4.0 elap:               0.6
 (Enter /udrive/faculty/rpeverati/g16/g16/l502.exe)
 Keep R1 and R2 ints in memory in symmetry-blocked form, NReq=10459988.
 FoFCou: FMM=F IPFlag=           0 FMFlag=           0 FMFlg1=           0
         NFxFlg=           0 DoJE=F BraDBF=F KetDBF=F FulRan=T
         wScrn=  0.000000 ICntrl=       600 IOpCl=  0 I1Cent=           0 NGrid=           0
         NMat0=    1 NMatS0=    465 NMatT0=    0 NMatD0=    1 NMtDS0=    0 NMtDT0=    0
 Petite list used in FoFCou.
 UHF open shell SCF:
 Using DIIS extrapolation, IDIIS=  1040.
 NGot=  2684354560 LenX=  2684288269 LenY=  2684286804
 Requested convergence on RMS density matrix=1.00D-08 within 120 cycles.
 Requested convergence on MAX density matrix=1.00D-06.
 Requested convergence on             energy=1.00D-06.
 No special actions if energy rises.
 Integral accuracy reduced to 1.0D-05 until final iterations.

 Cycle   1  Pass 0  IDiag  1:
 E= -200.000970061141    
 DIIS: error= 2.12D-03 at cycle   1 NSaved=   1.
 NSaved= 1 IEnMin= 1 EnMin= -200.000970061141     IErMin= 1 ErrMin= 2.12D-03
 ErrMax= 2.12D-03  0.00D+00 EMaxC= 1.00D-01 BMatC= 3.56D-04 BMatP= 3.56D-04
 IDIUse=3 WtCom= 9.79D-01 WtEn= 2.12D-02
 Coeff-Com:  0.100D+01
 Coeff-En:   0.100D+01
 Coeff:      0.100D+01
 Gap=     0.216 Goal=   None    Shift=    0.000
 Gap=     0.202 Goal=   None    Shift=    0.000
 GapD=    0.202 DampG=1.000 DampE=1.000 DampFc=1.0000 IDamp=-1.
 RMSDP=9.37D-04 MaxDP=1.33D-02              OVMax= 3.00D-02

 Cycle   2  Pass 0  IDiag  1:
 E= -200.001295029431     Delta-E=       -0.000324968290 Rises=F Damp=F
 DIIS: error= 1.44D-03 at cycle   2 NSaved=   2.
 NSaved= 2 IEnMin= 2 EnMin= -200.001295029431     IErMin= 2 ErrMin= 1.44D-03
 ErrMax= 1.44D-03  0.00D+00 EMaxC= 1.00D-01 BMatC= 2.21D-04 BMatP= 3.56D-04
 IDIUse=3 WtCom= 9.86D-01 WtEn= 1.44D-02
 Coeff-Com:  0.353D+00 0.647D+00
 Coeff-En:   0.000D+00 0.100D+01
 Coeff:      0.348D+00 0.652D+00
 Gap=     0.213 Goal=   None    Shift=    0.000
 Gap=     0.204 Goal=   None    Shift=    0.000
 RMSDP=2.14D-04 MaxDP=2.77D-03 DE=-3.25D-04 OVMax= 4.98D-03

 Cycle   3  Pass 0  IDiag  1:
 E= -200.001342972318     Delta-E=       -0.000047942886 Rises=F Damp=F
 DIIS: error= 6.83D-04 at cycle   3 NSaved=   3.
 NSaved= 3 IEnMin= 3 EnMin= -200.001342972318     IErMin= 3 ErrMin= 6.83D-04
 ErrMax= 6.83D-04  0.00D+00 EMaxC= 1.00D-01 BMatC= 7.02D-05 BMatP= 2.21D-04
 IDIUse=3 WtCom= 9.93D-01 WtEn= 6.83D-03
 Coeff-Com: -0.109D+00 0.372D+00 0.737D+00
 Coeff-En:   0.000D+00 0.000D+00 0.100D+01
 Coeff:     -0.108D+00 0.369D+00 0.739D+00
 Gap=     0.213 Goal=   None    Shift=    0.000
 Gap=     0.205 Goal=   None    Shift=    0.000
 RMSDP=1.86D-04 MaxDP=2.57D-03 DE=-4.79D-05 OVMax= 5.80D-03

 Cycle   4  Pass 0  IDiag  1:
 E= -200.001368499431     Delta-E=       -0.000025527113 Rises=F Damp=F
 DIIS: error= 5.14D-04 at cycle   4 NSaved=   4.
 NSaved= 4 IEnMin= 4 EnMin= -200.001368499431     IErMin= 4 ErrMin= 5.14D-04
 ErrMax= 5.14D-04  0.00D+00 EMaxC= 1.00D-01 BMatC= 2.40D-05 BMatP= 7.02D-05
 IDIUse=3 WtCom= 9.95D-01 WtEn= 5.14D-03
 Coeff-Com: -0.519D-01 0.164D+00 0.435D+00 0.453D+00
 Coeff-En:   0.000D+00 0.000D+00 0.000D+00 0.100D+01
 Coeff:     -0.516D-01 0.163D+00 0.432D+00 0.456D+00
 Gap=     0.213 Goal=   None    Shift=    0.000
 Gap=     0.205 Goal=   None    Shift=    0.000
 RMSDP=8.47D-05 MaxDP=1.58D-03 DE=-2.55D-05 OVMax= 2.17D-03

 Cycle   5  Pass 0  IDiag  1:
 E= -200.001374614377     Delta-E=       -0.000006114947 Rises=F Damp=F
 DIIS: error= 2.19D-04 at cycle   5 NSaved=   5.
 NSaved= 5 IEnMin= 5 EnMin= -200.001374614377     IErMin= 5 ErrMin= 2.19D-04
 ErrMax= 2.19D-04  0.00D+00 EMaxC= 1.00D-01 BMatC= 6.69D-06 BMatP= 2.40D-05
 IDIUse=3 WtCom= 9.98D-01 WtEn= 2.19D-03
 Coeff-Com:  0.144D-01-0.158D+00-0.194D+00 0.332D+00 0.100D+01
 Coeff-En:   0.000D+00 0.000D+00 0.000D+00 0.000D+00 0.100D+01
 Coeff:      0.144D-01-0.157D+00-0.193D+00 0.331D+00 0.100D+01
 Gap=     0.213 Goal=   None    Shift=    0.000
 Gap=     0.205 Goal=   None    Shift=    0.000
 RMSDP=9.55D-05 MaxDP=1.37D-03 DE=-6.11D-06 OVMax= 2.85D-03

 Cycle   6  Pass 0  IDiag  1:
 E= -200.001380251982     Delta-E=       -0.000005637605 Rises=F Damp=F
 DIIS: error= 8.17D-05 at cycle   6 NSaved=   6.
 NSaved= 6 IEnMin= 6 EnMin= -200.001380251982     IErMin= 6 ErrMin= 8.17D-05
 ErrMax= 8.17D-05  0.00D+00 EMaxC= 1.00D-01 BMatC= 6.09D-07 BMatP= 6.69D-06
 IDIUse=1 WtCom= 1.00D+00 WtEn= 0.00D+00
 Coeff-Com:  0.895D-02 0.757D-02-0.887D-03-0.137D+00-0.510D+00 0.163D+01
 Coeff:      0.895D-02 0.757D-02-0.887D-03-0.137D+00-0.510D+00 0.163D+01
 Gap=     0.213 Goal=   None    Shift=    0.000
 Gap=     0.205 Goal=   None    Shift=    0.000
 RMSDP=5.98D-05 MaxDP=9.03D-04 DE=-5.64D-06 OVMax= 1.75D-03

 Cycle   7  Pass 0  IDiag  1:
 E= -200.001381441454     Delta-E=       -0.000001189471 Rises=F Damp=F
 DIIS: error= 2.98D-05 at cycle   7 NSaved=   7.
 NSaved= 7 IEnMin= 7 EnMin= -200.001381441454     IErMin= 7 ErrMin= 2.98D-05
 ErrMax= 2.98D-05  0.00D+00 EMaxC= 1.00D-01 BMatC= 8.85D-08 BMatP= 6.09D-07
 IDIUse=1 WtCom= 1.00D+00 WtEn= 0.00D+00
 Coeff-Com: -0.972D-03 0.204D-01 0.173D-01-0.675D-01-0.105D-01-0.128D+00
 Coeff-Com:  0.117D+01
 Coeff:     -0.972D-03 0.204D-01 0.173D-01-0.675D-01-0.105D-01-0.128D+00
 Coeff:      0.117D+01
 Gap=     0.213 Goal=   None    Shift=    0.000
 Gap=     0.205 Goal=   None    Shift=    0.000
 RMSDP=1.12D-05 MaxDP=1.87D-04 DE=-1.19D-06 OVMax= 3.00D-04

 Cycle   8  Pass 0  IDiag  1:
 E= -200.001381489670     Delta-E=       -0.000000048216 Rises=F Damp=F
 DIIS: error= 4.42D-06 at cycle   8 NSaved=   8.
 NSaved= 8 IEnMin= 8 EnMin= -200.001381489670     IErMin= 8 ErrMin= 4.42D-06
 ErrMax= 4.42D-06  0.00D+00 EMaxC= 1.00D-01 BMatC= 2.67D-09 BMatP= 8.85D-08
 IDIUse=1 WtCom= 1.00D+00 WtEn= 0.00D+00
 Coeff-Com: -0.811D-03 0.422D-02 0.414D-02-0.689D-02 0.319D-02-0.687D-01
 Coeff-Com:  0.252D+00 0.813D+00
 Coeff:     -0.811D-03 0.422D-02 0.414D-02-0.689D-02 0.319D-02-0.687D-01
 Coeff:      0.252D+00 0.813D+00
 Gap=     0.213 Goal=   None    Shift=    0.000
 Gap=     0.205 Goal=   None    Shift=    0.000
 RMSDP=9.49D-07 MaxDP=1.65D-05 DE=-4.82D-08 OVMax= 3.26D-05

 Initial convergence to 1.0D-05 achieved.  Increase integral accuracy.
 Cycle   9  Pass 1  IDiag  1:
 E= -200.001294105362     Delta-E=        0.000087384308 Rises=F Damp=F
 DIIS: error= 3.72D-06 at cycle   1 NSaved=   1.
 NSaved= 1 IEnMin= 1 EnMin= -200.001294105362     IErMin= 1 ErrMin= 3.72D-06
 ErrMax= 3.72D-06  0.00D+00 EMaxC= 1.00D-01 BMatC= 1.20D-09 BMatP= 1.20D-09
 IDIUse=1 WtCom= 1.00D+00 WtEn= 0.00D+00
 Coeff-Com:  0.100D+01
 Coeff:      0.100D+01
 Gap=     0.213 Goal=   None    Shift=    0.000
 Gap=     0.205 Goal=   None    Shift=    0.000
 RMSDP=9.49D-07 MaxDP=1.65D-05 DE= 8.74D-05 OVMax= 5.84D-06

 Cycle  10  Pass 1  IDiag  1:
 E= -200.001294105517     Delta-E=       -0.000000000155 Rises=F Damp=F
 DIIS: error= 2.29D-06 at cycle   2 NSaved=   2.
 NSaved= 2 IEnMin= 2 EnMin= -200.001294105517     IErMin= 2 ErrMin= 2.29D-06
 ErrMax= 2.29D-06  0.00D+00 EMaxC= 1.00D-01 BMatC= 6.72D-10 BMatP= 1.20D-09
 IDIUse=1 WtCom= 1.00D+00 WtEn= 0.00D+00
 Coeff-Com:  0.416D+00 0.584D+00
 Coeff:      0.416D+00 0.584D+00
 Gap=     0.213 Goal=   None    Shift=    0.000
 Gap=     0.205 Goal=   None    Shift=    0.000
 RMSDP=4.04D-07 MaxDP=5.06D-06 DE=-1.55D-10 OVMax= 1.04D-05

 Cycle  11  Pass 1  IDiag  1:
 E= -200.001294105600     Delta-E=       -0.000000000083 Rises=F Damp=F
 DIIS: error= 1.02D-06 at cycle   3 NSaved=   3.
 NSaved= 3 IEnMin= 3 EnMin= -200.001294105600     IErMin= 3 ErrMin= 1.02D-06
 ErrMax= 1.02D-06  0.00D+00 EMaxC= 1.00D-01 BMatC= 1.41D-10 BMatP= 6.72D-10
 IDIUse=1 WtCom= 1.00D+00 WtEn= 0.00D+00
 Coeff-Com:  0.540D-01 0.319D+00 0.627D+00
 Coeff:      0.540D-01 0.319D+00 0.627D+00
 Gap=     0.213 Goal=   None    Shift=    0.000
 Gap=     0.205 Goal=   None    Shift=    0.000
 RMSDP=2.10D-07 MaxDP=3.19D-06 DE=-8.32D-11 OVMax= 5.18D-06

 Cycle  12  Pass 1  IDiag  1:
 E= -200.001294105618     Delta-E=       -0.000000000018 Rises=F Damp=F
 DIIS: error= 6.69D-07 at cycle   4 NSaved=   4.
 NSaved= 4 IEnMin= 4 EnMin= -200.001294105618     IErMin= 4 ErrMin= 6.69D-07
 ErrMax= 6.69D-07  0.00D+00 EMaxC= 1.00D-01 BMatC= 6.48D-11 BMatP= 1.41D-10
 IDIUse=1 WtCom= 1.00D+00 WtEn= 0.00D+00
 Coeff-Com: -0.111D-01 0.150D+00 0.473D+00 0.388D+00
 Coeff:     -0.111D-01 0.150D+00 0.473D+00 0.388D+00
 Gap=     0.213 Goal=   None    Shift=    0.000
 Gap=     0.205 Goal=   None    Shift=    0.000
 RMSDP=6.74D-08 MaxDP=1.17D-06 DE=-1.83D-11 OVMax= 1.93D-06

 Cycle  13  Pass 1  IDiag  1:
 E= -200.001294105629     Delta-E=       -0.000000000011 Rises=F Damp=F
 DIIS: error= 9.75D-08 at cycle   5 NSaved=   5.
 NSaved= 5 IEnMin= 5 EnMin= -200.001294105629     IErMin= 5 ErrMin= 9.75D-08
 ErrMax= 9.75D-08  0.00D+00 EMaxC= 1.00D-01 BMatC= 1.38D-12 BMatP= 6.48D-11
 IDIUse=1 WtCom= 1.00D+00 WtEn= 0.00D+00
 Coeff-Com: -0.782D-02 0.143D-02 0.107D+00 0.982D-01 0.801D+00
 Coeff:     -0.782D-02 0.143D-02 0.107D+00 0.982D-01 0.801D+00
 Gap=     0.213 Goal=   None    Shift=    0.000
 Gap=     0.205 Goal=   None    Shift=    0.000
 RMSDP=2.22D-08 MaxDP=2.94D-07 DE=-1.11D-11 OVMax= 6.56D-07

 Cycle  14  Pass 1  IDiag  1:
 E= -200.001294105630     Delta-E=       -0.000000000001 Rises=F Damp=F
 DIIS: error= 4.06D-08 at cycle   6 NSaved=   6.
 NSaved= 6 IEnMin= 6 EnMin= -200.001294105630     IErMin= 6 ErrMin= 4.06D-08
 ErrMax= 4.06D-08  0.00D+00 EMaxC= 1.00D-01 BMatC= 1.60D-13 BMatP= 1.38D-12
 IDIUse=1 WtCom= 1.00D+00 WtEn= 0.00D+00
 Coeff-Com:  0.362D-02-0.236D-01-0.973D-01-0.660D-01-0.250D+00 0.143D+01
 Coeff:      0.362D-02-0.236D-01-0.973D-01-0.660D-01-0.250D+00 0.143D+01
 Gap=     0.213 Goal=   None    Shift=    0.000
 Gap=     0.205 Goal=   None    Shift=    0.000
 RMSDP=2.38D-08 MaxDP=3.56D-07 DE=-9.38D-13 OVMax= 6.22D-07

 Cycle  15  Pass 1  IDiag  1:
 E= -200.001294105630     Delta-E=       -0.000000000000 Rises=F Damp=F
 DIIS: error= 2.10D-08 at cycle   7 NSaved=   7.
 NSaved= 7 IEnMin= 7 EnMin= -200.001294105630     IErMin= 7 ErrMin= 2.10D-08
 ErrMax= 2.10D-08  0.00D+00 EMaxC= 1.00D-01 BMatC= 3.23D-14 BMatP= 1.60D-13
 IDIUse=1 WtCom= 1.00D+00 WtEn= 0.00D+00
 Coeff-Com:  0.155D-02 0.112D-03-0.276D-01-0.194D-01-0.206D+00-0.845D-01
 Coeff-Com:  0.134D+01
 Coeff:      0.155D-02 0.112D-03-0.276D-01-0.194D-01-0.206D+00-0.845D-01
 Coeff:      0.134D+01
 Gap=     0.213 Goal=   None    Shift=    0.000
 Gap=     0.205 Goal=   None    Shift=    0.000
 RMSDP=1.50D-08 MaxDP=2.46D-07 DE=-2.84D-13 OVMax= 3.68D-07

 Cycle  16  Pass 1  IDiag  1:
 E= -200.001294105631     Delta-E=       -0.000000000000 Rises=F Damp=F
 DIIS: error= 4.63D-09 at cycle   8 NSaved=   8.
 NSaved= 8 IEnMin= 8 EnMin= -200.001294105631     IErMin= 8 ErrMin= 4.63D-09
 ErrMax= 4.63D-09  0.00D+00 EMaxC= 1.00D-01 BMatC= 2.86D-15 BMatP= 3.23D-14
 IDIUse=1 WtCom= 1.00D+00 WtEn= 0.00D+00
 Coeff-Com: -0.194D-03 0.245D-02 0.119D-01 0.502D-02 0.145D-01-0.116D+00
 Coeff-Com:  0.166D-01 0.107D+01
 Coeff:     -0.194D-03 0.245D-02 0.119D-01 0.502D-02 0.145D-01-0.116D+00
 Coeff:      0.166D-01 0.107D+01
 Gap=     0.213 Goal=   None    Shift=    0.000
 Gap=     0.205 Goal=   None    Shift=    0.000
 RMSDP=1.75D-09 MaxDP=2.73D-08 DE=-1.71D-13 OVMax= 5.48D-08

 SCF Done:  E(UB3LYP) =  -200.001294106     A.U. after   16 cycles
            NFock= 16  Conv=0.18D-08     -V/T= 2.0045
 <Sx>= 0.0000 <Sy>= 0.0000 <Sz>= 0.5000 <S**2>= 0.7768 S= 0.5133
 <L.S>= 0.000000000000E+00
 KE= 1.991144515736D+02 PE=-5.452074548826D+02 EE= 1.126313401258D+02
 Annihilation of the first spin contaminant:
 S**2 before annihilation     0.7768,   after     0.7500
 Leave Link  502 at Tue Oct  6 16:30:36 2020, MaxMem=  2684354560 cpu:              18.8 elap:               2.1
 (Enter /udrive/faculty/rpeverati/g16/g16/l508.exe)
 QCSCF skips out because SCF is already converged.
 Leave Link  508 at Tue Oct  6 16:30:37 2020, MaxMem=  2684354560 cpu:               0.7 elap:               0.3
 (Enter /udrive/faculty/rpeverati/g16/g16/l701.exe)
 ... and contract with generalized density number  0.
 Compute integral first derivatives.
 Leave Link  701 at Tue Oct  6 16:30:38 2020, MaxMem=  2684354560 cpu:               2.9 elap:               0.6
 (Enter /udrive/faculty/rpeverati/g16/g16/l702.exe)
 L702 exits ... SP integral derivatives will be done elsewhere.
 Leave Link  702 at Tue Oct  6 16:30:38 2020, MaxMem=  2684354560 cpu:               1.0 elap:               0.4
 (Enter /udrive/faculty/rpeverati/g16/g16/l703.exe)
 Integral derivatives from FoFJK, PRISM(SPDF).
 Compute integral first derivatives, UseDBF=F ICtDFT=           0.
 Calling FoFJK, ICntrl=      2127 FMM=F ISym2X=1 I1Cent= 0 IOpClX= 1 NMat=1 NMatS=1 NMatT=0.
 FoFJK:  IHMeth= 1 ICntrl=    2127 DoSepK=F KAlg= 0 I1Cent=           0 FoldK=F
 IRaf=         0 NMat=       1 IRICut=       1 DoRegI=T DoRafI=F ISym2E= 1 IDoP0=0 IntGTp=1.
 FoFCou: FMM=F IPFlag=           0 FMFlag=      100000 FMFlg1=         800
         NFxFlg=           0 DoJE=F BraDBF=F KetDBF=F FulRan=T
         wScrn=  0.000000 ICntrl=      2127 IOpCl=  1 I1Cent=           0 NGrid=           0
         NMat0=    1 NMatS0=      1 NMatT0=    0 NMatD0=    1 NMtDS0=    0 NMtDT0=    0
 Petite list used in FoFCou.
 Leave Link  703 at Tue Oct  6 16:30:39 2020, MaxMem=  2684354560 cpu:               3.8 elap:               0.7
 (Enter /udrive/faculty/rpeverati/g16/g16/l716.exe)
 Dipole        = 0.00000000D+00-2.94861204D-32-5.50381374D-01
 ***** Axes restored to original set *****
 -------------------------------------------------------------------
 Center     Atomic                   Forces (Hartrees/Bohr)
 Number     Number              X              Y              Z
 -------------------------------------------------------------------
      1        1          -0.000000000   -0.000000000    0.013242226
      2        9           0.000000000    0.000000000   -0.033584268
      3        9          -0.000000000   -0.000000000    0.020342042
 -------------------------------------------------------------------
 Cartesian Forces:  Max     0.033584268 RMS     0.013812467
 Leave Link  716 at Tue Oct  6 16:30:40 2020, MaxMem=  2684354560 cpu:               1.1 elap:               0.4
 (Enter /udrive/faculty/rpeverati/g16/g16/l103.exe)

 GradGradGradGradGradGradGradGradGradGradGradGradGradGradGradGradGradGrad
 Berny optimization.
 Optmz: redundant internal coordinate code flag= 1
 Red2BG:  D1=  6.87D-01 OD1=  3.33D-16 B2RMS=  0.00D+00 IAprox=1
 Red2BG is reusing G-inverse.
 Internal  Forces:  Max     0.020342042 RMS     0.012136260
 Search for a saddle point.
 Step number   2 out of a maximum of   50
 All quantities printed in internal units (Hartrees-Bohrs-Radians)
 Swapping is turned off.
 Update second derivatives using D2CorX and points    1    2
 The second derivative matrix:
                          R1        R2        A1        A2
           R1          -0.03176
           R2           0.10134   0.16585
           A1           0.00000   0.00000   0.00251
           A2           0.00000   0.00000   0.00000   0.00251
 ITU=  0  0
 Eigenvectors of the second derivative matrix:
                           1         2         3         4
     Eigenvalues --    -0.07449   0.00251   0.00251   0.20858
   1         R1        -0.92144  -0.00000  -0.00000  -0.38853
   2         R2         0.38853  -0.00000  -0.00000  -0.92144
   3         A1        -0.00000  -0.00086   1.00000  -0.00000
   4         A2        -0.00000   1.00000   0.00086  -0.00000
 RLam0= 5.08D-03.
 Iter=   1 RLamda= 0.00000000D+00 Sum=-8.86608545D-04.
 Iter=   2 RLamda=-8.86608545D-04 Sum=-8.82855868D-04.
 Iter=   3 RLamda=-8.82855868D-04 Sum=-8.82871685D-04.
 Iter=   4 RLamda=-8.82871685D-04 Sum=-8.82871618D-04.
 RFO step:  Lambda0=5.080248580D-03 Lambda=-8.82871685D-04.
 Linear search not attempted -- option 19 set.
 Maximum step size (   0.100) exceeded in Quadratic search.
    -- Step size scaled by   0.383
 Iteration  1 RMS(Cart)=  0.03774016 RMS(Int)=  0.00000000
 Iteration  2 RMS(Cart)=  0.00000000 RMS(Int)=  0.00000000
 ITry= 1 IFail=0 DXMaxC= 6.10D-02 DCOld= 1.00D+10 DXMaxT= 1.00D-01 DXLimC= 3.00D+00 Rises=F
 ClnCor:  largest displacement from symmetrization is 3.36D-12 for atom     2.
 Variable       Old X    -DE/DX   Delta X   Delta X   Delta X     New X
                                 (Linear)    (Quad)   (Total)
    R1        3.15120  -0.01324   0.00000   0.09891   0.09891   3.25011
    R2        2.78464   0.02034   0.00000  -0.01470  -0.01470   2.76994
    A1        3.14159  -0.00000   0.00000   0.00000   0.00000   3.14159
    A2        3.14159   0.00000   0.00000   0.00000   0.00000   3.14159
         Item               Value     Threshold  Converged?
 Maximum Force            0.020342     0.000450     NO 
 RMS     Force            0.012136     0.000300     NO 
 Maximum Displacement     0.061042     0.001800     NO 
 RMS     Displacement     0.037740     0.001200     NO 
 Predicted change in Energy= 1.324085D-03
 Largest change from initial coordinates is atom    1       0.011 Angstoms.
 GradGradGradGradGradGradGradGradGradGradGradGradGradGradGradGradGradGrad

 Leave Link  103 at Tue Oct  6 16:30:41 2020, MaxMem=  2684354560 cpu:               1.9 elap:               0.5
 (Enter /udrive/faculty/rpeverati/g16/g16/l202.exe)
                          Input orientation:                          
 ---------------------------------------------------------------------
 Center     Atomic      Atomic             Coordinates (Angstroms)
 Number     Number       Type             X           Y           Z
 ---------------------------------------------------------------------
      1          1           0        0.000000    0.000000   -2.296305
      2          9           0        0.000000    0.000000   -0.576421
      3          9           0        0.000000    0.000000    0.889370
 ---------------------------------------------------------------------
                    Distance matrix (angstroms):
                    1          2          3
     1  H    0.000000
     2  F    1.719884   0.000000
     3  F    3.185675   1.465791   0.000000
 Stoichiometry    F2H(2)
 Framework group  C*V[C*(HFF)]
 Deg. of freedom     2
 Full point group                 C*V     NOp   4
 RotChk:  IX=0 Diff= 0.00D+00
 Largest Abelian subgroup         C2V     NOp   4
 Largest concise Abelian subgroup C1      NOp   1
                         Standard orientation:                         
 ---------------------------------------------------------------------
 Center     Atomic      Atomic             Coordinates (Angstroms)
 Number     Number       Type             X           Y           Z
 ---------------------------------------------------------------------
      1          1           0        0.000000    0.000000   -2.323685
      2          9           0        0.000000    0.000000   -0.603802
      3          9           0        0.000000    0.000000    0.861989
 ---------------------------------------------------------------------
 Rotational constants (GHZ):           0.0000000          19.2042596          19.2042596
 Leave Link  202 at Tue Oct  6 16:30:42 2020, MaxMem=  2684354560 cpu:               1.3 elap:               0.5
 (Enter /udrive/faculty/rpeverati/g16/g16/l301.exe)
 Standard basis: 6-31G(d) (5D, 7F)
 Ernie: Thresh=  0.10000D-02 Tol=  0.10000D-05 Strict=F.
 There are    18 symmetry adapted cartesian basis functions of A1  symmetry.
 There are     2 symmetry adapted cartesian basis functions of A2  symmetry.
 There are     6 symmetry adapted cartesian basis functions of B1  symmetry.
 There are     6 symmetry adapted cartesian basis functions of B2  symmetry.
 There are    16 symmetry adapted basis functions of A1  symmetry.
 There are     2 symmetry adapted basis functions of A2  symmetry.
 There are     6 symmetry adapted basis functions of B1  symmetry.
 There are     6 symmetry adapted basis functions of B2  symmetry.
    30 basis functions,    60 primitive gaussians,    32 cartesian basis functions
    10 alpha electrons        9 beta electrons
       nuclear repulsion energy        33.5066130917 Hartrees.
 IExCor=  402 DFT=T Ex+Corr=B3LYP ExCW=0 ScaHFX=  0.200000
 ScaDFX=  0.800000  0.720000  1.000000  0.810000 ScalE2=  1.000000  1.000000
 IRadAn=      5 IRanWt=     -1 IRanGd=            0 ICorTp=0 IEmpDi=  4
 NAtoms=    3 NActive=    3 NUniq=    3 SFac= 1.00D+00 NAtFMM=   60 NAOKFM=F Big=F
 Integral buffers will be    131072 words long.
 Raffenetti 2 integral format.
 Two-electron integral symmetry is turned on.
 Leave Link  301 at Tue Oct  6 16:30:42 2020, MaxMem=  2684354560 cpu:               2.2 elap:               0.7
 (Enter /udrive/faculty/rpeverati/g16/g16/l302.exe)
 NPDir=0 NMtPBC=     1 NCelOv=     1 NCel=       1 NClECP=     1 NCelD=      1
         NCelK=      1 NCelE2=     1 NClLst=     1 CellRange=     0.0.
 One-electron integrals computed using PRISM.
 One-electron integral symmetry used in STVInt
 NBasis=    30 RedAO= T EigKep=  3.72D-02  NBF=    16     2     6     6
 NBsUse=    30 1.00D-06 EigRej= -1.00D+00 NBFU=    16     2     6     6
 Precomputing XC quadrature grid using
 IXCGrd= 4 IRadAn=           5 IRanWt=          -1 IRanGd=           0 AccXCQ= 0.00D+00.
 Generated NRdTot=       0 NPtTot=           0 NUsed=           0 NTot=          32
 NSgBfM=    32    32    32    32    32 MxSgAt=     3 MxSgA2=     3.
 Leave Link  302 at Tue Oct  6 16:30:43 2020, MaxMem=  2684354560 cpu:               3.1 elap:               0.6
 (Enter /udrive/faculty/rpeverati/g16/g16/l303.exe)
 DipDrv:  MaxL=1.
 Leave Link  303 at Tue Oct  6 16:30:44 2020, MaxMem=  2684354560 cpu:               1.3 elap:               0.5
 (Enter /udrive/faculty/rpeverati/g16/g16/l401.exe)
 Initial guess from the checkpoint file:  "MN_52_hf2ts_BH76_B3LYP_631Gs.chk"
 SCF N**3 symmetry information disabled.
 B after Tr=     0.000000    0.000000    0.000000
         Rot=    1.000000    0.000000    0.000000    0.000000 Ang=   0.00 deg.
 Guess basis will be translated and rotated to current coordinates.
 JPrj=2 DoOrth=T DoCkMO=T.
 Initial guess orbital symmetries:
 Alpha Orbitals:
       Occupied  (SG) (SG) (SG) (SG) (SG) (PI) (PI) (PI) (PI) (SG)
       Virtual   (SG) (SG) (PI) (PI) (SG) (PI) (PI) (SG) (SG) (PI)
                 (PI) (DLTA) (DLTA) (SG) (SG) (DLTA) (DLTA) (PI)
                 (PI) (SG)
 Beta  Orbitals:
       Occupied  (SG) (SG) (SG) (SG) (SG) (PI) (PI) (PI) (PI)
       Virtual   (SG) (SG) (SG) (PI) (PI) (SG) (PI) (PI) (SG) (SG)
                 (PI) (PI) (DLTA) (DLTA) (SG) (SG) (DLTA) (DLTA)
                 (PI) (PI) (SG)
 The electronic state of the initial guess is 2-SG.
 Initial guess <Sx>= 0.0000 <Sy>= 0.0000 <Sz>= 0.5000 <S**2>= 0.7770 S= 0.5134
 Generating alternative initial guess.
 ExpMin= 1.61D-01 ExpMax= 7.00D+03 ExpMxC= 1.05D+03 IAcc=2 IRadAn=         4 AccDes= 0.00D+00
 Harris functional with IExCor=  402 and IRadAn=       4 diagonalized for initial guess.
 HarFok:  IExCor=  402 AccDes= 0.00D+00 IRadAn=         4 IDoV= 1 UseB2=F ITyADJ=14
 ICtDFT=  3500011 ScaDFX=  1.000000  1.000000  1.000000  1.000000
 FoFCou: FMM=F IPFlag=           0 FMFlag=      100000 FMFlg1=           0
         NFxFlg=           0 DoJE=T BraDBF=F KetDBF=T FulRan=T
         wScrn=  0.000000 ICntrl=       500 IOpCl=  0 I1Cent=   200000004 NGrid=           0
         NMat0=    1 NMatS0=      1 NMatT0=    0 NMatD0=    1 NMtDS0=    0 NMtDT0=    0
 Petite list used in FoFCou.
 Harris En= -199.990419358907    
 Leave Link  401 at Tue Oct  6 16:30:45 2020, MaxMem=  2684354560 cpu:               4.6 elap:               0.8
 (Enter /udrive/faculty/rpeverati/g16/g16/l502.exe)
 Keep R1 and R2 ints in memory in symmetry-blocked form, NReq=10459988.
 FoFCou: FMM=F IPFlag=           0 FMFlag=           0 FMFlg1=           0
         NFxFlg=           0 DoJE=F BraDBF=F KetDBF=F FulRan=T
         wScrn=  0.000000 ICntrl=       600 IOpCl=  0 I1Cent=           0 NGrid=           0
         NMat0=    1 NMatS0=    465 NMatT0=    0 NMatD0=    1 NMtDS0=    0 NMtDT0=    0
 Petite list used in FoFCou.
 UHF open shell SCF:
 Using DIIS extrapolation, IDIIS=  1040.
 NGot=  2684354560 LenX=  2684288269 LenY=  2684286804
 Requested convergence on RMS density matrix=1.00D-08 within 120 cycles.
 Requested convergence on MAX density matrix=1.00D-06.
 Requested convergence on             energy=1.00D-06.
 No special actions if energy rises.
 Integral accuracy reduced to 1.0D-05 until final iterations.

 Cycle   1  Pass 0  IDiag  1:
 E= -199.999637118427    
 DIIS: error= 1.88D-03 at cycle   1 NSaved=   1.
 NSaved= 1 IEnMin= 1 EnMin= -199.999637118427     IErMin= 1 ErrMin= 1.88D-03
 ErrMax= 1.88D-03  0.00D+00 EMaxC= 1.00D-01 BMatC= 3.21D-04 BMatP= 3.21D-04
 IDIUse=3 WtCom= 9.81D-01 WtEn= 1.88D-02
 Coeff-Com:  0.100D+01
 Coeff-En:   0.100D+01
 Coeff:      0.100D+01
 Gap=     0.213 Goal=   None    Shift=    0.000
 Gap=     0.208 Goal=   None    Shift=    0.000
 GapD=    0.208 DampG=1.000 DampE=1.000 DampFc=1.0000 IDamp=-1.
 RMSDP=8.89D-04 MaxDP=1.19D-02              OVMax= 2.88D-02

 Cycle   2  Pass 0  IDiag  1:
 E= -199.999930272606     Delta-E=       -0.000293154180 Rises=F Damp=F
 DIIS: error= 1.24D-03 at cycle   2 NSaved=   2.
 NSaved= 2 IEnMin= 2 EnMin= -199.999930272606     IErMin= 2 ErrMin= 1.24D-03
 ErrMax= 1.24D-03  0.00D+00 EMaxC= 1.00D-01 BMatC= 1.68D-04 BMatP= 3.21D-04
 IDIUse=3 WtCom= 9.88D-01 WtEn= 1.24D-02
 Coeff-Com:  0.297D+00 0.703D+00
 Coeff-En:   0.000D+00 0.100D+01
 Coeff:      0.294D+00 0.706D+00
 Gap=     0.209 Goal=   None    Shift=    0.000
 Gap=     0.210 Goal=   None    Shift=    0.000
 RMSDP=2.01D-04 MaxDP=2.67D-03 DE=-2.93D-04 OVMax= 4.54D-03

 Cycle   3  Pass 0  IDiag  1:
 E= -199.999967896422     Delta-E=       -0.000037623815 Rises=F Damp=F
 DIIS: error= 6.97D-04 at cycle   3 NSaved=   3.
 NSaved= 3 IEnMin= 3 EnMin= -199.999967896422     IErMin= 3 ErrMin= 6.97D-04
 ErrMax= 6.97D-04  0.00D+00 EMaxC= 1.00D-01 BMatC= 6.85D-05 BMatP= 1.68D-04
 IDIUse=3 WtCom= 9.93D-01 WtEn= 6.97D-03
 Coeff-Com: -0.989D-01 0.409D+00 0.690D+00
 Coeff-En:   0.000D+00 0.000D+00 0.100D+01
 Coeff:     -0.982D-01 0.407D+00 0.692D+00
 Gap=     0.209 Goal=   None    Shift=    0.000
 Gap=     0.211 Goal=   None    Shift=    0.000
 RMSDP=1.66D-04 MaxDP=2.41D-03 DE=-3.76D-05 OVMax= 5.12D-03

 Cycle   4  Pass 0  IDiag  1:
 E= -199.999989833846     Delta-E=       -0.000021937424 Rises=F Damp=F
 DIIS: error= 5.16D-04 at cycle   4 NSaved=   4.
 NSaved= 4 IEnMin= 4 EnMin= -199.999989833846     IErMin= 4 ErrMin= 5.16D-04
 ErrMax= 5.16D-04  0.00D+00 EMaxC= 1.00D-01 BMatC= 2.21D-05 BMatP= 6.85D-05
 IDIUse=3 WtCom= 9.95D-01 WtEn= 5.16D-03
 Coeff-Com: -0.451D-01 0.184D+00 0.415D+00 0.447D+00
 Coeff-En:   0.000D+00 0.000D+00 0.000D+00 0.100D+01
 Coeff:     -0.448D-01 0.183D+00 0.413D+00 0.449D+00
 Gap=     0.210 Goal=   None    Shift=    0.000
 Gap=     0.210 Goal=   None    Shift=    0.000
 RMSDP=7.83D-05 MaxDP=1.49D-03 DE=-2.19D-05 OVMax= 1.93D-03

 Cycle   5  Pass 0  IDiag  1:
 E= -199.999995595016     Delta-E=       -0.000005761170 Rises=F Damp=F
 DIIS: error= 2.23D-04 at cycle   5 NSaved=   5.
 NSaved= 5 IEnMin= 5 EnMin= -199.999995595016     IErMin= 5 ErrMin= 2.23D-04
 ErrMax= 2.23D-04  0.00D+00 EMaxC= 1.00D-01 BMatC= 6.15D-06 BMatP= 2.21D-05
 IDIUse=3 WtCom= 9.98D-01 WtEn= 2.23D-03
 Coeff-Com:  0.180D-01-0.186D+00-0.203D+00 0.328D+00 0.104D+01
 Coeff-En:   0.000D+00 0.000D+00 0.000D+00 0.000D+00 0.100D+01
 Coeff:      0.179D-01-0.186D+00-0.202D+00 0.328D+00 0.104D+01
 Gap=     0.209 Goal=   None    Shift=    0.000
 Gap=     0.210 Goal=   None    Shift=    0.000
 RMSDP=9.81D-05 MaxDP=1.43D-03 DE=-5.76D-06 OVMax= 2.86D-03

 Cycle   6  Pass 0  IDiag  1:
 E= -200.000001425882     Delta-E=       -0.000005830866 Rises=F Damp=F
 DIIS: error= 8.78D-05 at cycle   6 NSaved=   6.
 NSaved= 6 IEnMin= 6 EnMin= -200.000001425882     IErMin= 6 ErrMin= 8.78D-05
 ErrMax= 8.78D-05  0.00D+00 EMaxC= 1.00D-01 BMatC= 6.58D-07 BMatP= 6.15D-06
 IDIUse=1 WtCom= 1.00D+00 WtEn= 0.00D+00
 Coeff-Com:  0.800D-02 0.436D-02-0.943D-02-0.136D+00-0.547D+00 0.168D+01
 Coeff:      0.800D-02 0.436D-02-0.943D-02-0.136D+00-0.547D+00 0.168D+01
 Gap=     0.209 Goal=   None    Shift=    0.000
 Gap=     0.210 Goal=   None    Shift=    0.000
 RMSDP=6.82D-05 MaxDP=1.04D-03 DE=-5.83D-06 OVMax= 1.98D-03

 Cycle   7  Pass 0  IDiag  1:
 E= -200.000002789155     Delta-E=       -0.000001363273 Rises=F Damp=F
 DIIS: error= 3.12D-05 at cycle   7 NSaved=   7.
 NSaved= 7 IEnMin= 7 EnMin= -200.000002789155     IErMin= 7 ErrMin= 3.12D-05
[...]
 FoFJK:  IHMeth= 1 ICntrl=  100127 DoSepK=F KAlg= 0 I1Cent=           0 FoldK=F
 IRaf=         0 NMat=       1 IRICut=       1 DoRegI=T DoRafI=F ISym2E= 1 IDoP0=0 IntGTp=1.
 FoFCou: FMM=F IPFlag=           0 FMFlag=      100000 FMFlg1=         800
         NFxFlg=           0 DoJE=F BraDBF=F KetDBF=F FulRan=T
         wScrn=  0.000000 ICntrl=    100127 IOpCl=  1 I1Cent=           0 NGrid=           0
         NMat0=    1 NMatS0=      1 NMatT0=    0 NMatD0=    1 NMtDS0=    0 NMtDT0=    0
 Petite list used in FoFCou.
 Leave Link  703 at Tue Oct  6 16:37:52 2020, MaxMem=  2684354560 cpu:               7.8 elap:               0.9
 (Enter /udrive/faculty/rpeverati/g16/g16/l716.exe)
 Dipole        = 0.00000000D+00 2.80182876D-32-1.00728005D-03
 Polarizability= 2.72904505D+00 8.51368161D-17 2.72904505D+00
                -1.11030164D-12 1.49763512D-12 9.89418169D+00
 Full mass-weighted force constant matrix:
 Low frequencies ---  -49.2483   -6.5251   -6.5251   -0.0014   -0.0014   -0.0009
 Low frequencies ---   15.8493   15.8493 1055.0371
 ******    1 imaginary frequencies (negative Signs) ****** 
 Diagonal vibrational polarizability:
        0.0015437       0.0015437       0.0508616
 Harmonic frequencies (cm**-1), IR intensities (KM/Mole), Raman scattering
 activities (A**4/AMU), depolarization ratios for plane and unpolarized
 incident light, reduced masses (AMU), force constants (mDyne/A),
 and normal coordinates:
                      1                      2                      3
                     SG                     PI                     PI
 Frequencies --    -49.2483                12.0527                12.0527
 Red. masses --      1.0331                 2.0103                 2.0103
 Frc consts  --      0.0015                 0.0002                 0.0002
 IR Inten    --      0.0046                 0.0000                 0.0000
  Atom  AN      X      Y      Z        X      Y      Z        X      Y      Z
     1   1    -0.00   0.00   1.00     0.97   0.00   0.00    -0.00   0.97  -0.00
     2   9     0.00  -0.00  -0.03    -0.19  -0.00  -0.00     0.00  -0.19   0.00
     3   9    -0.00   0.00  -0.03     0.14   0.00  -0.00    -0.00   0.14   0.00
                      4
                     SG
 Frequencies --   1055.0371
 Red. masses --     18.9982
 Frc consts  --     12.4594
 IR Inten    --      0.0020
  Atom  AN      X      Y      Z
     1   1     0.00   0.00  -0.00
     2   9    -0.00  -0.00  -0.71
     3   9     0.00   0.00   0.71

 -------------------
 - Thermochemistry -
 -------------------
 Temperature   298.150 Kelvin.  Pressure   1.00000 Atm.
 Atom     1 has atomic number  1 and mass   1.00783
 Atom     2 has atomic number  9 and mass  18.99840
 Atom     3 has atomic number  9 and mass  18.99840
 Molecular mass:    39.00463 amu.
 Principal axes and moments of inertia in atomic units:
                           1         2         3
     Eigenvalues --     0.00000 137.96261 137.96261
           X            0.00000   0.00000   1.00000
           Y            0.00000   1.00000   0.00000
           Z            1.00000   0.00000   0.00000
 This molecule is a prolate symmetric top.
 Rotational symmetry number  1.
 Rotational temperature (Kelvin)      0.62781
 Rotational constant (GHZ):          13.081379
    1 imaginary frequencies ignored.
 Zero-point vibrational energy       6454.7 (Joules/Mol)
                                    1.54271 (Kcal/Mol)
 Warning -- explicit consideration of   2 degrees of freedom as
           vibrations may cause significant error
 Vibrational temperatures:     17.34    17.34  1517.96
          (Kelvin)
 
 Zero-point correction=                           0.002458 (Hartree/Particle)
 Thermal correction to Energy=                    0.006683
 Thermal correction to Enthalpy=                  0.007627
 Thermal correction to Gibbs Free Energy=        -0.024625
 Sum of electronic and zero-point Energies=           -199.993280
 Sum of electronic and thermal Energies=              -199.989056
 Sum of electronic and thermal Enthalpies=            -199.988112
 Sum of electronic and thermal Free Energies=         -200.020363
 
                     E (Thermal)             CV                S
                      KCal/Mol        Cal/Mol-Kelvin    Cal/Mol-Kelvin
 Total                    4.193              9.262             67.879
 Electronic               0.000              0.000              1.377
 Translational            0.889              2.981             36.912
 Rotational               0.592              1.987             14.235
 Vibrational              2.712              4.294             15.355
 Vibration     1          0.593              1.987              7.640
 Vibration     2          0.593              1.987              7.640
                       Q            Log10(Q)             Ln(Q)
 Total Bot       0.212071D+12         11.326480         26.080185
 Total V=0       0.286613D+13         12.457296         28.683984
 Vib (Bot)       0.233192D+02          1.367714          3.149277
 Vib (Bot)    1  0.171908D+02          1.235295          2.844372
 Vib (Bot)    2  0.171908D+02          1.235295          2.844372
 Vib (V=0)       0.315159D+03          2.498529          5.753076
 Vib (V=0)    1  0.176980D+02          1.247925          2.873454
 Vib (V=0)    2  0.176980D+02          1.247925          2.873454
 Electronic      0.200000D+01          0.301030          0.693147
 Translational   0.957477D+07          6.981128         16.074642
 Rotational      0.474907D+03          2.676609          6.163119
 
                                                          TS search on BH76.
                                                             IR Spectrum
 
     1                                                                                                                               
     0                                                                                                                               
     5                                                                                                                             1 
     5                                                                                                                             2 
 
     X                                                                                                                               
     X                                                                                                                               
     X                                                                                                                               
     X                                                                                                                               
     X                                                                                                                               
     X                                                                                                                               
     X                                                                                                                               
     X                                                                                                                               
     X                                                                                                                               
     X                                                                                                                               
     X                                                                                                                               
     X                                                                                                                               
     X                                                                                                                               
     X                                                                                                                               
     X                                                                                                                               
     X                                                                                                                               
     X                                                                                                                               
     X                                                                                                                               
     X                                                                                                                               
     X                                                                                                                               
 
 ***** Axes restored to original set *****
 -------------------------------------------------------------------
 Center     Atomic                   Forces (Hartrees/Bohr)
 Number     Number              X              Y              Z
 -------------------------------------------------------------------
      1        1          -0.000000000   -0.000000000    0.000044154
      2        9          -0.000000000    0.000000000   -0.000075702
      3        9           0.000000000   -0.000000000    0.000031548
 -------------------------------------------------------------------
 Cartesian Forces:  Max     0.000075702 RMS     0.000031048
 Force constants in Cartesian coordinates: 
                1             2             3             4             5 
      1  0.907187D-05
      2  0.000000D+00  0.907187D-05
      3  0.000000D+00  0.000000D+00 -0.900824D-04
      4 -0.972533D-05  0.000000D+00  0.000000D+00 -0.532050D-05
      5  0.000000D+00 -0.972533D-05  0.000000D+00  0.000000D+00 -0.532050D-05
      6  0.000000D+00  0.000000D+00  0.156431D-03  0.000000D+00  0.000000D+00
      7  0.000000D+00  0.000000D+00  0.000000D+00  0.150458D-04  0.000000D+00
      8  0.000000D+00  0.000000D+00  0.000000D+00  0.000000D+00  0.150458D-04
      9  0.000000D+00  0.000000D+00 -0.663481D-04  0.000000D+00  0.000000D+00
                6             7             8             9 
      6  0.400008D+00
      7  0.000000D+00 -0.156993D-04
      8  0.000000D+00  0.000000D+00 -0.156993D-04
      9 -0.400164D+00  0.000000D+00  0.000000D+00  0.400230D+00
 FormGI is forming the generalized inverse of G from B-inverse, IUseBI=4.
 Force constants in internal coordinates: 
                1             2             3             4 
      1 -0.900824D-04
      2  0.663481D-04  0.400230D+00
      3  0.000000D+00  0.000000D+00 -0.563572D-05
      4  0.000000D+00  0.000000D+00  0.000000D+00 -0.563572D-05
 Leave Link  716 at Tue Oct  6 16:37:52 2020, MaxMem=  2684354560 cpu:               1.2 elap:               0.4
 (Enter /udrive/faculty/rpeverati/g16/g16/l103.exe)

 GradGradGradGradGradGradGradGradGradGradGradGradGradGradGradGradGradGrad
 Berny optimization.
 Optmz: redundant internal coordinate code flag= 1
 Red2BG:  D1=  4.27D-01 OD1=  3.33D-16 B2RMS=  0.00D+00 IAprox=1
 Red2BG is reusing G-inverse.
 Internal  Forces:  Max     0.000044154 RMS     0.000027133
 Search for a local minimum.
 Step number   1 out of a maximum of    2
 All quantities printed in internal units (Hartrees-Bohrs-Radians)
 Second derivative matrix not updated -- analytic derivatives used.
 The second derivative matrix:
                          R1        R2        A1        A2
           R1          -0.00009
           R2           0.00007   0.40023
           A1           0.00000   0.00000  -0.00001
           A2           0.00000  -0.00000   0.00000  -0.00001
 ITU=  0
 Eigenvectors of the second derivative matrix:
                           1         2         3         4
     Eigenvalues --    -0.00009  -0.00001  -0.00001   0.40023
   1         R1        -1.00000   0.00000   0.00000  -0.00017
   2         R2         0.00017   0.00000  -0.00000  -1.00000
   3         A1         0.00000  -0.00241   1.00000  -0.00000
   4         A2         0.00000   1.00000   0.00241   0.00000
 Eigenvalue     1 is  -9.01D-05 should be greater than     0.000000 Eigenvector:
                          R1        R2        A1        A2
   1                   -1.00000   0.00017   0.00000   0.00000
 Eigenvalue     2 is  -5.64D-06 should be greater than     0.000000 Eigenvector:
                          A2        A1        R1        R2
   1                    1.00000  -0.00241   0.00000   0.00000
 Eigenvalue     3 is  -5.64D-06 should be greater than     0.000000 Eigenvector:
                          A1        A2        R1        R2
   1                    1.00000   0.00241   0.00000  -0.00000
 RedStp:  It= 1 RLamda= 0.000D+00 R=4.901D-01
          Err=3.616D-02 DErr= 2.069D+03 DDErr=1.051D+08
 RedStp:  It= 2 RLamda=-1.968D-05 R=4.023D-01
          Err=1.046D-02 DErr= 7.496D+02 DDErr=4.051D+07
 RedStp:  It= 3 RLamda=-3.818D-05 R=3.443D-01
          Err=1.958D-03 DErr= 2.375D+02 DDErr=1.811D+07
 RedStp:  It= 4 RLamda=-5.130D-05 R=3.123D-01
          Err=1.517D-04 DErr= 5.441D+01 DDErr=1.053D+07
 RedStp:  It= 5 RLamda=-5.647D-05 R=3.013D-01
          Err=1.697D-06 DErr= 5.357D+00 DDErr=8.526D+06
 RedStp:  It= 6 RLamda=-5.710D-05 R=3.000D-01
          Err=2.783D-10 DErr= 6.801D-02 DDErr=8.310D+06
 Quadratic step=4.901D-01 exceeds max=3.000D-01 adjusted using Lamda=-5.710D-05.
 Angle between NR and scaled steps=   0.01 degrees.
 Angle between quadratic step and forces=  35.52 degrees.
 Linear search not attempted -- first point.
 Iteration  1 RMS(Cart)=  0.08162344 RMS(Int)=  0.05000833
 Iteration  2 RMS(Cart)=  0.04083163 RMS(Int)=  0.00000001
 Iteration  3 RMS(Cart)=  0.00000002 RMS(Int)=  0.00000000
 ITry= 1 IFail=0 DXMaxC= 2.00D-01 DCOld= 1.00D+10 DXMaxT= 3.00D-01 DXLimC= 3.00D+00 Rises=F
 ClnCor:  largest displacement from symmetrization is 1.09D-08 for atom     2.
 Variable       Old X    -DE/DX   Delta X   Delta X   Delta X     New X
                                 (Linear)    (Quad)   (Total)
    R1        7.17078  -0.00004   0.00000  -0.30002  -0.30002   6.87077
    R2        2.65665   0.00003   0.00000   0.00013   0.00013   2.65678
    A1        3.14159  -0.00000   0.00000  -0.00000   0.00000   3.14159
    A2        3.14159  -0.00000   0.00000  -0.00000   0.00000   3.14159
         Item               Value     Threshold  Converged?
 Maximum Force            0.000044     0.000450     YES
 RMS     Force            0.000027     0.000300     YES
 Maximum Displacement     0.199968     0.001800     NO 
 RMS     Displacement     0.122455     0.001200     NO 
 Predicted change in Energy=-1.730433D-05
                           ----------------------------
                           ! Non-Optimized Parameters !
                           ! (Angstroms and Degrees)  !
 --------------------------                            --------------------------
 ! Name  Definition              Value          Derivative Info.                !
 --------------------------------------------------------------------------------
 ! R1    R(1,2)                  3.6359         -DE/DX =    0.0                 !
 ! R2    R(2,3)                  1.4059         -DE/DX =    0.0                 !
 ! A1    L(1,2,3,-1,-1)        180.0            -DE/DX =    0.0                 !
 ! A2    L(1,2,3,-2,-2)        180.0            -DE/DX =    0.0                 !
 --------------------------------------------------------------------------------
 GradGradGradGradGradGradGradGradGradGradGradGradGradGradGradGradGradGrad

 Leave Link  103 at Tue Oct  6 16:37:53 2020, MaxMem=  2684354560 cpu:               1.2 elap:               0.4
 (Enter /udrive/faculty/rpeverati/g16/g16/l9999.exe)

 ----------------------------------------------------------------------

 Electric dipole moment (input orientation):
 (Debye = 10**-18 statcoulomb cm , SI units = C m)
                  (au)            (Debye)         (10**-30 SI)
   Tot        0.100728D-02      0.256025D-02      0.854008D-02
   x          0.000000D+00      0.000000D+00      0.000000D+00
   y          0.000000D+00      0.000000D+00      0.000000D+00
   z         -0.100728D-02     -0.256025D-02     -0.854008D-02

 Dipole polarizability, Alpha (input orientation).
 (esu units = cm**3 , SI units = C**2 m**2 J**-1)
 Alpha(0;0):
               (au)            (10**-24 esu)      (10**-40 SI)
   iso        0.511742D+01      0.758324D+00      0.843749D+00
   aniso      0.716514D+01      0.106176D+01      0.118137D+01
   xx         0.272905D+01      0.404403D+00      0.449959D+00
   yx         0.000000D+00      0.000000D+00      0.000000D+00
   yy         0.272905D+01      0.404403D+00      0.449959D+00
   zx         0.000000D+00      0.000000D+00      0.000000D+00
   zy         0.000000D+00      0.000000D+00      0.000000D+00
   zz         0.989418D+01      0.146617D+01      0.163133D+01

 ----------------------------------------------------------------------

 Dipole orientation:
     1          0.00000000          0.00000000          6.91540746
     9          0.00000000         -0.00000000         -0.25537702
     9          0.00000000         -0.00000000         -2.91203044

 Electric dipole moment (dipole orientation):
 (Debye = 10**-18 statcoulomb cm , SI units = C m)
                  (au)            (Debye)         (10**-30 SI)
   Tot        0.100728D-02      0.256025D-02      0.854008D-02
   x          0.000000D+00      0.000000D+00      0.000000D+00
   y          0.000000D+00      0.000000D+00      0.000000D+00
   z          0.100728D-02      0.256025D-02      0.854008D-02

 Dipole polarizability, Alpha (dipole orientation).
 (esu units = cm**3 , SI units = C**2 m**2 J**-1)
 Alpha(0;0):
               (au)            (10**-24 esu)      (10**-40 SI)
   iso        0.511742D+01      0.758324D+00      0.843749D+00
   aniso      0.716514D+01      0.106176D+01      0.118137D+01
   xx         0.272905D+01      0.404403D+00      0.449959D+00
   yx         0.000000D+00      0.000000D+00      0.000000D+00
   yy         0.272905D+01      0.404403D+00      0.449959D+00
   zx         0.000000D+00      0.000000D+00      0.000000D+00
   zy         0.000000D+00      0.000000D+00      0.000000D+00
   zz         0.989418D+01      0.146617D+01      0.163133D+01

 ----------------------------------------------------------------------

 Test job not archived.
 1\1\GINC-NODE62\Freq\UB3LYP\6-31G(d)\F2H1(2)\RPEVERATI\06-Oct-2020\0\\
 #P Freq B3LYP/6-31G* 5D 7F Integral=UltraFineGrid SCF=(NoSymm,XQC,MaxC
 yc=120) IOp(1/33=1) Geom=Check Guess=Read\\TS search on BH76.\\0,2\H,0
 .,0.,-3.65947603\F,0.,0.,0.1351396976\F,0.,0.,1.5409801464\\Version=ES
 64L-G16RevA.03\State=2-SG\HF=-199.9957387\S2=0.75\S2-1=0.\S2A=0.75\RMS
 D=2.529e-11\RMSF=3.105e-05\ZeroPoint=0.0024585\Thermal=0.0066827\Dipol
 e=0.,0.,-0.0010073\DipoleDeriv=0.0001242,0.,0.,0.,0.0001242,0.,0.,0.,-
 0.0021464,-0.000084,0.,0.,0.,-0.000084,0.,0.,0.,0.005438,-0.0000402,0.
 ,0.,0.,-0.0000402,0.,0.,0.,-0.0032917\Polar=2.729045,0.,2.729045,0.,0.
 ,9.8941817\Quadrupole=-0.2294206,-0.2294206,0.4588411,0.,0.,0.\PG=C*V 
 [C*(H1F1F1)]\NImag=1\\0.00000907,0.,0.00000907,0.,0.,-0.00009008,-0.00
 000973,0.,0.,-0.00000532,0.,-0.00000973,0.,0.,-0.00000532,0.,0.,0.0001
 5643,0.,0.,0.40000767,0.00000065,0.,0.,0.00001505,0.,0.,-0.00001570,0.
 ,0.00000065,0.,0.,0.00001505,0.,0.,-0.00001570,0.,0.,-0.00006635,0.,0.
 ,-0.40016410,0.,0.,0.40023045\\0.,0.,-0.00004415,0.,0.,0.00007570,0.,0
 .,-0.00003155\\\@


 ... IT IS NO ONE DREAME THAT
     CAN PLEASE THESE ALL ...

                -- BEN JONSON
 Job cpu time:       0 days  0 hours  1 minutes 21.0 seconds.
 Elapsed time:       0 days  0 hours  0 minutes 13.3 seconds.
 File lengths (MBytes):  RWF=      5 Int=      0 D2E=      0 Chk=      1 Scr=      1
 Normal termination of Gaussian 16 at Tue Oct  6 16:37:54 2020.
