 Entering Gaussian System, Link 0=g16
 Input=MN_62_hoch3fcomp2_BH76_B3LYP_6-31Gs.in
 Output=MN_62_hoch3fcomp2_BH76_B3LYP_6-31Gs.log
 Initial command:
 /udrive/faculty/rpeverati/g16/g16/l1.exe "/udrive/scratch-directories/gaussian09/rpeverati/Gau-32770.inp" -scrdir="/udrive/scratch-directories/gaussian09/rpeverati/"
 Entering Link 1 = /udrive/faculty/rpeverati/g16/g16/l1.exe PID=     32771.
  
 Copyright (c) 1988,1990,1992,1993,1995,1998,2003,2009,2016,
            Gaussian, Inc.  All Rights Reserved.
  
 This is part of the Gaussian(R) 16 program.  It is based on
 the Gaussian(R) 09 system (copyright 2009, Gaussian, Inc.),
 the Gaussian(R) 03 system (copyright 2003, Gaussian, Inc.),
 the Gaussian(R) 98 system (copyright 1998, Gaussian, Inc.),
 the Gaussian(R) 94 system (copyright 1995, Gaussian, Inc.),
 the Gaussian 92(TM) system (copyright 1992, Gaussian, Inc.),
 the Gaussian 90(TM) system (copyright 1990, Gaussian, Inc.),
 the Gaussian 88(TM) system (copyright 1988, Gaussian, Inc.),
 the Gaussian 86(TM) system (copyright 1986, Carnegie Mellon
 University), and the Gaussian 82(TM) system (copyright 1983,
 Carnegie Mellon University). Gaussian is a federally registered
 trademark of Gaussian, Inc.
  
 This software contains proprietary and confidential information,
 including trade secrets, belonging to Gaussian, Inc.
  
 This software is provided under written license and may be
 used, copied, transmitted, or stored only in accord with that
 written license.
  
 The following legend is applicable only to US Government
 contracts under FAR:
  
                    RESTRICTED RIGHTS LEGEND
  
 Use, reproduction and disclosure by the US Government is
 subject to restrictions as set forth in subparagraphs (a)
 and (c) of the Commercial Computer Software - Restricted
 Rights clause in FAR 52.227-19.
  
 Gaussian, Inc.
 340 Quinnipiac St., Bldg. 40, Wallingford CT 06492
  
  
 ---------------------------------------------------------------
 Warning -- This program may not be used in any manner that
 competes with the business of Gaussian, Inc. or will provide
 assistance to any competitor of Gaussian, Inc.  The licensee
 of this program is prohibited from giving any competitor of
 Gaussian, Inc. access to this program.  By using this program,
 the user acknowledges that Gaussian, Inc. is engaged in the
 business of creating and licensing software in the field of
 computational chemistry and represents and warrants to the
 licensee that it is not a competitor of Gaussian, Inc. and that
 it will not use this program in any manner prohibited above.
 ---------------------------------------------------------------
  

 Cite this work as:
 Gaussian 16, Revision A.03,
 M. J. Frisch, G. W. Trucks, H. B. Schlegel, G. E. Scuseria, 
 M. A. Robb, J. R. Cheeseman, G. Scalmani, V. Barone, 
 G. A. Petersson, H. Nakatsuji, X. Li, M. Caricato, A. V. Marenich, 
 J. Bloino, B. G. Janesko, R. Gomperts, B. Mennucci, H. P. Hratchian, 
 J. V. Ortiz, A. F. Izmaylov, J. L. Sonnenberg, D. Williams-Young, 
 F. Ding, F. Lipparini, F. Egidi, J. Goings, B. Peng, A. Petrone, 
 T. Henderson, D. Ranasinghe, V. G. Zakrzewski, J. Gao, N. Rega, 
 G. Zheng, W. Liang, M. Hada, M. Ehara, K. Toyota, R. Fukuda, 
 J. Hasegawa, M. Ishida, T. Nakajima, Y. Honda, O. Kitao, H. Nakai, 
 T. Vreven, K. Throssell, J. A. Montgomery, Jr., J. E. Peralta, 
 F. Ogliaro, M. J. Bearpark, J. J. Heyd, E. N. Brothers, K. N. Kudin, 
 V. N. Staroverov, T. A. Keith, R. Kobayashi, J. Normand, 
 K. Raghavachari, A. P. Rendell, J. C. Burant, S. S. Iyengar, 
 J. Tomasi, M. Cossi, J. M. Millam, M. Klene, C. Adamo, R. Cammi, 
 J. W. Ochterski, R. L. Martin, K. Morokuma, O. Farkas, 
 J. B. Foresman, and D. J. Fox, Gaussian, Inc., Wallingford CT, 2016.
 
 ******************************************
 Gaussian 16:  ES64L-G16RevA.03 25-Dec-2016
                 6-Oct-2020 
 ******************************************
 %NoSave
 %nproc=12
 Will use up to   12 processors via shared memory.
 %mem=20GB
 %chk=MN_62_hoch3fcomp2_BH76_B3LYP_6-31Gs
 ----------------------------------------------------------------------
 #P Opt(MaxCyc=100) B3LYP/6-31G* 5D 7F Integral=UltraFineGrid SCF=(NoSy
 mm,XQC,MaxCyc=120) IOp(1/33=1)
 ----------------------------------------------------------------------
 1/6=100,18=20,19=15,26=4,33=1,38=1/1,3;
 2/9=110,12=2,17=6,18=5,40=1/2;
 3/5=1,6=6,7=1,8=11,11=2,25=1,30=1,71=1,74=-5,75=-5/1,2,3;
 4/9=2/1;
 5/5=2,7=120,8=3,13=1,38=5/2,8;
 6/7=2,8=2,9=2,10=2,28=1/1;
 7//1,2,3,16;
 1/6=100,18=20,19=15,26=4,33=1/3(2);
 2/9=110/2;
 99//99;
 2/9=110/2;
 3/5=1,6=6,7=1,8=11,11=2,25=1,30=1,71=1,74=-5,75=-5/1,2,3;
 4/5=5,9=2,16=3,69=1/1;
 5/5=2,7=120,8=3,13=1,38=5/2,8;
 7//1,2,3,16;
 1/6=100,18=20,19=15,26=4,33=1/3(-5);
 2/9=110/2;
 6/7=2,8=2,9=2,10=2,19=2,28=1/1;
 99/9=1/99;
 Leave Link    1 at Tue Oct  6 16:00:05 2020, MaxMem=  2684354560 cpu:               7.5 elap:               0.9
 (Enter /udrive/faculty/rpeverati/g16/g16/l101.exe)
 ONIOM data not found on unit 2.
 ------------------
 TS search on BH76.
 ------------------
 TstMul:  ICh=    -1
 TstMul:  Mul=     1
 TstMul:  ICh=    -1
 TstMul:  Mul=     1
 Symbolic Z-matrix:
 Charge = -1 Multiplicity = 1
 F                     1.89905  -0.07646  -0.0054 
 C                     0.48941   0.10548   0.00677 
 H                     0.0013   -0.78617  -0.36115 
 H                     0.17194   0.29836   1.02324 
 H                     0.24974   0.94747  -0.63089 
 O                    -2.16945  -0.07314  -0.00232 
 H                    -3.09537   0.1807   -0.00462 
 
 RdStrC is calling ZToCFu for IStruc=1 NZ=     7.
 PrtBox:  NBox=     2 Levels=  1 BoxLen=    8.00 SMaxX=        9.44
          Shift=            5.849400            1.485640            1.192200
 Box      1 Number                   0 centers from      1 to      6:
 Box      2 Number                   4 centers from      7 to      7:
 After GenITR:
 ITRead=  0  0  0  0  0  0  0
 MicOpt= -1 -1 -1 -1 -1 -1 -1
 Add virtual bond connecting atoms O6         and H3         Dist= 4.37D+00.
 ITRead=  0  0  0  0  0  0  0
 MicOpt= -1 -1 -1 -1 -1 -1 -1
 NAtoms=      7 NQM=        7 NQMF=       0 NMMI=      0 NMMIF=      0
                NMic=       0 NMicF=      0.
                    Isotopes and Nuclear Properties:
 (Nuclear quadrupole moments (NQMom) in fm**2, nuclear magnetic moments (NMagM)
  in nuclear magnetons)

  Atom         1           2           3           4           5           6           7
 IAtWgt=          19          12           1           1           1          16           1
 AtmWgt=  18.9984033  12.0000000   1.0078250   1.0078250   1.0078250  15.9949146   1.0078250
 NucSpn=           1           0           1           1           1           0           1
 AtZEff=   0.0000000   0.0000000   0.0000000   0.0000000   0.0000000   0.0000000   0.0000000
 NQMom=    0.0000000   0.0000000   0.0000000   0.0000000   0.0000000   0.0000000   0.0000000
 NMagM=    2.6288670   0.0000000   2.7928460   2.7928460   2.7928460   0.0000000   2.7928460
 AtZNuc=   9.0000000   6.0000000   1.0000000   1.0000000   1.0000000   8.0000000   1.0000000
 No MM parameters found.
 Leave Link  101 at Tue Oct  6 16:00:07 2020, MaxMem=  2684354560 cpu:              11.0 elap:               1.7
 (Enter /udrive/faculty/rpeverati/g16/g16/l103.exe)

 GradGradGradGradGradGradGradGradGradGradGradGradGradGradGradGradGradGrad
 Berny optimization.
 Optmz: redundant internal coordinate code flag= 1
 Initialization pass.
                           ----------------------------
                           !    Initial Parameters    !
                           ! (Angstroms and Degrees)  !
 --------------------------                            --------------------------
 ! Name  Definition              Value          Derivative Info.                !
 --------------------------------------------------------------------------------
 ! R1    R(1,2)                  1.4214         estimate D2E/DX2                !
 ! R2    R(2,3)                  1.081          estimate D2E/DX2                !
 ! R3    R(2,4)                  1.0822         estimate D2E/DX2                !
 ! R4    R(2,5)                  1.083          estimate D2E/DX2                !
 ! R5    R(3,6)                  2.3129         estimate D2E/DX2                !
 ! R6    R(6,7)                  0.9601         estimate D2E/DX2                !
 ! A1    A(1,2,3)              109.8338         estimate D2E/DX2                !
 ! A2    A(1,2,4)              108.7707         estimate D2E/DX2                !
 ! A3    A(1,2,5)              108.2965         estimate D2E/DX2                !
 ! A4    A(3,2,4)              109.5244         estimate D2E/DX2                !
 ! A5    A(3,2,5)              109.9335         estimate D2E/DX2                !
 ! A6    A(4,2,5)              110.4581         estimate D2E/DX2                !
 ! A7    A(2,3,6)               96.7014         estimate D2E/DX2                !
 ! A8    L(3,6,7,5,-1)         180.2727         estimate D2E/DX2                !
 ! A9    L(3,6,7,5,-2)         165.3128         estimate D2E/DX2                !
 ! D1    D(1,2,3,6)            176.0174         estimate D2E/DX2                !
 ! D2    D(4,2,3,6)             56.6215         estimate D2E/DX2                !
 ! D3    D(5,2,3,6)            -64.9173         estimate D2E/DX2                !
 --------------------------------------------------------------------------------
 Maximum allowed force set to 1.00D+20.
 Trust Radius=3.00D-01 FncErr=1.00D-07 GrdErr=1.00D-06 EigMax=2.50D+02 EigMin=1.00D-04
 Number of steps in this run=    100 maximum allowed number of steps=    100.
 GradGradGradGradGradGradGradGradGradGradGradGradGradGradGradGradGradGrad

 Leave Link  103 at Tue Oct  6 16:00:08 2020, MaxMem=  2684354560 cpu:               1.2 elap:               0.4
 (Enter /udrive/faculty/rpeverati/g16/g16/l202.exe)
                          Input orientation:                          
 ---------------------------------------------------------------------
 Center     Atomic      Atomic             Coordinates (Angstroms)
 Number     Number       Type             X           Y           Z
 ---------------------------------------------------------------------
      1          9           0        1.899053   -0.076457   -0.005404
      2          6           0        0.489413    0.105484    0.006768
      3          1           0        0.001304   -0.786167   -0.361155
      4          1           0        0.171943    0.298358    1.023244
      5          1           0        0.249744    0.947471   -0.630885
      6          8           0       -2.169447   -0.073143   -0.002320
      7          1           0       -3.095369    0.180697   -0.004624
 ---------------------------------------------------------------------
                    Distance matrix (angstroms):
                    1          2          3          4          5
     1  F    0.000000
     2  C    1.421385   0.000000
     3  H    2.057109   1.081045   0.000000
     4  H    2.044874   1.082225   1.766882   0.000000
     5  H    2.039577   1.083044   1.771998   1.778635   0.000000
     6  O    4.068502   2.664869   2.312861   2.583002   2.699857
     7  H    5.001038   3.585589   3.263637   3.427198   3.488542
                    6          7
     6  O    0.000000
     7  H    0.960090   0.000000
 Stoichiometry    CH4FO(1-)
 Framework group  C1[X(CH4FO)]
 Deg. of freedom    15
 Full point group                 C1      NOp   1
 Largest Abelian subgroup         C1      NOp   1
 Largest concise Abelian subgroup C1      NOp   1
                         Standard orientation:                         
 ---------------------------------------------------------------------
 Center     Atomic      Atomic             Coordinates (Angstroms)
 Number     Number       Type             X           Y           Z
 ---------------------------------------------------------------------
      1          9           0        1.899053   -0.076457   -0.005404
      2          6           0        0.489413    0.105484    0.006768
      3          1           0        0.001304   -0.786167   -0.361155
      4          1           0        0.171943    0.298358    1.023244
      5          1           0        0.249744    0.947470   -0.630885
      6          8           0       -2.169447   -0.073143   -0.002320
      7          1           0       -3.095369    0.180697   -0.004624
 ---------------------------------------------------------------------
 Rotational constants (GHZ):         141.9909320           3.2067010           3.1989530
 Leave Link  202 at Tue Oct  6 16:00:09 2020, MaxMem=  2684354560 cpu:               2.1 elap:               0.6
 (Enter /udrive/faculty/rpeverati/g16/g16/l301.exe)
 Standard basis: 6-31G(d) (5D, 7F)
 Ernie: Thresh=  0.10000D-02 Tol=  0.10000D-05 Strict=F.
 There are    53 symmetry adapted cartesian basis functions of A   symmetry.
 There are    50 symmetry adapted basis functions of A   symmetry.
    50 basis functions,   100 primitive gaussians,    53 cartesian basis functions
    14 alpha electrons       14 beta electrons
       nuclear repulsion energy        67.4307148412 Hartrees.
 IExCor=  402 DFT=T Ex+Corr=B3LYP ExCW=0 ScaHFX=  0.200000
 ScaDFX=  0.800000  0.720000  1.000000  0.810000 ScalE2=  1.000000  1.000000
 IRadAn=      5 IRanWt=     -1 IRanGd=            0 ICorTp=0 IEmpDi=  4
 NAtoms=    7 NActive=    7 NUniq=    7 SFac= 1.00D+00 NAtFMM=   60 NAOKFM=F Big=F
 Integral buffers will be    131072 words long.
 Raffenetti 2 integral format.
 Two-electron integral symmetry is turned on.
 Leave Link  301 at Tue Oct  6 16:00:10 2020, MaxMem=  2684354560 cpu:               2.1 elap:               0.7
 (Enter /udrive/faculty/rpeverati/g16/g16/l302.exe)
 NPDir=0 NMtPBC=     1 NCelOv=     1 NCel=       1 NClECP=     1 NCelD=      1
         NCelK=      1 NCelE2=     1 NClLst=     1 CellRange=     0.0.
 One-electron integrals computed using PRISM.
 One-electron integral symmetry used in STVInt
 NBasis=    50 RedAO= T EigKep=  1.87D-02  NBF=    50
 NBsUse=    50 1.00D-06 EigRej= -1.00D+00 NBFU=    50
 Precomputing XC quadrature grid using
 IXCGrd= 4 IRadAn=           5 IRanWt=          -1 IRanGd=           0 AccXCQ= 0.00D+00.
 Generated NRdTot=       0 NPtTot=           0 NUsed=           0 NTot=          32
 NSgBfM=    53    53    53    53    53 MxSgAt=     7 MxSgA2=     7.
 Leave Link  302 at Tue Oct  6 16:00:11 2020, MaxMem=  2684354560 cpu:               4.0 elap:               0.8
 (Enter /udrive/faculty/rpeverati/g16/g16/l303.exe)
 DipDrv:  MaxL=1.
 Leave Link  303 at Tue Oct  6 16:00:13 2020, MaxMem=  2684354560 cpu:               2.7 elap:               0.6
 (Enter /udrive/faculty/rpeverati/g16/g16/l401.exe)
 SCF N**3 symmetry information disabled.
 ExpMin= 1.61D-01 ExpMax= 7.00D+03 ExpMxC= 1.05D+03 IAcc=3 IRadAn=         5 AccDes= 0.00D+00
 Harris functional with IExCor=  402 and IRadAn=       5 diagonalized for initial guess.
 HarFok:  IExCor=  402 AccDes= 0.00D+00 IRadAn=         5 IDoV= 1 UseB2=F ITyADJ=14
 ICtDFT=  3500011 ScaDFX=  1.000000  1.000000  1.000000  1.000000
 FoFCou: FMM=F IPFlag=           0 FMFlag=      100000 FMFlg1=           0
         NFxFlg=           0 DoJE=T BraDBF=F KetDBF=T FulRan=T
         wScrn=  0.000000 ICntrl=       500 IOpCl=  0 I1Cent=   200000004 NGrid=           0
         NMat0=    1 NMatS0=      1 NMatT0=    0 NMatD0=    1 NMtDS0=    0 NMtDT0=    0
 Petite list used in FoFCou.
 Harris En= -215.775215728596    
 JPrj=0 DoOrth=F DoCkMO=F.
 Leave Link  401 at Tue Oct  6 16:00:14 2020, MaxMem=  2684354560 cpu:              11.0 elap:               1.5
 (Enter /udrive/faculty/rpeverati/g16/g16/l502.exe)
 Keep R1 ints in memory in canonical form, NReq=11319949.
 FoFCou: FMM=F IPFlag=           0 FMFlag=           0 FMFlg1=           0
         NFxFlg=           0 DoJE=F BraDBF=F KetDBF=F FulRan=T
         wScrn=  0.000000 ICntrl=       600 IOpCl=  0 I1Cent=           0 NGrid=           0
         NMat0=    1 NMatS0=   1275 NMatT0=    0 NMatD0=    1 NMtDS0=    0 NMtDT0=    0
 Symmetry not used in FoFCou.
 Two-electron integral symmetry not used.
 Closed shell SCF:
 Using DIIS extrapolation, IDIIS=  1040.
 NGot=  2684354560 LenX=  2683534079 LenY=  2683530829
 Requested convergence on RMS density matrix=1.00D-08 within 120 cycles.
 Requested convergence on MAX density matrix=1.00D-06.
 Requested convergence on             energy=1.00D-06.
 No special actions if energy rises.
 Integral accuracy reduced to 1.0D-05 until final iterations.

 Cycle   1  Pass 0  IDiag  1:
 E= -215.246742919915    
 DIIS: error= 1.13D-01 at cycle   1 NSaved=   1.
 NSaved= 1 IEnMin= 1 EnMin= -215.246742919915     IErMin= 1 ErrMin= 1.13D-01
 ErrMax= 1.13D-01  0.00D+00 EMaxC= 1.00D-01 BMatC= 2.84D-01 BMatP= 2.84D-01
 IDIUse=3 WtCom= 0.00D+00 WtEn= 1.00D+00
 Coeff-Com:  0.100D+01
 Coeff-En:   0.100D+01
 Coeff:      0.100D+01
 Gap=    -0.022 Goal=   None    Shift=    0.000
 GapD=   -0.022 DampG=0.250 DampE=0.250 DampFc=0.2500 IDamp=-1.
 Damping current iteration by 2.50D-01
 RMSDP=1.91D-01 MaxDP=4.40D+00              OVMax= 9.72D-01

 Cycle   2  Pass 0  IDiag  1:
 E= -215.194202837013     Delta-E=        0.052540082901 Rises=F Damp=T
 DIIS: error= 2.95D-02 at cycle   2 NSaved=   2.
 NSaved= 2 IEnMin= 1 EnMin= -215.246742919915     IErMin= 2 ErrMin= 2.95D-02
 ErrMax= 2.95D-02  0.00D+00 EMaxC= 1.00D-01 BMatC= 3.21D-02 BMatP= 2.84D-01
 IDIUse=3 WtCom= 7.05D-01 WtEn= 2.95D-01
 Coeff-Com: -0.101D+00 0.110D+01
 Coeff-En:   0.626D+00 0.374D+00
 Coeff:      0.114D+00 0.886D+00
 Gap=    -0.029 Goal=   None    Shift=    0.000
 RMSDP=4.85D-02 MaxDP=1.14D+00 DE= 5.25D-02 OVMax= 9.92D-01

 Cycle   3  Pass 0  IDiag  1:
 E= -215.428444882214     Delta-E=       -0.234242045201 Rises=F Damp=F
 DIIS: error= 3.97D-02 at cycle   3 NSaved=   3.
 NSaved= 3 IEnMin= 3 EnMin= -215.428444882214     IErMin= 2 ErrMin= 2.95D-02
 ErrMax= 3.97D-02  0.00D+00 EMaxC= 1.00D-01 BMatC= 4.67D-02 BMatP= 3.21D-02
 IDIUse=2 WtCom= 0.00D+00 WtEn= 1.00D+00
 Coeff-En:   0.000D+00 0.000D+00 0.100D+01
 Coeff:      0.000D+00 0.000D+00 0.100D+01
 Gap=     0.246 Goal=   None    Shift=    0.000
 RMSDP=1.22D-02 MaxDP=1.15D-01 DE=-2.34D-01 OVMax= 1.90D-01

 Cycle   4  Pass 0  IDiag  1:
 E= -215.400261659834     Delta-E=        0.028183222380 Rises=F Damp=F
 DIIS: error= 4.49D-02 at cycle   4 NSaved=   4.
 NSaved= 4 IEnMin= 3 EnMin= -215.428444882214     IErMin= 2 ErrMin= 2.95D-02
 ErrMax= 4.49D-02  0.00D+00 EMaxC= 1.00D-01 BMatC= 8.13D-02 BMatP= 3.21D-02
 IDIUse=2 WtCom= 0.00D+00 WtEn= 1.00D+00
 Coeff-En:   0.000D+00 0.000D+00 0.605D+00 0.395D+00
 Coeff:      0.000D+00 0.000D+00 0.605D+00 0.395D+00
 Gap=     0.198 Goal=   None    Shift=    0.000
 RMSDP=6.91D-03 MaxDP=5.91D-02 DE= 2.82D-02 OVMax= 1.32D-01

 Cycle   5  Pass 0  IDiag  1:
 E= -215.478151215145     Delta-E=       -0.077889555311 Rises=F Damp=F
 DIIS: error= 8.84D-03 at cycle   5 NSaved=   5.
 NSaved= 5 IEnMin= 5 EnMin= -215.478151215145     IErMin= 5 ErrMin= 8.84D-03
 ErrMax= 8.84D-03  0.00D+00 EMaxC= 1.00D-01 BMatC= 2.36D-03 BMatP= 3.21D-02
 IDIUse=3 WtCom= 9.12D-01 WtEn= 8.84D-02
 Coeff-Com: -0.901D-01 0.774D-01 0.100D+00-0.246D-02 0.915D+00
 Coeff-En:   0.000D+00 0.000D+00 0.000D+00 0.000D+00 0.100D+01
 Coeff:     -0.822D-01 0.705D-01 0.912D-01-0.224D-02 0.923D+00
 Gap=     0.197 Goal=   None    Shift=    0.000
 RMSDP=8.24D-04 MaxDP=1.25D-02 DE=-7.79D-02 OVMax= 1.21D-02

 Cycle   6  Pass 0  IDiag  1:
 E= -215.479849687969     Delta-E=       -0.001698472824 Rises=F Damp=F
 DIIS: error= 2.46D-03 at cycle   6 NSaved=   6.
 NSaved= 6 IEnMin= 6 EnMin= -215.479849687969     IErMin= 6 ErrMin= 2.46D-03
 ErrMax= 2.46D-03  0.00D+00 EMaxC= 1.00D-01 BMatC= 1.83D-04 BMatP= 2.36D-03
 IDIUse=3 WtCom= 9.75D-01 WtEn= 2.46D-02
 Coeff-Com: -0.407D-01 0.393D-01-0.102D-01-0.915D-02 0.228D+00 0.793D+00
 Coeff-En:   0.000D+00 0.000D+00 0.000D+00 0.000D+00 0.000D+00 0.100D+01
 Coeff:     -0.397D-01 0.384D-01-0.995D-02-0.892D-02 0.223D+00 0.798D+00
 Gap=     0.191 Goal=   None    Shift=    0.000
 RMSDP=2.40D-04 MaxDP=2.41D-03 DE=-1.70D-03 OVMax= 2.94D-03

 Cycle   7  Pass 0  IDiag  1:
 E= -215.479973773714     Delta-E=       -0.000124085745 Rises=F Damp=F
 DIIS: error= 1.73D-03 at cycle   7 NSaved=   7.
 NSaved= 7 IEnMin= 7 EnMin= -215.479973773714     IErMin= 7 ErrMin= 1.73D-03
 ErrMax= 1.73D-03  0.00D+00 EMaxC= 1.00D-01 BMatC= 7.35D-05 BMatP= 1.83D-04
 IDIUse=3 WtCom= 9.83D-01 WtEn= 1.73D-02
 Coeff-Com: -0.138D-01 0.147D-01-0.167D-01 0.258D-02-0.352D-01 0.135D+00
 Coeff-Com:  0.914D+00
 Coeff-En:   0.000D+00 0.000D+00 0.000D+00 0.000D+00 0.000D+00 0.000D+00
 Coeff-En:   0.100D+01
 Coeff:     -0.135D-01 0.145D-01-0.164D-01 0.254D-02-0.346D-01 0.132D+00
 Coeff:      0.915D+00
 Gap=     0.187 Goal=   None    Shift=    0.000
 RMSDP=1.87D-04 MaxDP=1.83D-03 DE=-1.24D-04 OVMax= 2.56D-03

 Cycle   8  Pass 0  IDiag  1:
 E= -215.480035095875     Delta-E=       -0.000061322161 Rises=F Damp=F
 DIIS: error= 6.24D-04 at cycle   8 NSaved=   8.
 NSaved= 8 IEnMin= 8 EnMin= -215.480035095875     IErMin= 8 ErrMin= 6.24D-04
 ErrMax= 6.24D-04  0.00D+00 EMaxC= 1.00D-01 BMatC= 1.04D-05 BMatP= 7.35D-05
 IDIUse=3 WtCom= 9.94D-01 WtEn= 6.24D-03
 Coeff-Com:  0.244D-03 0.239D-02-0.815D-02 0.491D-02-0.911D-01-0.187D+00
 Coeff-Com:  0.571D+00 0.708D+00
 Coeff-En:   0.000D+00 0.000D+00 0.000D+00 0.000D+00 0.000D+00 0.000D+00
 Coeff-En:   0.000D+00 0.100D+01
 Coeff:      0.242D-03 0.238D-02-0.810D-02 0.488D-02-0.906D-01-0.186D+00
 Coeff:      0.567D+00 0.709D+00
 Gap=     0.185 Goal=   None    Shift=    0.000
 RMSDP=9.66D-05 MaxDP=9.05D-04 DE=-6.13D-05 OVMax= 1.34D-03

 Cycle   9  Pass 0  IDiag  1:
 E= -215.480044803161     Delta-E=       -0.000009707286 Rises=F Damp=F
 DIIS: error= 6.15D-05 at cycle   9 NSaved=   9.
 NSaved= 9 IEnMin= 9 EnMin= -215.480044803161     IErMin= 9 ErrMin= 6.15D-05
 ErrMax= 6.15D-05  0.00D+00 EMaxC= 1.00D-01 BMatC= 1.38D-07 BMatP= 1.04D-05
 IDIUse=1 WtCom= 1.00D+00 WtEn= 0.00D+00
 Coeff-Com:  0.342D-03-0.153D-03-0.400D-04 0.806D-03-0.765D-02-0.356D-01
 Coeff-Com:  0.376D-02 0.125D+00 0.913D+00
 Coeff:      0.342D-03-0.153D-03-0.400D-04 0.806D-03-0.765D-02-0.356D-01
 Coeff:      0.376D-02 0.125D+00 0.913D+00
 Gap=     0.185 Goal=   None    Shift=    0.000
 RMSDP=2.07D-05 MaxDP=2.26D-04 DE=-9.71D-06 OVMax= 3.40D-04

 Cycle  10  Pass 0  IDiag  1:
 E= -215.480044977071     Delta-E=       -0.000000173910 Rises=F Damp=F
 DIIS: error= 1.73D-05 at cycle  10 NSaved=  10.
 NSaved=10 IEnMin=10 EnMin= -215.480044977071     IErMin=10 ErrMin= 1.73D-05
 ErrMax= 1.73D-05  0.00D+00 EMaxC= 1.00D-01 BMatC= 6.53D-09 BMatP= 1.38D-07
 IDIUse=1 WtCom= 1.00D+00 WtEn= 0.00D+00
 Coeff-Com: -0.304D-04 0.139D-04 0.380D-03-0.774D-04 0.300D-02 0.283D-02
 Coeff-Com: -0.180D-01 0.830D-03 0.139D+00 0.872D+00
 Coeff:     -0.304D-04 0.139D-04 0.380D-03-0.774D-04 0.300D-02 0.283D-02
 Coeff:     -0.180D-01 0.830D-03 0.139D+00 0.872D+00
 Gap=     0.185 Goal=   None    Shift=    0.000
 RMSDP=2.14D-06 MaxDP=1.70D-05 DE=-1.74D-07 OVMax= 2.63D-05

 Initial convergence to 1.0D-05 achieved.  Increase integral accuracy.
 Cycle  11  Pass 1  IDiag  1:
 E= -215.480042921793     Delta-E=        0.000002055277 Rises=F Damp=F
 DIIS: error= 6.79D-07 at cycle   1 NSaved=   1.
 NSaved= 1 IEnMin= 1 EnMin= -215.480042921793     IErMin= 1 ErrMin= 6.79D-07
 ErrMax= 6.79D-07  0.00D+00 EMaxC= 1.00D-01 BMatC= 3.90D-11 BMatP= 3.90D-11
 IDIUse=1 WtCom= 1.00D+00 WtEn= 0.00D+00
 Coeff-Com:  0.100D+01
 Coeff:      0.100D+01
 Gap=     0.185 Goal=   None    Shift=    0.000
 RMSDP=2.14D-06 MaxDP=1.70D-05 DE= 2.06D-06 OVMax= 4.97D-06

 Cycle  12  Pass 1  IDiag  1:
 E= -215.480042921851     Delta-E=       -0.000000000057 Rises=F Damp=F
 DIIS: error= 4.96D-07 at cycle   2 NSaved=   2.
 NSaved= 2 IEnMin= 2 EnMin= -215.480042921851     IErMin= 2 ErrMin= 4.96D-07
 ErrMax= 4.96D-07  0.00D+00 EMaxC= 1.00D-01 BMatC= 1.14D-11 BMatP= 3.90D-11
 IDIUse=1 WtCom= 1.00D+00 WtEn= 0.00D+00
 Coeff-Com:  0.293D+00 0.707D+00
 Coeff:      0.293D+00 0.707D+00
 Gap=     0.185 Goal=   None    Shift=    0.000
 RMSDP=8.34D-08 MaxDP=1.03D-06 DE=-5.74D-11 OVMax= 1.16D-06

 Cycle  13  Pass 1  IDiag  1:
 E= -215.480042921856     Delta-E=       -0.000000000005 Rises=F Damp=F
 DIIS: error= 3.54D-07 at cycle   3 NSaved=   3.
 NSaved= 3 IEnMin= 3 EnMin= -215.480042921856     IErMin= 3 ErrMin= 3.54D-07
 ErrMax= 3.54D-07  0.00D+00 EMaxC= 1.00D-01 BMatC= 5.36D-12 BMatP= 1.14D-11
 IDIUse=1 WtCom= 1.00D+00 WtEn= 0.00D+00
 Coeff-Com:  0.832D-02 0.403D+00 0.589D+00
 Coeff:      0.832D-02 0.403D+00 0.589D+00
 Gap=     0.185 Goal=   None    Shift=    0.000
 RMSDP=3.97D-08 MaxDP=4.64D-07 DE=-5.17D-12 OVMax= 4.98D-07

 Cycle  14  Pass 1  IDiag  1:
 E= -215.480042921859     Delta-E=       -0.000000000003 Rises=F Damp=F
 DIIS: error= 4.98D-08 at cycle   4 NSaved=   4.
 NSaved= 4 IEnMin= 4 EnMin= -215.480042921859     IErMin= 4 ErrMin= 4.98D-08
 ErrMax= 4.98D-08  0.00D+00 EMaxC= 1.00D-01 BMatC= 1.31D-13 BMatP= 5.36D-12
 IDIUse=1 WtCom= 1.00D+00 WtEn= 0.00D+00
 Coeff-Com: -0.108D-01 0.131D+00 0.238D+00 0.642D+00
 Coeff:     -0.108D-01 0.131D+00 0.238D+00 0.642D+00
 Gap=     0.185 Goal=   None    Shift=    0.000
 RMSDP=9.81D-09 MaxDP=1.04D-07 DE=-2.79D-12 OVMax= 1.32D-07

 SCF Done:  E(RB3LYP) =  -215.480042922     A.U. after   14 cycles
            NFock= 14  Conv=0.98D-08     -V/T= 2.0041
 KE= 2.146088467162D+02 PE=-6.528862067064D+02 EE= 1.553666022271D+02
 Leave Link  502 at Tue Oct  6 16:00:18 2020, MaxMem=  2684354560 cpu:              29.8 elap:               3.1
 (Enter /udrive/faculty/rpeverati/g16/g16/l508.exe)
 QCSCF skips out because SCF is already converged.
 Leave Link  508 at Tue Oct  6 16:00:19 2020, MaxMem=  2684354560 cpu:               0.7 elap:               0.9
 (Enter /udrive/faculty/rpeverati/g16/g16/l601.exe)
 Copying SCF densities to generalized density rwf, IOpCl= 0 IROHF=0.

 **********************************************************************

            Population analysis using the SCF density.

 **********************************************************************

 Orbital symmetries:
       Occupied  (A) (A) (A) (A) (A) (A) (A) (A) (A) (A) (A) (A)
                 (A) (A)
       Virtual   (A) (A) (A) (A) (A) (A) (A) (A) (A) (A) (A) (A)
                 (A) (A) (A) (A) (A) (A) (A) (A) (A) (A) (A) (A)
                 (A) (A) (A) (A) (A) (A) (A) (A) (A) (A) (A) (A)
 The electronic state is 1-A.
 Alpha  occ. eigenvalues --  -24.47187 -18.70616 -10.03659  -0.97735  -0.53557
 Alpha  occ. eigenvalues --   -0.49084  -0.27592  -0.27456  -0.27113  -0.14660
 Alpha  occ. eigenvalues --   -0.14386  -0.03770   0.11507   0.11651
 Alpha virt. eigenvalues --    0.30174   0.33661   0.36459   0.38023   0.40792
 Alpha virt. eigenvalues --    0.73454   0.74085   0.75435   1.05134   1.05486
 Alpha virt. eigenvalues --    1.08470   1.15150   1.20744   1.27209   1.29718
 Alpha virt. eigenvalues --    1.42381   1.43206   1.43625   1.63810   1.66070
 Alpha virt. eigenvalues --    1.71244   1.73471   2.01869   2.01944   2.11193
 Alpha virt. eigenvalues --    2.16073   2.18070   2.22106   2.22259   2.28890
 Alpha virt. eigenvalues --    2.38273   2.39490   2.58829   2.60028   2.85744
 Alpha virt. eigenvalues --    3.18890
          Condensed to atoms (all electrons):
               1          2          3          4          5          6
     1  F    9.322898   0.186240  -0.031203  -0.029549  -0.029818   0.000126
     2  C    0.186240   4.818014   0.351175   0.365270   0.365784   0.004589
     3  H   -0.031203   0.351175   0.577481  -0.040737  -0.038136   0.022441
     4  H   -0.029549   0.365270  -0.040737   0.605286  -0.040163   0.013886
     5  H   -0.029818   0.365784  -0.038136  -0.040163   0.620007   0.009470
     6  O    0.000126   0.004589   0.022441   0.013886   0.009470   8.905819
     7  H   -0.000007  -0.001045  -0.001772  -0.000424  -0.000273   0.141369
               7
     1  F   -0.000007
     2  C   -0.001045
     3  H   -0.001772
     4  H   -0.000424
     5  H   -0.000273
     6  O    0.141369
     7  H    0.656049
 Mulliken charges:
               1
     1  F   -0.418687
     2  C   -0.090028
     3  H    0.160751
     4  H    0.126431
     5  H    0.113130
     6  O   -1.097699
     7  H    0.206102
 Sum of Mulliken charges =  -1.00000
 Mulliken charges with hydrogens summed into heavy atoms:
               1
     1  F   -0.418687
     2  C    0.310284
     6  O   -0.891597
 Electronic spatial extent (au):  <R**2>=            361.7943
 Charge=             -1.0000 electrons
 Dipole moment (field-independent basis, Debye):
    X=              5.8311    Y=              0.6884    Z=              0.0155  Tot=              5.8716
 Quadrupole moment (field-independent basis, Debye-Ang):
   XX=            -40.8946   YY=            -19.6858   ZZ=            -19.7149
   XY=             -1.2309   XZ=              0.0151   YZ=              0.0127
 Traceless Quadrupole moment (field-independent basis, Debye-Ang):
   XX=            -14.1295   YY=              7.0793   ZZ=              7.0502
   XY=             -1.2309   XZ=              0.0151   YZ=              0.0127
 Octapole moment (field-independent basis, Debye-Ang**2):
  XXX=             27.1508  YYY=             -0.6702  ZZZ=              0.3493  XYY=              5.2775
  XXY=              4.2176  XXZ=              0.0038  XZZ=              5.4774  YZZ=              0.0211
  YYZ=             -0.3810  XYZ=             -0.0728
 Hexadecapole moment (field-independent basis, Debye-Ang**3):
 XXXX=           -400.4412 YYYY=            -23.8415 ZZZZ=            -22.6676 XXXY=            -11.3268
 XXXZ=             -0.0039 YYYX=             -1.5328 YYYZ=             -0.1598 ZZZX=             -0.0573
 ZZZY=              0.0902 XXYY=            -65.3052 XXZZ=            -65.3664 YYZZ=             -7.6856
 XXYZ=             -0.0005 YYXZ=             -0.0644 ZZXY=             -0.4926
 N-N= 6.743071484120D+01 E-N=-6.528862036294D+02  KE= 2.146088467162D+02
 No NMR shielding tensors so no spin-rotation constants.
 Leave Link  601 at Tue Oct  6 16:00:21 2020, MaxMem=  2684354560 cpu:               8.5 elap:               1.4
 (Enter /udrive/faculty/rpeverati/g16/g16/l701.exe)
 ... and contract with generalized density number  0.
 Compute integral first derivatives.
 Leave Link  701 at Tue Oct  6 16:00:22 2020, MaxMem=  2684354560 cpu:               7.0 elap:               1.1
 (Enter /udrive/faculty/rpeverati/g16/g16/l702.exe)
 L702 exits ... SP integral derivatives will be done elsewhere.
 Leave Link  702 at Tue Oct  6 16:00:23 2020, MaxMem=  2684354560 cpu:               1.7 elap:               0.7
 (Enter /udrive/faculty/rpeverati/g16/g16/l703.exe)
 Integral derivatives from FoFJK, PRISM(SPDF).
 Compute integral first derivatives, UseDBF=F ICtDFT=           0.
 Calling FoFJK, ICntrl=      2127 FMM=F ISym2X=0 I1Cent= 0 IOpClX= 0 NMat=1 NMatS=1 NMatT=0.
 FoFJK:  IHMeth= 1 ICntrl=    2127 DoSepK=F KAlg= 0 I1Cent=           0 FoldK=F
 IRaf=         0 NMat=       1 IRICut=       1 DoRegI=T DoRafI=F ISym2E= 0 IDoP0=0 IntGTp=1.
 FoFCou: FMM=F IPFlag=           0 FMFlag=      100000 FMFlg1=         800
         NFxFlg=           0 DoJE=F BraDBF=F KetDBF=F FulRan=T
         wScrn=  0.000000 ICntrl=      2127 IOpCl=  0 I1Cent=           0 NGrid=           0
         NMat0=    1 NMatS0=      1 NMatT0=    0 NMatD0=    1 NMtDS0=    0 NMtDT0=    0
 Symmetry not used in FoFCou.
 Leave Link  703 at Tue Oct  6 16:00:25 2020, MaxMem=  2684354560 cpu:              11.1 elap:               1.4
 (Enter /udrive/faculty/rpeverati/g16/g16/l716.exe)
 Dipole        = 2.29414014D+00 2.70849387D-01 6.07908340D-03
 ***** Axes restored to original set *****
 -------------------------------------------------------------------
 Center     Atomic                   Forces (Hartrees/Bohr)
 Number     Number              X              Y              Z
 -------------------------------------------------------------------
      1        9           0.005750165   -0.000792067   -0.000038651
      2        6           0.005538665   -0.000338883   -0.000026720
      3        1          -0.007152391   -0.002470724   -0.001277441
      4        1          -0.005453466    0.001052339    0.003519527
      5        1          -0.004423240    0.003634480   -0.002394626
      6        8           0.022712526   -0.008156234    0.000629139
      7        1          -0.016972259    0.007071088   -0.000411228
 -------------------------------------------------------------------
 Cartesian Forces:  Max     0.022712526 RMS     0.007322919
 Leave Link  716 at Tue Oct  6 16:00:26 2020, MaxMem=  2684354560 cpu:               2.1 elap:               0.6
 (Enter /udrive/faculty/rpeverati/g16/g16/l103.exe)

 GradGradGradGradGradGradGradGradGradGradGradGradGradGradGradGradGradGrad
 Berny optimization.
 Optmz: redundant internal coordinate code flag= 1
 FormGI is forming the generalized inverse of G from B-inverse, IUseBI=4.
 Internal  Forces:  Max     0.018238807 RMS     0.005861900
 Search for a local minimum.
 Step number   1 out of a maximum of  100
 All quantities printed in internal units (Hartrees-Bohrs-Radians)
 RMS Force = .58619D-02 SwitMx=.10000D-02 MixMth= 1
 Mixed Optimization -- RFO/linear search
 Second derivative matrix not updated -- first step.
 The second derivative matrix:
                          R1        R2        R3        R4        R5
           R1           0.42252
           R2           0.00000   0.35868
           R3           0.00000   0.00000   0.35727
           R4           0.00000   0.00000   0.00000   0.35629
           R5           0.00000   0.00000   0.00000   0.00000   0.02672
           R6           0.00000   0.00000   0.00000   0.00000   0.00000
           A1           0.00000   0.00000   0.00000   0.00000   0.00000
           A2           0.00000   0.00000   0.00000   0.00000   0.00000
           A3           0.00000   0.00000   0.00000   0.00000   0.00000
           A4           0.00000   0.00000   0.00000   0.00000   0.00000
           A5           0.00000   0.00000   0.00000   0.00000   0.00000
           A6           0.00000   0.00000   0.00000   0.00000   0.00000
           A7           0.00000   0.00000   0.00000   0.00000   0.00000
           A8           0.00000   0.00000   0.00000   0.00000   0.00000
           A9           0.00000   0.00000   0.00000   0.00000   0.00000
           D1           0.00000   0.00000   0.00000   0.00000   0.00000
           D2           0.00000   0.00000   0.00000   0.00000   0.00000
           D3           0.00000   0.00000   0.00000   0.00000   0.00000
                          R6        A1        A2        A3        A4
           R6           0.55454
           A1           0.00000   0.16000
           A2           0.00000   0.00000   0.16000
           A3           0.00000   0.00000   0.00000   0.16000
           A4           0.00000   0.00000   0.00000   0.00000   0.16000
           A5           0.00000   0.00000   0.00000   0.00000   0.00000
           A6           0.00000   0.00000   0.00000   0.00000   0.00000
           A7           0.00000   0.00000   0.00000   0.00000   0.00000
           A8           0.00000   0.00000   0.00000   0.00000   0.00000
           A9           0.00000   0.00000   0.00000   0.00000   0.00000
           D1           0.00000   0.00000   0.00000   0.00000   0.00000
           D2           0.00000   0.00000   0.00000   0.00000   0.00000
           D3           0.00000   0.00000   0.00000   0.00000   0.00000
                          A5        A6        A7        A8        A9
           A5           0.16000
           A6           0.00000   0.16000
           A7           0.00000   0.00000   0.25000
           A8           0.00000   0.00000   0.00000   0.01556
           A9           0.00000   0.00000   0.00000   0.00000   0.01556
           D1           0.00000   0.00000   0.00000   0.00000   0.00000
           D2           0.00000   0.00000   0.00000   0.00000   0.00000
           D3           0.00000   0.00000   0.00000   0.00000   0.00000
                          D1        D2        D3
           D1           0.00353
           D2           0.00000   0.00353
           D3           0.00000   0.00000   0.00353
 ITU=  0
 Eigenvectors of the second derivative matrix:
                           1         2         3         4         5
     Eigenvalues --     0.00353   0.01556   0.01556   0.02672   0.09881
   1         R1         0.00000   0.00000  -0.00000  -0.00000  -0.00000
   2         R2         0.00000   0.00000   0.00000   0.00000   0.00000
   3         R3         0.00000  -0.00000  -0.00000  -0.00000   0.00000
   4         R4        -0.00000  -0.00000   0.00000  -0.00000  -0.00000
   5         R5        -0.00000  -0.00000  -0.00000   1.00000   0.00000
   6         R6         0.00000   0.00000  -0.00000   0.00000   0.00000
   7         A1         0.00000   0.00000  -0.00000   0.00000   0.28675
   8         A2        -0.00000  -0.00000   0.00000  -0.00000   0.22801
   9         A3        -0.00000   0.00000   0.00000  -0.00000   0.34580
  10         A4         0.00000   0.00000  -0.00000   0.00000  -0.17509
  11         A5         0.00000  -0.00000   0.00000   0.00000  -0.11432
  12         A6         0.00000   0.00000  -0.00000   0.00000  -0.55804
  13         A7        -0.00000  -0.00000   0.00000  -0.00000   0.00000
  14         A8         0.00000   0.71649  -0.69760  -0.00000   0.00000
  15         A9        -0.00000   0.69760   0.71649   0.00000  -0.00000
  16         D1        -0.57735  -0.00000  -0.00000  -0.00000  -0.06133
  17         D2        -0.57735  -0.00000  -0.00000   0.00000  -0.40833
  18         D3        -0.57735  -0.00000  -0.00000  -0.00000   0.46966
                           6         7         8         9        10
     Eigenvalues --     0.09968   0.16000   0.16000   0.16000   0.25000
   1         R1        -0.00000  -0.00000   0.00000  -0.00000   0.00000
   2         R2        -0.00000  -0.00000   0.00000   0.00000  -0.00000
   3         R3        -0.00000  -0.00000   0.00000  -0.00000  -0.00000
   4         R4        -0.00000  -0.00000   0.00000  -0.00000  -0.00000
   5         R5        -0.00000   0.00000  -0.00000  -0.00000  -0.00000
   6         R6         0.00000   0.00000   0.00000  -0.00000  -0.00000
   7         A1        -0.03374   0.00308   0.80990  -0.20961  -0.00000
   8         A2        -0.52751  -0.25676  -0.42698  -0.22426   0.00000
   9         A3         0.45682   0.36266  -0.39875  -0.09769   0.00000
  10         A4        -0.22887   0.50971   0.04751   0.65626  -0.00000
  11         A5         0.26345  -0.72835  -0.01401   0.40538   0.00000
  12         A6         0.06804   0.11069  -0.01742  -0.54884  -0.00000
  13         A7         0.00000  -0.00000  -0.00000   0.00000  -1.00000
  14         A8        -0.00000  -0.00000  -0.00000   0.00000  -0.00000
  15         A9        -0.00000  -0.00000   0.00000  -0.00000   0.00000
  16         D1        -0.50328  -0.00000   0.00000   0.00000  -0.00000
  17         D2         0.30437  -0.00000   0.00000  -0.00000   0.00000
  18         D3         0.19890  -0.00000  -0.00000   0.00000   0.00000
                          11        12        13        14        15
     Eigenvalues --     0.35629   0.35727   0.35868   0.42252   0.55454
   1         R1         0.00000  -0.00000   0.00000  -1.00000  -0.00000
   2         R2         0.00000   0.00000  -1.00000  -0.00000   0.00000
   3         R3        -0.00000   1.00000   0.00000  -0.00000   0.00000
   4         R4        -1.00000  -0.00000  -0.00000  -0.00000  -0.00000
   5         R5        -0.00000   0.00000   0.00000   0.00000   0.00000
   6         R6        -0.00000   0.00000  -0.00000   0.00000  -1.00000
   7         A1         0.00000  -0.00000   0.00000   0.00000   0.00000
   8         A2        -0.00000  -0.00000  -0.00000  -0.00000  -0.00000
   9         A3        -0.00000   0.00000  -0.00000  -0.00000   0.00000
  10         A4        -0.00000   0.00000   0.00000  -0.00000   0.00000
  11         A5         0.00000  -0.00000   0.00000  -0.00000  -0.00000
  12         A6         0.00000   0.00000  -0.00000   0.00000  -0.00000
  13         A7         0.00000  -0.00000  -0.00000  -0.00000   0.00000
  14         A8         0.00000  -0.00000   0.00000   0.00000   0.00000
  15         A9        -0.00000   0.00000   0.00000   0.00000  -0.00000
  16         D1         0.00000  -0.00000   0.00000   0.00000  -0.00000
  17         D2         0.00000   0.00000  -0.00000   0.00000  -0.00000
  18         D3         0.00000  -0.00000  -0.00000  -0.00000  -0.00000
 Iter=   1 RLamda= 0.00000000D+00 Sum=-4.18160721D-03.
 Iter=   2 RLamda=-4.18160721D-03 Sum=-3.68144324D-03.
 Iter=   3 RLamda=-3.68144324D-03 Sum=-3.72954773D-03.
 Iter=   4 RLamda=-3.72954773D-03 Sum=-3.72482129D-03.
 Iter=   5 RLamda=-3.72482129D-03 Sum=-3.72528471D-03.
 Iter=   6 RLamda=-3.72528471D-03 Sum=-3.72523926D-03.
 Iter=   7 RLamda=-3.72523926D-03 Sum=-3.72524372D-03.
 RFO step:  Lambda=-3.72523926D-03 EMin= 3.53281448D-03
 Linear search not attempted -- first point.
 Iteration  1 RMS(Cart)=  0.11093319 RMS(Int)=  0.00925125
 Iteration  2 RMS(Cart)=  0.01181027 RMS(Int)=  0.00032415
 Iteration  3 RMS(Cart)=  0.00012789 RMS(Int)=  0.00029660
 Iteration  4 RMS(Cart)=  0.00000003 RMS(Int)=  0.00029660
 ITry= 1 IFail=0 DXMaxC= 2.73D-01 DCOld= 1.00D+10 DXMaxT= 3.00D-01 DXLimC= 3.00D+00 Rises=F
 Variable       Old X    -DE/DX   Delta X   Delta X   Delta X     New X
                                 (Linear)    (Quad)   (Total)
    R1        2.68603   0.00580   0.00000   0.01362   0.01362   2.69965
    R2        2.04288   0.00404   0.00000   0.01114   0.01114   2.05402
    R3        2.04511   0.00509   0.00000   0.01411   0.01411   2.05922
    R4        2.04666   0.00510   0.00000   0.01416   0.01416   2.06082
    R5        4.37067  -0.00568   0.00000  -0.18668  -0.18668   4.18400
    R6        1.81431   0.01824   0.00000   0.03267   0.03267   1.84698
    A1        1.91696   0.00259   0.00000   0.02279   0.02273   1.93969
    A2        1.89841   0.00293   0.00000   0.02460   0.02456   1.92297
    A3        1.89013   0.00249   0.00000   0.02243   0.02233   1.91247
    A4        1.91156  -0.00381   0.00000  -0.02696  -0.02733   1.88423
    A5        1.91870  -0.00263   0.00000  -0.01941  -0.01981   1.89889
    A6        1.92786  -0.00140   0.00000  -0.02211  -0.02287   1.90499
    A7        1.68776  -0.00845   0.00000  -0.03330  -0.03330   1.65446
    A8        3.14635  -0.00418   0.00000  -0.21693  -0.21693   2.92942
    A9        2.88525   0.00059   0.00000   0.03070   0.03070   2.91595
    D1        3.07208  -0.00043   0.00000  -0.05064  -0.05069   3.02139
    D2        0.98823  -0.00326   0.00000  -0.07816  -0.07755   0.91069
    D3       -1.13302   0.00260   0.00000  -0.02099  -0.02155  -1.15458
         Item               Value     Threshold  Converged?
 Maximum Force            0.018239     0.000450     NO 
 RMS     Force            0.005862     0.000300     NO 
 Maximum Displacement     0.273217     0.001800     NO 
 RMS     Displacement     0.119999     0.001200     NO 
 Predicted change in Energy=-2.040091D-03
 Lowest energy point so far.  Saving SCF results.
 Largest change from initial coordinates is atom    7       0.179 Angstoms.
 GradGradGradGradGradGradGradGradGradGradGradGradGradGradGradGradGradGrad

 Leave Link  103 at Tue Oct  6 16:00:28 2020, MaxMem=  2684354560 cpu:              17.4 elap:               2.0
 (Enter /udrive/faculty/rpeverati/g16/g16/l202.exe)
                          Input orientation:                          
 ---------------------------------------------------------------------
 Center     Atomic      Atomic             Coordinates (Angstroms)
 Number     Number       Type             X           Y           Z
 ---------------------------------------------------------------------
      1          9           0        1.878998   -0.027089    0.029951
      2          6           0        0.456148    0.095930   -0.005221
      3          1           0       -0.006255   -0.810268   -0.387879
      4          1           0        0.069240    0.272717    0.998010
      5          1           0        0.177403    0.931289   -0.648453
      6          8           0       -2.078103   -0.152798    0.033202
      7          1           0       -2.950789    0.286462    0.006014
 ---------------------------------------------------------------------
                    Distance matrix (angstroms):
                    1          2          3          4          5
     1  F    0.000000
     2  C    1.428591   0.000000
     3  H    2.083777   1.086940   0.000000
     4  H    2.074186   1.089690   1.760467   0.000000
     5  H    2.067400   1.090537   1.770494   1.776586   0.000000
     6  O    3.959099   2.546718   2.214076   2.392279   2.593686
     7  H    4.840013   3.412279   3.166741   3.178808   3.260325
                    6          7
     6  O    0.000000
     7  H    0.977378   0.000000
 Stoichiometry    CH4FO(1-)
 Framework group  C1[X(CH4FO)]
 Deg. of freedom    15
 Full point group                 C1      NOp   1
 RotChk:  IX=0 Diff= 2.61D-01
 Largest Abelian subgroup         C1      NOp   1
 Largest concise Abelian subgroup C1      NOp   1
                         Standard orientation:                         
 ---------------------------------------------------------------------
 Center     Atomic      Atomic             Coordinates (Angstroms)
 Number     Number       Type             X           Y           Z
 ---------------------------------------------------------------------
      1          9           0        1.866474   -0.063536    0.004182
      2          6           0        0.446848    0.096024   -0.004516
      3          1           0       -0.035366   -0.714662   -0.544605
      4          1           0        0.062341    0.095940    1.015081
      5          1           0        0.188253    1.040616   -0.484249
      6          8           0       -2.092461   -0.098081   -0.005793
      7          1           0       -2.954895    0.358439    0.049576
 ---------------------------------------------------------------------
 Rotational constants (GHZ):         138.6422200           3.4004295           3.3892315
 Leave Link  202 at Tue Oct  6 16:00:29 2020, MaxMem=  2684354560 cpu:               2.1 elap:               0.8
 (Enter /udrive/faculty/rpeverati/g16/g16/l301.exe)
 Standard basis: 6-31G(d) (5D, 7F)
 Ernie: Thresh=  0.10000D-02 Tol=  0.10000D-05 Strict=F.
 There are    53 symmetry adapted cartesian basis functions of A   symmetry.
 There are    50 symmetry adapted basis functions of A   symmetry.
    50 basis functions,   100 primitive gaussians,    53 cartesian basis functions
    14 alpha electrons       14 beta electrons
       nuclear repulsion energy        68.1846672999 Hartrees.
 IExCor=  402 DFT=T Ex+Corr=B3LYP ExCW=0 ScaHFX=  0.200000
 ScaDFX=  0.800000  0.720000  1.000000  0.810000 ScalE2=  1.000000  1.000000
 IRadAn=      5 IRanWt=     -1 IRanGd=            0 ICorTp=0 IEmpDi=  4
 NAtoms=    7 NActive=    7 NUniq=    7 SFac= 1.00D+00 NAtFMM=   60 NAOKFM=F Big=F
 Integral buffers will be    131072 words long.
 Raffenetti 2 integral format.
 Two-electron integral symmetry is turned on.
 Leave Link  301 at Tue Oct  6 16:00:30 2020, MaxMem=  2684354560 cpu:               2.3 elap:               0.8
 (Enter /udrive/faculty/rpeverati/g16/g16/l302.exe)
 NPDir=0 NMtPBC=     1 NCelOv=     1 NCel=       1 NClECP=     1 NCelD=      1
         NCelK=      1 NCelE2=     1 NClLst=     1 CellRange=     0.0.
 One-electron integrals computed using PRISM.
 One-electron integral symmetry used in STVInt
 NBasis=    50 RedAO= T EigKep=  1.91D-02  NBF=    50
 NBsUse=    50 1.00D-06 EigRej= -1.00D+00 NBFU=    50
 Precomputing XC quadrature grid using
 IXCGrd= 4 IRadAn=           5 IRanWt=          -1 IRanGd=           0 AccXCQ= 0.00D+00.
 Generated NRdTot=       0 NPtTot=           0 NUsed=           0 NTot=          32
 NSgBfM=    53    53    53    53    53 MxSgAt=     7 MxSgA2=     7.
 Leave Link  302 at Tue Oct  6 16:00:31 2020, MaxMem=  2684354560 cpu:               4.9 elap:               1.0
 (Enter /udrive/faculty/rpeverati/g16/g16/l303.exe)
 DipDrv:  MaxL=1.
 Leave Link  303 at Tue Oct  6 16:00:33 2020, MaxMem=  2684354560 cpu:               2.9 elap:               0.9
 (Enter /udrive/faculty/rpeverati/g16/g16/l401.exe)
 Initial guess from the checkpoint file:  "MN_62_hoch3fcomp2_BH76_B3LYP_6-31Gs.chk"
 SCF N**3 symmetry information disabled.
 B after Tr=    -0.000000    0.000000    0.000000
         Rot=    0.996414   -0.084603    0.000759   -0.000929 Ang=  -9.71 deg.
 Guess basis will be translated and rotated to current coordinates.
 JPrj=2 DoOrth=T DoCkMO=T.
 Generating alternative initial guess.
 ExpMin= 1.61D-01 ExpMax= 7.00D+03 ExpMxC= 1.05D+03 IAcc=2 IRadAn=         4 AccDes= 0.00D+00
 Harris functional with IExCor=  402 and IRadAn=       4 diagonalized for initial guess.
 HarFok:  IExCor=  402 AccDes= 0.00D+00 IRadAn=         4 IDoV= 1 UseB2=F ITyADJ=14
 ICtDFT=  3500011 ScaDFX=  1.000000  1.000000  1.000000  1.000000
 FoFCou: FMM=F IPFlag=           0 FMFlag=      100000 FMFlg1=           0
         NFxFlg=           0 DoJE=T BraDBF=F KetDBF=T FulRan=T
         wScrn=  0.000000 ICntrl=       500 IOpCl=  0 I1Cent=   200000004 NGrid=           0
         NMat0=    1 NMatS0=      1 NMatT0=    0 NMatD0=    1 NMtDS0=    0 NMtDT0=    0
 Petite list used in FoFCou.
 Harris En= -215.771602090861    
 Leave Link  401 at Tue Oct  6 16:00:34 2020, MaxMem=  2684354560 cpu:               9.0 elap:               1.4
 (Enter /udrive/faculty/rpeverati/g16/g16/l502.exe)
 Keep R1 ints in memory in canonical form, NReq=11319949.
 FoFCou: FMM=F IPFlag=           0 FMFlag=           0 FMFlg1=           0
         NFxFlg=           0 DoJE=F BraDBF=F KetDBF=F FulRan=T
         wScrn=  0.000000 ICntrl=       600 IOpCl=  0 I1Cent=           0 NGrid=           0
         NMat0=    1 NMatS0=   1275 NMatT0=    0 NMatD0=    1 NMtDS0=    0 NMtDT0=    0
 Symmetry not used in FoFCou.
 Two-electron integral symmetry not used.
 Closed shell SCF:
 Using DIIS extrapolation, IDIIS=  1040.
 NGot=  2684354560 LenX=  2683534079 LenY=  2683530829
 Requested convergence on RMS density matrix=1.00D-08 within 120 cycles.
 Requested convergence on MAX density matrix=1.00D-06.
 Requested convergence on             energy=1.00D-06.
 No special actions if energy rises.
 Integral accuracy reduced to 1.0D-05 until final iterations.

 Cycle   1  Pass 0  IDiag  1:
 E= -215.474705185905    
 DIIS: error= 1.24D-02 at cycle   1 NSaved=   1.
 NSaved= 1 IEnMin= 1 EnMin= -215.474705185905     IErMin= 1 ErrMin= 1.24D-02
 ErrMax= 1.24D-02  0.00D+00 EMaxC= 1.00D-01 BMatC= 4.22D-03 BMatP= 4.22D-03
 IDIUse=3 WtCom= 8.76D-01 WtEn= 1.24D-01
 Coeff-Com:  0.100D+01
 Coeff-En:   0.100D+01
 Coeff:      0.100D+01
 Recover alternate guess density for next cycle.
 RMSDP=1.02D-02 MaxDP=1.22D-01              OVMax= 0.00D+00

 Cycle   2  Pass 0  IDiag  1:
 E= -215.250705373037     Delta-E=        0.223999812868 Rises=F Damp=F
 Switch densities from cycles 1 and 2 for lowest energy.
 DIIS: error= 1.05D-01 at cycle   2 NSaved=   2.
 NSaved= 2 IEnMin= 1 EnMin= -215.474705185905     IErMin= 1 ErrMin= 1.24D-02
 ErrMax= 1.05D-01  0.00D+00 EMaxC= 1.00D+00 BMatC= 2.80D-01 BMatP= 4.22D-03
 IDIUse=1 WtCom= 1.00D+00 WtEn= 0.00D+00
 Coeff-Com:  0.991D+00 0.908D-02
 Coeff:      0.991D+00 0.908D-02
 Gap=     0.214 Goal=   None    Shift=    0.000
 RMSDP=2.99D-03 MaxDP=3.82D-02 DE= 2.24D-01 OVMax= 1.67D-01

 Cycle   3  Pass 0  IDiag  1:
 E= -215.482479209224     Delta-E=       -0.231773836187 Rises=F Damp=F
 DIIS: error= 3.39D-03 at cycle   3 NSaved=   3.
 NSaved= 3 IEnMin= 3 EnMin= -215.482479209224     IErMin= 3 ErrMin= 3.39D-03
 ErrMax= 3.39D-03  0.00D+00 EMaxC= 1.00D+00 BMatC= 3.39D-04 BMatP= 4.22D-03
 IDIUse=1 WtCom= 1.00D+00 WtEn= 0.00D+00
 Coeff-Com: -0.507D-01 0.293D-01 0.102D+01
 Coeff:     -0.507D-01 0.293D-01 0.102D+01
 Gap=     0.203 Goal=   None    Shift=    0.000
 RMSDP=6.57D-04 MaxDP=6.80D-03 DE=-2.32D-01 OVMax= 1.18D-02

 Cycle   4  Pass 0  IDiag  1:
 E= -215.482739791717     Delta-E=       -0.000260582493 Rises=F Damp=F
 DIIS: error= 1.72D-03 at cycle   4 NSaved=   4.
 NSaved= 4 IEnMin= 4 EnMin= -215.482739791717     IErMin= 4 ErrMin= 1.72D-03
 ErrMax= 1.72D-03  0.00D+00 EMaxC= 1.00D+00 BMatC= 1.54D-04 BMatP= 3.39D-04
 IDIUse=1 WtCom= 1.00D+00 WtEn= 0.00D+00
 Coeff-Com: -0.478D-01 0.165D-01 0.578D+00 0.453D+00
 Coeff:     -0.478D-01 0.165D-01 0.578D+00 0.453D+00
 Gap=     0.203 Goal=   None    Shift=    0.000
 RMSDP=1.61D-04 MaxDP=2.75D-03 DE=-2.61D-04 OVMax= 3.36D-03

 Cycle   5  Pass 0  IDiag  1:
 E= -215.482840489333     Delta-E=       -0.000100697616 Rises=F Damp=F
 DIIS: error= 1.82D-04 at cycle   5 NSaved=   5.
 NSaved= 5 IEnMin= 5 EnMin= -215.482840489333     IErMin= 5 ErrMin= 1.82D-04
 ErrMax= 1.82D-04  0.00D+00 EMaxC= 1.00D+00 BMatC= 2.11D-06 BMatP= 1.54D-04
 IDIUse=1 WtCom= 1.00D+00 WtEn= 0.00D+00
 Coeff-Com: -0.563D-02 0.925D-03 0.323D-01 0.110D+00 0.862D+00
 Coeff:     -0.563D-02 0.925D-03 0.323D-01 0.110D+00 0.862D+00
 Gap=     0.203 Goal=   None    Shift=    0.000
 RMSDP=5.12D-05 MaxDP=7.93D-04 DE=-1.01D-04 OVMax= 1.00D-03

 Cycle   6  Pass 0  IDiag  1:
 E= -215.482842594162     Delta-E=       -0.000002104829 Rises=F Damp=F
 DIIS: error= 3.20D-05 at cycle   6 NSaved=   6.
 NSaved= 6 IEnMin= 6 EnMin= -215.482842594162     IErMin= 6 ErrMin= 3.20D-05
 ErrMax= 3.20D-05  0.00D+00 EMaxC= 1.00D+00 BMatC= 8.94D-08 BMatP= 2.11D-06
 IDIUse=1 WtCom= 1.00D+00 WtEn= 0.00D+00
 Coeff-Com:  0.151D-02-0.647D-03-0.255D-01 0.396D-03 0.205D+00 0.819D+00
 Coeff:      0.151D-02-0.647D-03-0.255D-01 0.396D-03 0.205D+00 0.819D+00
 Gap=     0.203 Goal=   None    Shift=    0.000
 RMSDP=1.49D-05 MaxDP=2.20D-04 DE=-2.10D-06 OVMax= 2.94D-04

 Cycle   7  Pass 0  IDiag  1:
 E= -215.482842702639     Delta-E=       -0.000000108477 Rises=F Damp=F
 DIIS: error= 2.11D-05 at cycle   7 NSaved=   7.
 NSaved= 7 IEnMin= 7 EnMin= -215.482842702639     IErMin= 7 ErrMin= 2.11D-05
 ErrMax= 2.11D-05  0.00D+00 EMaxC= 1.00D+00 BMatC= 1.94D-08 BMatP= 8.94D-08
 IDIUse=1 WtCom= 1.00D+00 WtEn= 0.00D+00
 Coeff-Com:  0.849D-03-0.303D-03-0.134D-01-0.510D-02 0.556D-01 0.391D+00
 Coeff-Com:  0.572D+00
 Coeff:      0.849D-03-0.303D-03-0.134D-01-0.510D-02 0.556D-01 0.391D+00
 Coeff:      0.572D+00
 Gap=     0.203 Goal=   None    Shift=    0.000
 RMSDP=3.66D-06 MaxDP=3.76D-05 DE=-1.08D-07 OVMax= 5.72D-05

 Initial convergence to 1.0D-05 achieved.  Increase integral accuracy.
 Cycle   8  Pass 1  IDiag  1:
 E= -215.482841004977     Delta-E=        0.000001697662 Rises=F Damp=F
 DIIS: error= 3.35D-06 at cycle   1 NSaved=   1.
 NSaved= 1 IEnMin= 1 EnMin= -215.482841004977     IErMin= 1 ErrMin= 3.35D-06
 ErrMax= 3.35D-06  0.00D+00 EMaxC= 1.00D+00 BMatC= 5.45D-10 BMatP= 5.45D-10
 IDIUse=1 WtCom= 1.00D+00 WtEn= 0.00D+00
 Coeff-Com:  0.100D+01
 Coeff:      0.100D+01
 Gap=     0.203 Goal=   None    Shift=    0.000
 RMSDP=3.66D-06 MaxDP=3.76D-05 DE= 1.70D-06 OVMax= 2.46D-05

 Cycle   9  Pass 1  IDiag  1:
 E= -215.482841005020     Delta-E=       -0.000000000043 Rises=F Damp=F
 DIIS: error= 3.91D-06 at cycle   2 NSaved=   2.
 NSaved= 2 IEnMin= 2 EnMin= -215.482841005020     IErMin= 1 ErrMin= 3.35D-06
 ErrMax= 3.91D-06  0.00D+00 EMaxC= 1.00D+00 BMatC= 8.02D-10 BMatP= 5.45D-10
 IDIUse=1 WtCom= 1.00D+00 WtEn= 0.00D+00
 Coeff-Com:  0.552D+00 0.448D+00
 Coeff:      0.552D+00 0.448D+00
 Gap=     0.203 Goal=   None    Shift=    0.000
 RMSDP=5.97D-07 MaxDP=5.50D-06 DE=-4.30D-11 OVMax= 8.67D-06

 Cycle  10  Pass 1  IDiag  1:
 E= -215.482841005725     Delta-E=       -0.000000000705 Rises=F Damp=F
 DIIS: error= 8.91D-07 at cycle   3 NSaved=   3.
 NSaved= 3 IEnMin= 3 EnMin= -215.482841005725     IErMin= 3 ErrMin= 8.91D-07
 ErrMax= 8.91D-07  0.00D+00 EMaxC= 1.00D+00 BMatC= 2.56D-11 BMatP= 5.45D-10
 IDIUse=1 WtCom= 1.00D+00 WtEn= 0.00D+00
 Coeff-Com:  0.140D+00 0.186D+00 0.674D+00
 Coeff:      0.140D+00 0.186D+00 0.674D+00
 Gap=     0.203 Goal=   None    Shift=    0.000
 RMSDP=1.54D-07 MaxDP=1.81D-06 DE=-7.05D-10 OVMax= 2.54D-06

 Cycle  11  Pass 1  IDiag  1:
 E= -215.482841005745     Delta-E=       -0.000000000020 Rises=F Damp=F
 DIIS: error= 3.19D-07 at cycle   4 NSaved=   4.
 NSaved= 4 IEnMin= 4 EnMin= -215.482841005745     IErMin= 4 ErrMin= 3.19D-07
 ErrMax= 3.19D-07  0.00D+00 EMaxC= 1.00D+00 BMatC= 4.02D-12 BMatP= 2.56D-11
 IDIUse=1 WtCom= 1.00D+00 WtEn= 0.00D+00
 Coeff-Com: -0.167D-01 0.239D-01 0.312D+00 0.681D+00
 Coeff:     -0.167D-01 0.239D-01 0.312D+00 0.681D+00
 Gap=     0.203 Goal=   None    Shift=    0.000
 RMSDP=6.61D-08 MaxDP=7.44D-07 DE=-1.99D-11 OVMax= 1.14D-06

 Cycle  12  Pass 1  IDiag  1:
 E= -215.482841005749     Delta-E=       -0.000000000004 Rises=F Damp=F
 DIIS: error= 6.60D-08 at cycle   5 NSaved=   5.
 NSaved= 5 IEnMin= 5 EnMin= -215.482841005749     IErMin= 5 ErrMin= 6.60D-08
 ErrMax= 6.60D-08  0.00D+00 EMaxC= 1.00D+00 BMatC= 3.11D-13 BMatP= 4.02D-12
 IDIUse=1 WtCom= 1.00D+00 WtEn= 0.00D+00
 Coeff-Com: -0.222D-01-0.848D-02 0.701D-01 0.277D+00 0.683D+00
 Coeff:     -0.222D-01-0.848D-02 0.701D-01 0.277D+00 0.683D+00
 Gap=     0.203 Goal=   None    Shift=    0.000
 RMSDP=1.84D-08 MaxDP=2.61D-07 DE=-3.92D-12 OVMax= 3.53D-07

 Cycle  13  Pass 1  IDiag  1:
 E= -215.482841005749     Delta-E=       -0.000000000001 Rises=F Damp=F
 DIIS: error= 3.55D-08 at cycle   6 NSaved=   6.
 NSaved= 6 IEnMin= 6 EnMin= -215.482841005749     IErMin= 6 ErrMin= 3.55D-08
 ErrMax= 3.55D-08  0.00D+00 EMaxC= 1.00D+00 BMatC= 6.21D-14 BMatP= 3.11D-13
 IDIUse=1 WtCom= 1.00D+00 WtEn= 0.00D+00
 Coeff-Com: -0.105D-01-0.677D-02 0.139D-01 0.973D-01 0.385D+00 0.522D+00
 Coeff:     -0.105D-01-0.677D-02 0.139D-01 0.973D-01 0.385D+00 0.522D+00
 Gap=     0.203 Goal=   None    Shift=    0.000
 RMSDP=4.52D-09 MaxDP=4.98D-08 DE=-5.12D-13 OVMax= 6.59D-08

 SCF Done:  E(RB3LYP) =  -215.482841006     A.U. after   13 cycles
            NFock= 13  Conv=0.45D-08     -V/T= 2.0043
 KE= 2.145537655444D+02 PE=-6.544541340208D+02 EE= 1.562328601708D+02
 Leave Link  502 at Tue Oct  6 16:00:38 2020, MaxMem=  2684354560 cpu:              26.5 elap:               2.9
 (Enter /udrive/faculty/rpeverati/g16/g16/l508.exe)
 QCSCF skips out because SCF is already converged.
 Leave Link  508 at Tue Oct  6 16:00:39 2020, MaxMem=  2684354560 cpu:               0.7 elap:               0.7
 (Enter /udrive/faculty/rpeverati/g16/g16/l701.exe)
 ... and contract with generalized density number  0.
 Compute integral first derivatives.
 Leave Link  701 at Tue Oct  6 16:00:41 2020, MaxMem=  2684354560 cpu:               6.9 elap:               1.2
 (Enter /udrive/faculty/rpeverati/g16/g16/l702.exe)
 L702 exits ... SP integral derivatives will be done elsewhere.
 Leave Link  702 at Tue Oct  6 16:00:42 2020, MaxMem=  2684354560 cpu:               1.9 elap:               0.6
 (Enter /udrive/faculty/rpeverati/g16/g16/l703.exe)
 Integral derivatives from FoFJK, PRISM(SPDF).
 Compute integral first derivatives, UseDBF=F ICtDFT=           0.
 Calling FoFJK, ICntrl=      2127 FMM=F ISym2X=0 I1Cent= 0 IOpClX= 0 NMat=1 NMatS=1 NMatT=0.
 FoFJK:  IHMeth= 1 ICntrl=    2127 DoSepK=F KAlg= 0 I1Cent=           0 FoldK=F
 IRaf=         0 NMat=       1 IRICut=       1 DoRegI=T DoRafI=F ISym2E= 0 IDoP0=0 IntGTp=1.
 FoFCou: FMM=F IPFlag=           0 FMFlag=      100000 FMFlg1=         800
         NFxFlg=           0 DoJE=F BraDBF=F KetDBF=F FulRan=T
         wScrn=  0.000000 ICntrl=      2127 IOpCl=  0 I1Cent=           0 NGrid=           0
         NMat0=    1 NMatS0=      1 NMatT0=    0 NMatD0=    1 NMtDS0=    0 NMtDT0=    0
 Symmetry not used in FoFCou.
 Leave Link  703 at Tue Oct  6 16:00:43 2020, MaxMem=  2684354560 cpu:              10.5 elap:               1.4
 (Enter /udrive/faculty/rpeverati/g16/g16/l716.exe)
 Dipole        = 2.06457187D+00 3.53049051D-01 1.90457260D-02
 ***** Axes restored to original set *****
 -------------------------------------------------------------------
 Center     Atomic                   Forces (Hartrees/Bohr)
 Number     Number              X              Y              Z
 -------------------------------------------------------------------
      1        9           0.002831935   -0.000367317   -0.000578353
      2        6          -0.003215994    0.002317106    0.001934244
      3        1          -0.000619522   -0.000722453   -0.000794365
      4        1          -0.000826919   -0.000223562   -0.000912657
      5        1           0.000667770    0.000244251   -0.000330264
      6        8           0.002222592   -0.004828086    0.001700861
      7        1          -0.001059862    0.003580061   -0.001019467
 -------------------------------------------------------------------
 Cartesian Forces:  Max     0.004828086 RMS     0.001924566
 Leave Link  716 at Tue Oct  6 16:00:45 2020, MaxMem=  2684354560 cpu:               2.2 elap:               0.9
 (Enter /udrive/faculty/rpeverati/g16/g16/l103.exe)

 GradGradGradGradGradGradGradGradGradGradGradGradGradGradGradGradGradGrad
 Berny optimization.
 Optmz: redundant internal coordinate code flag= 1
 Using GEDIIS/GDIIS optimizer.
 Red2BG:  D1=  6.52D-02 OD1=  1.89D-01 B2RMS=  0.00D+00 IAprox=0
 FormGI is forming the generalized inverse of G from B-inverse, IUseBI=4.
 Internal  Forces:  Max     0.005321319 RMS     0.001775864
 Search for a local minimum.
 Step number   2 out of a maximum of  100
 All quantities printed in internal units (Hartrees-Bohrs-Radians)
 RMS Force = .17759D-02 SwitMx=.10000D-02 MixMth= 1
 Mixed Optimization -- RFO/linear search
 Update second derivatives using D2CorX and points    1    2
 DE= -2.80D-03 DEPred=-2.04D-03 R= 1.37D+00
 TightC=F SS=  1.41D+00  RLast= 3.13D-01 DXNew= 5.0454D-01 9.3945D-01
 Trust test= 1.37D+00 RLast= 3.13D-01 DXMaxT set to 5.05D-01
 The second derivative matrix:
                          R1        R2        R3        R4        R5
           R1           0.41703
           R2          -0.00327   0.35687
           R3          -0.00032   0.00083   0.36558
           R4          -0.00132   0.00001   0.00641   0.36103
           R5           0.00219   0.00071  -0.00465  -0.00320   0.02859
           R6          -0.00809  -0.00271   0.01661   0.01138  -0.00658
           A1          -0.00152  -0.00046   0.00354   0.00247  -0.00148
           A2          -0.00425  -0.00263  -0.00116  -0.00173   0.00221
           A3          -0.00164  -0.00057   0.00319   0.00217  -0.00123
           A4           0.00310   0.00160  -0.00182  -0.00082  -0.00008
           A5           0.00046  -0.00031  -0.00474  -0.00360   0.00255
           A6           0.00419   0.00265   0.00153   0.00201  -0.00240
           A7           0.00502   0.00232  -0.00514  -0.00303   0.00112
           A8           0.00742   0.00537   0.00823   0.00785  -0.00742
           A9          -0.00005   0.00007   0.00076   0.00058  -0.00042
           D1          -0.00025  -0.00024  -0.00079  -0.00066   0.00054
           D2          -0.00331  -0.00278  -0.00682  -0.00596   0.00512
           D3           0.00488   0.00399   0.00921   0.00812  -0.00706
                          R6        A1        A2        A3        A4
           R6           0.57770
           A1           0.00522   0.16116
           A2          -0.00812  -0.00157   0.15682
           A3           0.00433   0.00098  -0.00163   0.16081
           A4           0.00045  -0.00002   0.00261   0.00013   0.15874
           A5          -0.00911  -0.00195   0.00087  -0.00175   0.00089
           A6           0.00880   0.00171   0.00309   0.00176  -0.00267
           A7          -0.00376  -0.00098   0.00447  -0.00065  -0.00152
           A8           0.02691   0.00544   0.00488   0.00529  -0.00606
           A9           0.00149   0.00032  -0.00012   0.00029  -0.00016
           D1          -0.00195  -0.00040  -0.00011  -0.00038   0.00032
           D2          -0.01847  -0.00380  -0.00183  -0.00360   0.00346
           D3           0.02549   0.00523   0.00280   0.00498  -0.00490
                          A5        A6        A7        A8        A9
           A5           0.16269
           A6          -0.00108   0.15701
           A7           0.00269  -0.00466   0.24896
           A8          -0.00507  -0.00446  -0.01187   0.01282
           A9          -0.00043   0.00015  -0.00045   0.00077   0.01563
           D1           0.00046   0.00007   0.00073  -0.00039  -0.00007
           D2           0.00407   0.00150   0.00735  -0.00172  -0.00063
           D3          -0.00551  -0.00234  -0.01028   0.00175   0.00086
                          D1        D2        D3
           D1           0.00359
           D2           0.00047   0.00681
           D3          -0.00061  -0.00415   0.00875
 ITU=  1  0
 Use linear search instead of GDIIS.
 Eigenvectors of the second derivative matrix:
                           1         2         3         4         5
     Eigenvalues --     0.00333   0.00749   0.01562   0.03009   0.09823
   1         R1         0.00583  -0.01999  -0.00108   0.00125   0.00437
   2         R2         0.00453  -0.01541  -0.00099   0.00285   0.00347
   3         R3         0.00407  -0.01265  -0.00193   0.01614   0.00228
   4         R4         0.00452  -0.01450  -0.00176   0.01291   0.00285
   5         R5        -0.07335   0.28912   0.04857   0.95104   0.01196
   6         R6         0.01135  -0.03708  -0.00361   0.02193   0.00685
   7         A1         0.00634  -0.02005  -0.00354   0.03413   0.04580
   8         A2         0.01000  -0.03483  -0.00243   0.00899   0.53675
   9         A3         0.00594  -0.01840  -0.00364   0.03747  -0.42839
  10         A4        -0.00988   0.03312   0.00333  -0.02278   0.21791
  11         A5        -0.00561   0.01759   0.00310  -0.02888  -0.27533
  12         A6        -0.00744   0.02470   0.00347  -0.03148  -0.09914
  13         A7        -0.01247   0.04184   0.00348  -0.01764  -0.01071
  14         A8        -0.17054   0.93210   0.04079  -0.29240   0.01745
  15         A9         0.01135  -0.05314   0.99792  -0.03330  -0.00070
  16         D1        -0.56630  -0.11130   0.00086  -0.02116   0.50526
  17         D2        -0.57613  -0.07749   0.00385  -0.03836  -0.32517
  18         D3        -0.55862  -0.13522  -0.00385   0.02788  -0.17746
                           6         7         8         9        10
     Eigenvalues --     0.10960   0.15833   0.16000   0.16527   0.24948
   1         R1         0.00121   0.01166   0.00000   0.00356  -0.02646
   2         R2        -0.00282   0.00922  -0.00000   0.00696  -0.01861
   3         R3        -0.03045   0.00158  -0.00000   0.03434   0.04965
   4         R4        -0.02353   0.00426  -0.00000   0.02783   0.03073
   5         R5        -0.05053   0.00990  -0.00000   0.02971   0.00630
   6         R6        -0.03363   0.01213  -0.00000   0.03793   0.01572
   7         A1         0.22131  -0.21612   0.71464  -0.41223  -0.03552
   8         A2         0.20458   0.49272  -0.22645   0.04279   0.01942
   9         A3         0.32884  -0.02113  -0.52689  -0.23194  -0.02721
  10         A4        -0.15734  -0.76172  -0.24239   0.26396  -0.00379
  11         A5         0.00835   0.24795   0.31714   0.73614   0.04605
  12         A6        -0.63282   0.25677  -0.03263  -0.38618   0.00237
  13         A7         0.03270  -0.03164   0.00000  -0.06026   0.99391
  14         A8         0.08067   0.02828  -0.00000  -0.03257  -0.04892
  15         A9         0.00731  -0.00027   0.00000  -0.00404  -0.00203
  16         D1        -0.08419  -0.00364  -0.00000   0.01053   0.00573
  17         D2        -0.36992   0.01170  -0.00000   0.03879   0.00586
  18         D3         0.46799  -0.00343   0.00000  -0.05534  -0.02025
                          11        12        13        14        15
     Eigenvalues --     0.35614   0.35712   0.36949   0.41717   0.58293
   1         R1        -0.04120  -0.03202  -0.01097   0.99681   0.04715
   2         R2        -0.60447  -0.79031  -0.07998  -0.05268   0.00959
   3         R3         0.49868  -0.30180  -0.80518   0.00688  -0.08281
   4         R4        -0.61924   0.53166  -0.57245  -0.01173  -0.05778
   5         R5        -0.00205  -0.00239   0.01585   0.00437   0.01432
   6         R6        -0.01281  -0.01480   0.10488   0.04632  -0.99069
   7         A1        -0.00298  -0.00096  -0.02606   0.00295  -0.02717
   8         A2         0.00568   0.00440  -0.00025  -0.00868   0.00580
   9         A3        -0.00226  -0.00057  -0.02284   0.00217  -0.02438
  10         A4        -0.00442  -0.00409   0.01314   0.00733   0.00755
  11         A5         0.00368   0.00121   0.03129  -0.00364   0.03147
  12         A6         0.00033  -0.00005   0.00615  -0.00008   0.00811
  13         A7        -0.01909  -0.01738   0.04951   0.02632   0.01676
  14         A8        -0.01284  -0.00850  -0.02831   0.01964  -0.04954
  15         A9        -0.00013   0.00003  -0.00253   0.00005  -0.00297
  16         D1         0.00079   0.00042   0.00375  -0.00097   0.00434
  17         D2        -0.00155  -0.00179   0.01146   0.00321   0.00888
  18         D3        -0.00148  -0.00010  -0.02051   0.00119  -0.02240
 Iter=   1 RLamda= 0.00000000D+00 Sum=-2.12495482D-03.
 Iter=   2 RLamda=-2.12495482D-03 Sum=-1.73659190D-03.
 Iter=   3 RLamda=-1.73659190D-03 Sum=-1.79230560D-03.
 Iter=   4 RLamda=-1.79230560D-03 Sum=-1.78399742D-03.
 Iter=   5 RLamda=-1.78399742D-03 Sum=-1.78522935D-03.
 Iter=   6 RLamda=-1.78522935D-03 Sum=-1.78504652D-03.
 Iter=   7 RLamda=-1.78504652D-03 Sum=-1.78507365D-03.
 Iter=   8 RLamda=-1.78507365D-03 Sum=-1.78506963D-03.
 RFO step:  Lambda=-1.78507365D-03 EMin= 3.32573727D-03
 Quartic linear search produced a step of  0.57194.
 Iteration  1 RMS(Cart)=  0.10747949 RMS(Int)=  0.07027865
 Iteration  2 RMS(Cart)=  0.06946857 RMS(Int)=  0.02390399
 Iteration  3 RMS(Cart)=  0.03665822 RMS(Int)=  0.00174944
 Iteration  4 RMS(Cart)=  0.00140901 RMS(Int)=  0.00024336
 Iteration  5 RMS(Cart)=  0.00000101 RMS(Int)=  0.00024336
 Iteration  6 RMS(Cart)=  0.00000000 RMS(Int)=  0.00024336
 ITry= 1 IFail=0 DXMaxC= 5.64D-01 DCOld= 1.00D+10 DXMaxT= 5.05D-01 DXLimC= 3.00D+00 Rises=F
 Variable       Old X    -DE/DX   Delta X   Delta X   Delta X     New X
                                 (Linear)    (Quad)   (Total)
    R1        2.69965   0.00284   0.00779   0.00985   0.01764   2.71729
    R2        2.05402   0.00160   0.00637   0.00649   0.01286   2.06688
    R3        2.05922  -0.00058   0.00807  -0.00258   0.00549   2.06470
    R4        2.06082   0.00010   0.00810   0.00025   0.00834   2.06916
    R5        4.18400  -0.00135  -0.10677  -0.02458  -0.13135   4.05265
    R6        1.84698   0.00258   0.01869   0.00678   0.02546   1.87244
    A1        1.93969  -0.00063   0.01300  -0.00671   0.00623   1.94592
    A2        1.92297   0.00124   0.01405   0.01262   0.02665   1.94962
    A3        1.91247  -0.00057   0.01277  -0.00837   0.00432   1.91678
    A4        1.88423  -0.00082  -0.01563  -0.00551  -0.02143   1.86280
    A5        1.89889   0.00077  -0.01133   0.00647  -0.00517   1.89373
    A6        1.90499   0.00002  -0.01308   0.00166  -0.01205   1.89294
    A7        1.65446  -0.00215  -0.01905  -0.01205  -0.03109   1.62337
    A8        2.92942  -0.00532  -0.12407  -0.36854  -0.49261   2.43681
    A9        2.91595   0.00006   0.01756  -0.00699   0.01057   2.92652
    D1        3.02139  -0.00005  -0.02899  -0.05491  -0.08395   2.93744
    D2        0.91069  -0.00067  -0.04435  -0.06283  -0.10666   0.80403
    D3       -1.15458  -0.00065  -0.01233  -0.06528  -0.07807  -1.23265
         Item               Value     Threshold  Converged?
 Maximum Force            0.005321     0.000450     NO 
 RMS     Force            0.001776     0.000300     NO 
 Maximum Displacement     0.563694     0.001800     NO 
 RMS     Displacement     0.195327     0.001200     NO 
 Predicted change in Energy=-2.170705D-03
 Lowest energy point so far.  Saving SCF results.
 Largest change from initial coordinates is atom    7       0.558 Angstoms.
 GradGradGradGradGradGradGradGradGradGradGradGradGradGradGradGradGradGrad

 Leave Link  103 at Tue Oct  6 16:00:47 2020, MaxMem=  2684354560 cpu:              17.7 elap:               2.6
 (Enter /udrive/faculty/rpeverati/g16/g16/l202.exe)
                          Input orientation:                          
 ---------------------------------------------------------------------
 Center     Atomic      Atomic             Coordinates (Angstroms)
 Number     Number       Type             X           Y           Z
 ---------------------------------------------------------------------
      1          9           0        1.827725    0.041216    0.065379
      2          6           0        0.393126    0.093452   -0.017274
      3          1           0       -0.018871   -0.834372   -0.424310
      4          1           0       -0.063299    0.235913    0.965142
      5          1           0        0.088415    0.922347   -0.664580
      6          8           0       -2.027961   -0.310721    0.112827
      7          1           0       -2.652495    0.448407   -0.011560
 ---------------------------------------------------------------------
                    Distance matrix (angstroms):
                    1          2          3          4          5
     1  F    0.000000
     2  C    1.437927   0.000000
     3  H    2.101515   1.093744   0.000000
     4  H    2.103200   1.092594   1.754440   0.000000
     5  H    2.081930   1.094952   1.776317   1.774881   0.000000
     6  O    3.872006   2.458037   2.144567   2.210237   2.569799
     7  H    4.499344   3.066241   2.958354   2.775435   2.857209
                    6          7
     6  O    0.000000
     7  H    0.990854   0.000000
 Stoichiometry    CH4FO(1-)
 Framework group  C1[X(CH4FO)]
 Deg. of freedom    15
 Full point group                 C1      NOp   1
 RotChk:  IX=0 Diff= 1.52D-01
 Largest Abelian subgroup         C1      NOp   1
 Largest concise Abelian subgroup C1      NOp   1
                         Standard orientation:                         
 ---------------------------------------------------------------------
 Center     Atomic      Atomic             Coordinates (Angstroms)
 Number     Number       Type             X           Y           Z
 ---------------------------------------------------------------------
      1          9           0        1.830026   -0.067909    0.024686
      2          6           0        0.403810    0.106786   -0.030296
      3          1           0       -0.067079   -0.641682   -0.673985
      4          1           0       -0.054008    0.005707    0.956591
      5          1           0        0.166352    1.101165   -0.422400
      6          8           0       -2.041146   -0.144573    0.000636
      7          1           0       -2.609195    0.661861    0.094313
 ---------------------------------------------------------------------
 Rotational constants (GHZ):         120.7771343           3.6009132           3.5752697
 Leave Link  202 at Tue Oct  6 16:00:49 2020, MaxMem=  2684354560 cpu:               2.2 elap:               1.0
 (Enter /udrive/faculty/rpeverati/g16/g16/l301.exe)
 Standard basis: 6-31G(d) (5D, 7F)
 Ernie: Thresh=  0.10000D-02 Tol=  0.10000D-05 Strict=F.
 There are    53 symmetry adapted cartesian basis functions of A   symmetry.
 There are    50 symmetry adapted basis functions of A   symmetry.
    50 basis functions,   100 primitive gaussians,    53 cartesian basis functions
    14 alpha electrons       14 beta electrons
       nuclear repulsion energy        68.9290959190 Hartrees.
 IExCor=  402 DFT=T Ex+Corr=B3LYP ExCW=0 ScaHFX=  0.200000
 ScaDFX=  0.800000  0.720000  1.000000  0.810000 ScalE2=  1.000000  1.000000
 IRadAn=      5 IRanWt=     -1 IRanGd=            0 ICorTp=0 IEmpDi=  4
 NAtoms=    7 NActive=    7 NUniq=    7 SFac= 1.00D+00 NAtFMM=   60 NAOKFM=F Big=F
 Integral buffers will be    131072 words long.
 Raffenetti 2 integral format.
 Two-electron integral symmetry is turned on.
 Leave Link  301 at Tue Oct  6 16:00:50 2020, MaxMem=  2684354560 cpu:               2.1 elap:               0.8
 (Enter /udrive/faculty/rpeverati/g16/g16/l302.exe)
 NPDir=0 NMtPBC=     1 NCelOv=     1 NCel=       1 NClECP=     1 NCelD=      1
         NCelK=      1 NCelE2=     1 NClLst=     1 CellRange=     0.0.
 One-electron integrals computed using PRISM.
 One-electron integral symmetry used in STVInt
 NBasis=    50 RedAO= T EigKep=  1.93D-02  NBF=    50
 NBsUse=    50 1.00D-06 EigRej= -1.00D+00 NBFU=    50
 Precomputing XC quadrature grid using
 IXCGrd= 4 IRadAn=           5 IRanWt=          -1 IRanGd=           0 AccXCQ= 0.00D+00.
 Generated NRdTot=       0 NPtTot=           0 NUsed=           0 NTot=          32
 NSgBfM=    53    53    53    53    53 MxSgAt=     7 MxSgA2=     7.
 Leave Link  302 at Tue Oct  6 16:00:51 2020, MaxMem=  2684354560 cpu:               5.0 elap:               0.9
 (Enter /udrive/faculty/rpeverati/g16/g16/l303.exe)
 DipDrv:  MaxL=1.
 Leave Link  303 at Tue Oct  6 16:00:52 2020, MaxMem=  2684354560 cpu:               3.6 elap:               0.9
 (Enter /udrive/faculty/rpeverati/g16/g16/l401.exe)
 Initial guess from the checkpoint file:  "MN_62_hoch3fcomp2_BH76_B3LYP_6-31Gs.chk"
 SCF N**3 symmetry information disabled.
 B after Tr=     0.000000    0.000000   -0.000000
         Rot=    0.999249   -0.038698    0.000845    0.001511 Ang=  -4.44 deg.
 Guess basis will be translated and rotated to current coordinates.
 JPrj=2 DoOrth=T DoCkMO=T.
 Generating alternative initial guess.
 ExpMin= 1.61D-01 ExpMax= 7.00D+03 ExpMxC= 1.05D+03 IAcc=2 IRadAn=         4 AccDes= 0.00D+00
 Harris functional with IExCor=  402 and IRadAn=       4 diagonalized for initial guess.
 HarFok:  IExCor=  402 AccDes= 0.00D+00 IRadAn=         4 IDoV= 1 UseB2=F ITyADJ=14
 ICtDFT=  3500011 ScaDFX=  1.000000  1.000000  1.000000  1.000000
 FoFCou: FMM=F IPFlag=           0 FMFlag=      100000 FMFlg1=           0
         NFxFlg=           0 DoJE=T BraDBF=F KetDBF=T FulRan=T
         wScrn=  0.000000 ICntrl=       500 IOpCl=  0 I1Cent=   200000004 NGrid=           0
         NMat0=    1 NMatS0=      1 NMatT0=    0 NMatD0=    1 NMtDS0=    0 NMtDT0=    0
 Petite list used in FoFCou.
 Harris En= -215.766572334505    
 Leave Link  401 at Tue Oct  6 16:00:55 2020, MaxMem=  2684354560 cpu:              15.2 elap:               2.0
 (Enter /udrive/faculty/rpeverati/g16/g16/l502.exe)
 Keep R1 ints in memory in canonical form, NReq=11319949.
 FoFCou: FMM=F IPFlag=           0 FMFlag=           0 FMFlg1=           0
         NFxFlg=           0 DoJE=F BraDBF=F KetDBF=F FulRan=T
         wScrn=  0.000000 ICntrl=       600 IOpCl=  0 I1Cent=           0 NGrid=           0
         NMat0=    1 NMatS0=   1275 NMatT0=    0 NMatD0=    1 NMtDS0=    0 NMtDT0=    0
 Symmetry not used in FoFCou.
 Two-electron integral symmetry not used.
 Closed shell SCF:
 Using DIIS extrapolation, IDIIS=  1040.
 NGot=  2684354560 LenX=  2683534079 LenY=  2683530829
 Requested convergence on RMS density matrix=1.00D-08 within 120 cycles.
 Requested convergence on MAX density matrix=1.00D-06.
 Requested convergence on             energy=1.00D-06.
 No special actions if energy rises.
 Integral accuracy reduced to 1.0D-05 until final iterations.

 Cycle   1  Pass 0  IDiag  1:
 E= -215.452500986333    
 DIIS: error= 2.78D-02 at cycle   1 NSaved=   1.
 NSaved= 1 IEnMin= 1 EnMin= -215.452500986333     IErMin= 1 ErrMin= 2.78D-02
 ErrMax= 2.78D-02  0.00D+00 EMaxC= 1.00D-01 BMatC= 1.61D-02 BMatP= 1.61D-02
 IDIUse=3 WtCom= 7.22D-01 WtEn= 2.78D-01
 Coeff-Com:  0.100D+01
 Coeff-En:   0.100D+01
 Coeff:      0.100D+01
 Recover alternate guess density for next cycle.
 RMSDP=1.14D-02 MaxDP=1.27D-01              OVMax= 0.00D+00

 Cycle   2  Pass 0  IDiag  1:
 E= -215.253477931045     Delta-E=        0.199023055288 Rises=F Damp=F
 Switch densities from cycles 1 and 2 for lowest energy.
 DIIS: error= 9.24D-02 at cycle   2 NSaved=   2.
 NSaved= 2 IEnMin= 1 EnMin= -215.452500986333     IErMin= 1 ErrMin= 2.78D-02
[...]
           A9          -0.00298  -0.00226   0.00158  -0.00125   0.00096
           D1           0.00203  -0.00045  -0.00637  -0.00317  -0.01180
           D2           0.00191   0.00374  -0.00258  -0.01608   0.00158
           D3           0.00116  -0.00811  -0.00148  -0.00112   0.00009
                          R6        A1        A2        A3        A4
           R6           0.48080
           A1          -0.00040   0.16602
           A2          -0.02623  -0.02491   0.15562
           A3           0.02425  -0.01494   0.00676   0.14225
           A4          -0.00085   0.00773  -0.01754   0.02866   0.15242
           A5           0.02580  -0.00584  -0.00753  -0.01757  -0.00660
           A6          -0.00331   0.01283   0.02756   0.00170  -0.02949
           A7          -0.02555  -0.02630   0.00802  -0.03977  -0.02313
           A8           0.00251   0.00284   0.00335   0.00294  -0.00081
           A9          -0.00411   0.00355   0.00472  -0.00577  -0.00359
           D1           0.00939   0.00238   0.02081  -0.00675   0.00726
           D2          -0.02039  -0.02280  -0.01130   0.00787   0.01008
           D3           0.00431   0.02146  -0.00632   0.02228  -0.01818
                          A5        A6        A7        A8        A9
           A5           0.22441
           A6          -0.03685   0.14815
           A7           0.10945  -0.02373   0.26010
           A8          -0.00263  -0.00473   0.01035   0.03380
           A9          -0.00069   0.00497  -0.00061   0.00224   0.00843
           D1          -0.01929  -0.00168  -0.03596   0.00133   0.00175
           D2           0.02462  -0.00726   0.02226   0.00647   0.00053
           D3           0.00153  -0.03500   0.01409   0.00611  -0.00145
                          D1        D2        D3
           D1           0.01786
           D2          -0.00439   0.02037
           D3           0.00067   0.00136   0.04678
 ITU=  0  1 -1  1  1  0  1 -1  1  1 -1 -1  1 -1  1  0  1  0  0
 Eigenvectors of the second derivative matrix:
                           1         2         3         4         5
     Eigenvalues --     0.00402   0.00770   0.01966   0.03439   0.09594
   1         R1         0.01708   0.00215  -0.02426   0.05750  -0.24272
   2         R2        -0.00884   0.00845   0.01694   0.02300   0.00337
   3         R3        -0.00683  -0.00068  -0.00991  -0.01520   0.02293
   4         R4        -0.02278   0.02827   0.01382  -0.00359  -0.03323
   5         R5        -0.71583   0.24357   0.50483   0.15410   0.09837
   6         R6        -0.00204   0.00708  -0.02478  -0.00929   0.04522
   7         A1         0.01639  -0.02217   0.00154  -0.05284   0.18062
   8         A2         0.00607  -0.02244   0.04905  -0.05150   0.49217
   9         A3         0.11773   0.01586   0.05091  -0.08928  -0.17777
  10         A4         0.00872   0.01454  -0.05328   0.00080   0.20367
  11         A5        -0.09894   0.03210   0.12289   0.09583  -0.23001
  12         A6        -0.05106  -0.01904  -0.17535   0.09401  -0.40661
  13         A7         0.21424  -0.06947  -0.21338  -0.15135   0.19917
  14         A8         0.28209  -0.19635   0.12029   0.91296   0.12827
  15         A9         0.31542   0.93902  -0.04091   0.10967   0.02923
  16         D1        -0.30067   0.04303  -0.48805   0.13953   0.40316
  17         D2        -0.31948   0.07243  -0.52001   0.22322  -0.34243
  18         D3        -0.20634   0.06825  -0.34554   0.05405   0.15741
                           6         7         8         9        10
     Eigenvalues --     0.11531   0.13460   0.17024   0.19708   0.27916
   1         R1        -0.07368  -0.09929   0.08081  -0.00851  -0.83849
   2         R2         0.08437   0.06073  -0.02073   0.04496  -0.01216
   3         R3         0.02994   0.05271  -0.03926   0.03625   0.09396
   4         R4         0.11614  -0.00393   0.34638  -0.17771  -0.38015
   5         R5        -0.00905   0.33155  -0.03003   0.06966  -0.05441
   6         R6        -0.03690   0.05370  -0.01115   0.02773  -0.05782
   7         A1         0.10914   0.13942  -0.50001  -0.66605  -0.13902
   8         A2         0.01100  -0.28465  -0.09672   0.49311  -0.17786
   9         A3         0.54863   0.28217   0.30327   0.24415   0.03780
  10         A4        -0.43148   0.17904   0.63071  -0.28713   0.11629
  11         A5        -0.01122  -0.55812   0.01504  -0.11217   0.20800
  12         A6        -0.28091   0.24569  -0.32340   0.28092  -0.05004
  13         A7        -0.07813   0.50745  -0.09208   0.12199  -0.04086
  14         A8         0.07686   0.09740   0.00272   0.00087   0.00724
  15         A9        -0.03193  -0.01111  -0.05264   0.00781   0.00343
  16         D1        -0.14982  -0.12581   0.00074   0.09524  -0.09091
  17         D2        -0.01146   0.05053   0.05216  -0.02008   0.12427
  18         D3         0.59814  -0.03667   0.05067  -0.12100  -0.00508
                          11        12        13        14        15
     Eigenvalues --     0.32154   0.33724   0.39680   0.45484   0.49973
   1         R1         0.38147  -0.14669   0.19474   0.00478  -0.08344
   2         R2        -0.24570  -0.65120   0.08854  -0.68850   0.13896
   3         R3         0.47819  -0.42522  -0.73701   0.16094   0.07201
   4         R4        -0.45621   0.29490  -0.53663  -0.12567   0.29822
   5         R5         0.10047   0.08780   0.02790  -0.04559   0.02445
   6         R6        -0.09861   0.10869  -0.27741  -0.28220  -0.90033
   7         A1        -0.06216  -0.05610   0.00313   0.07091  -0.01534
   8         A2        -0.07315   0.01202  -0.03992   0.03472   0.04497
   9         A3         0.01344  -0.04912   0.09418   0.12977  -0.09097
  10         A4         0.06798  -0.16466   0.11443   0.05615  -0.06416
  11         A5         0.30604   0.25675  -0.05952  -0.39970   0.07582
  12         A6        -0.25181  -0.01744  -0.10437   0.11584   0.04676
  13         A7         0.38666   0.40296  -0.00957  -0.44503   0.20614
  14         A8         0.01849   0.03690  -0.01670   0.00238   0.00055
  15         A9        -0.00494   0.00219  -0.00482   0.00833   0.00913
  16         D1        -0.05703  -0.04950   0.00179   0.04976   0.02478
  17         D2         0.02436   0.04061  -0.00766  -0.05000   0.01061
  18         D3         0.11266   0.01515   0.08303   0.00428  -0.05030
 DoSqrt=T IScMMF=    -3 MM Scaling Factor =       0.00000
 En-DIIS/RFO-DIIS/Sim-DIIS IScMMF=       -3 using points:    40   39
 Iter=   1 RLamda=-4.59809178D-02 Sum=-1.98220512D-07.
 Iter=   2 RLamda=-1.98220512D-07 Sum=-2.49933932D-07.
 Iter=   3 RLamda=-2.49933932D-07 Sum=-2.49933693D-07.
 RFO step:  Lambda=-2.49933932D-07.
 NNeg= 0 NGDIIS= 2 SimSw=  2.50D-03 Rises=F DC= -8.80D-07 SmlDif=  1.00D-05
 NRisDI= 0 DoIntr=F SqrtH=F CThrHd= 10.0 CDAdj=  3.0
 RMS Error=  0.5064126369D-03 NUsed= 2 OKEnD=F EnDIS=F
 Total RFO-DIIS matrix:
                 1             2             3 
      1   0.000000D+00 -0.100000D+01 -0.100000D+01
      2  -0.100000D+01  0.461617D-05  0.102238D-04
      3  -0.100000D+01  0.102238D-04  0.449380D-04
 InvSVX:  RCond= 7.28D-06 Info=           0 Equed=N FErr=  1.51D-15 BErr=  0.00D+00
 DidBck=F Rises=F RFO-DIIS coefs:    1.19266   -0.19266
 Iteration  1 RMS(Cart)=  0.00060808 RMS(Int)=  0.00000043
 Iteration  2 RMS(Cart)=  0.00000055 RMS(Int)=  0.00000003
 ITry= 1 IFail=0 DXMaxC= 1.24D-03 DCOld= 1.00D+10 DXMaxT= 3.61D-01 DXLimC= 3.00D+00 Rises=F
 Variable       Old X    -DE/DX   Delta X   Delta X   Delta X     New X
                                 (Linear)    (Quad)   (Total)
    R1        2.69234   0.00004   0.00006   0.00001   0.00007   2.69241
    R2        2.08778   0.00008   0.00004   0.00019   0.00022   2.08801
    R3        2.08755  -0.00003   0.00010  -0.00009   0.00001   2.08755
    R4        2.20978  -0.00023   0.00001  -0.00075  -0.00074   2.20904
    R5        6.16064   0.00002  -0.00021  -0.00092  -0.00113   6.15950
    R6        1.84992  -0.00001   0.00010  -0.00012  -0.00003   1.84989
    A1        1.86379  -0.00001  -0.00016   0.00018   0.00003   1.86381
    A2        1.86646  -0.00002  -0.00014   0.00002  -0.00012   1.86635
    A3        2.00496   0.00005   0.00019   0.00027   0.00046   2.00542
    A4        1.86913   0.00002   0.00020  -0.00020   0.00001   1.86914
    A5        1.92718  -0.00004  -0.00023  -0.00028  -0.00051   1.92667
    A6        1.92613   0.00000   0.00014  -0.00001   0.00012   1.92625
    A7        0.98115   0.00003   0.00016   0.00057   0.00073   0.98188
    A8        2.06075  -0.00001   0.00080  -0.00072   0.00008   2.06083
    A9        0.94550   0.00001   0.00023   0.00095   0.00118   0.94668
    D1       -2.30539  -0.00001  -0.00021  -0.00021  -0.00042  -2.30580
    D2        1.98326   0.00001  -0.00007  -0.00023  -0.00030   1.98295
    D3       -0.11445   0.00002  -0.00023   0.00006  -0.00016  -0.11461
         Item               Value     Threshold  Converged?
 Maximum Force            0.000233     0.000450     YES
 RMS     Force            0.000062     0.000300     YES
 Maximum Displacement     0.001239     0.001800     YES
 RMS     Displacement     0.000608     0.001200     YES
 Predicted change in Energy=-1.249668D-07
 Optimization completed.
    -- Stationary point found.
                           ----------------------------
                           !   Optimized Parameters   !
                           ! (Angstroms and Degrees)  !
 --------------------------                            --------------------------
 ! Name  Definition              Value          Derivative Info.                !
 --------------------------------------------------------------------------------
 ! R1    R(1,2)                  1.4247         -DE/DX =    0.0                 !
 ! R2    R(2,3)                  1.1048         -DE/DX =    0.0001              !
 ! R3    R(2,4)                  1.1047         -DE/DX =    0.0                 !
 ! R4    R(2,5)                  1.1694         -DE/DX =   -0.0002              !
 ! R5    R(3,6)                  3.2601         -DE/DX =    0.0                 !
 ! R6    R(6,7)                  0.9789         -DE/DX =    0.0                 !
 ! A1    A(1,2,3)              106.7872         -DE/DX =    0.0                 !
 ! A2    A(1,2,4)              106.9403         -DE/DX =    0.0                 !
 ! A3    A(1,2,5)              114.8758         -DE/DX =    0.0001              !
 ! A4    A(3,2,4)              107.0935         -DE/DX =    0.0                 !
 ! A5    A(3,2,5)              110.4195         -DE/DX =    0.0                 !
 ! A6    A(4,2,5)              110.359          -DE/DX =    0.0                 !
 ! A7    A(2,3,6)               56.216          -DE/DX =    0.0                 !
 ! A8    L(3,6,7,5,-1)         118.0721         -DE/DX =    0.0                 !
 ! A9    L(3,6,7,5,-2)          54.1729         -DE/DX =    0.0                 !
 ! D1    D(1,2,3,6)           -132.0889         -DE/DX =    0.0                 !
 ! D2    D(4,2,3,6)            113.6322         -DE/DX =    0.0                 !
 ! D3    D(5,2,3,6)             -6.5577         -DE/DX =    0.0                 !
 --------------------------------------------------------------------------------
 Lowest energy point so far.  Saving SCF results.
 Largest change from initial coordinates is atom    4       1.245 Angstoms.
 GradGradGradGradGradGradGradGradGradGradGradGradGradGradGradGradGradGrad

 Leave Link  103 at Tue Oct  6 16:12:53 2020, MaxMem=  2684354560 cpu:              15.1 elap:               2.2
 (Enter /udrive/faculty/rpeverati/g16/g16/l202.exe)
                          Input orientation:                          
 ---------------------------------------------------------------------
 Center     Atomic      Atomic             Coordinates (Angstroms)
 Number     Number       Type             X           Y           Z
 ---------------------------------------------------------------------
      1          9           0        1.445558    0.559861   -0.530721
      2          6           0        0.399670   -0.103899    0.173109
      3          1           0        0.384423   -1.147857   -0.188161
      4          1           0        0.695509   -0.132778    1.237048
      5          1           0       -0.657138    0.383204    0.057785
      6          8           0       -2.275996    0.717519    0.077530
      7          1           0       -2.445385    0.320193   -0.800966
 ---------------------------------------------------------------------
                    Distance matrix (angstroms):
                    1          2          3          4          5
     1  F    0.000000
     2  C    1.424723   0.000000
     3  H    2.039524   1.104806   0.000000
     4  H    2.041404   1.104682   1.777184   0.000000
     5  H    2.190634   1.169363   1.868017   1.867231   0.000000
     6  O    3.774227   2.800544   3.260069   3.301110   1.653136
     7  H    3.907673   3.036941   3.246308   3.771458   1.984755
                    6          7
     6  O    0.000000
     7  H    0.978936   0.000000
 Stoichiometry    CH4FO(1-)
 Framework group  C1[X(CH4FO)]
 Deg. of freedom    15
 Full point group                 C1      NOp   1
 RotChk:  IX=1 Diff= 1.75D-15
 Largest Abelian subgroup         C1      NOp   1
 Largest concise Abelian subgroup C1      NOp   1
                         Standard orientation:                         
 ---------------------------------------------------------------------
 Center     Atomic      Atomic             Coordinates (Angstroms)
 Number     Number       Type             X           Y           Z
 ---------------------------------------------------------------------
      1          9           0        1.629795    0.453067    0.021570
      2          6           0        0.591181   -0.521076   -0.024964
      3          1           0        0.701570   -1.059672   -0.983257
      4          1           0        0.795292   -1.247973    0.781436
      5          1           0       -0.491344   -0.091296    0.079142
      6          8           0       -2.129395    0.129012    0.112517
      7          1           0       -2.185598    0.415697   -0.821810
 ---------------------------------------------------------------------
 Rotational constants (GHZ):          40.2151216           3.7223250           3.5231189
 Leave Link  202 at Tue Oct  6 16:12:54 2020, MaxMem=  2684354560 cpu:               1.4 elap:               0.4
 (Enter /udrive/faculty/rpeverati/g16/g16/l601.exe)
 Copying SCF densities to generalized density rwf, IOpCl= 0 IROHF=0.

 **********************************************************************

            Population analysis using the SCF density.

 **********************************************************************

 Orbital symmetries:
       Occupied  (A) (A) (A) (A) (A) (A) (A) (A) (A) (A) (A) (A)
                 (A) (A)
       Virtual   (A) (A) (A) (A) (A) (A) (A) (A) (A) (A) (A) (A)
                 (A) (A) (A) (A) (A) (A) (A) (A) (A) (A) (A) (A)
                 (A) (A) (A) (A) (A) (A) (A) (A) (A) (A) (A) (A)
 The electronic state is 1-A.
 Alpha  occ. eigenvalues --  -24.46126 -18.74763 -10.01866  -0.96356  -0.57172
 Alpha  occ. eigenvalues --   -0.47417  -0.26707  -0.26161  -0.24169  -0.13630
 Alpha  occ. eigenvalues --   -0.12634  -0.06844   0.07856   0.08031
 Alpha virt. eigenvalues --    0.29656   0.32218   0.34562   0.36949   0.51688
 Alpha virt. eigenvalues --    0.72324   0.75147   0.77761   1.03368   1.05532
 Alpha virt. eigenvalues --    1.10024   1.14785   1.20331   1.26332   1.34380
 Alpha virt. eigenvalues --    1.40957   1.44265   1.44773   1.46974   1.72255
 Alpha virt. eigenvalues --    1.73244   1.78671   2.03001   2.03462   2.10639
 Alpha virt. eigenvalues --    2.12648   2.12809   2.18050   2.21483   2.27232
 Alpha virt. eigenvalues --    2.41567   2.43153   2.57777   2.62381   2.79756
 Alpha virt. eigenvalues --    3.17529
          Condensed to atoms (all electrons):
               1          2          3          4          5          6
     1  F    9.291243   0.191999  -0.034716  -0.033462  -0.006483   0.000302
     2  C    0.191999   5.376237   0.307339   0.301589   0.076322  -0.100422
     3  H   -0.034716   0.307339   0.744904  -0.053077  -0.012449   0.002712
     4  H   -0.033462   0.301589  -0.053077   0.741485  -0.008698   0.003045
     5  H   -0.006483   0.076322  -0.012449  -0.008698   0.541946   0.197100
     6  O    0.000302  -0.100422   0.002712   0.003045   0.197100   8.729135
     7  H   -0.000143   0.019024  -0.000924  -0.000040  -0.042484   0.160044
               7
     1  F   -0.000143
     2  C    0.019024
     3  H   -0.000924
     4  H   -0.000040
     5  H   -0.042484
     6  O    0.160044
     7  H    0.641898
 Mulliken charges:
               1
     1  F   -0.408739
     2  C   -0.172087
     3  H    0.046212
     4  H    0.049159
     5  H    0.254746
     6  O   -0.991915
     7  H    0.222625
 Sum of Mulliken charges =  -1.00000
 Mulliken charges with hydrogens summed into heavy atoms:
               1
     1  F   -0.408739
     2  C    0.178030
     6  O   -0.769291
 Electronic spatial extent (au):  <R**2>=            336.6722
 Charge=             -1.0000 electrons
 Dipole moment (field-independent basis, Debye):
    X=              5.5625    Y=             -0.8604    Z=             -1.2998  Tot=              5.7768
 Quadrupole moment (field-independent basis, Debye-Ang):
   XX=            -41.7457   YY=            -20.7478   ZZ=            -19.2464
   XY=             -0.3981   XZ=              2.8828   YZ=             -0.6466
 Traceless Quadrupole moment (field-independent basis, Debye-Ang):
   XX=            -14.4991   YY=              6.4988   ZZ=              8.0002
   XY=             -0.3981   XZ=              2.8828   YZ=             -0.6466
 Octapole moment (field-independent basis, Debye-Ang**2):
  XXX=             42.0005  YYY=              4.9102  ZZZ=             -0.1267  XYY=              3.0895
  XXY=             -0.7468  XXZ=             -6.3473  XZZ=              1.7769  YZZ=              1.8355
  YYZ=             -0.1409  XYZ=              1.1846
 Hexadecapole moment (field-independent basis, Debye-Ang**3):
 XXXX=           -405.8425 YYYY=            -47.1156 ZZZZ=            -27.3284 XXXY=              6.3283
 XXXZ=             14.6686 YYYX=              7.4502 YYYZ=             -0.2993 ZZZX=              1.2823
 ZZZY=             -0.3726 XXYY=            -61.6272 XXZZ=            -52.8589 YYZZ=            -12.3676
 XXYZ=             -2.8201 YYXZ=              0.7672 ZZXY=              1.8328
 N-N= 6.769222590453D+01 E-N=-6.532909846471D+02  KE= 2.145285866749D+02
 No NMR shielding tensors so no spin-rotation constants.
 Leave Link  601 at Tue Oct  6 16:12:55 2020, MaxMem=  2684354560 cpu:               8.4 elap:               1.2
 (Enter /udrive/faculty/rpeverati/g16/g16/l9999.exe)

 Test job not archived.
 1\1\GINC-NODE51\FOpt\RB3LYP\6-31G(d)\C1H4F1O1(1-)\RPEVERATI\06-Oct-202
 0\0\\#P Opt(MaxCyc=100) B3LYP/6-31G* 5D 7F Integral=UltraFineGrid SCF=
 (NoSymm,XQC,MaxCyc=120) IOp(1/33=1)\\TS search on BH76.\\-1,1\F,1.4455
 57844,0.5598612756,-0.5307210113\C,0.3996695124,-0.1038991511,0.173108
 8192\H,0.384423227,-1.1478572868,-0.1881613222\H,0.6955091225,-0.13277
 78478,1.2370478431\H,-0.6571377116,0.3832038675,0.0577851846\O,-2.2759
 959665,0.7175188802,0.0775299201\H,-2.4453846064,0.320193276,-0.800965
 969\\Version=ES64L-G16RevA.03\State=1-A\HF=-215.4925025\RMSD=9.204e-09
 \RMSF=8.372e-05\Dipole=2.1042065,-0.7875362,-0.342949\Quadrupole=-9.99
 51976,4.5014471,5.4937505,2.6022991,3.2277792,0.1046495\PG=C01 [X(C1H4
 F1O1)]\\@


 Just remember, when you're over the hill, you begin to pick up speed.
 -- Charles Schulz
 Job cpu time:       0 days  1 hours  8 minutes 29.9 seconds.
 Elapsed time:       0 days  0 hours 10 minutes 27.3 seconds.
 File lengths (MBytes):  RWF=      5 Int=      0 D2E=      0 Chk=      1 Scr=      1
 Normal termination of Gaussian 16 at Tue Oct  6 16:12:57 2020.
