 Entering Gaussian System, Link 0=g16
 Input=MN_77_PH3_BH76_B3LYP_6-31Gs.in
 Output=MN_77_PH3_BH76_B3LYP_6-31Gs.log
 Initial command:
 /udrive/faculty/rpeverati/g16/g16/l1.exe "/udrive/scratch-directories/gaussian09/rpeverati/Gau-38223.inp" -scrdir="/udrive/scratch-directories/gaussian09/rpeverati/"
 Entering Link 1 = /udrive/faculty/rpeverati/g16/g16/l1.exe PID=     38224.
  
 Copyright (c) 1988,1990,1992,1993,1995,1998,2003,2009,2016,
            Gaussian, Inc.  All Rights Reserved.
  
 This is part of the Gaussian(R) 16 program.  It is based on
 the Gaussian(R) 09 system (copyright 2009, Gaussian, Inc.),
 the Gaussian(R) 03 system (copyright 2003, Gaussian, Inc.),
 the Gaussian(R) 98 system (copyright 1998, Gaussian, Inc.),
 the Gaussian(R) 94 system (copyright 1995, Gaussian, Inc.),
 the Gaussian 92(TM) system (copyright 1992, Gaussian, Inc.),
 the Gaussian 90(TM) system (copyright 1990, Gaussian, Inc.),
 the Gaussian 88(TM) system (copyright 1988, Gaussian, Inc.),
 the Gaussian 86(TM) system (copyright 1986, Carnegie Mellon
 University), and the Gaussian 82(TM) system (copyright 1983,
 Carnegie Mellon University). Gaussian is a federally registered
 trademark of Gaussian, Inc.
  
 This software contains proprietary and confidential information,
 including trade secrets, belonging to Gaussian, Inc.
  
 This software is provided under written license and may be
 used, copied, transmitted, or stored only in accord with that
 written license.
  
 The following legend is applicable only to US Government
 contracts under FAR:
  
                    RESTRICTED RIGHTS LEGEND
  
 Use, reproduction and disclosure by the US Government is
 subject to restrictions as set forth in subparagraphs (a)
 and (c) of the Commercial Computer Software - Restricted
 Rights clause in FAR 52.227-19.
  
 Gaussian, Inc.
 340 Quinnipiac St., Bldg. 40, Wallingford CT 06492
  
  
 ---------------------------------------------------------------
 Warning -- This program may not be used in any manner that
 competes with the business of Gaussian, Inc. or will provide
 assistance to any competitor of Gaussian, Inc.  The licensee
 of this program is prohibited from giving any competitor of
 Gaussian, Inc. access to this program.  By using this program,
 the user acknowledges that Gaussian, Inc. is engaged in the
 business of creating and licensing software in the field of
 computational chemistry and represents and warrants to the
 licensee that it is not a competitor of Gaussian, Inc. and that
 it will not use this program in any manner prohibited above.
 ---------------------------------------------------------------
  

 Cite this work as:
 Gaussian 16, Revision A.03,
 M. J. Frisch, G. W. Trucks, H. B. Schlegel, G. E. Scuseria, 
 M. A. Robb, J. R. Cheeseman, G. Scalmani, V. Barone, 
 G. A. Petersson, H. Nakatsuji, X. Li, M. Caricato, A. V. Marenich, 
 J. Bloino, B. G. Janesko, R. Gomperts, B. Mennucci, H. P. Hratchian, 
 J. V. Ortiz, A. F. Izmaylov, J. L. Sonnenberg, D. Williams-Young, 
 F. Ding, F. Lipparini, F. Egidi, J. Goings, B. Peng, A. Petrone, 
 T. Henderson, D. Ranasinghe, V. G. Zakrzewski, J. Gao, N. Rega, 
 G. Zheng, W. Liang, M. Hada, M. Ehara, K. Toyota, R. Fukuda, 
 J. Hasegawa, M. Ishida, T. Nakajima, Y. Honda, O. Kitao, H. Nakai, 
 T. Vreven, K. Throssell, J. A. Montgomery, Jr., J. E. Peralta, 
 F. Ogliaro, M. J. Bearpark, J. J. Heyd, E. N. Brothers, K. N. Kudin, 
 V. N. Staroverov, T. A. Keith, R. Kobayashi, J. Normand, 
 K. Raghavachari, A. P. Rendell, J. C. Burant, S. S. Iyengar, 
 J. Tomasi, M. Cossi, J. M. Millam, M. Klene, C. Adamo, R. Cammi, 
 J. W. Ochterski, R. L. Martin, K. Morokuma, O. Farkas, 
 J. B. Foresman, and D. J. Fox, Gaussian, Inc., Wallingford CT, 2016.
 
 ******************************************
 Gaussian 16:  ES64L-G16RevA.03 25-Dec-2016
                 6-Oct-2020 
 ******************************************
 %NoSave
 %nproc=12
 Will use up to   12 processors via shared memory.
 %mem=20GB
 %chk=MN_77_PH3_BH76_B3LYP_6-31Gs
 ----------------------------------------------------------------------
 #P Opt(MaxCyc=100) B3LYP/6-31G* 5D 7F Integral=UltraFineGrid SCF=(NoSy
 mm,XQC,MaxCyc=120) IOp(1/33=1)
 ----------------------------------------------------------------------
 1/6=100,18=20,19=15,26=4,33=1,38=1/1,3;
 2/9=110,12=2,17=6,18=5,40=1/2;
 3/5=1,6=6,7=1,8=11,11=2,25=1,30=1,71=1,74=-5,75=-5/1,2,3;
 4/9=2/1;
 5/5=2,7=120,8=3,13=1,38=5/2,8;
 6/7=2,8=2,9=2,10=2,28=1/1;
 7//1,2,3,16;
 1/6=100,18=20,19=15,26=4,33=1/3(2);
 2/9=110/2;
 99//99;
 2/9=110/2;
 3/5=1,6=6,7=1,8=11,11=2,25=1,30=1,71=1,74=-5,75=-5/1,2,3;
 4/5=5,9=2,16=3,69=1/1;
 5/5=2,7=120,8=3,13=1,38=5/2,8;
 7//1,2,3,16;
 1/6=100,18=20,19=15,26=4,33=1/3(-5);
 2/9=110/2;
 6/7=2,8=2,9=2,10=2,19=2,28=1/1;
 99/9=1/99;
 Leave Link    1 at Tue Oct  6 16:00:45 2020, MaxMem=  2684354560 cpu:               9.2 elap:               1.0
 (Enter /udrive/faculty/rpeverati/g16/g16/l101.exe)
 ONIOM data not found on unit 2.
 ------------------
 TS search on BH76.
 ------------------
 TstMul:  ICh=     0
 TstMul:  Mul=     1
 TstMul:  ICh=     0
 TstMul:  Mul=     1
 Symbolic Z-matrix:
 Charge =  0 Multiplicity = 1
 P                     0.        0.        0.56885 
 H                     0.59567   1.03173  -0.18962 
 H                     0.59567  -1.03173  -0.18962 
 H                    -1.19134   0.       -0.18962 
 
 RdStrC is calling ZToCFu for IStruc=1 NZ=     4.
 PrtBox:  NBox=     1 Levels=  1 BoxLen=    8.00 SMaxX=        3.90
          Shift=            2.251310            1.949692            0.358323
 Box      1 Number                   0 centers from      1 to      4:
 After GenITR:
 ITRead=  0  0  0  0
 MicOpt= -1 -1 -1 -1
 ITRead=  0  0  0  0
 MicOpt= -1 -1 -1 -1
 NAtoms=      4 NQM=        4 NQMF=       0 NMMI=      0 NMMIF=      0
                NMic=       0 NMicF=      0.
                    Isotopes and Nuclear Properties:
 (Nuclear quadrupole moments (NQMom) in fm**2, nuclear magnetic moments (NMagM)
  in nuclear magnetons)

  Atom         1           2           3           4
 IAtWgt=          31           1           1           1
 AtmWgt=  30.9737634   1.0078250   1.0078250   1.0078250
 NucSpn=           1           1           1           1
 AtZEff=   0.0000000   0.0000000   0.0000000   0.0000000
 NQMom=    0.0000000   0.0000000   0.0000000   0.0000000
 NMagM=    1.1316000   2.7928460   2.7928460   2.7928460
 AtZNuc=  15.0000000   1.0000000   1.0000000   1.0000000
 No MM parameters found.
 Leave Link  101 at Tue Oct  6 16:00:46 2020, MaxMem=  2684354560 cpu:              14.1 elap:               1.7
 (Enter /udrive/faculty/rpeverati/g16/g16/l103.exe)

 GradGradGradGradGradGradGradGradGradGradGradGradGradGradGradGradGradGrad
 Berny optimization.
 Optmz: redundant internal coordinate code flag= 1
 Initialization pass.
                           ----------------------------
                           !    Initial Parameters    !
                           ! (Angstroms and Degrees)  !
 --------------------------                            --------------------------
 ! Name  Definition              Value          Derivative Info.                !
 --------------------------------------------------------------------------------
 ! R1    R(1,2)                  1.4123         estimate D2E/DX2                !
 ! R2    R(1,3)                  1.4123         estimate D2E/DX2                !
 ! R3    R(1,4)                  1.4123         estimate D2E/DX2                !
 ! A1    A(2,1,3)               93.8631         estimate D2E/DX2                !
 ! A2    A(2,1,4)               93.8631         estimate D2E/DX2                !
 ! A3    A(3,1,4)               93.8631         estimate D2E/DX2                !
 ! D1    D(2,1,4,3)             94.1426         estimate D2E/DX2                !
 --------------------------------------------------------------------------------
 Maximum allowed force set to 1.00D+20.
 Trust Radius=3.00D-01 FncErr=1.00D-07 GrdErr=1.00D-06 EigMax=2.50D+02 EigMin=1.00D-04
 Number of steps in this run=    100 maximum allowed number of steps=    100.
 GradGradGradGradGradGradGradGradGradGradGradGradGradGradGradGradGradGrad

 Leave Link  103 at Tue Oct  6 16:00:47 2020, MaxMem=  2684354560 cpu:               0.9 elap:               0.5
 (Enter /udrive/faculty/rpeverati/g16/g16/l202.exe)
                          Input orientation:                          
 ---------------------------------------------------------------------
 Center     Atomic      Atomic             Coordinates (Angstroms)
 Number     Number       Type             X           Y           Z
 ---------------------------------------------------------------------
      1         15           0        0.000000    0.000000    0.568849
      2          1           0        0.595671    1.031732   -0.189616
      3          1           0        0.595671   -1.031732   -0.189616
      4          1           0       -1.191342    0.000000   -0.189616
 ---------------------------------------------------------------------
                    Distance matrix (angstroms):
                    1          2          3          4
     1  P    0.000000
     2  H    1.412291   0.000000
     3  H    1.412291   2.063465   0.000000
     4  H    1.412291   2.063465   2.063465   0.000000
 Stoichiometry    H3P
 Framework group  C3V[C3(P),3SGV(H)]
 Deg. of freedom     2
 Full point group                 C3V     NOp   6
 Largest Abelian subgroup         CS      NOp   2
 Largest concise Abelian subgroup CS      NOp   2
                         Standard orientation:                         
 ---------------------------------------------------------------------
 Center     Atomic      Atomic             Coordinates (Angstroms)
 Number     Number       Type             X           Y           Z
 ---------------------------------------------------------------------
      1         15           0        0.000000    0.000000    0.126411
      2          1           0        0.000000    1.191342   -0.632055
      3          1           0        1.031732   -0.595671   -0.632055
      4          1           0       -1.031732   -0.595671   -0.632055
 ---------------------------------------------------------------------
 Rotational constants (GHZ):         135.4818423         135.4818423         117.7708841
 Leave Link  202 at Tue Oct  6 16:00:48 2020, MaxMem=  2684354560 cpu:               1.1 elap:               0.5
 (Enter /udrive/faculty/rpeverati/g16/g16/l301.exe)
 Standard basis: 6-31G(d) (5D, 7F)
 Ernie: Thresh=  0.10000D-02 Tol=  0.10000D-05 Strict=F.
 There are    18 symmetry adapted cartesian basis functions of A'  symmetry.
 There are     7 symmetry adapted cartesian basis functions of A"  symmetry.
 There are    17 symmetry adapted basis functions of A'  symmetry.
 There are     7 symmetry adapted basis functions of A"  symmetry.
    24 basis functions,    64 primitive gaussians,    25 cartesian basis functions
     9 alpha electrons        9 beta electrons
       nuclear repulsion energy        17.6305918881 Hartrees.
 IExCor=  402 DFT=T Ex+Corr=B3LYP ExCW=0 ScaHFX=  0.200000
 ScaDFX=  0.800000  0.720000  1.000000  0.810000 ScalE2=  1.000000  1.000000
 IRadAn=      5 IRanWt=     -1 IRanGd=            0 ICorTp=0 IEmpDi=  4
 NAtoms=    4 NActive=    4 NUniq=    2 SFac= 4.00D+00 NAtFMM=   60 NAOKFM=F Big=F
 Integral buffers will be    131072 words long.
 Raffenetti 2 integral format.
 Two-electron integral symmetry is turned on.
 Leave Link  301 at Tue Oct  6 16:00:49 2020, MaxMem=  2684354560 cpu:               1.9 elap:               0.6
 (Enter /udrive/faculty/rpeverati/g16/g16/l302.exe)
 NPDir=0 NMtPBC=     1 NCelOv=     1 NCel=       1 NClECP=     1 NCelD=      1
         NCelK=      1 NCelE2=     1 NClLst=     1 CellRange=     0.0.
 One-electron integrals computed using PRISM.
 One-electron integral symmetry used in STVInt
 NBasis=    24 RedAO= T EigKep=  1.43D-02  NBF=    17     7
 NBsUse=    24 1.00D-06 EigRej= -1.00D+00 NBFU=    17     7
 Precomputing XC quadrature grid using
 IXCGrd= 4 IRadAn=           5 IRanWt=          -1 IRanGd=           0 AccXCQ= 0.00D+00.
 Generated NRdTot=       0 NPtTot=           0 NUsed=           0 NTot=          32
 NSgBfM=    25    25    25    25    25 MxSgAt=     4 MxSgA2=     4.
 Leave Link  302 at Tue Oct  6 16:00:50 2020, MaxMem=  2684354560 cpu:               3.4 elap:               0.7
 (Enter /udrive/faculty/rpeverati/g16/g16/l303.exe)
 DipDrv:  MaxL=1.
 Leave Link  303 at Tue Oct  6 16:00:51 2020, MaxMem=  2684354560 cpu:               1.5 elap:               0.5
 (Enter /udrive/faculty/rpeverati/g16/g16/l401.exe)
 SCF N**3 symmetry information disabled.
 ExpMin= 9.98D-02 ExpMax= 1.94D+04 ExpMxC= 2.91D+03 IAcc=3 IRadAn=         5 AccDes= 0.00D+00
 Harris functional with IExCor=  402 and IRadAn=       5 diagonalized for initial guess.
 HarFok:  IExCor=  402 AccDes= 0.00D+00 IRadAn=         5 IDoV= 1 UseB2=F ITyADJ=14
 ICtDFT=  3500011 ScaDFX=  1.000000  1.000000  1.000000  1.000000
 FoFCou: FMM=F IPFlag=           0 FMFlag=      100000 FMFlg1=           0
         NFxFlg=           0 DoJE=T BraDBF=F KetDBF=T FulRan=T
         wScrn=  0.000000 ICntrl=       500 IOpCl=  0 I1Cent=   200000004 NGrid=           0
         NMat0=    1 NMatS0=      1 NMatT0=    0 NMatD0=    1 NMtDS0=    0 NMtDT0=    0
 Petite list used in FoFCou.
 Harris En= -343.094390804853    
 JPrj=0 DoOrth=F DoCkMO=F.
 Initial guess orbital symmetries:
       Occupied  (A1) (A1) (E) (E) (A1) (A1) (E) (E) (A1)
       Virtual   (E) (E) (A1) (E) (E) (A1) (A1) (E) (E) (A1) (E)
                 (E) (A1) (E) (E)
 The electronic state of the initial guess is 1-A1.
 Leave Link  401 at Tue Oct  6 16:00:52 2020, MaxMem=  2684354560 cpu:               4.1 elap:               0.7
 (Enter /udrive/faculty/rpeverati/g16/g16/l502.exe)
 Keep R1 ints in memory in symmetry-blocked form, NReq=10390965.
 FoFCou: FMM=F IPFlag=           0 FMFlag=           0 FMFlg1=           0
         NFxFlg=           0 DoJE=F BraDBF=F KetDBF=F FulRan=T
         wScrn=  0.000000 ICntrl=       600 IOpCl=  0 I1Cent=           0 NGrid=           0
         NMat0=    1 NMatS0=    300 NMatT0=    0 NMatD0=    1 NMtDS0=    0 NMtDT0=    0
 Petite list used in FoFCou.
 Closed shell SCF:
 Using DIIS extrapolation, IDIIS=  1040.
 NGot=  2684354560 LenX=  2684327934 LenY=  2684326868
 Requested convergence on RMS density matrix=1.00D-08 within 120 cycles.
 Requested convergence on MAX density matrix=1.00D-06.
 Requested convergence on             energy=1.00D-06.
 No special actions if energy rises.
 Integral accuracy reduced to 1.0D-05 until final iterations.

 Cycle   1  Pass 0  IDiag  1:
 E= -343.130426739874    
 DIIS: error= 1.08D-02 at cycle   1 NSaved=   1.
 NSaved= 1 IEnMin= 1 EnMin= -343.130426739874     IErMin= 1 ErrMin= 1.08D-02
 ErrMax= 1.08D-02  0.00D+00 EMaxC= 1.00D-01 BMatC= 5.72D-03 BMatP= 5.72D-03
 IDIUse=3 WtCom= 8.92D-01 WtEn= 1.08D-01
 Coeff-Com:  0.100D+01
 Coeff-En:   0.100D+01
 Coeff:      0.100D+01
 Gap=     0.312 Goal=   None    Shift=    0.000
 GapD=    0.312 DampG=1.000 DampE=0.500 DampFc=0.5000 IDamp=-1.
 Damping current iteration by 5.00D-01
 RMSDP=5.02D-03 MaxDP=5.17D-02              OVMax= 3.75D-02

 Cycle   2  Pass 0  IDiag  1:
 E= -343.134291658489     Delta-E=       -0.003864918616 Rises=F Damp=T
 DIIS: error= 4.36D-03 at cycle   2 NSaved=   2.
 NSaved= 2 IEnMin= 2 EnMin= -343.134291658489     IErMin= 2 ErrMin= 4.36D-03
 ErrMax= 4.36D-03  0.00D+00 EMaxC= 1.00D-01 BMatC= 1.01D-03 BMatP= 5.72D-03
 IDIUse=3 WtCom= 9.56D-01 WtEn= 4.36D-02
 Coeff-Com: -0.643D+00 0.164D+01
 Coeff-En:   0.000D+00 0.100D+01
 Coeff:     -0.615D+00 0.162D+01
 Gap=     0.308 Goal=   None    Shift=    0.000
 RMSDP=1.55D-03 MaxDP=1.41D-02 DE=-3.86D-03 OVMax= 1.24D-02

 Cycle   3  Pass 0  IDiag  1:
 E= -343.137605481068     Delta-E=       -0.003313822578 Rises=F Damp=F
 DIIS: error= 1.00D-03 at cycle   3 NSaved=   3.
 NSaved= 3 IEnMin= 3 EnMin= -343.137605481068     IErMin= 3 ErrMin= 1.00D-03
 ErrMax= 1.00D-03  0.00D+00 EMaxC= 1.00D-01 BMatC= 1.93D-05 BMatP= 1.01D-03
 IDIUse=3 WtCom= 9.90D-01 WtEn= 1.00D-02
 Coeff-Com: -0.185D+00 0.410D+00 0.775D+00
 Coeff-En:   0.000D+00 0.000D+00 0.100D+01
 Coeff:     -0.183D+00 0.406D+00 0.777D+00
 Gap=     0.309 Goal=   None    Shift=    0.000
 RMSDP=2.40D-04 MaxDP=1.60D-03 DE=-3.31D-03 OVMax= 1.80D-03

 Cycle   4  Pass 0  IDiag  1:
 E= -343.137633342962     Delta-E=       -0.000027861894 Rises=F Damp=F
 DIIS: error= 7.69D-05 at cycle   4 NSaved=   4.
 NSaved= 4 IEnMin= 4 EnMin= -343.137633342962     IErMin= 4 ErrMin= 7.69D-05
 ErrMax= 7.69D-05  0.00D+00 EMaxC= 1.00D-01 BMatC= 2.04D-07 BMatP= 1.93D-05
 IDIUse=1 WtCom= 1.00D+00 WtEn= 0.00D+00
 Coeff-Com: -0.527D-01 0.117D+00 0.213D+00 0.722D+00
 Coeff:     -0.527D-01 0.117D+00 0.213D+00 0.722D+00
 Gap=     0.308 Goal=   None    Shift=    0.000
 RMSDP=4.17D-05 MaxDP=4.16D-04 DE=-2.79D-05 OVMax= 2.64D-04

 Cycle   5  Pass 0  IDiag  1:
 E= -343.137633629018     Delta-E=       -0.000000286057 Rises=F Damp=F
 DIIS: error= 3.18D-05 at cycle   5 NSaved=   5.
 NSaved= 5 IEnMin= 5 EnMin= -343.137633629018     IErMin= 5 ErrMin= 3.18D-05
 ErrMax= 3.18D-05  0.00D+00 EMaxC= 1.00D-01 BMatC= 2.58D-08 BMatP= 2.04D-07
 IDIUse=1 WtCom= 1.00D+00 WtEn= 0.00D+00
 Coeff-Com: -0.147D-02 0.210D-02 0.114D-02 0.246D+00 0.752D+00
 Coeff:     -0.147D-02 0.210D-02 0.114D-02 0.246D+00 0.752D+00
 Gap=     0.308 Goal=   None    Shift=    0.000
 RMSDP=9.71D-06 MaxDP=8.96D-05 DE=-2.86D-07 OVMax= 7.44D-05

 Initial convergence to 1.0D-05 achieved.  Increase integral accuracy.
 Cycle   6  Pass 1  IDiag  1:
 E= -343.137630841340     Delta-E=        0.000002787678 Rises=F Damp=F
 DIIS: error= 1.31D-06 at cycle   1 NSaved=   1.
 NSaved= 1 IEnMin= 1 EnMin= -343.137630841340     IErMin= 1 ErrMin= 1.31D-06
 ErrMax= 1.31D-06  0.00D+00 EMaxC= 1.00D-01 BMatC= 3.39D-11 BMatP= 3.39D-11
 IDIUse=1 WtCom= 1.00D+00 WtEn= 0.00D+00
 Coeff-Com:  0.100D+01
 Coeff:      0.100D+01
 Gap=     0.308 Goal=   None    Shift=    0.000
 RMSDP=9.71D-06 MaxDP=8.96D-05 DE= 2.79D-06 OVMax= 4.21D-06

 Cycle   7  Pass 1  IDiag  1:
 E= -343.137630841377     Delta-E=       -0.000000000036 Rises=F Damp=F
 DIIS: error= 7.48D-07 at cycle   2 NSaved=   2.
 NSaved= 2 IEnMin= 2 EnMin= -343.137630841377     IErMin= 2 ErrMin= 7.48D-07
 ErrMax= 7.48D-07  0.00D+00 EMaxC= 1.00D-01 BMatC= 1.76D-11 BMatP= 3.39D-11
 IDIUse=1 WtCom= 1.00D+00 WtEn= 0.00D+00
 Coeff-Com:  0.405D+00 0.595D+00
 Coeff:      0.405D+00 0.595D+00
 Gap=     0.308 Goal=   None    Shift=    0.000
 RMSDP=2.93D-07 MaxDP=2.60D-06 DE=-3.65D-11 OVMax= 2.05D-06

 Cycle   8  Pass 1  IDiag  1:
 E= -343.137630841403     Delta-E=       -0.000000000026 Rises=F Damp=F
 DIIS: error= 6.68D-08 at cycle   3 NSaved=   3.
 NSaved= 3 IEnMin= 3 EnMin= -343.137630841403     IErMin= 3 ErrMin= 6.68D-08
 ErrMax= 6.68D-08  0.00D+00 EMaxC= 1.00D-01 BMatC= 1.86D-13 BMatP= 1.76D-11
 IDIUse=1 WtCom= 1.00D+00 WtEn= 0.00D+00
 Coeff-Com:  0.293D-02 0.866D-01 0.910D+00
 Coeff:      0.293D-02 0.866D-01 0.910D+00
 Gap=     0.308 Goal=   None    Shift=    0.000
 RMSDP=3.54D-08 MaxDP=3.40D-07 DE=-2.63D-11 OVMax= 2.51D-07

 Cycle   9  Pass 1  IDiag  1:
 E= -343.137630841403     Delta-E=       -0.000000000000 Rises=F Damp=F
 DIIS: error= 1.56D-08 at cycle   4 NSaved=   4.
 NSaved= 4 IEnMin= 4 EnMin= -343.137630841403     IErMin= 4 ErrMin= 1.56D-08
 ErrMax= 1.56D-08  0.00D+00 EMaxC= 1.00D-01 BMatC= 4.15D-15 BMatP= 1.86D-13
 IDIUse=1 WtCom= 1.00D+00 WtEn= 0.00D+00
 Coeff-Com: -0.548D-02 0.387D-02 0.160D+00 0.842D+00
 Coeff:     -0.548D-02 0.387D-02 0.160D+00 0.842D+00
 Gap=     0.308 Goal=   None    Shift=    0.000
 RMSDP=3.53D-09 MaxDP=2.12D-08 DE=-1.14D-13 OVMax= 2.75D-08

 SCF Done:  E(RB3LYP) =  -343.137630841     A.U. after    9 cycles
            NFock=  9  Conv=0.35D-08     -V/T= 2.0020
 KE= 3.424463699223D+02 PE=-8.511291269477D+02 EE= 1.479145342958D+02
 Leave Link  502 at Tue Oct  6 16:00:53 2020, MaxMem=  2684354560 cpu:               8.8 elap:               1.2
 (Enter /udrive/faculty/rpeverati/g16/g16/l508.exe)
 QCSCF skips out because SCF is already converged.
 Leave Link  508 at Tue Oct  6 16:00:54 2020, MaxMem=  2684354560 cpu:               0.3 elap:               0.4
 (Enter /udrive/faculty/rpeverati/g16/g16/l601.exe)
 Copying SCF densities to generalized density rwf, IOpCl= 0 IROHF=0.

 **********************************************************************

            Population analysis using the SCF density.

 **********************************************************************

 Orbital symmetries:
       Occupied  (A1) (A1) (E) (E) (A1) (A1) (E) (E) (A1)
       Virtual   (E) (E) (A1) (E) (E) (A1) (A1) (E) (E) (E) (E)
                 (A1) (A1) (E) (E)
 The electronic state is 1-A1.
 Alpha  occ. eigenvalues --  -77.05818  -6.54891  -4.70986  -4.70986  -4.70546
 Alpha  occ. eigenvalues --   -0.65087  -0.39052  -0.39052  -0.27385
 Alpha virt. eigenvalues --    0.03457   0.03457   0.12012   0.28122   0.28122
 Alpha virt. eigenvalues --    0.29996   0.37959   0.66233   0.66233   0.67744
 Alpha virt. eigenvalues --    0.67744   0.68798   0.94177   1.15894   1.15894
          Condensed to atoms (all electrons):
               1          2          3          4
     1  P   14.100640   0.332132   0.332132   0.332132
     2  H    0.332132   0.684461  -0.024469  -0.024469
     3  H    0.332132  -0.024469   0.684461  -0.024469
     4  H    0.332132  -0.024469  -0.024469   0.684461
 Mulliken charges:
               1
     1  P   -0.097034
     2  H    0.032345
     3  H    0.032345
     4  H    0.032345
 Sum of Mulliken charges =  -0.00000
 Mulliken charges with hydrogens summed into heavy atoms:
               1
     1  P   -0.000000
 Electronic spatial extent (au):  <R**2>=             54.6347
 Charge=             -0.0000 electrons
 Dipole moment (field-independent basis, Debye):
    X=              0.0000    Y=              0.0000    Z=             -0.9934  Tot=              0.9934
 Quadrupole moment (field-independent basis, Debye-Ang):
   XX=            -14.5422   YY=            -14.5422   ZZ=            -17.0418
   XY=             -0.0000   XZ=             -0.0000   YZ=             -0.0000
 Traceless Quadrupole moment (field-independent basis, Debye-Ang):
   XX=              0.8332   YY=              0.8332   ZZ=             -1.6664
   XY=             -0.0000   XZ=             -0.0000   YZ=             -0.0000
 Octapole moment (field-independent basis, Debye-Ang**2):
  XXX=              0.0000  YYY=             -0.1004  ZZZ=             -2.1482  XYY=              0.0000
  XXY=              0.1004  XXZ=             -0.3506  XZZ=              0.0000  YZZ=              0.0000
  YYZ=             -0.3506  XYZ=              0.0000
 Hexadecapole moment (field-independent basis, Debye-Ang**3):
 XXXX=            -29.6187 YYYY=            -29.6187 ZZZZ=            -34.4625 XXXY=              0.0000
 XXXZ=             -0.0000 YYYX=              0.0000 YYYZ=             -0.3358 ZZZX=             -0.0000
 ZZZY=             -0.0000 XXYY=             -9.8729 XXZZ=            -10.4049 YYZZ=            -10.4049
 XXYZ=              0.3358 YYXZ=             -0.0000 ZZXY=              0.0000
 N-N= 1.763059188815D+01 E-N=-8.511291271362D+02  KE= 3.424463699223D+02
 No NMR shielding tensors so no spin-rotation constants.
 Leave Link  601 at Tue Oct  6 16:00:55 2020, MaxMem=  2684354560 cpu:               3.1 elap:               0.7
 (Enter /udrive/faculty/rpeverati/g16/g16/l701.exe)
 ... and contract with generalized density number  0.
 Compute integral first derivatives.
 Leave Link  701 at Tue Oct  6 16:00:56 2020, MaxMem=  2684354560 cpu:               3.3 elap:               0.7
 (Enter /udrive/faculty/rpeverati/g16/g16/l702.exe)
 L702 exits ... SP integral derivatives will be done elsewhere.
 Leave Link  702 at Tue Oct  6 16:00:57 2020, MaxMem=  2684354560 cpu:               1.5 elap:               0.5
 (Enter /udrive/faculty/rpeverati/g16/g16/l703.exe)
 Integral derivatives from FoFJK, PRISM(SPDF).
 Compute integral first derivatives, UseDBF=F ICtDFT=           0.
 Calling FoFJK, ICntrl=      2127 FMM=F ISym2X=1 I1Cent= 0 IOpClX= 0 NMat=1 NMatS=1 NMatT=0.
 FoFJK:  IHMeth= 1 ICntrl=    2127 DoSepK=F KAlg= 0 I1Cent=           0 FoldK=F
 IRaf=         0 NMat=       1 IRICut=       1 DoRegI=T DoRafI=F ISym2E= 1 IDoP0=0 IntGTp=1.
 FoFCou: FMM=F IPFlag=           0 FMFlag=      100000 FMFlg1=         800
         NFxFlg=           0 DoJE=F BraDBF=F KetDBF=F FulRan=T
         wScrn=  0.000000 ICntrl=      2127 IOpCl=  0 I1Cent=           0 NGrid=           0
         NMat0=    1 NMatS0=      1 NMatT0=    0 NMatD0=    1 NMtDS0=    0 NMtDT0=    0
 Petite list used in FoFCou.
 Leave Link  703 at Tue Oct  6 16:00:58 2020, MaxMem=  2684354560 cpu:               5.6 elap:               0.9
 (Enter /udrive/faculty/rpeverati/g16/g16/l716.exe)
 Dipole        = 2.22044605D-16 6.66133815D-16-3.90828805D-01
 ***** Axes restored to original set *****
 -------------------------------------------------------------------
 Center     Atomic                   Forces (Hartrees/Bohr)
 Number     Number              X              Y              Z
 -------------------------------------------------------------------
      1       15          -0.000000000    0.000000000    0.008984667
      2        1           0.001928382    0.003340056   -0.002994889
      3        1           0.001928382   -0.003340056   -0.002994889
      4        1          -0.003856765   -0.000000000   -0.002994889
 -------------------------------------------------------------------
 Cartesian Forces:  Max     0.008984667 RMS     0.003562024
 Leave Link  716 at Tue Oct  6 16:00:59 2020, MaxMem=  2684354560 cpu:               2.1 elap:               0.6
 (Enter /udrive/faculty/rpeverati/g16/g16/l103.exe)

 GradGradGradGradGradGradGradGradGradGradGradGradGradGradGradGradGradGrad
 Berny optimization.
 Optmz: redundant internal coordinate code flag= 1
 FormGI is forming the generalized inverse of G from B-inverse, IUseBI=4.
 Internal  Forces:  Max     0.004861778 RMS     0.003224354
 Search for a local minimum.
 Step number   1 out of a maximum of  100
 All quantities printed in internal units (Hartrees-Bohrs-Radians)
 RMS Force = .32244D-02 SwitMx=.10000D-02 MixMth= 1
 Mixed Optimization -- RFO/linear search
 Second derivative matrix not updated -- first step.
 The second derivative matrix:
                          R1        R2        R3        A1        A2
           R1           0.21390
           R2           0.00000   0.21390
           R3           0.00000   0.00000   0.21390
           A1           0.00000   0.00000   0.00000   0.16000
           A2           0.00000   0.00000   0.00000   0.00000   0.16000
           A3           0.00000   0.00000   0.00000   0.00000   0.00000
           D1           0.00000   0.00000   0.00000   0.00000   0.00000
                          A3        D1
           A3           0.16000
           D1           0.00000   0.00338
 ITU=  0
 Eigenvectors of the second derivative matrix:
                           1         2         3         4         5
     Eigenvalues --     0.08090   0.16000   0.16000   0.21390   0.21390
   1         R1        -0.00000   0.00000  -0.00000   0.77114   0.39496
   2         R2        -0.00000  -0.00000   0.00000   0.60081  -0.71092
   3         R3         0.00000  -0.00000   0.00000  -0.21063  -0.58189
   4         A1        -0.69989   0.02955  -0.09724  -0.00000  -0.00000
   5         A2        -0.05056  -0.88108   0.46748  -0.00000   0.00000
   6         A3        -0.05056   0.47204   0.87864  -0.00000   0.00000
   7         D1        -0.71066   0.00000  -0.00000  -0.00000  -0.00000
                           6
     Eigenvalues --     0.21390
   1         R1         0.49935
   2         R2        -0.36553
   3         R3         0.78552
   4         A1         0.00000
   5         A2         0.00000
   6         A3         0.00000
   7         D1         0.00000
 Iter=   1 RLamda= 0.00000000D+00 Sum=-3.46283133D-04.
 Iter=   2 RLamda=-3.46283133D-04 Sum=-3.45702160D-04.
 Iter=   3 RLamda=-3.45702160D-04 Sum=-3.45703133D-04.
 RFO step:  Lambda=-3.45702160D-04 EMin= 8.09018551D-02
 Linear search not attempted -- first point.
 Iteration  1 RMS(Cart)=  0.01117460 RMS(Int)=  0.00004100
 Iteration  2 RMS(Cart)=  0.00004704 RMS(Int)=  0.00001007
 Iteration  3 RMS(Cart)=  0.00000000 RMS(Int)=  0.00001007
 ITry= 1 IFail=0 DXMaxC= 1.60D-02 DCOld= 1.00D+10 DXMaxT= 3.00D-01 DXLimC= 3.00D+00 Rises=F
 ClnCor:  largest displacement from symmetrization is 1.05D-04 for atom     4.
 Variable       Old X    -DE/DX   Delta X   Delta X   Delta X     New X
                                 (Linear)    (Quad)   (Total)
    R1        2.66884   0.00486   0.00000   0.02269   0.02271   2.69156
    R2        2.66884   0.00486   0.00000   0.02269   0.02271   2.69156
    R3        2.66884   0.00486   0.00000   0.02269   0.02271   2.69156
    A1        1.63822  -0.00038   0.00000  -0.00541  -0.00550   1.63272
    A2        1.63822  -0.00085   0.00000  -0.00555  -0.00550   1.63272
    A3        1.63822  -0.00085   0.00000  -0.00555  -0.00550   1.63272
    D1        1.64310  -0.00051   0.00000  -0.00625  -0.00629   1.63681
         Item               Value     Threshold  Converged?
 Maximum Force            0.004862     0.000450     NO 
 RMS     Force            0.003224     0.000300     NO 
 Maximum Displacement     0.016010     0.001800     NO 
 RMS     Displacement     0.011171     0.001200     NO 
 Predicted change in Energy=-1.731224D-04
 Lowest energy point so far.  Saving SCF results.
 Largest change from initial coordinates is atom    1       0.008 Angstoms.
 GradGradGradGradGradGradGradGradGradGradGradGradGradGradGradGradGradGrad

 Leave Link  103 at Tue Oct  6 16:01:00 2020, MaxMem=  2684354560 cpu:               2.9 elap:               0.7
 (Enter /udrive/faculty/rpeverati/g16/g16/l202.exe)
                          Input orientation:                          
 ---------------------------------------------------------------------
 Center     Atomic      Atomic             Coordinates (Angstroms)
 Number     Number       Type             X           Y           Z
 ---------------------------------------------------------------------
      1         15           0        0.000000    0.000000    0.577321
      2          1           0        0.599195    1.037836   -0.192435
      3          1           0        0.599195   -1.037836   -0.192435
      4          1           0       -1.198389    0.000000   -0.192435
 ---------------------------------------------------------------------
                    Distance matrix (angstroms):
                    1          2          3          4
     1  P    0.000000
     2  H    1.424311   0.000000
     3  H    1.424311   2.075671   0.000000
     4  H    1.424311   2.075671   2.075671   0.000000
 Stoichiometry    H3P
 Framework group  C3V[C3(P),3SGV(H)]
 Deg. of freedom     2
 Full point group                 C3V     NOp   6
 RotChk:  IX=0 Diff= 1.57D-16
 Largest Abelian subgroup         CS      NOp   2
 Largest concise Abelian subgroup CS      NOp   2
                         Standard orientation:                         
 ---------------------------------------------------------------------
 Center     Atomic      Atomic             Coordinates (Angstroms)
 Number     Number       Type             X           Y           Z
 ---------------------------------------------------------------------
      1         15           0        0.000000    0.000000    0.128293
      2          1           0        0.000000    1.198389   -0.641463
      3          1           0        1.037836   -0.599195   -0.641463
      4          1           0       -1.037836   -0.599195   -0.641463
 ---------------------------------------------------------------------
 Rotational constants (GHZ):         132.8817770         132.8817770         116.3897982
 Leave Link  202 at Tue Oct  6 16:01:01 2020, MaxMem=  2684354560 cpu:               1.8 elap:               0.5
 (Enter /udrive/faculty/rpeverati/g16/g16/l301.exe)
 Standard basis: 6-31G(d) (5D, 7F)
 Ernie: Thresh=  0.10000D-02 Tol=  0.10000D-05 Strict=F.
 There are    18 symmetry adapted cartesian basis functions of A'  symmetry.
 There are     7 symmetry adapted cartesian basis functions of A"  symmetry.
 There are    17 symmetry adapted basis functions of A'  symmetry.
 There are     7 symmetry adapted basis functions of A"  symmetry.
    24 basis functions,    64 primitive gaussians,    25 cartesian basis functions
     9 alpha electrons        9 beta electrons
       nuclear repulsion energy        17.4837732266 Hartrees.
 IExCor=  402 DFT=T Ex+Corr=B3LYP ExCW=0 ScaHFX=  0.200000
 ScaDFX=  0.800000  0.720000  1.000000  0.810000 ScalE2=  1.000000  1.000000
 IRadAn=      5 IRanWt=     -1 IRanGd=            0 ICorTp=0 IEmpDi=  4
 NAtoms=    4 NActive=    4 NUniq=    2 SFac= 4.00D+00 NAtFMM=   60 NAOKFM=F Big=F
 Integral buffers will be    131072 words long.
 Raffenetti 2 integral format.
 Two-electron integral symmetry is turned on.
 Leave Link  301 at Tue Oct  6 16:01:02 2020, MaxMem=  2684354560 cpu:               2.0 elap:               0.5
 (Enter /udrive/faculty/rpeverati/g16/g16/l302.exe)
 NPDir=0 NMtPBC=     1 NCelOv=     1 NCel=       1 NClECP=     1 NCelD=      1
         NCelK=      1 NCelE2=     1 NClLst=     1 CellRange=     0.0.
 One-electron integrals computed using PRISM.
 One-electron integral symmetry used in STVInt
 NBasis=    24 RedAO= T EigKep=  1.46D-02  NBF=    17     7
 NBsUse=    24 1.00D-06 EigRej= -1.00D+00 NBFU=    17     7
 Precomputing XC quadrature grid using
 IXCGrd= 4 IRadAn=           5 IRanWt=          -1 IRanGd=           0 AccXCQ= 0.00D+00.
 Generated NRdTot=       0 NPtTot=           0 NUsed=           0 NTot=          32
 NSgBfM=    25    25    25    25    25 MxSgAt=     4 MxSgA2=     4.
 Leave Link  302 at Tue Oct  6 16:01:03 2020, MaxMem=  2684354560 cpu:               3.4 elap:               0.7
 (Enter /udrive/faculty/rpeverati/g16/g16/l303.exe)
 DipDrv:  MaxL=1.
 Leave Link  303 at Tue Oct  6 16:01:03 2020, MaxMem=  2684354560 cpu:               1.5 elap:               0.6
 (Enter /udrive/faculty/rpeverati/g16/g16/l401.exe)
 Initial guess from the checkpoint file:  "MN_77_PH3_BH76_B3LYP_6-31Gs.chk"
 SCF N**3 symmetry information disabled.
 B after Tr=    -0.000000   -0.000000   -0.000000
         Rot=    1.000000   -0.000000   -0.000000   -0.000000 Ang=   0.00 deg.
 Guess basis will be translated and rotated to current coordinates.
 JPrj=2 DoOrth=T DoCkMO=T.
 Initial guess orbital symmetries:
       Occupied  (A1) (A1) (E) (E) (A1) (A1) (E) (E) (A1)
       Virtual   (E) (E) (A1) (E) (E) (A1) (A1) (E) (E) (E) (E)
                 (A1) (A1) (E) (E)
 The electronic state of the initial guess is 1-A1.
 Leave Link  401 at Tue Oct  6 16:01:04 2020, MaxMem=  2684354560 cpu:               2.5 elap:               0.6
 (Enter /udrive/faculty/rpeverati/g16/g16/l502.exe)
 Keep R1 ints in memory in symmetry-blocked form, NReq=10390965.
 FoFCou: FMM=F IPFlag=           0 FMFlag=           0 FMFlg1=           0
         NFxFlg=           0 DoJE=F BraDBF=F KetDBF=F FulRan=T
         wScrn=  0.000000 ICntrl=       600 IOpCl=  0 I1Cent=           0 NGrid=           0
         NMat0=    1 NMatS0=    300 NMatT0=    0 NMatD0=    1 NMtDS0=    0 NMtDT0=    0
 Petite list used in FoFCou.
 Closed shell SCF:
 Using DIIS extrapolation, IDIIS=  1040.
 NGot=  2684354560 LenX=  2684327934 LenY=  2684326868
 Requested convergence on RMS density matrix=1.00D-08 within 120 cycles.
 Requested convergence on MAX density matrix=1.00D-06.
 Requested convergence on             energy=1.00D-06.
 No special actions if energy rises.

 Cycle   1  Pass 1  IDiag  1:
 E= -343.137757491041    
 DIIS: error= 8.94D-04 at cycle   1 NSaved=   1.
 NSaved= 1 IEnMin= 1 EnMin= -343.137757491041     IErMin= 1 ErrMin= 8.94D-04
 ErrMax= 8.94D-04  0.00D+00 EMaxC= 1.00D-01 BMatC= 2.33D-05 BMatP= 2.33D-05
 IDIUse=3 WtCom= 9.91D-01 WtEn= 8.94D-03
 Coeff-Com:  0.100D+01
 Coeff-En:   0.100D+01
 Coeff:      0.100D+01
 Gap=     0.307 Goal=   None    Shift=    0.000
 RMSDP=5.35D-04 MaxDP=2.93D-03              OVMax= 3.57D-03

 Cycle   2  Pass 1  IDiag  1:
 E= -343.137800113806     Delta-E=       -0.000042622766 Rises=F Damp=F
 DIIS: error= 3.52D-04 at cycle   2 NSaved=   2.
 NSaved= 2 IEnMin= 2 EnMin= -343.137800113806     IErMin= 2 ErrMin= 3.52D-04
 ErrMax= 3.52D-04  0.00D+00 EMaxC= 1.00D-01 BMatC= 2.78D-06 BMatP= 2.33D-05
 IDIUse=3 WtCom= 9.96D-01 WtEn= 3.52D-03
 Coeff-Com:  0.191D+00 0.809D+00
 Coeff-En:   0.000D+00 0.100D+01
 Coeff:      0.190D+00 0.810D+00
 Gap=     0.307 Goal=   None    Shift=    0.000
 RMSDP=1.53D-04 MaxDP=1.89D-03 DE=-4.26D-05 OVMax= 8.67D-04

 Cycle   3  Pass 1  IDiag  1:
 E= -343.137803841666     Delta-E=       -0.000003727860 Rises=F Damp=F
 DIIS: error= 1.08D-04 at cycle   3 NSaved=   3.
 NSaved= 3 IEnMin= 3 EnMin= -343.137803841666     IErMin= 3 ErrMin= 1.08D-04
 ErrMax= 1.08D-04  0.00D+00 EMaxC= 1.00D-01 BMatC= 4.10D-07 BMatP= 2.78D-06
 IDIUse=3 WtCom= 9.99D-01 WtEn= 1.08D-03
 Coeff-Com:  0.964D-02 0.270D+00 0.720D+00
 Coeff-En:   0.000D+00 0.000D+00 0.100D+01
 Coeff:      0.963D-02 0.270D+00 0.720D+00
 Gap=     0.307 Goal=   None    Shift=    0.000
 RMSDP=5.01D-05 MaxDP=4.33D-04 DE=-3.73D-06 OVMax= 2.97D-04

 Cycle   4  Pass 1  IDiag  1:
 E= -343.137804409917     Delta-E=       -0.000000568251 Rises=F Damp=F
 DIIS: error= 1.81D-05 at cycle   4 NSaved=   4.
 NSaved= 4 IEnMin= 4 EnMin= -343.137804409917     IErMin= 4 ErrMin= 1.81D-05
 ErrMax= 1.81D-05  0.00D+00 EMaxC= 1.00D-01 BMatC= 1.41D-08 BMatP= 4.10D-07
 IDIUse=1 WtCom= 1.00D+00 WtEn= 0.00D+00
 Coeff-Com: -0.433D-02 0.599D-01 0.231D+00 0.714D+00
 Coeff:     -0.433D-02 0.599D-01 0.231D+00 0.714D+00
 Gap=     0.307 Goal=   None    Shift=    0.000
 RMSDP=8.46D-06 MaxDP=5.45D-05 DE=-5.68D-07 OVMax= 7.62D-05

 Cycle   5  Pass 1  IDiag  1:
 E= -343.137804433160     Delta-E=       -0.000000023243 Rises=F Damp=F
 DIIS: error= 2.62D-06 at cycle   5 NSaved=   5.
 NSaved= 5 IEnMin= 5 EnMin= -343.137804433160     IErMin= 5 ErrMin= 2.62D-06
 ErrMax= 2.62D-06  0.00D+00 EMaxC= 1.00D-01 BMatC= 2.82D-10 BMatP= 1.41D-08
 IDIUse=1 WtCom= 1.00D+00 WtEn= 0.00D+00
 Coeff-Com: -0.822D-03-0.292D-02-0.460D-02 0.118D+00 0.890D+00
 Coeff:     -0.822D-03-0.292D-02-0.460D-02 0.118D+00 0.890D+00
 Gap=     0.307 Goal=   None    Shift=    0.000
 RMSDP=1.19D-06 MaxDP=1.07D-05 DE=-2.32D-08 OVMax= 8.98D-06

 Cycle   6  Pass 1  IDiag  1:
 E= -343.137804433608     Delta-E=       -0.000000000448 Rises=F Damp=F
 DIIS: error= 7.60D-08 at cycle   6 NSaved=   6.
 NSaved= 6 IEnMin= 6 EnMin= -343.137804433608     IErMin= 6 ErrMin= 7.60D-08
 ErrMax= 7.60D-08  0.00D+00 EMaxC= 1.00D-01 BMatC= 3.01D-13 BMatP= 2.82D-10
 IDIUse=1 WtCom= 1.00D+00 WtEn= 0.00D+00
 Coeff-Com:  0.262D-04-0.482D-03-0.111D-02 0.115D-02 0.769D-02 0.993D+00
 Coeff:      0.262D-04-0.482D-03-0.111D-02 0.115D-02 0.769D-02 0.993D+00
 Gap=     0.307 Goal=   None    Shift=    0.000
 RMSDP=5.40D-08 MaxDP=5.30D-07 DE=-4.48D-10 OVMax= 5.03D-07

 Cycle   7  Pass 1  IDiag  1:
 E= -343.137804433609     Delta-E=       -0.000000000001 Rises=F Damp=F
 DIIS: error= 8.44D-09 at cycle   7 NSaved=   7.
 NSaved= 7 IEnMin= 7 EnMin= -343.137804433609     IErMin= 7 ErrMin= 8.44D-09
 ErrMax= 8.44D-09  0.00D+00 EMaxC= 1.00D-01 BMatC= 1.30D-15 BMatP= 3.01D-13
 IDIUse=1 WtCom= 1.00D+00 WtEn= 0.00D+00
 Coeff-Com:  0.383D-05-0.203D-04-0.512D-04-0.672D-03-0.323D-02 0.272D-01
 Coeff-Com:  0.977D+00
 Coeff:      0.383D-05-0.203D-04-0.512D-04-0.672D-03-0.323D-02 0.272D-01
 Coeff:      0.977D+00
 Gap=     0.307 Goal=   None    Shift=    0.000
 RMSDP=3.71D-09 MaxDP=2.88D-08 DE=-1.02D-12 OVMax= 2.81D-08

 SCF Done:  E(RB3LYP) =  -343.137804434     A.U. after    7 cycles
            NFock=  7  Conv=0.37D-08     -V/T= 2.0021
 KE= 3.424078149459D+02 PE=-8.507930783278D+02 EE= 1.477636857217D+02
 Leave Link  502 at Tue Oct  6 16:01:06 2020, MaxMem=  2684354560 cpu:               8.2 elap:               1.1
 (Enter /udrive/faculty/rpeverati/g16/g16/l508.exe)
 QCSCF skips out because SCF is already converged.
 Leave Link  508 at Tue Oct  6 16:01:06 2020, MaxMem=  2684354560 cpu:               0.4 elap:               0.4
 (Enter /udrive/faculty/rpeverati/g16/g16/l701.exe)
 ... and contract with generalized density number  0.
 Compute integral first derivatives.
 Leave Link  701 at Tue Oct  6 16:01:07 2020, MaxMem=  2684354560 cpu:               3.0 elap:               0.7
 (Enter /udrive/faculty/rpeverati/g16/g16/l702.exe)
 L702 exits ... SP integral derivatives will be done elsewhere.
 Leave Link  702 at Tue Oct  6 16:01:08 2020, MaxMem=  2684354560 cpu:               1.5 elap:               0.5
 (Enter /udrive/faculty/rpeverati/g16/g16/l703.exe)
 Integral derivatives from FoFJK, PRISM(SPDF).
 Compute integral first derivatives, UseDBF=F ICtDFT=           0.
 Calling FoFJK, ICntrl=      2127 FMM=F ISym2X=1 I1Cent= 0 IOpClX= 0 NMat=1 NMatS=1 NMatT=0.
 FoFJK:  IHMeth= 1 ICntrl=    2127 DoSepK=F KAlg= 0 I1Cent=           0 FoldK=F
 IRaf=         0 NMat=       1 IRICut=       1 DoRegI=T DoRafI=F ISym2E= 1 IDoP0=0 IntGTp=1.
 FoFCou: FMM=F IPFlag=           0 FMFlag=      100000 FMFlg1=         800
         NFxFlg=           0 DoJE=F BraDBF=F KetDBF=F FulRan=T
         wScrn=  0.000000 ICntrl=      2127 IOpCl=  0 I1Cent=           0 NGrid=           0
         NMat0=    1 NMatS0=      1 NMatT0=    0 NMatD0=    1 NMtDS0=    0 NMtDT0=    0
 Petite list used in FoFCou.
 Leave Link  703 at Tue Oct  6 16:01:09 2020, MaxMem=  2684354560 cpu:               5.5 elap:               0.8
 (Enter /udrive/faculty/rpeverati/g16/g16/l716.exe)
 Dipole        = 2.22044605D-16 0.00000000D+00-3.79074427D-01
 ***** Axes restored to original set *****
 -------------------------------------------------------------------
 Center     Atomic                   Forces (Hartrees/Bohr)
 Number     Number              X              Y              Z
 -------------------------------------------------------------------
      1       15          -0.000000000   -0.000000000    0.000546911
      2        1          -0.000090567   -0.000156866   -0.000182304
      3        1          -0.000090567    0.000156866   -0.000182304
      4        1           0.000181133   -0.000000000   -0.000182304
 -------------------------------------------------------------------
 Cartesian Forces:  Max     0.000546911 RMS     0.000203560
 Leave Link  716 at Tue Oct  6 16:01:10 2020, MaxMem=  2684354560 cpu:               1.7 elap:               0.6
 (Enter /udrive/faculty/rpeverati/g16/g16/l103.exe)

 GradGradGradGradGradGradGradGradGradGradGradGradGradGradGradGradGradGrad
 Berny optimization.
 Optmz: redundant internal coordinate code flag= 1
 Using GEDIIS/GDIIS optimizer.
 Red2BG:  D1=  3.48D-01 OD1=  1.97D-02 B2RMS=  0.00D+00 IAprox=0
 FormGI is forming the generalized inverse of G from B-inverse, IUseBI=4.
 Internal  Forces:  Max     0.000476368 RMS     0.000289452
 Search for a local minimum.
 Step number   2 out of a maximum of  100
 All quantities printed in internal units (Hartrees-Bohrs-Radians)
 RMS Force = .28945D-03 SwitMx=.10000D-02 MixMth= 2
 Mixed Optimization -- En-DIIS/RFO-DIIS
 Update second derivatives using D2CorX and points    1    2
 DE= -1.74D-04 DEPred=-1.73D-04 R= 1.00D+00
 TightC=F SS=  1.41D+00  RLast= 4.10D-02 DXNew= 5.0454D-01 1.2289D-01
 Trust test= 1.00D+00 RLast= 4.10D-02 DXMaxT set to 3.00D-01
 The second derivative matrix:
                          R1        R2        R3        A1        A2
           R1           0.21638
           R2           0.00248   0.21638
           R3           0.00248   0.00248   0.21638
           A1           0.00996   0.00996   0.00996   0.15784
           A2           0.00692   0.00692   0.00692  -0.00205   0.15818
           A3           0.00692   0.00692   0.00692  -0.00205  -0.00182
           D1          -0.00299  -0.00299  -0.00299   0.00006   0.00020
                          A3        D1
           A3           0.15818
           D1           0.00020   0.00353
 ITU=  1  0
 Use linear search instead of GDIIS.
 Eigenvectors of the second derivative matrix:
                           1         2         3         4         5
     Eigenvalues --     0.07910   0.15369   0.16000   0.21390   0.21390
   1         R1        -0.04091   0.12281   0.00000   0.62161  -0.52941
   2         R2        -0.04091   0.12281   0.00000  -0.76928  -0.27362
   3         R3        -0.04091   0.12281   0.00000   0.14768   0.80303
   4         A1         0.69523   0.12757  -0.00000   0.00000   0.00000
   5         A2         0.07312  -0.68450  -0.70711   0.00000   0.00000
   6         A3         0.07312  -0.68450   0.70711   0.00000   0.00000
   7         D1         0.70777   0.03741  -0.00000   0.00000   0.00000
                           6
     Eigenvalues --     0.22532
   1         R1         0.56265
   2         R2         0.56265
   3         R3         0.56265
   4         A1         0.02270
   5         A2         0.15472
   6         A3         0.15472
   7         D1         0.04330
 Iter=   1 RLamda= 0.00000000D+00 Sum=-4.66151731D-06.
 Iter=   2 RLamda=-4.66151731D-06 Sum=-4.66132429D-06.
 RFO step:  Lambda=-4.66151731D-06 EMin= 7.90983466D-02
 Quartic linear search produced a step of  0.01358.
 Iteration  1 RMS(Cart)=  0.00279293 RMS(Int)=  0.00000626
 Iteration  2 RMS(Cart)=  0.00000488 RMS(Int)=  0.00000344
 Iteration  3 RMS(Cart)=  0.00000000 RMS(Int)=  0.00000344
 ITry= 1 IFail=0 DXMaxC= 3.98D-03 DCOld= 1.00D+10 DXMaxT= 3.00D-01 DXLimC= 3.00D+00 Rises=F
 ClnCor:  largest displacement from symmetrization is 5.25D-05 for atom     4.
 Variable       Old X    -DE/DX   Delta X   Delta X   Delta X     New X
                                 (Linear)    (Quad)   (Total)
    R1        2.69156  -0.00005   0.00031  -0.00025   0.00007   2.69163
    R2        2.69156  -0.00005   0.00031  -0.00025   0.00007   2.69163
    R3        2.69156  -0.00005   0.00031  -0.00025   0.00007   2.69163
    A1        1.63272  -0.00021  -0.00007  -0.00307  -0.00318   1.62954
    A2        1.63272  -0.00048  -0.00007  -0.00313  -0.00318   1.62954
    A3        1.63272  -0.00048  -0.00007  -0.00313  -0.00318   1.62954
    D1        1.63681  -0.00028  -0.00009  -0.00349  -0.00360   1.63321
         Item               Value     Threshold  Converged?
 Maximum Force            0.000476     0.000450     NO 
 RMS     Force            0.000289     0.000300     YES
 Maximum Displacement     0.003977     0.001800     NO 
 RMS     Displacement     0.002785     0.001200     NO 
 Predicted change in Energy=-2.352138D-06
 Lowest energy point so far.  Saving SCF results.
 Largest change from initial coordinates is atom    4       0.011 Angstoms.
 GradGradGradGradGradGradGradGradGradGradGradGradGradGradGradGradGradGrad

 Leave Link  103 at Tue Oct  6 16:01:11 2020, MaxMem=  2684354560 cpu:               1.8 elap:               0.5
 (Enter /udrive/faculty/rpeverati/g16/g16/l202.exe)
                          Input orientation:                          
 ---------------------------------------------------------------------
 Center     Atomic      Atomic             Coordinates (Angstroms)
 Number     Number       Type             X           Y           Z
 ---------------------------------------------------------------------
      1         15           0       -0.000000   -0.000000    0.579426
      2          1           0        0.598314    1.036310   -0.193133
      3          1           0        0.598314   -1.036310   -0.193133
      4          1           0       -1.196628    0.000000   -0.193133
 ---------------------------------------------------------------------
                    Distance matrix (angstroms):
                    1          2          3          4
     1  P    0.000000
     2  H    1.424347   0.000000
     3  H    1.424347   2.072620   0.000000
     4  H    1.424347   2.072620   2.072620   0.000000
 Stoichiometry    H3P
 Framework group  C3V[C3(P),3SGV(H)]
 Deg. of freedom     2
 Full point group                 C3V     NOp   6
 RotChk:  IX=0 Diff= 1.57D-16
 Largest Abelian subgroup         CS      NOp   2
 Largest concise Abelian subgroup CS      NOp   2
                         Standard orientation:                         
 ---------------------------------------------------------------------
 Center     Atomic      Atomic             Coordinates (Angstroms)
 Number     Number       Type             X           Y           Z
 ---------------------------------------------------------------------
      1         15           0        0.000000    0.000000    0.128760
      2          1           0        0.000000    1.196628   -0.643799
      3          1           0        1.036310   -0.598314   -0.643799
      4          1           0       -1.036310   -0.598314   -0.643799
 ---------------------------------------------------------------------
 Rotational constants (GHZ):         132.6888238         132.6888238         116.7327253
 Leave Link  202 at Tue Oct  6 16:01:12 2020, MaxMem=  2684354560 cpu:               1.5 elap:               0.5
 (Enter /udrive/faculty/rpeverati/g16/g16/l301.exe)
 Standard basis: 6-31G(d) (5D, 7F)
 Ernie: Thresh=  0.10000D-02 Tol=  0.10000D-05 Strict=F.
 There are    18 symmetry adapted cartesian basis functions of A'  symmetry.
 There are     7 symmetry adapted cartesian basis functions of A"  symmetry.
 There are    17 symmetry adapted basis functions of A'  symmetry.
 There are     7 symmetry adapted basis functions of A"  symmetry.
    24 basis functions,    64 primitive gaussians,    25 cartesian basis functions
     9 alpha electrons        9 beta electrons
       nuclear repulsion energy        17.4844697703 Hartrees.
 IExCor=  402 DFT=T Ex+Corr=B3LYP ExCW=0 ScaHFX=  0.200000
 ScaDFX=  0.800000  0.720000  1.000000  0.810000 ScalE2=  1.000000  1.000000
 IRadAn=      5 IRanWt=     -1 IRanGd=            0 ICorTp=0 IEmpDi=  4
 NAtoms=    4 NActive=    4 NUniq=    2 SFac= 4.00D+00 NAtFMM=   60 NAOKFM=F Big=F
 Integral buffers will be    131072 words long.
 Raffenetti 2 integral format.
 Two-electron integral symmetry is turned on.
 Leave Link  301 at Tue Oct  6 16:01:12 2020, MaxMem=  2684354560 cpu:               1.9 elap:               0.5
 (Enter /udrive/faculty/rpeverati/g16/g16/l302.exe)
 NPDir=0 NMtPBC=     1 NCelOv=     1 NCel=       1 NClECP=     1 NCelD=      1
         NCelK=      1 NCelE2=     1 NClLst=     1 CellRange=     0.0.
 One-electron integrals computed using PRISM.
 One-electron integral symmetry used in STVInt
 NBasis=    24 RedAO= T EigKep=  1.45D-02  NBF=    17     7
 NBsUse=    24 1.00D-06 EigRej= -1.00D+00 NBFU=    17     7
 Precomputing XC quadrature grid using
 IXCGrd= 4 IRadAn=           5 IRanWt=          -1 IRanGd=           0 AccXCQ= 0.00D+00.
 Generated NRdTot=       0 NPtTot=           0 NUsed=           0 NTot=          32
 NSgBfM=    25    25    25    25    25 MxSgAt=     4 MxSgA2=     4.
 Leave Link  302 at Tue Oct  6 16:01:13 2020, MaxMem=  2684354560 cpu:               3.7 elap:               0.7
 (Enter /udrive/faculty/rpeverati/g16/g16/l303.exe)
 DipDrv:  MaxL=1.
 Leave Link  303 at Tue Oct  6 16:01:14 2020, MaxMem=  2684354560 cpu:               1.6 elap:               0.5
 (Enter /udrive/faculty/rpeverati/g16/g16/l401.exe)
 Initial guess from the checkpoint file:  "MN_77_PH3_BH76_B3LYP_6-31Gs.chk"
 SCF N**3 symmetry information disabled.
 B after Tr=    -0.000000   -0.000000    0.000000
         Rot=    1.000000   -0.000000    0.000000   -0.000000 Ang=   0.00 deg.
 Guess basis will be translated and rotated to current coordinates.
 JPrj=2 DoOrth=T DoCkMO=T.
 Initial guess orbital symmetries:
       Occupied  (A1) (A1) (E) (E) (A1) (A1) (E) (E) (A1)
       Virtual   (E) (E) (A1) (E) (E) (A1) (A1) (E) (E) (E) (E)
                 (A1) (A1) (E) (E)
 The electronic state of the initial guess is 1-A1.
 Leave Link  401 at Tue Oct  6 16:01:15 2020, MaxMem=  2684354560 cpu:               2.4 elap:               0.6
 (Enter /udrive/faculty/rpeverati/g16/g16/l502.exe)
 Keep R1 ints in memory in symmetry-blocked form, NReq=10390965.
 FoFCou: FMM=F IPFlag=           0 FMFlag=           0 FMFlg1=           0
         NFxFlg=           0 DoJE=F BraDBF=F KetDBF=F FulRan=T
         wScrn=  0.000000 ICntrl=       600 IOpCl=  0 I1Cent=           0 NGrid=           0
         NMat0=    1 NMatS0=    300 NMatT0=    0 NMatD0=    1 NMtDS0=    0 NMtDT0=    0
 Petite list used in FoFCou.
 Closed shell SCF:
 Using DIIS extrapolation, IDIIS=  1040.
 NGot=  2684354560 LenX=  2684327934 LenY=  2684326868
 Requested convergence on RMS density matrix=1.00D-08 within 120 cycles.
 Requested convergence on MAX density matrix=1.00D-06.
 Requested convergence on             energy=1.00D-06.
 No special actions if energy rises.

 Cycle   1  Pass 1  IDiag  1:
 E= -343.137805866993    
 DIIS: error= 1.56D-04 at cycle   1 NSaved=   1.
 NSaved= 1 IEnMin= 1 EnMin= -343.137805866993     IErMin= 1 ErrMin= 1.56D-04
 ErrMax= 1.56D-04  0.00D+00 EMaxC= 1.00D-01 BMatC= 5.05D-07 BMatP= 5.05D-07
 IDIUse=3 WtCom= 9.98D-01 WtEn= 1.56D-03
 Coeff-Com:  0.100D+01
 Coeff-En:   0.100D+01
 Coeff:      0.100D+01
 Gap=     0.308 Goal=   None    Shift=    0.000
 RMSDP=7.05D-05 MaxDP=4.87D-04              OVMax= 3.84D-04

 Cycle   2  Pass 1  IDiag  1:
 E= -343.137806781747     Delta-E=       -0.000000914754 Rises=F Damp=F
 DIIS: error= 1.50D-05 at cycle   2 NSaved=   2.
 NSaved= 2 IEnMin= 2 EnMin= -343.137806781747     IErMin= 2 ErrMin= 1.50D-05
 ErrMax= 1.50D-05  0.00D+00 EMaxC= 1.00D-01 BMatC= 5.46D-09 BMatP= 5.05D-07
 IDIUse=1 WtCom= 1.00D+00 WtEn= 0.00D+00
 Coeff-Com: -0.921D-02 0.101D+01
 Coeff:     -0.921D-02 0.101D+01
 Gap=     0.308 Goal=   None    Shift=    0.000
 RMSDP=1.31D-05 MaxDP=9.14D-05 DE=-9.15D-07 OVMax= 5.87D-05

 Cycle   3  Pass 1  IDiag  1:
 E= -343.137806792300     Delta-E=       -0.000000010553 Rises=F Damp=F
 DIIS: error= 7.25D-06 at cycle   3 NSaved=   3.
 NSaved= 3 IEnMin= 3 EnMin= -343.137806792300     IErMin= 3 ErrMin= 7.25D-06
 ErrMax= 7.25D-06  0.00D+00 EMaxC= 1.00D-01 BMatC= 1.15D-09 BMatP= 5.46D-09
 IDIUse=1 WtCom= 1.00D+00 WtEn= 0.00D+00
 Coeff-Com: -0.182D-01 0.292D+00 0.726D+00
 Coeff:     -0.182D-01 0.292D+00 0.726D+00
 Gap=     0.308 Goal=   None    Shift=    0.000
 RMSDP=1.76D-06 MaxDP=7.82D-06 DE=-1.06D-08 OVMax= 1.55D-05

 Cycle   4  Pass 1  IDiag  1:
 E= -343.137806793945     Delta-E=       -0.000000001645 Rises=F Damp=F
 DIIS: error= 8.87D-07 at cycle   4 NSaved=   4.
 NSaved= 4 IEnMin= 4 EnMin= -343.137806793945     IErMin= 4 ErrMin= 8.87D-07
 ErrMax= 8.87D-07  0.00D+00 EMaxC= 1.00D-01 BMatC= 2.25D-11 BMatP= 1.15D-09
 IDIUse=1 WtCom= 1.00D+00 WtEn= 0.00D+00
 Coeff-Com: -0.417D-02 0.527D-01 0.168D+00 0.784D+00
 Coeff:     -0.417D-02 0.527D-01 0.168D+00 0.784D+00
 Gap=     0.308 Goal=   None    Shift=    0.000
 RMSDP=4.13D-07 MaxDP=3.61D-06 DE=-1.64D-09 OVMax= 3.42D-06

 Cycle   5  Pass 1  IDiag  1:
 E= -343.137806793976     Delta-E=       -0.000000000031 Rises=F Damp=F
 DIIS: error= 3.17D-07 at cycle   5 NSaved=   5.
 NSaved= 5 IEnMin= 5 EnMin= -343.137806793976     IErMin= 5 ErrMin= 3.17D-07
 ErrMax= 3.17D-07  0.00D+00 EMaxC= 1.00D-01 BMatC= 3.86D-12 BMatP= 2.25D-11
 IDIUse=1 WtCom= 1.00D+00 WtEn= 0.00D+00
 Coeff-Com: -0.267D-03-0.170D-02 0.754D-02 0.303D+00 0.692D+00
 Coeff:     -0.267D-03-0.170D-02 0.754D-02 0.303D+00 0.692D+00
 Gap=     0.308 Goal=   None    Shift=    0.000
 RMSDP=1.46D-07 MaxDP=1.22D-06 DE=-3.13D-11 OVMax= 8.45D-07

 Cycle   6  Pass 1  IDiag  1:
 E= -343.137806793981     Delta-E=       -0.000000000005 Rises=F Damp=F
 DIIS: error= 1.56D-08 at cycle   6 NSaved=   6.
 NSaved= 6 IEnMin= 6 EnMin= -343.137806793981     IErMin= 6 ErrMin= 1.56D-08
 ErrMax= 1.56D-08  0.00D+00 EMaxC= 1.00D-01 BMatC= 7.84D-15 BMatP= 3.86D-12
 IDIUse=1 WtCom= 1.00D+00 WtEn= 0.00D+00
 Coeff-Com:  0.459D-04-0.932D-03-0.335D-02 0.160D-01 0.675D-01 0.921D+00
 Coeff:      0.459D-04-0.932D-03-0.335D-02 0.160D-01 0.675D-01 0.921D+00
 Gap=     0.308 Goal=   None    Shift=    0.000
 RMSDP=7.23D-09 MaxDP=8.97D-08 DE=-5.23D-12 OVMax= 5.24D-08

 SCF Done:  E(RB3LYP) =  -343.137806794     A.U. after    6 cycles
            NFock=  6  Conv=0.72D-08     -V/T= 2.0021
 KE= 3.424081554266D+02 PE=-8.507949690974D+02 EE= 1.477645371065D+02
 Leave Link  502 at Tue Oct  6 16:01:16 2020, MaxMem=  2684354560 cpu:               7.3 elap:               1.1
 (Enter /udrive/faculty/rpeverati/g16/g16/l508.exe)
 QCSCF skips out because SCF is already converged.
 Leave Link  508 at Tue Oct  6 16:01:17 2020, MaxMem=  2684354560 cpu:               0.3 elap:               0.7
 (Enter /udrive/faculty/rpeverati/g16/g16/l701.exe)
 ... and contract with generalized density number  0.
 Compute integral first derivatives.
 Leave Link  701 at Tue Oct  6 16:01:18 2020, MaxMem=  2684354560 cpu:               3.1 elap:               0.7
 (Enter /udrive/faculty/rpeverati/g16/g16/l702.exe)
 L702 exits ... SP integral derivatives will be done elsewhere.
 Leave Link  702 at Tue Oct  6 16:01:19 2020, MaxMem=  2684354560 cpu:               1.7 elap:               0.6
 (Enter /udrive/faculty/rpeverati/g16/g16/l703.exe)
 Integral derivatives from FoFJK, PRISM(SPDF).
 Compute integral first derivatives, UseDBF=F ICtDFT=           0.
 Calling FoFJK, ICntrl=      2127 FMM=F ISym2X=1 I1Cent= 0 IOpClX= 0 NMat=1 NMatS=1 NMatT=0.
 FoFJK:  IHMeth= 1 ICntrl=    2127 DoSepK=F KAlg= 0 I1Cent=           0 FoldK=F
 IRaf=         0 NMat=       1 IRICut=       1 DoRegI=T DoRafI=F ISym2E= 1 IDoP0=0 IntGTp=1.
 FoFCou: FMM=F IPFlag=           0 FMFlag=      100000 FMFlg1=         800
         NFxFlg=           0 DoJE=F BraDBF=F KetDBF=F FulRan=T
         wScrn=  0.000000 ICntrl=      2127 IOpCl=  0 I1Cent=           0 NGrid=           0
         NMat0=    1 NMatS0=      1 NMatT0=    0 NMatD0=    1 NMtDS0=    0 NMtDT0=    0
 Petite list used in FoFCou.
 Leave Link  703 at Tue Oct  6 16:01:20 2020, MaxMem=  2684354560 cpu:               5.3 elap:               0.9
 (Enter /udrive/faculty/rpeverati/g16/g16/l716.exe)
 Dipole        =-2.22044605D-16 0.00000000D+00-3.77474748D-01
 ***** Axes restored to original set *****
 -------------------------------------------------------------------
 Center     Atomic                   Forces (Hartrees/Bohr)
 Number     Number              X              Y              Z
 -------------------------------------------------------------------
      1       15           0.000000000    0.000000000   -0.000005909
      2        1          -0.000002227   -0.000003857    0.000001970
      3        1          -0.000002227    0.000003857    0.000001970
      4        1           0.000004453    0.000000000    0.000001970
 -------------------------------------------------------------------
 Cartesian Forces:  Max     0.000005909 RMS     0.000002973
 Leave Link  716 at Tue Oct  6 16:01:21 2020, MaxMem=  2684354560 cpu:               1.4 elap:               0.4
 (Enter /udrive/faculty/rpeverati/g16/g16/l103.exe)

 GradGradGradGradGradGradGradGradGradGradGradGradGradGradGradGradGradGrad
 Berny optimization.
 Optmz: redundant internal coordinate code flag= 1
 Using GEDIIS/GDIIS optimizer.
 Red2BG:  D1=  3.47D-01 OD1=  4.67D-03 B2RMS=  0.00D+00 IAprox=0
 FormGI is forming the generalized inverse of G from B-inverse, IUseBI=4.
 Internal  Forces:  Max     0.000004810 RMS     0.000003267
 Search for a local minimum.
 Step number   3 out of a maximum of  100
 All quantities printed in internal units (Hartrees-Bohrs-Radians)
 RMS Force = .32665D-05 SwitMx=.10000D-02 MixMth= 2
 Mixed Optimization -- En-DIIS/RFO-DIIS
 Swapping is turned off.
 Update second derivatives using D2CorX and points    1    2    3
 DE= -2.36D-06 DEPred=-2.35D-06 R= 1.00D+00
 TightC=F SS=  1.41D+00  RLast= 6.58D-03 DXNew= 5.0454D-01 1.9745D-02
 Trust test= 1.00D+00 RLast= 6.58D-03 DXMaxT set to 3.00D-01
 The second derivative matrix:
                          R1        R2        R3        A1        A2
           R1           0.21638
           R2           0.00248   0.21638
           R3           0.00248   0.00248   0.21638
           A1           0.01086   0.01086   0.01086   0.11794
           A2           0.00691   0.00691   0.00691  -0.03095   0.15526
           A3           0.00691   0.00691   0.00691  -0.03095  -0.00474
           D1          -0.00392  -0.00392  -0.00392   0.01062   0.02669
                          A3        D1
           A3           0.15526
           D1           0.02669   0.02046
 ITU=  1  1  0
 Eigenvectors of the second derivative matrix:
                           1         2         3         4         5
     Eigenvalues --     0.07829   0.15473   0.16000   0.21390   0.21390
   1         R1        -0.04054   0.12389   0.00000  -0.28674   0.76449
   2         R2        -0.04054   0.12389   0.00000  -0.51870  -0.63057
   3         R3        -0.04054   0.12389   0.00000   0.80544  -0.13392
   4         A1         0.69561   0.12542   0.00000   0.00000  -0.00000
   5         A2         0.07351  -0.68433  -0.70711   0.00000  -0.00000
   6         A3         0.07351  -0.68433   0.70711   0.00000  -0.00000
   7         D1         0.70738   0.04020   0.00000   0.00000  -0.00000
                           6
     Eigenvalues --     0.22531
   1         R1         0.56244
   2         R2         0.56244
   3         R3         0.56244
   4         A1         0.02251
   5         A2         0.15604
   6         A3         0.15604
   7         D1         0.04213
 DoSqrt=T IScMMF=    -3 MM Scaling Factor =       0.00000
 En-DIIS/RFO-DIIS/Sim-DIIS IScMMF=       -3 using points:     3    2
 Iter=   1 RLamda= 0.00000000D+00 Sum=-3.35297680D-10.
 RFO step:  Lambda= 0.00000000D+00.
 NNeg= 0 NGDIIS= 2 SimSw=  2.50D-03 Rises=F DC= -2.36D-06 SmlDif=  1.00D-05
 NRisDI= 0 DoIntr=F SqrtH=F CThrHd= 10.0 CDAdj=  3.0
 RMS Error=  0.1481634773D-04 NUsed= 2 OKEnD=F EnDIS=F
 Total RFO-DIIS matrix:
                 1             2             3 
      1   0.000000D+00 -0.100000D+01 -0.100000D+01
      2  -0.100000D+01  0.153667D-08  0.903913D-07
      3  -0.100000D+01  0.903913D-07  0.434741D-04
 InvSVX:  RCond= 1.08D-05 Info=           0 Equed=N FErr=  8.92D-16 BErr=  1.68D-17
 DidBck=F Rises=F RFO-DIIS coefs:    1.00205   -0.00205
 Iteration  1 RMS(Cart)=  0.00001640 RMS(Int)=  0.00000001
 Iteration  2 RMS(Cart)=  0.00000000 RMS(Int)=  0.00000001
 ITry= 1 IFail=0 DXMaxC= 2.51D-05 DCOld= 1.00D+10 DXMaxT= 3.00D-01 DXLimC= 3.00D+00 Rises=F
 ClnCor:  largest displacement from symmetrization is 9.29D-08 for atom     4.
 Variable       Old X    -DE/DX   Delta X   Delta X   Delta X     New X
                                 (Linear)    (Quad)   (Total)
    R1        2.69163  -0.00000   0.00000  -0.00002  -0.00002   2.69161
    R2        2.69163  -0.00000   0.00000  -0.00002  -0.00002   2.69161
    R3        2.69163  -0.00000   0.00000  -0.00002  -0.00002   2.69161
    A1        1.62954  -0.00000  -0.00001  -0.00000  -0.00001   1.62953
    A2        1.62954  -0.00000  -0.00001  -0.00000  -0.00001   1.62953
    A3        1.62954  -0.00000  -0.00001  -0.00000  -0.00001   1.62953
    D1        1.63321  -0.00000  -0.00001  -0.00000  -0.00001   1.63320
         Item               Value     Threshold  Converged?
 Maximum Force            0.000005     0.000450     YES
 RMS     Force            0.000003     0.000300     YES
 Maximum Displacement     0.000025     0.001800     YES
 RMS     Displacement     0.000016     0.001200     YES
 Predicted change in Energy=-1.676479D-10
 Optimization completed.
    -- Stationary point found.
                           ----------------------------
                           !   Optimized Parameters   !
                           ! (Angstroms and Degrees)  !
 --------------------------                            --------------------------
 ! Name  Definition              Value          Derivative Info.                !
 --------------------------------------------------------------------------------
 ! R1    R(1,2)                  1.4243         -DE/DX =    0.0                 !
 ! R2    R(1,3)                  1.4243         -DE/DX =    0.0                 !
 ! R3    R(1,4)                  1.4243         -DE/DX =    0.0                 !
 ! A1    A(2,1,3)               93.3658         -DE/DX =    0.0                 !
 ! A2    A(2,1,4)               93.3658         -DE/DX =    0.0                 !
 ! A3    A(3,1,4)               93.3658         -DE/DX =    0.0                 !
 ! D1    D(2,1,4,3)             93.5761         -DE/DX =    0.0                 !
 --------------------------------------------------------------------------------
 Lowest energy point so far.  Saving SCF results.
 Largest change from initial coordinates is atom    3       0.013 Angstoms.
 GradGradGradGradGradGradGradGradGradGradGradGradGradGradGradGradGradGrad

 Leave Link  103 at Tue Oct  6 16:01:22 2020, MaxMem=  2684354560 cpu:               2.4 elap:               0.6
 (Enter /udrive/faculty/rpeverati/g16/g16/l202.exe)
                          Input orientation:                          
 ---------------------------------------------------------------------
 Center     Atomic      Atomic             Coordinates (Angstroms)
 Number     Number       Type             X           Y           Z
 ---------------------------------------------------------------------
      1         15           0       -0.000000   -0.000000    0.579426
      2          1           0        0.598314    1.036310   -0.193133
      3          1           0        0.598314   -1.036310   -0.193133
      4          1           0       -1.196628    0.000000   -0.193133
 ---------------------------------------------------------------------
                    Distance matrix (angstroms):
                    1          2          3          4
     1  P    0.000000
     2  H    1.424347   0.000000
     3  H    1.424347   2.072620   0.000000
     4  H    1.424347   2.072620   2.072620   0.000000
 Stoichiometry    H3P
 Framework group  C3V[C3(P),3SGV(H)]
 Deg. of freedom     2
 Full point group                 C3V     NOp   6
 RotChk:  IX=0 Diff= 1.57D-16
 Largest Abelian subgroup         CS      NOp   2
 Largest concise Abelian subgroup CS      NOp   2
                         Standard orientation:                         
 ---------------------------------------------------------------------
 Center     Atomic      Atomic             Coordinates (Angstroms)
 Number     Number       Type             X           Y           Z
 ---------------------------------------------------------------------
      1         15           0        0.000000    0.000000    0.128760
      2          1           0        0.000000    1.196628   -0.643799
      3          1           0        1.036310   -0.598314   -0.643799
      4          1           0       -1.036310   -0.598314   -0.643799
 ---------------------------------------------------------------------
 Rotational constants (GHZ):         132.6888238         132.6888238         116.7327253
 Leave Link  202 at Tue Oct  6 16:01:22 2020, MaxMem=  2684354560 cpu:               1.0 elap:               0.5
 (Enter /udrive/faculty/rpeverati/g16/g16/l601.exe)
 Copying SCF densities to generalized density rwf, IOpCl= 0 IROHF=0.

 **********************************************************************

            Population analysis using the SCF density.

 **********************************************************************

 Orbital symmetries:
       Occupied  (A1) (A1) (E) (E) (A1) (A1) (E) (E) (A1)
       Virtual   (E) (E) (A1) (E) (E) (A1) (A1) (E) (E) (E) (E)
                 (A1) (A1) (E) (E)
 The electronic state is 1-A1.
 Alpha  occ. eigenvalues --  -77.06087  -6.55074  -4.71171  -4.71171  -4.70740
 Alpha  occ. eigenvalues --   -0.64864  -0.38802  -0.38802  -0.27566
 Alpha virt. eigenvalues --    0.03198   0.03198   0.11604   0.28164   0.28164
 Alpha virt. eigenvalues --    0.30117   0.38518   0.66285   0.66285   0.67802
 Alpha virt. eigenvalues --    0.67802   0.68497   0.93407   1.14485   1.14485
          Condensed to atoms (all electrons):
               1          2          3          4
     1  P   14.105262   0.328762   0.328762   0.328762
     2  H    0.328762   0.688419  -0.023848  -0.023848
     3  H    0.328762  -0.023848   0.688419  -0.023848
     4  H    0.328762  -0.023848  -0.023848   0.688419
 Mulliken charges:
               1
     1  P   -0.091547
     2  H    0.030516
     3  H    0.030516
     4  H    0.030516
 Sum of Mulliken charges =  -0.00000
 Mulliken charges with hydrogens summed into heavy atoms:
               1
     1  P   -0.000000
 Electronic spatial extent (au):  <R**2>=             55.0429
 Charge=             -0.0000 electrons
 Dipole moment (field-independent basis, Debye):
    X=              0.0000    Y=              0.0000    Z=             -0.9594  Tot=              0.9594
 Quadrupole moment (field-independent basis, Debye-Ang):
   XX=            -14.6048   YY=            -14.6048   ZZ=            -17.0246
   XY=             -0.0000   XZ=             -0.0000   YZ=             -0.0000
 Traceless Quadrupole moment (field-independent basis, Debye-Ang):
   XX=              0.8066   YY=              0.8066   ZZ=             -1.6132
   XY=             -0.0000   XZ=             -0.0000   YZ=             -0.0000
 Octapole moment (field-independent basis, Debye-Ang**2):
  XXX=              0.0000  YYY=             -0.1042  ZZZ=             -2.0256  XYY=              0.0000
  XXY=              0.1042  XXZ=             -0.3093  XZZ=              0.0000  YZZ=              0.0000
  YYZ=             -0.3093  XYZ=              0.0000
 Hexadecapole moment (field-independent basis, Debye-Ang**3):
 XXXX=            -29.9883 YYYY=            -29.9883 ZZZZ=            -34.7132 XXXY=              0.0000
 XXXZ=             -0.0000 YYYX=              0.0000 YYYZ=             -0.3413 ZZZX=             -0.0000
 ZZZY=             -0.0000 XXYY=             -9.9961 XXZZ=            -10.4958 YYZZ=            -10.4958
 XXYZ=              0.3413 YYXZ=             -0.0000 ZZXY=              0.0000
 N-N= 1.748446977033D+01 E-N=-8.507949699878D+02  KE= 3.424081554266D+02
 No NMR shielding tensors so no spin-rotation constants.
 Leave Link  601 at Tue Oct  6 16:01:23 2020, MaxMem=  2684354560 cpu:               3.0 elap:               0.7
 (Enter /udrive/faculty/rpeverati/g16/g16/l9999.exe)

 Test job not archived.
 1\1\GINC-NODE63\FOpt\RB3LYP\6-31G(d)\H3P1\RPEVERATI\06-Oct-2020\0\\#P 
 Opt(MaxCyc=100) B3LYP/6-31G* 5D 7F Integral=UltraFineGrid SCF=(NoSymm,
 XQC,MaxCyc=120) IOp(1/33=1)\\TS search on BH76.\\0,1\P,0.,0.,0.5794258
 447\H,0.5983139003,1.0363100743,-0.1931331622\H,0.5983139003,-1.036310
 0743,-0.1931331622\H,-1.1966278007,0.,-0.1931331622\\Version=ES64L-G16
 RevA.03\State=1-A1\HF=-343.1378068\RMSD=7.228e-09\RMSF=2.973e-06\Dipol
 e=0.,0.,-0.3774747\Quadrupole=0.5996748,0.5996748,-1.1993496,0.,0.,0.\
 PG=C03V [C3(P1),3SGV(H1)]\\@


 EVERYTHING'S GOT A MORAL, IF ONLY YOU CAN FIND IT.

                                    -- LEWIS CARROL, ALICE IN WONDERLAND
 Job cpu time:       0 days  0 hours  2 minutes 16.5 seconds.
 Elapsed time:       0 days  0 hours  0 minutes 28.6 seconds.
 File lengths (MBytes):  RWF=      5 Int=      0 D2E=      0 Chk=      1 Scr=      1
 Normal termination of Gaussian 16 at Tue Oct  6 16:01:25 2020.
