 Entering Gaussian System, Link 0=g16
 Input=MN_75_OH_upper_BH76_B3LYP_6-31Gs.in
 Output=MN_75_OH_upper_BH76_B3LYP_6-31Gs.log
 Initial command:
 /udrive/faculty/rpeverati/g16/g16/l1.exe "/udrive/scratch-directories/gaussian09/rpeverati/Gau-9887.inp" -scrdir="/udrive/scratch-directories/gaussian09/rpeverati/"
 Entering Link 1 = /udrive/faculty/rpeverati/g16/g16/l1.exe PID=      9893.
  
 Copyright (c) 1988,1990,1992,1993,1995,1998,2003,2009,2016,
            Gaussian, Inc.  All Rights Reserved.
  
 This is part of the Gaussian(R) 16 program.  It is based on
 the Gaussian(R) 09 system (copyright 2009, Gaussian, Inc.),
 the Gaussian(R) 03 system (copyright 2003, Gaussian, Inc.),
 the Gaussian(R) 98 system (copyright 1998, Gaussian, Inc.),
 the Gaussian(R) 94 system (copyright 1995, Gaussian, Inc.),
 the Gaussian 92(TM) system (copyright 1992, Gaussian, Inc.),
 the Gaussian 90(TM) system (copyright 1990, Gaussian, Inc.),
 the Gaussian 88(TM) system (copyright 1988, Gaussian, Inc.),
 the Gaussian 86(TM) system (copyright 1986, Carnegie Mellon
 University), and the Gaussian 82(TM) system (copyright 1983,
 Carnegie Mellon University). Gaussian is a federally registered
 trademark of Gaussian, Inc.
  
 This software contains proprietary and confidential information,
 including trade secrets, belonging to Gaussian, Inc.
  
 This software is provided under written license and may be
 used, copied, transmitted, or stored only in accord with that
 written license.
  
 The following legend is applicable only to US Government
 contracts under FAR:
  
                    RESTRICTED RIGHTS LEGEND
  
 Use, reproduction and disclosure by the US Government is
 subject to restrictions as set forth in subparagraphs (a)
 and (c) of the Commercial Computer Software - Restricted
 Rights clause in FAR 52.227-19.
  
 Gaussian, Inc.
 340 Quinnipiac St., Bldg. 40, Wallingford CT 06492
  
  
 ---------------------------------------------------------------
 Warning -- This program may not be used in any manner that
 competes with the business of Gaussian, Inc. or will provide
 assistance to any competitor of Gaussian, Inc.  The licensee
 of this program is prohibited from giving any competitor of
 Gaussian, Inc. access to this program.  By using this program,
 the user acknowledges that Gaussian, Inc. is engaged in the
 business of creating and licensing software in the field of
 computational chemistry and represents and warrants to the
 licensee that it is not a competitor of Gaussian, Inc. and that
 it will not use this program in any manner prohibited above.
 ---------------------------------------------------------------
  

 Cite this work as:
 Gaussian 16, Revision A.03,
 M. J. Frisch, G. W. Trucks, H. B. Schlegel, G. E. Scuseria, 
 M. A. Robb, J. R. Cheeseman, G. Scalmani, V. Barone, 
 G. A. Petersson, H. Nakatsuji, X. Li, M. Caricato, A. V. Marenich, 
 J. Bloino, B. G. Janesko, R. Gomperts, B. Mennucci, H. P. Hratchian, 
 J. V. Ortiz, A. F. Izmaylov, J. L. Sonnenberg, D. Williams-Young, 
 F. Ding, F. Lipparini, F. Egidi, J. Goings, B. Peng, A. Petrone, 
 T. Henderson, D. Ranasinghe, V. G. Zakrzewski, J. Gao, N. Rega, 
 G. Zheng, W. Liang, M. Hada, M. Ehara, K. Toyota, R. Fukuda, 
 J. Hasegawa, M. Ishida, T. Nakajima, Y. Honda, O. Kitao, H. Nakai, 
 T. Vreven, K. Throssell, J. A. Montgomery, Jr., J. E. Peralta, 
 F. Ogliaro, M. J. Bearpark, J. J. Heyd, E. N. Brothers, K. N. Kudin, 
 V. N. Staroverov, T. A. Keith, R. Kobayashi, J. Normand, 
 K. Raghavachari, A. P. Rendell, J. C. Burant, S. S. Iyengar, 
 J. Tomasi, M. Cossi, J. M. Millam, M. Klene, C. Adamo, R. Cammi, 
 J. W. Ochterski, R. L. Martin, K. Morokuma, O. Farkas, 
 J. B. Foresman, and D. J. Fox, Gaussian, Inc., Wallingford CT, 2016.
 
 ******************************************
 Gaussian 16:  ES64L-G16RevA.03 25-Dec-2016
                 6-Oct-2020 
 ******************************************
 %NoSave
 %nproc=12
 Will use up to   12 processors via shared memory.
 %mem=20GB
 %chk=MN_75_OH_upper_BH76_B3LYP_6-31Gs
 ----------------------------------------------------------------------
 #P Opt(MaxCyc=100) B3LYP/6-31G* 5D 7F Integral=UltraFineGrid SCF=(NoSy
 mm,XQC,MaxCyc=120) IOp(1/33=1)
 ----------------------------------------------------------------------
 1/6=100,18=20,19=15,26=4,33=1,38=1/1,3;
 2/9=110,12=2,17=6,18=5,40=1/2;
 3/5=1,6=6,7=1,8=11,11=2,25=1,30=1,71=1,74=-5,75=-5/1,2,3;
 4/9=2/1;
 5/5=2,7=120,8=3,13=1,38=5/2,8;
 6/7=2,8=2,9=2,10=2,28=1/1;
 7//1,2,3,16;
 1/6=100,18=20,19=15,26=4,33=1/3(2);
 2/9=110/2;
 99//99;
 2/9=110/2;
 3/5=1,6=6,7=1,8=11,11=2,25=1,30=1,71=1,74=-5,75=-5/1,2,3;
 4/5=5,9=2,16=3,69=1/1;
 5/5=2,7=120,8=3,13=1,38=5/2,8;
 7//1,2,3,16;
 1/6=100,18=20,19=15,26=4,33=1/3(-5);
 2/9=110/2;
 6/7=2,8=2,9=2,10=2,19=2,28=1/1;
 99/9=1/99;
 Leave Link    1 at Tue Oct  6 16:00:34 2020, MaxMem=  2684354560 cpu:               8.3 elap:               0.9
 (Enter /udrive/faculty/rpeverati/g16/g16/l101.exe)
 ONIOM data not found on unit 2.
 ------------------
 TS search on BH76.
 ------------------
 TstMul:  ICh=     0
 TstMul:  Mul=     2
 TstMul:  ICh=     0
 TstMul:  Mul=     2
 Symbolic Z-matrix:
 Charge =  0 Multiplicity = 2
 O                     0.        0.        0.10766 
 H                     0.        0.       -0.86124 
 
 RdStrC is calling ZToCFu for IStruc=1 NZ=     2.
 PrtBox:  NBox=     1 Levels=  1 BoxLen=    8.00 SMaxX=        1.83
          Shift=            0.000000            0.000000            1.627510
 Box      1 Number                   0 centers from      1 to      2:
 After GenITR:
 ITRead=  0  0
 MicOpt= -1 -1
 ITRead=  0  0
 MicOpt= -1 -1
 NAtoms=      2 NQM=        2 NQMF=       0 NMMI=      0 NMMIF=      0
                NMic=       0 NMicF=      0.
                    Isotopes and Nuclear Properties:
 (Nuclear quadrupole moments (NQMom) in fm**2, nuclear magnetic moments (NMagM)
  in nuclear magnetons)

  Atom         1           2
 IAtWgt=          16           1
 AtmWgt=  15.9949146   1.0078250
 NucSpn=           0           1
 AtZEff=   0.0000000   0.0000000
 NQMom=    0.0000000   0.0000000
 NMagM=    0.0000000   2.7928460
 AtZNuc=   8.0000000   1.0000000
 No MM parameters found.
 Leave Link  101 at Tue Oct  6 16:00:35 2020, MaxMem=  2684354560 cpu:              13.6 elap:               1.3
 (Enter /udrive/faculty/rpeverati/g16/g16/l103.exe)

 GradGradGradGradGradGradGradGradGradGradGradGradGradGradGradGradGradGrad
 Berny optimization.
 Optmz: redundant internal coordinate code flag= 1
 Initialization pass.
                           ----------------------------
                           !    Initial Parameters    !
                           ! (Angstroms and Degrees)  !
 --------------------------                            --------------------------
 ! Name  Definition              Value          Derivative Info.                !
 --------------------------------------------------------------------------------
 ! R1    R(1,2)                  0.9689         estimate D2E/DX2                !
 --------------------------------------------------------------------------------
 Maximum allowed force set to 1.00D+20.
 Trust Radius=3.00D-01 FncErr=1.00D-07 GrdErr=1.00D-06 EigMax=2.50D+02 EigMin=1.00D-04
 Number of steps in this run=    100 maximum allowed number of steps=    100.
 GradGradGradGradGradGradGradGradGradGradGradGradGradGradGradGradGradGrad

 Leave Link  103 at Tue Oct  6 16:00:36 2020, MaxMem=  2684354560 cpu:               0.9 elap:               0.4
 (Enter /udrive/faculty/rpeverati/g16/g16/l202.exe)
                          Input orientation:                          
 ---------------------------------------------------------------------
 Center     Atomic      Atomic             Coordinates (Angstroms)
 Number     Number       Type             X           Y           Z
 ---------------------------------------------------------------------
      1          8           0        0.000000    0.000000    0.107655
      2          1           0        0.000000    0.000000   -0.861241
 ---------------------------------------------------------------------
 Stoichiometry    HO(2)
 Framework group  C*V[C*(HO)]
 Deg. of freedom     1
 Full point group                 C*V     NOp   4
 Largest Abelian subgroup         C2V     NOp   4
 Largest concise Abelian subgroup C1      NOp   1
                         Standard orientation:                         
 ---------------------------------------------------------------------
 Center     Atomic      Atomic             Coordinates (Angstroms)
 Number     Number       Type             X           Y           Z
 ---------------------------------------------------------------------
      1          8           0        0.000000    0.000000    0.107655
      2          1           0        0.000000    0.000000   -0.861241
 ---------------------------------------------------------------------
 Rotational constants (GHZ):           0.0000000         567.8246929         567.8246929
 Leave Link  202 at Tue Oct  6 16:00:37 2020, MaxMem=  2684354560 cpu:               1.2 elap:               0.4
 (Enter /udrive/faculty/rpeverati/g16/g16/l301.exe)
 Standard basis: 6-31G(d) (5D, 7F)
 Ernie: Thresh=  0.10000D-02 Tol=  0.10000D-05 Strict=F.
 There are    10 symmetry adapted cartesian basis functions of A1  symmetry.
 There are     1 symmetry adapted cartesian basis functions of A2  symmetry.
 There are     3 symmetry adapted cartesian basis functions of B1  symmetry.
 There are     3 symmetry adapted cartesian basis functions of B2  symmetry.
 There are     9 symmetry adapted basis functions of A1  symmetry.
 There are     1 symmetry adapted basis functions of A2  symmetry.
 There are     3 symmetry adapted basis functions of B1  symmetry.
 There are     3 symmetry adapted basis functions of B2  symmetry.
    16 basis functions,    32 primitive gaussians,    17 cartesian basis functions
     5 alpha electrons        4 beta electrons
       nuclear repulsion energy         4.3693188626 Hartrees.
 IExCor=  402 DFT=T Ex+Corr=B3LYP ExCW=0 ScaHFX=  0.200000
 ScaDFX=  0.800000  0.720000  1.000000  0.810000 ScalE2=  1.000000  1.000000
 IRadAn=      5 IRanWt=     -1 IRanGd=            0 ICorTp=0 IEmpDi=  4
 NAtoms=    2 NActive=    2 NUniq=    2 SFac= 1.00D+00 NAtFMM=   60 NAOKFM=F Big=F
 Integral buffers will be    131072 words long.
 Raffenetti 2 integral format.
 Two-electron integral symmetry is turned on.
 Leave Link  301 at Tue Oct  6 16:00:38 2020, MaxMem=  2684354560 cpu:               2.0 elap:               0.6
 (Enter /udrive/faculty/rpeverati/g16/g16/l302.exe)
 NPDir=0 NMtPBC=     1 NCelOv=     1 NCel=       1 NClECP=     1 NCelD=      1
         NCelK=      1 NCelE2=     1 NClLst=     1 CellRange=     0.0.
 One-electron integrals computed using PRISM.
 One-electron integral symmetry used in STVInt
 NBasis=    16 RedAO= T EigKep=  7.82D-02  NBF=     9     1     3     3
 NBsUse=    16 1.00D-06 EigRej= -1.00D+00 NBFU=     9     1     3     3
 Precomputing XC quadrature grid using
 IXCGrd= 4 IRadAn=           5 IRanWt=          -1 IRanGd=           0 AccXCQ= 0.00D+00.
 Generated NRdTot=       0 NPtTot=           0 NUsed=           0 NTot=          32
 NSgBfM=    17    17    17    17    17 MxSgAt=     2 MxSgA2=     2.
 Leave Link  302 at Tue Oct  6 16:00:39 2020, MaxMem=  2684354560 cpu:               3.9 elap:               0.8
 (Enter /udrive/faculty/rpeverati/g16/g16/l303.exe)
 DipDrv:  MaxL=1.
 Leave Link  303 at Tue Oct  6 16:00:40 2020, MaxMem=  2684354560 cpu:               1.4 elap:               0.6
 (Enter /udrive/faculty/rpeverati/g16/g16/l401.exe)
 SCF N**3 symmetry information disabled.
 ExpMin= 1.61D-01 ExpMax= 5.48D+03 ExpMxC= 8.25D+02 IAcc=3 IRadAn=         5 AccDes= 0.00D+00
 Harris functional with IExCor=  402 and IRadAn=       5 diagonalized for initial guess.
 HarFok:  IExCor=  402 AccDes= 0.00D+00 IRadAn=         5 IDoV= 1 UseB2=F ITyADJ=14
 ICtDFT=  3500011 ScaDFX=  1.000000  1.000000  1.000000  1.000000
 FoFCou: FMM=F IPFlag=           0 FMFlag=      100000 FMFlg1=           0
         NFxFlg=           0 DoJE=T BraDBF=F KetDBF=T FulRan=T
         wScrn=  0.000000 ICntrl=       500 IOpCl=  0 I1Cent=   200000004 NGrid=           0
         NMat0=    1 NMatS0=      1 NMatT0=    0 NMatD0=    1 NMtDS0=    0 NMtDT0=    0
 Petite list used in FoFCou.
 Harris En= -75.6913698636009    
 JPrj=0 DoOrth=F DoCkMO=F.
 Initial guess orbital symmetries:
 Alpha Orbitals:
       Occupied  (SG) (SG) (SG) (PI) (PI)
       Virtual   (SG) (SG) (PI) (PI) (SG) (SG) (PI) (PI) (DLTA)
                 (DLTA) (SG)
 Beta  Orbitals:
       Occupied  (SG) (SG) (SG) (PI)
       Virtual   (PI) (SG) (SG) (PI) (PI) (SG) (SG) (PI) (PI) (DLTA)
                 (DLTA) (SG)
 Initial guess <Sx>= 0.0000 <Sy>= 0.0000 <Sz>= 0.5000 <S**2>= 0.7500 S= 0.5000
 Leave Link  401 at Tue Oct  6 16:00:41 2020, MaxMem=  2684354560 cpu:               3.9 elap:               0.8
 (Enter /udrive/faculty/rpeverati/g16/g16/l502.exe)
 Keep R1 and R2 ints in memory in symmetry-blocked form, NReq=10348527.
 FoFCou: FMM=F IPFlag=           0 FMFlag=           0 FMFlg1=           0
         NFxFlg=           0 DoJE=F BraDBF=F KetDBF=F FulRan=T
         wScrn=  0.000000 ICntrl=       600 IOpCl=  0 I1Cent=           0 NGrid=           0
         NMat0=    1 NMatS0=    136 NMatT0=    0 NMatD0=    1 NMtDS0=    0 NMtDT0=    0
 Petite list used in FoFCou.
 UHF open shell SCF:
 Using DIIS extrapolation, IDIIS=  1040.
 NGot=  2684354560 LenX=  2684346491 LenY=  2684345609
 Requested convergence on RMS density matrix=1.00D-08 within 120 cycles.
 Requested convergence on MAX density matrix=1.00D-06.
 Requested convergence on             energy=1.00D-06.
 No special actions if energy rises.
 Integral accuracy reduced to 1.0D-05 until final iterations.

 Cycle   1  Pass 0  IDiag  1:
 E= -75.7056342696448    
 DIIS: error= 3.52D-02 at cycle   1 NSaved=   1.
 NSaved= 1 IEnMin= 1 EnMin= -75.7056342696448     IErMin= 1 ErrMin= 3.52D-02
 ErrMax= 3.52D-02  0.00D+00 EMaxC= 1.00D-01 BMatC= 7.11D-02 BMatP= 7.11D-02
 IDIUse=3 WtCom= 6.48D-01 WtEn= 3.52D-01
 Coeff-Com:  0.100D+01
 Coeff-En:   0.100D+01
 Coeff:      0.100D+01
 Gap=     0.418 Goal=   None    Shift=    0.000
 Gap=     0.152 Goal=   None    Shift=    0.000
 GapD=    0.152 DampG=1.000 DampE=0.500 DampFc=0.5000 IDamp=-1.
 Damping current iteration by 5.00D-01
 RMSDP=1.28D-02 MaxDP=9.18D-02              OVMax= 1.06D-01

 Cycle   2  Pass 0  IDiag  1:
 E= -75.7129147374921     Delta-E=       -0.007280467847 Rises=F Damp=T
 DIIS: error= 9.62D-03 at cycle   2 NSaved=   2.
 NSaved= 2 IEnMin= 2 EnMin= -75.7129147374921     IErMin= 2 ErrMin= 9.62D-03
 ErrMax= 9.62D-03  0.00D+00 EMaxC= 1.00D-01 BMatC= 4.02D-03 BMatP= 7.11D-02
 IDIUse=3 WtCom= 9.04D-01 WtEn= 9.62D-02
 Coeff-Com:  0.385D-01 0.962D+00
 Coeff-En:   0.174D-01 0.983D+00
 Coeff:      0.365D-01 0.964D+00
 Gap=     0.401 Goal=   None    Shift=    0.000
 Gap=     0.147 Goal=   None    Shift=    0.000
 RMSDP=1.67D-03 MaxDP=1.84D-02 DE=-7.28D-03 OVMax= 4.78D-02

 Cycle   3  Pass 0  IDiag  1:
 E= -75.7213024881061     Delta-E=       -0.008387750614 Rises=F Damp=F
 DIIS: error= 2.51D-03 at cycle   3 NSaved=   3.
 NSaved= 3 IEnMin= 3 EnMin= -75.7213024881061     IErMin= 3 ErrMin= 2.51D-03
 ErrMax= 2.51D-03  0.00D+00 EMaxC= 1.00D-01 BMatC= 2.01D-04 BMatP= 4.02D-03
 IDIUse=3 WtCom= 9.75D-01 WtEn= 2.51D-02
 Coeff-Com: -0.312D-01 0.490D-01 0.982D+00
 Coeff-En:   0.000D+00 0.000D+00 0.100D+01
 Coeff:     -0.304D-01 0.477D-01 0.983D+00
 Gap=     0.403 Goal=   None    Shift=    0.000
 Gap=     0.148 Goal=   None    Shift=    0.000
 RMSDP=3.99D-04 MaxDP=3.45D-03 DE=-8.39D-03 OVMax= 3.28D-03

 Cycle   4  Pass 0  IDiag  1:
 E= -75.7213579154007     Delta-E=       -0.000055427295 Rises=F Damp=F
 DIIS: error= 5.61D-04 at cycle   4 NSaved=   4.
 NSaved= 4 IEnMin= 4 EnMin= -75.7213579154007     IErMin= 4 ErrMin= 5.61D-04
 ErrMax= 5.61D-04  0.00D+00 EMaxC= 1.00D-01 BMatC= 1.33D-05 BMatP= 2.01D-04
 IDIUse=3 WtCom= 9.94D-01 WtEn= 5.61D-03
 Coeff-Com: -0.490D-02-0.245D-01 0.123D+00 0.907D+00
 Coeff-En:   0.000D+00 0.000D+00 0.000D+00 0.100D+01
 Coeff:     -0.487D-02-0.244D-01 0.122D+00 0.907D+00
 Gap=     0.403 Goal=   None    Shift=    0.000
 Gap=     0.148 Goal=   None    Shift=    0.000
 RMSDP=1.18D-04 MaxDP=8.37D-04 DE=-5.54D-05 OVMax= 1.17D-03

 Cycle   5  Pass 0  IDiag  1:
 E= -75.7213625420280     Delta-E=       -0.000004626627 Rises=F Damp=F
 DIIS: error= 1.73D-04 at cycle   5 NSaved=   5.
 NSaved= 5 IEnMin= 5 EnMin= -75.7213625420280     IErMin= 5 ErrMin= 1.73D-04
 ErrMax= 1.73D-04  0.00D+00 EMaxC= 1.00D-01 BMatC= 8.17D-07 BMatP= 1.33D-05
 IDIUse=3 WtCom= 9.98D-01 WtEn= 1.73D-03
 Coeff-Com:  0.226D-02 0.297D-02-0.839D-01-0.155D+00 0.123D+01
 Coeff-En:   0.000D+00 0.000D+00 0.000D+00 0.000D+00 0.100D+01
 Coeff:      0.225D-02 0.296D-02-0.837D-01-0.154D+00 0.123D+01
 Gap=     0.403 Goal=   None    Shift=    0.000
 Gap=     0.148 Goal=   None    Shift=    0.000
 RMSDP=5.51D-05 MaxDP=4.45D-04 DE=-4.63D-06 OVMax= 5.13D-04

 Cycle   6  Pass 0  IDiag  1:
 E= -75.7213630685110     Delta-E=       -0.000000526483 Rises=F Damp=F
 DIIS: error= 2.32D-05 at cycle   6 NSaved=   6.
 NSaved= 6 IEnMin= 6 EnMin= -75.7213630685110     IErMin= 6 ErrMin= 2.32D-05
 ErrMax= 2.32D-05  0.00D+00 EMaxC= 1.00D-01 BMatC= 1.99D-08 BMatP= 8.17D-07
 IDIUse=1 WtCom= 1.00D+00 WtEn= 0.00D+00
 Coeff-Com: -0.186D-03-0.383D-05 0.133D-01 0.135D-02-0.267D+00 0.125D+01
 Coeff:     -0.186D-03-0.383D-05 0.133D-01 0.135D-02-0.267D+00 0.125D+01
 Gap=     0.403 Goal=   None    Shift=    0.000
 Gap=     0.148 Goal=   None    Shift=    0.000
 RMSDP=1.19D-05 MaxDP=9.19D-05 DE=-5.26D-07 OVMax= 1.25D-04

 Cycle   7  Pass 0  IDiag  1:
 E= -75.7213630850659     Delta-E=       -0.000000016555 Rises=F Damp=F
 DIIS: error= 2.11D-06 at cycle   7 NSaved=   7.
 NSaved= 7 IEnMin= 7 EnMin= -75.7213630850659     IErMin= 7 ErrMin= 2.11D-06
 ErrMax= 2.11D-06  0.00D+00 EMaxC= 1.00D-01 BMatC= 2.40D-10 BMatP= 1.99D-08
 IDIUse=1 WtCom= 1.00D+00 WtEn= 0.00D+00
 Coeff-Com: -0.172D-05-0.273D-04-0.108D-02 0.138D-02 0.300D-01-0.243D+00
 Coeff-Com:  0.121D+01
 Coeff:     -0.172D-05-0.273D-04-0.108D-02 0.138D-02 0.300D-01-0.243D+00
 Coeff:      0.121D+01
 Gap=     0.403 Goal=   None    Shift=    0.000
 Gap=     0.148 Goal=   None    Shift=    0.000
 RMSDP=1.31D-06 MaxDP=7.44D-06 DE=-1.66D-08 OVMax= 1.31D-05

 Initial convergence to 1.0D-05 achieved.  Increase integral accuracy.
 Cycle   8  Pass 1  IDiag  1:
 E= -75.7213621971050     Delta-E=        0.000000887961 Rises=F Damp=F
 DIIS: error= 9.81D-07 at cycle   1 NSaved=   1.
 NSaved= 1 IEnMin= 1 EnMin= -75.7213621971050     IErMin= 1 ErrMin= 9.81D-07
 ErrMax= 9.81D-07  0.00D+00 EMaxC= 1.00D-01 BMatC= 2.19D-11 BMatP= 2.19D-11
 IDIUse=1 WtCom= 1.00D+00 WtEn= 0.00D+00
 Coeff-Com:  0.100D+01
 Coeff:      0.100D+01
 Gap=     0.403 Goal=   None    Shift=    0.000
 Gap=     0.148 Goal=   None    Shift=    0.000
 RMSDP=1.31D-06 MaxDP=7.44D-06 DE= 8.88D-07 OVMax= 1.67D-06

 Cycle   9  Pass 1  IDiag  1:
 E= -75.7213621971110     Delta-E=       -0.000000000006 Rises=F Damp=F
 DIIS: error= 1.34D-07 at cycle   2 NSaved=   2.
 NSaved= 2 IEnMin= 2 EnMin= -75.7213621971110     IErMin= 2 ErrMin= 1.34D-07
 ErrMax= 1.34D-07  0.00D+00 EMaxC= 1.00D-01 BMatC= 8.90D-13 BMatP= 2.19D-11
 IDIUse=1 WtCom= 1.00D+00 WtEn= 0.00D+00
 Coeff-Com:  0.121D-01 0.988D+00
 Coeff:      0.121D-01 0.988D+00
 Gap=     0.403 Goal=   None    Shift=    0.000
 Gap=     0.148 Goal=   None    Shift=    0.000
 RMSDP=3.79D-08 MaxDP=2.76D-07 DE=-5.91D-12 OVMax= 2.80D-07

 Cycle  10  Pass 1  IDiag  1:
 E= -75.7213621971111     Delta-E=       -0.000000000000 Rises=F Damp=F
 DIIS: error= 1.32D-07 at cycle   3 NSaved=   3.
 NSaved= 3 IEnMin= 3 EnMin= -75.7213621971111     IErMin= 3 ErrMin= 1.32D-07
 ErrMax= 1.32D-07  0.00D+00 EMaxC= 1.00D-01 BMatC= 6.94D-13 BMatP= 8.90D-13
 IDIUse=1 WtCom= 1.00D+00 WtEn= 0.00D+00
 Coeff-Com: -0.302D-01 0.479D+00 0.551D+00
 Coeff:     -0.302D-01 0.479D+00 0.551D+00
 Gap=     0.403 Goal=   None    Shift=    0.000
 Gap=     0.148 Goal=   None    Shift=    0.000
 RMSDP=1.97D-08 MaxDP=1.53D-07 DE=-1.14D-13 OVMax= 1.29D-07

 Cycle  11  Pass 1  IDiag  1:
 E= -75.7213621971111     Delta-E=       -0.000000000000 Rises=F Damp=F
 DIIS: error= 1.44D-08 at cycle   4 NSaved=   4.
 NSaved= 4 IEnMin= 4 EnMin= -75.7213621971111     IErMin= 4 ErrMin= 1.44D-08
 ErrMax= 1.44D-08  0.00D+00 EMaxC= 1.00D-01 BMatC= 9.12D-15 BMatP= 6.94D-13
 IDIUse=1 WtCom= 1.00D+00 WtEn= 0.00D+00
 Coeff-Com: -0.632D-02 0.445D-01 0.126D+00 0.836D+00
 Coeff:     -0.632D-02 0.445D-01 0.126D+00 0.836D+00
 Gap=     0.403 Goal=   None    Shift=    0.000
 Gap=     0.148 Goal=   None    Shift=    0.000
 RMSDP=2.66D-09 MaxDP=1.81D-08 DE=-4.26D-14 OVMax= 2.17D-08

 SCF Done:  E(UB3LYP) =  -75.7213621971     A.U. after   11 cycles
            NFock= 11  Conv=0.27D-08     -V/T= 2.0050
 <Sx>= 0.0000 <Sy>= 0.0000 <Sz>= 0.5000 <S**2>= 0.7519 S= 0.5009
 <L.S>= 0.000000000000E+00
 KE= 7.534309484964D+01 PE=-1.880731301136D+02 EE= 3.263935420430D+01
 Annihilation of the first spin contaminant:
 S**2 before annihilation     0.7519,   after     0.7500
 Leave Link  502 at Tue Oct  6 16:00:43 2020, MaxMem=  2684354560 cpu:               8.9 elap:               1.2
 (Enter /udrive/faculty/rpeverati/g16/g16/l508.exe)
 QCSCF skips out because SCF is already converged.
 Leave Link  508 at Tue Oct  6 16:00:43 2020, MaxMem=  2684354560 cpu:               0.4 elap:               0.4
 (Enter /udrive/faculty/rpeverati/g16/g16/l601.exe)
 Copying SCF densities to generalized density rwf, IOpCl= 1 IROHF=0.

 **********************************************************************

            Population analysis using the SCF density.

 **********************************************************************

 Orbital symmetries:
 Alpha Orbitals:
       Occupied  (SG) (SG) (SG) (PI) (PI)
       Virtual   (SG) (SG) (PI) (PI) (SG) (SG) (PI) (PI) (?A) (?A)
                 (?A)
 Beta  Orbitals:
       Occupied  (SG) (SG) (SG) (PI)
       Virtual   (PI) (SG) (SG) (PI) (PI) (SG) (SG) (PI) (PI) (DLTA)
                 (DLTA) (SG)
 Unable to determine electronic state:  partially filled degenerate orbitals.
 Alpha  occ. eigenvalues --  -19.20501  -1.01004  -0.46763  -0.40339  -0.32836
 Alpha virt. eigenvalues --    0.07471   0.78482   0.81694   0.86547   0.91699
 Alpha virt. eigenvalues --    1.23281   1.68975   1.73832   1.75225   1.75265
 Alpha virt. eigenvalues --    2.41707
  Beta  occ. eigenvalues --  -19.18021  -0.93996  -0.44141  -0.30143
  Beta virt. eigenvalues --   -0.15311   0.08348   0.79335   0.88151   0.91681
  Beta virt. eigenvalues --    0.93554   1.26932   1.74791   1.75484   1.81553
  Beta virt. eigenvalues --    1.82330   2.44132
          Condensed to atoms (all electrons):
               1          2
     1  O    8.209069   0.205855
     2  H    0.205855   0.379221
          Atomic-Atomic Spin Densities.
               1          2
     1  O    1.036164  -0.004556
     2  H   -0.004556  -0.027052
 Mulliken charges and spin densities:
               1          2
     1  O   -0.414924   1.031608
     2  H    0.414924  -0.031608
 Sum of Mulliken charges =   0.00000   1.00000
 Mulliken charges and spin densities with hydrogens summed into heavy atoms:
               1          2
     1  O    0.000000   1.000000
 Electronic spatial extent (au):  <R**2>=             14.9704
 Charge=              0.0000 electrons
 Dipole moment (field-independent basis, Debye):
    X=              0.0000    Y=             -0.0000    Z=             -1.7576  Tot=              1.7576
 Quadrupole moment (field-independent basis, Debye-Ang):
   XX=             -5.2729   YY=             -6.4113   ZZ=             -4.4435
   XY=             -0.0000   XZ=              0.0000   YZ=              0.0000
 Traceless Quadrupole moment (field-independent basis, Debye-Ang):
   XX=              0.1030   YY=             -1.0354   ZZ=              0.9324
   XY=             -0.0000   XZ=              0.0000   YZ=              0.0000
 Octapole moment (field-independent basis, Debye-Ang**2):
  XXX=              0.0000  YYY=             -0.0000  ZZZ=             -1.8050  XYY=              0.0000
  XXY=             -0.0000  XXZ=             -0.1680  XZZ=              0.0000  YZZ=             -0.0000
  YYZ=             -0.2723  XYZ=             -0.0000
 Hexadecapole moment (field-independent basis, Debye-Ang**3):
 XXXX=             -3.3229 YYYY=             -4.5962 ZZZZ=             -4.9789 XXXY=             -0.0000
 XXXZ=              0.0000 YYYX=             -0.0000 YYYZ=              0.0000 ZZZX=              0.0000
 ZZZY=              0.0000 XXYY=             -1.3198 XXZZ=             -1.5917 YYZZ=             -1.8134
 XXYZ=              0.0000 YYXZ=              0.0000 ZZXY=             -0.0000
 N-N= 4.369318862579D+00 E-N=-1.880731303319D+02  KE= 7.534309484964D+01
                          Isotropic Fermi Contact Couplings
        Atom                 a.u.       MegaHertz       Gauss      10(-4) cm-1
     1  O(17)              0.15290     -92.68451     -33.07214     -30.91622
     2  H(1)              -0.01502     -67.13080     -23.95394     -22.39242
 --------------------------------------------------------
       Center         ----  Spin Dipole Couplings  ----
                      3XX-RR        3YY-RR        3ZZ-RR
 --------------------------------------------------------
     1   Atom        3.591147     -1.820102     -1.771044
     2   Atom       -0.044060     -0.130642      0.174702
 --------------------------------------------------------
                        XY            XZ            YZ
 --------------------------------------------------------
     1   Atom        0.000000      0.000000      0.000000
     2   Atom        0.000000      0.000000      0.000000
 --------------------------------------------------------


 ---------------------------------------------------------------------------------
              Anisotropic Spin Dipole Couplings in Principal Axis System
 ---------------------------------------------------------------------------------

       Atom             a.u.   MegaHertz   Gauss  10(-4) cm-1        Axes

              Baa    -1.8201   131.701    46.994    43.931  0.0000  1.0000  0.0000
     1 O(17)  Bbb    -1.7710   128.152    45.728    42.747  0.0000  0.0000  1.0000
              Bcc     3.5911  -259.853   -92.722   -86.678  1.0000  0.0000  0.0000
 
              Baa    -0.1306   -69.704   -24.872   -23.251  0.0000  1.0000  0.0000
     2 H(1)   Bbb    -0.0441   -23.508    -8.388    -7.842  1.0000  0.0000  0.0000
              Bcc     0.1747    93.213    33.261    31.092  0.0000  0.0000  1.0000
 

 ---------------------------------------------------------------------------------

 No NMR shielding tensors so no spin-rotation constants.
 Leave Link  601 at Tue Oct  6 16:00:44 2020, MaxMem=  2684354560 cpu:               4.8 elap:               0.8
 (Enter /udrive/faculty/rpeverati/g16/g16/l701.exe)
 ... and contract with generalized density number  0.
 Compute integral first derivatives.
 Leave Link  701 at Tue Oct  6 16:00:45 2020, MaxMem=  2684354560 cpu:               3.2 elap:               0.7
 (Enter /udrive/faculty/rpeverati/g16/g16/l702.exe)
 L702 exits ... SP integral derivatives will be done elsewhere.
 Leave Link  702 at Tue Oct  6 16:00:46 2020, MaxMem=  2684354560 cpu:               1.3 elap:               0.4
 (Enter /udrive/faculty/rpeverati/g16/g16/l703.exe)
 Integral derivatives from FoFJK, PRISM(SPDF).
 Compute integral first derivatives, UseDBF=F ICtDFT=           0.
 Calling FoFJK, ICntrl=      2127 FMM=F ISym2X=1 I1Cent= 0 IOpClX= 1 NMat=1 NMatS=1 NMatT=0.
 FoFJK:  IHMeth= 1 ICntrl=    2127 DoSepK=F KAlg= 0 I1Cent=           0 FoldK=F
 IRaf=         0 NMat=       1 IRICut=       1 DoRegI=T DoRafI=F ISym2E= 1 IDoP0=0 IntGTp=1.
 FoFCou: FMM=F IPFlag=           0 FMFlag=      100000 FMFlg1=         800
         NFxFlg=           0 DoJE=F BraDBF=F KetDBF=F FulRan=T
         wScrn=  0.000000 ICntrl=      2127 IOpCl=  1 I1Cent=           0 NGrid=           0
         NMat0=    1 NMatS0=      1 NMatT0=    0 NMatD0=    1 NMtDS0=    0 NMtDT0=    0
 Petite list used in FoFCou.
 Leave Link  703 at Tue Oct  6 16:00:47 2020, MaxMem=  2684354560 cpu:               4.1 elap:               0.7
 (Enter /udrive/faculty/rpeverati/g16/g16/l716.exe)
 Dipole        = 0.00000000D+00-5.02642490D-32-6.91485587D-01
 ***** Axes restored to original set *****
 -------------------------------------------------------------------
 Center     Atomic                   Forces (Hartrees/Bohr)
 Number     Number              X              Y              Z
 -------------------------------------------------------------------
      1        8          -0.000000000   -0.000000000    0.013497887
      2        1           0.000000000    0.000000000   -0.013497887
 -------------------------------------------------------------------
 Cartesian Forces:  Max     0.013497887 RMS     0.007793009
 Leave Link  716 at Tue Oct  6 16:00:48 2020, MaxMem=  2684354560 cpu:               1.6 elap:               0.5
 (Enter /udrive/faculty/rpeverati/g16/g16/l103.exe)

 GradGradGradGradGradGradGradGradGradGradGradGradGradGradGradGradGradGrad
 Berny optimization.
 Optmz: redundant internal coordinate code flag= 1
 FormGI is forming the generalized inverse of G from B-inverse, IUseBI=4.
 Internal  Forces:  Max     0.013497887 RMS     0.013497887
 Search for a local minimum.
 Step number   1 out of a maximum of  100
 All quantities printed in internal units (Hartrees-Bohrs-Radians)
 RMS Force = .13498D-01 SwitMx=.10000D-02 MixMth= 1
 Mixed Optimization -- RFO/linear search
 Second derivative matrix not updated -- first step.
 The second derivative matrix:
                          R1
           R1           0.53603
 ITU=  0
 Eigenvectors of the second derivative matrix:
                           1
     Eigenvalues --     0.53603
   1         R1         1.00000
 RFO step:  Lambda=-3.39677633D-04 EMin= 5.36030497D-01
 Linear search not attempted -- first point.
 Iteration  1 RMS(Cart)=  0.01779452 RMS(Int)=  0.00000000
 Iteration  2 RMS(Cart)=  0.00000000 RMS(Int)=  0.00000000
 ITry= 1 IFail=0 DXMaxC= 1.26D-02 DCOld= 1.00D+10 DXMaxT= 3.00D-01 DXLimC= 3.00D+00 Rises=F
 ClnCor:  largest displacement from symmetrization is 0.00D+00 for atom     0.
 Variable       Old X    -DE/DX   Delta X   Delta X   Delta X     New X
                                 (Linear)    (Quad)   (Total)
    R1        1.83095   0.01350   0.00000   0.02517   0.02517   1.85611
         Item               Value     Threshold  Converged?
 Maximum Force            0.013498     0.000450     NO 
 RMS     Force            0.013498     0.000300     NO 
 Maximum Displacement     0.012583     0.001800     NO 
 RMS     Displacement     0.017795     0.001200     NO 
 Predicted change in Energy=-1.699464D-04
 Lowest energy point so far.  Saving SCF results.
 Largest change from initial coordinates is atom    1       0.007 Angstoms.
 GradGradGradGradGradGradGradGradGradGradGradGradGradGradGradGradGradGrad

 Leave Link  103 at Tue Oct  6 16:00:49 2020, MaxMem=  2684354560 cpu:               2.8 elap:               0.7
 (Enter /udrive/faculty/rpeverati/g16/g16/l202.exe)
                          Input orientation:                          
 ---------------------------------------------------------------------
 Center     Atomic      Atomic             Coordinates (Angstroms)
 Number     Number       Type             X           Y           Z
 ---------------------------------------------------------------------
      1          8           0        0.000000    0.000000    0.114314
      2          1           0        0.000000    0.000000   -0.867900
 ---------------------------------------------------------------------
 Stoichiometry    HO(2)
 Framework group  C*V[C*(HO)]
 Deg. of freedom     1
 Full point group                 C*V     NOp   4
 RotChk:  IX=0 Diff= 0.00D+00
 Largest Abelian subgroup         C2V     NOp   4
 Largest concise Abelian subgroup C1      NOp   1
                         Standard orientation:                         
 ---------------------------------------------------------------------
 Center     Atomic      Atomic             Coordinates (Angstroms)
 Number     Number       Type             X           Y           Z
 ---------------------------------------------------------------------
      1          8           0        0.000000    0.000000    0.109135
      2          1           0        0.000000    0.000000   -0.873079
 ---------------------------------------------------------------------
 Rotational constants (GHZ):           0.0000000         552.5319066         552.5319066
 Leave Link  202 at Tue Oct  6 16:00:50 2020, MaxMem=  2684354560 cpu:               1.1 elap:               0.4
 (Enter /udrive/faculty/rpeverati/g16/g16/l301.exe)
 Standard basis: 6-31G(d) (5D, 7F)
 Ernie: Thresh=  0.10000D-02 Tol=  0.10000D-05 Strict=F.
 There are    10 symmetry adapted cartesian basis functions of A1  symmetry.
 There are     1 symmetry adapted cartesian basis functions of A2  symmetry.
 There are     3 symmetry adapted cartesian basis functions of B1  symmetry.
 There are     3 symmetry adapted cartesian basis functions of B2  symmetry.
 There are     9 symmetry adapted basis functions of A1  symmetry.
 There are     1 symmetry adapted basis functions of A2  symmetry.
 There are     3 symmetry adapted basis functions of B1  symmetry.
 There are     3 symmetry adapted basis functions of B2  symmetry.
    16 basis functions,    32 primitive gaussians,    17 cartesian basis functions
     5 alpha electrons        4 beta electrons
       nuclear repulsion energy         4.3100795240 Hartrees.
 IExCor=  402 DFT=T Ex+Corr=B3LYP ExCW=0 ScaHFX=  0.200000
 ScaDFX=  0.800000  0.720000  1.000000  0.810000 ScalE2=  1.000000  1.000000
 IRadAn=      5 IRanWt=     -1 IRanGd=            0 ICorTp=0 IEmpDi=  4
 NAtoms=    2 NActive=    2 NUniq=    2 SFac= 1.00D+00 NAtFMM=   60 NAOKFM=F Big=F
 Integral buffers will be    131072 words long.
 Raffenetti 2 integral format.
 Two-electron integral symmetry is turned on.
 Leave Link  301 at Tue Oct  6 16:00:50 2020, MaxMem=  2684354560 cpu:               2.0 elap:               0.5
 (Enter /udrive/faculty/rpeverati/g16/g16/l302.exe)
 NPDir=0 NMtPBC=     1 NCelOv=     1 NCel=       1 NClECP=     1 NCelD=      1
         NCelK=      1 NCelE2=     1 NClLst=     1 CellRange=     0.0.
 One-electron integrals computed using PRISM.
 One-electron integral symmetry used in STVInt
 NBasis=    16 RedAO= T EigKep=  8.07D-02  NBF=     9     1     3     3
 NBsUse=    16 1.00D-06 EigRej= -1.00D+00 NBFU=     9     1     3     3
 Precomputing XC quadrature grid using
 IXCGrd= 4 IRadAn=           5 IRanWt=          -1 IRanGd=           0 AccXCQ= 0.00D+00.
 Generated NRdTot=       0 NPtTot=           0 NUsed=           0 NTot=          32
 NSgBfM=    17    17    17    17    17 MxSgAt=     2 MxSgA2=     2.
 Leave Link  302 at Tue Oct  6 16:00:51 2020, MaxMem=  2684354560 cpu:               3.3 elap:               0.6
 (Enter /udrive/faculty/rpeverati/g16/g16/l303.exe)
 DipDrv:  MaxL=1.
 Leave Link  303 at Tue Oct  6 16:00:52 2020, MaxMem=  2684354560 cpu:               1.8 elap:               0.5
 (Enter /udrive/faculty/rpeverati/g16/g16/l401.exe)
 Initial guess from the checkpoint file:  "MN_75_OH_upper_BH76_B3LYP_6-31Gs.chk"
 SCF N**3 symmetry information disabled.
 B after Tr=     0.000000    0.000000    0.000000
         Rot=    1.000000    0.000000    0.000000    0.000000 Ang=   0.00 deg.
 Guess basis will be translated and rotated to current coordinates.
 JPrj=2 DoOrth=T DoCkMO=T.
 Initial guess orbital symmetries:
 Alpha Orbitals:
       Occupied  (SG) (SG) (SG) (PI) (PI)
       Virtual   (SG) (SG) (PI) (PI) (SG) (SG) (PI) (PI) (?A) (?A)
                 (?A)
 Beta  Orbitals:
       Occupied  (SG) (SG) (SG) (PI)
       Virtual   (PI) (SG) (SG) (PI) (PI) (SG) (SG) (PI) (PI) (DLTA)
                 (DLTA) (SG)
 Initial guess <Sx>= 0.0000 <Sy>= 0.0000 <Sz>= 0.5000 <S**2>= 0.7519 S= 0.5010
 Leave Link  401 at Tue Oct  6 16:00:53 2020, MaxMem=  2684354560 cpu:               2.4 elap:               0.7
 (Enter /udrive/faculty/rpeverati/g16/g16/l502.exe)
 Keep R1 and R2 ints in memory in symmetry-blocked form, NReq=10348527.
 FoFCou: FMM=F IPFlag=           0 FMFlag=           0 FMFlg1=           0
         NFxFlg=           0 DoJE=F BraDBF=F KetDBF=F FulRan=T
         wScrn=  0.000000 ICntrl=       600 IOpCl=  0 I1Cent=           0 NGrid=           0
         NMat0=    1 NMatS0=    136 NMatT0=    0 NMatD0=    1 NMtDS0=    0 NMtDT0=    0
 Petite list used in FoFCou.
 UHF open shell SCF:
 Using DIIS extrapolation, IDIIS=  1040.
 NGot=  2684354560 LenX=  2684346491 LenY=  2684345609
 Requested convergence on RMS density matrix=1.00D-08 within 120 cycles.
 Requested convergence on MAX density matrix=1.00D-06.
 Requested convergence on             energy=1.00D-06.
 No special actions if energy rises.

 Cycle   1  Pass 1  IDiag  1:
 E= -75.7214900942575    
 DIIS: error= 1.74D-03 at cycle   1 NSaved=   1.
 NSaved= 1 IEnMin= 1 EnMin= -75.7214900942575     IErMin= 1 ErrMin= 1.74D-03
 ErrMax= 1.74D-03  0.00D+00 EMaxC= 1.00D-01 BMatC= 1.63D-04 BMatP= 1.63D-04
 IDIUse=3 WtCom= 9.83D-01 WtEn= 1.74D-02
 Coeff-Com:  0.100D+01
 Coeff-En:   0.100D+01
 Coeff:      0.100D+01
 Gap=     0.398 Goal=   None    Shift=    0.000
 Gap=     0.148 Goal=   None    Shift=    0.000
 GapD=    0.148 DampG=1.000 DampE=1.000 DampFc=1.0000 IDamp=-1.
 RMSDP=4.94D-04 MaxDP=3.34D-03              OVMax= 4.86D-03

 Cycle   2  Pass 1  IDiag  1:
 E= -75.7215327140512     Delta-E=       -0.000042619794 Rises=F Damp=F
 DIIS: error= 9.67D-04 at cycle   2 NSaved=   2.
 NSaved= 2 IEnMin= 2 EnMin= -75.7215327140512     IErMin= 2 ErrMin= 9.67D-04
 ErrMax= 9.67D-04  0.00D+00 EMaxC= 1.00D-01 BMatC= 4.72D-05 BMatP= 1.63D-04
 IDIUse=3 WtCom= 9.90D-01 WtEn= 9.67D-03
 Coeff-Com:  0.292D+00 0.708D+00
 Coeff-En:   0.000D+00 0.100D+01
 Coeff:      0.289D+00 0.711D+00
 Gap=     0.399 Goal=   None    Shift=    0.000
 Gap=     0.148 Goal=   None    Shift=    0.000
 RMSDP=2.11D-04 MaxDP=1.45D-03 DE=-4.26D-05 OVMax= 1.27D-03

 Cycle   3  Pass 1  IDiag  1:
 E= -75.7215394897511     Delta-E=       -0.000006775700 Rises=F Damp=F
 DIIS: error= 4.36D-04 at cycle   3 NSaved=   3.
 NSaved= 3 IEnMin= 3 EnMin= -75.7215394897511     IErMin= 3 ErrMin= 4.36D-04
 ErrMax= 4.36D-04  0.00D+00 EMaxC= 1.00D-01 BMatC= 1.11D-05 BMatP= 4.72D-05
 IDIUse=3 WtCom= 9.96D-01 WtEn= 4.36D-03
 Coeff-Com:  0.450D-02 0.323D+00 0.673D+00
 Coeff-En:   0.000D+00 0.165D+00 0.835D+00
 Coeff:      0.448D-02 0.322D+00 0.673D+00
 Gap=     0.398 Goal=   None    Shift=    0.000
 Gap=     0.148 Goal=   None    Shift=    0.000
 RMSDP=8.12D-05 MaxDP=6.01D-04 DE=-6.78D-06 OVMax= 6.94D-04

 Cycle   4  Pass 1  IDiag  1:
 E= -75.7215416837724     Delta-E=       -0.000002194021 Rises=F Damp=F
 DIIS: error= 4.20D-05 at cycle   4 NSaved=   4.
 NSaved= 4 IEnMin= 4 EnMin= -75.7215416837724     IErMin= 4 ErrMin= 4.20D-05
 ErrMax= 4.20D-05  0.00D+00 EMaxC= 1.00D-01 BMatC= 1.03D-07 BMatP= 1.11D-05
 IDIUse=1 WtCom= 1.00D+00 WtEn= 0.00D+00
 Coeff-Com: -0.819D-02 0.512D-01 0.166D+00 0.791D+00
 Coeff:     -0.819D-02 0.512D-01 0.166D+00 0.791D+00
 Gap=     0.398 Goal=   None    Shift=    0.000
 Gap=     0.148 Goal=   None    Shift=    0.000
 RMSDP=7.50D-06 MaxDP=5.34D-05 DE=-2.19D-06 OVMax= 7.53D-05

 Cycle   5  Pass 1  IDiag  1:
 E= -75.7215417055470     Delta-E=       -0.000000021775 Rises=F Damp=F
 DIIS: error= 3.56D-06 at cycle   5 NSaved=   5.
 NSaved= 5 IEnMin= 5 EnMin= -75.7215417055470     IErMin= 5 ErrMin= 3.56D-06
 ErrMax= 3.56D-06  0.00D+00 EMaxC= 1.00D-01 BMatC= 5.89D-10 BMatP= 1.03D-07
 IDIUse=1 WtCom= 1.00D+00 WtEn= 0.00D+00
 Coeff-Com:  0.735D-03-0.861D-02-0.229D-01-0.641D-01 0.109D+01
 Coeff:      0.735D-03-0.861D-02-0.229D-01-0.641D-01 0.109D+01
 Gap=     0.398 Goal=   None    Shift=    0.000
 Gap=     0.148 Goal=   None    Shift=    0.000
 RMSDP=1.47D-06 MaxDP=1.32D-05 DE=-2.18D-08 OVMax= 1.76D-05

 Cycle   6  Pass 1  IDiag  1:
 E= -75.7215417059678     Delta-E=       -0.000000000421 Rises=F Damp=F
 DIIS: error= 1.19D-06 at cycle   6 NSaved=   6.
 NSaved= 6 IEnMin= 6 EnMin= -75.7215417059678     IErMin= 6 ErrMin= 1.19D-06
 ErrMax= 1.19D-06  0.00D+00 EMaxC= 1.00D-01 BMatC= 5.97D-11 BMatP= 5.89D-10
 IDIUse=1 WtCom= 1.00D+00 WtEn= 0.00D+00
 Coeff-Com: -0.516D-04 0.186D-02 0.397D-02-0.222D-02-0.493D+00 0.149D+01
 Coeff:     -0.516D-04 0.186D-02 0.397D-02-0.222D-02-0.493D+00 0.149D+01
 Gap=     0.398 Goal=   None    Shift=    0.000
 Gap=     0.148 Goal=   None    Shift=    0.000
 RMSDP=6.79D-07 MaxDP=5.24D-06 DE=-4.21D-10 OVMax= 7.05D-06

 Cycle   7  Pass 1  IDiag  1:
 E= -75.7215417060193     Delta-E=       -0.000000000051 Rises=F Damp=F
 DIIS: error= 8.74D-08 at cycle   7 NSaved=   7.
 NSaved= 7 IEnMin= 7 EnMin= -75.7215417060193     IErMin= 7 ErrMin= 8.74D-08
 ErrMax= 8.74D-08  0.00D+00 EMaxC= 1.00D-01 BMatC= 4.28D-13 BMatP= 5.97D-11
 IDIUse=1 WtCom= 1.00D+00 WtEn= 0.00D+00
 Coeff-Com: -0.476D-05-0.458D-04-0.513D-04 0.257D-02 0.310D-01-0.156D+00
 Coeff-Com:  0.112D+01
 Coeff:     -0.476D-05-0.458D-04-0.513D-04 0.257D-02 0.310D-01-0.156D+00
 Coeff:      0.112D+01
 Gap=     0.398 Goal=   None    Shift=    0.000
 Gap=     0.148 Goal=   None    Shift=    0.000
 RMSDP=3.64D-08 MaxDP=2.37D-07 DE=-5.14D-11 OVMax= 3.92D-07

 Cycle   8  Pass 1  IDiag  1:
 E= -75.7215417060195     Delta-E=       -0.000000000000 Rises=F Damp=F
 DIIS: error= 8.76D-09 at cycle   8 NSaved=   8.
 NSaved= 8 IEnMin= 8 EnMin= -75.7215417060195     IErMin= 8 ErrMin= 8.76D-09
 ErrMax= 8.76D-09  0.00D+00 EMaxC= 1.00D-01 BMatC= 2.55D-15 BMatP= 4.28D-13
 IDIUse=1 WtCom= 1.00D+00 WtEn= 0.00D+00
 Coeff-Com:  0.804D-06-0.747D-05-0.175D-04-0.407D-03-0.831D-03 0.120D-01
 Coeff-Com: -0.160D+00 0.115D+01
 Coeff:      0.804D-06-0.747D-05-0.175D-04-0.407D-03-0.831D-03 0.120D-01
 Coeff:     -0.160D+00 0.115D+01
 Gap=     0.398 Goal=   None    Shift=    0.000
 Gap=     0.148 Goal=   None    Shift=    0.000
 RMSDP=2.24D-09 MaxDP=1.71D-08 DE=-2.27D-13 OVMax= 1.82D-08

 SCF Done:  E(UB3LYP) =  -75.7215417060     A.U. after    8 cycles
            NFock=  8  Conv=0.22D-08     -V/T= 2.0053
 <Sx>= 0.0000 <Sy>= 0.0000 <Sz>= 0.5000 <S**2>= 0.7519 S= 0.5010
 <L.S>= 0.000000000000E+00
 KE= 7.531982086357D+01 PE=-1.879454006922D+02 EE= 3.259395859863D+01
 Annihilation of the first spin contaminant:
 S**2 before annihilation     0.7519,   after     0.7500
 Leave Link  502 at Tue Oct  6 16:00:55 2020, MaxMem=  2684354560 cpu:               9.1 elap:               1.2
 (Enter /udrive/faculty/rpeverati/g16/g16/l508.exe)
 QCSCF skips out because SCF is already converged.
 Leave Link  508 at Tue Oct  6 16:00:56 2020, MaxMem=  2684354560 cpu:               0.3 elap:               0.4
 (Enter /udrive/faculty/rpeverati/g16/g16/l701.exe)
 ... and contract with generalized density number  0.
 Compute integral first derivatives.
 Leave Link  701 at Tue Oct  6 16:00:57 2020, MaxMem=  2684354560 cpu:               3.5 elap:               0.6
 (Enter /udrive/faculty/rpeverati/g16/g16/l702.exe)
 L702 exits ... SP integral derivatives will be done elsewhere.
 Leave Link  702 at Tue Oct  6 16:00:58 2020, MaxMem=  2684354560 cpu:               1.8 elap:               0.6
 (Enter /udrive/faculty/rpeverati/g16/g16/l703.exe)
 Integral derivatives from FoFJK, PRISM(SPDF).
 Compute integral first derivatives, UseDBF=F ICtDFT=           0.
 Calling FoFJK, ICntrl=      2127 FMM=F ISym2X=1 I1Cent= 0 IOpClX= 1 NMat=1 NMatS=1 NMatT=0.
 FoFJK:  IHMeth= 1 ICntrl=    2127 DoSepK=F KAlg= 0 I1Cent=           0 FoldK=F
 IRaf=         0 NMat=       1 IRICut=       1 DoRegI=T DoRafI=F ISym2E= 1 IDoP0=0 IntGTp=1.
 FoFCou: FMM=F IPFlag=           0 FMFlag=      100000 FMFlg1=         800
         NFxFlg=           0 DoJE=F BraDBF=F KetDBF=F FulRan=T
         wScrn=  0.000000 ICntrl=      2127 IOpCl=  1 I1Cent=           0 NGrid=           0
         NMat0=    1 NMatS0=      1 NMatT0=    0 NMatD0=    1 NMtDS0=    0 NMtDT0=    0
 Petite list used in FoFCou.
 Leave Link  703 at Tue Oct  6 16:00:59 2020, MaxMem=  2684354560 cpu:               4.3 elap:               0.7
 (Enter /udrive/faculty/rpeverati/g16/g16/l716.exe)
 Dipole        = 0.00000000D+00-5.06563158D-33-6.92618471D-01
 ***** Axes restored to original set *****
 -------------------------------------------------------------------
 Center     Atomic                   Forces (Hartrees/Bohr)
 Number     Number              X              Y              Z
 -------------------------------------------------------------------
      1        8           0.000000000    0.000000000    0.000961902
      2        1          -0.000000000   -0.000000000   -0.000961902
 -------------------------------------------------------------------
 Cartesian Forces:  Max     0.000961902 RMS     0.000555354
 Leave Link  716 at Tue Oct  6 16:01:00 2020, MaxMem=  2684354560 cpu:               2.3 elap:               0.7
 (Enter /udrive/faculty/rpeverati/g16/g16/l103.exe)

 GradGradGradGradGradGradGradGradGradGradGradGradGradGradGradGradGradGrad
 Berny optimization.
 Optmz: redundant internal coordinate code flag= 1
 Using GEDIIS/GDIIS optimizer.
 Red2BG:  D1=  2.00D+00 OD1=  0.00D+00 B2RMS=  0.00D+00 IAprox=1
 Red2BG is reusing G-inverse.
 Internal  Forces:  Max     0.000961902 RMS     0.000961902
 Search for a local minimum.
 Step number   2 out of a maximum of  100
 All quantities printed in internal units (Hartrees-Bohrs-Radians)
 RMS Force = .96190D-03 SwitMx=.10000D-02 MixMth= 2
 Mixed Optimization -- En-DIIS/RFO-DIIS
 Update second derivatives using D2CorX and points    1    2
 DE= -1.80D-04 DEPred=-1.70D-04 R= 1.06D+00
 TightC=F SS=  1.41D+00  RLast= 2.52D-02 DXNew= 5.0454D-01 7.5496D-02
 Trust test= 1.06D+00 RLast= 2.52D-02 DXMaxT set to 3.00D-01
 The second derivative matrix:
                          R1
           R1           0.49815
 ITU=  1  0
 Use linear search instead of GDIIS.
 Eigenvectors of the second derivative matrix:
                           1
     Eigenvalues --     0.49815
   1         R1         1.00000
 RFO step:  Lambda= 0.00000000D+00 EMin= 4.98146742D-01
 Quartic linear search produced a step of  0.08073.
 Iteration  1 RMS(Cart)=  0.00143660 RMS(Int)=  0.00000000
 Iteration  2 RMS(Cart)=  0.00000000 RMS(Int)=  0.00000000
 ITry= 1 IFail=0 DXMaxC= 1.02D-03 DCOld= 1.00D+10 DXMaxT= 3.00D-01 DXLimC= 3.00D+00 Rises=F
 ClnCor:  largest displacement from symmetrization is 0.00D+00 for atom     0.
 Variable       Old X    -DE/DX   Delta X   Delta X   Delta X     New X
                                 (Linear)    (Quad)   (Total)
    R1        1.85611   0.00096   0.00203   0.00000   0.00203   1.85815
         Item               Value     Threshold  Converged?
 Maximum Force            0.000962     0.000450     NO 
 RMS     Force            0.000962     0.000300     NO 
 Maximum Displacement     0.001016     0.001800     YES
 RMS     Displacement     0.001437     0.001200     NO 
 Predicted change in Energy=-9.261722D-07
 Lowest energy point so far.  Saving SCF results.
 Largest change from initial coordinates is atom    2       0.012 Angstoms.
 GradGradGradGradGradGradGradGradGradGradGradGradGradGradGradGradGradGrad

 Leave Link  103 at Tue Oct  6 16:01:01 2020, MaxMem=  2684354560 cpu:               2.1 elap:               0.6
 (Enter /udrive/faculty/rpeverati/g16/g16/l202.exe)
                          Input orientation:                          
 ---------------------------------------------------------------------
 Center     Atomic      Atomic             Coordinates (Angstroms)
 Number     Number       Type             X           Y           Z
 ---------------------------------------------------------------------
      1          8           0        0.000000    0.000000    0.114851
      2          1           0        0.000000    0.000000   -0.868437
 ---------------------------------------------------------------------
 Stoichiometry    HO(2)
 Framework group  C*V[C*(HO)]
 Deg. of freedom     1
 Full point group                 C*V     NOp   4
 RotChk:  IX=0 Diff= 0.00D+00
 Largest Abelian subgroup         C2V     NOp   4
 Largest concise Abelian subgroup C1      NOp   1
                         Standard orientation:                         
 ---------------------------------------------------------------------
 Center     Atomic      Atomic             Coordinates (Angstroms)
 Number     Number       Type             X           Y           Z
 ---------------------------------------------------------------------
      1          8           0        0.000000    0.000000    0.109254
      2          1           0        0.000000    0.000000   -0.874034
 ---------------------------------------------------------------------
 Rotational constants (GHZ):           0.0000000         551.3243124         551.3243124
 Leave Link  202 at Tue Oct  6 16:01:02 2020, MaxMem=  2684354560 cpu:               1.2 elap:               0.5
 (Enter /udrive/faculty/rpeverati/g16/g16/l301.exe)
 Standard basis: 6-31G(d) (5D, 7F)
 Ernie: Thresh=  0.10000D-02 Tol=  0.10000D-05 Strict=F.
 There are    10 symmetry adapted cartesian basis functions of A1  symmetry.
 There are     1 symmetry adapted cartesian basis functions of A2  symmetry.
 There are     3 symmetry adapted cartesian basis functions of B1  symmetry.
 There are     3 symmetry adapted cartesian basis functions of B2  symmetry.
 There are     9 symmetry adapted basis functions of A1  symmetry.
 There are     1 symmetry adapted basis functions of A2  symmetry.
 There are     3 symmetry adapted basis functions of B1  symmetry.
 There are     3 symmetry adapted basis functions of B2  symmetry.
    16 basis functions,    32 primitive gaussians,    17 cartesian basis functions
     5 alpha electrons        4 beta electrons
       nuclear repulsion energy         4.3053669690 Hartrees.
 IExCor=  402 DFT=T Ex+Corr=B3LYP ExCW=0 ScaHFX=  0.200000
 ScaDFX=  0.800000  0.720000  1.000000  0.810000 ScalE2=  1.000000  1.000000
 IRadAn=      5 IRanWt=     -1 IRanGd=            0 ICorTp=0 IEmpDi=  4
 NAtoms=    2 NActive=    2 NUniq=    2 SFac= 1.00D+00 NAtFMM=   60 NAOKFM=F Big=F
 Integral buffers will be    131072 words long.
 Raffenetti 2 integral format.
 Two-electron integral symmetry is turned on.
 Leave Link  301 at Tue Oct  6 16:01:03 2020, MaxMem=  2684354560 cpu:               2.1 elap:               0.9
 (Enter /udrive/faculty/rpeverati/g16/g16/l302.exe)
 NPDir=0 NMtPBC=     1 NCelOv=     1 NCel=       1 NClECP=     1 NCelD=      1
         NCelK=      1 NCelE2=     1 NClLst=     1 CellRange=     0.0.
 One-electron integrals computed using PRISM.
 One-electron integral symmetry used in STVInt
 NBasis=    16 RedAO= T EigKep=  8.09D-02  NBF=     9     1     3     3
 NBsUse=    16 1.00D-06 EigRej= -1.00D+00 NBFU=     9     1     3     3
 Precomputing XC quadrature grid using
 IXCGrd= 4 IRadAn=           5 IRanWt=          -1 IRanGd=           0 AccXCQ= 0.00D+00.
 Generated NRdTot=       0 NPtTot=           0 NUsed=           0 NTot=          32
 NSgBfM=    17    17    17    17    17 MxSgAt=     2 MxSgA2=     2.
 Leave Link  302 at Tue Oct  6 16:01:04 2020, MaxMem=  2684354560 cpu:               3.4 elap:               0.8
 (Enter /udrive/faculty/rpeverati/g16/g16/l303.exe)
 DipDrv:  MaxL=1.
 Leave Link  303 at Tue Oct  6 16:01:05 2020, MaxMem=  2684354560 cpu:               1.5 elap:               0.9
 (Enter /udrive/faculty/rpeverati/g16/g16/l401.exe)
 Initial guess from the checkpoint file:  "MN_75_OH_upper_BH76_B3LYP_6-31Gs.chk"
 SCF N**3 symmetry information disabled.
 B after Tr=     0.000000    0.000000    0.000000
         Rot=    1.000000    0.000000    0.000000    0.000000 Ang=   0.00 deg.
 Guess basis will be translated and rotated to current coordinates.
 JPrj=2 DoOrth=T DoCkMO=T.
 Initial guess orbital symmetries:
 Alpha Orbitals:
       Occupied  (SG) (SG) (SG) (PI) (PI)
       Virtual   (SG) (SG) (PI) (PI) (SG) (SG) (PI) (PI) (?A) (?A)
                 (?A)
 Beta  Orbitals:
       Occupied  (SG) (SG) (SG) (PI)
       Virtual   (PI) (SG) (SG) (PI) (PI) (SG) (SG) (PI) (PI) (DLTA)
                 (DLTA) (SG)
 Initial guess <Sx>= 0.0000 <Sy>= 0.0000 <Sz>= 0.5000 <S**2>= 0.7519 S= 0.5010
 Leave Link  401 at Tue Oct  6 16:01:06 2020, MaxMem=  2684354560 cpu:               2.2 elap:               0.6
 (Enter /udrive/faculty/rpeverati/g16/g16/l502.exe)
 Keep R1 and R2 ints in memory in symmetry-blocked form, NReq=10348527.
 FoFCou: FMM=F IPFlag=           0 FMFlag=           0 FMFlg1=           0
         NFxFlg=           0 DoJE=F BraDBF=F KetDBF=F FulRan=T
         wScrn=  0.000000 ICntrl=       600 IOpCl=  0 I1Cent=           0 NGrid=           0
         NMat0=    1 NMatS0=    136 NMatT0=    0 NMatD0=    1 NMtDS0=    0 NMtDT0=    0
 Petite list used in FoFCou.
 UHF open shell SCF:
 Using DIIS extrapolation, IDIIS=  1040.
 NGot=  2684354560 LenX=  2684346491 LenY=  2684345609
 Requested convergence on RMS density matrix=1.00D-08 within 120 cycles.
 Requested convergence on MAX density matrix=1.00D-06.
 Requested convergence on             energy=1.00D-06.
 No special actions if energy rises.

 Cycle   1  Pass 1  IDiag  1:
 E= -75.7215423510354    
 DIIS: error= 1.39D-04 at cycle   1 NSaved=   1.
 NSaved= 1 IEnMin= 1 EnMin= -75.7215423510354     IErMin= 1 ErrMin= 1.39D-04
 ErrMax= 1.39D-04  0.00D+00 EMaxC= 1.00D-01 BMatC= 1.03D-06 BMatP= 1.03D-06
 IDIUse=3 WtCom= 9.99D-01 WtEn= 1.39D-03
 Coeff-Com:  0.100D+01
 Coeff-En:   0.100D+01
 Coeff:      0.100D+01
 Gap=     0.398 Goal=   None    Shift=    0.000
 Gap=     0.148 Goal=   None    Shift=    0.000
 RMSDP=3.94D-05 MaxDP=2.67D-04              OVMax= 3.90D-04

 Cycle   2  Pass 1  IDiag  1:
 E= -75.7215426245520     Delta-E=       -0.000000273517 Rises=F Damp=F
 DIIS: error= 7.69D-05 at cycle   2 NSaved=   2.
 NSaved= 2 IEnMin= 2 EnMin= -75.7215426245520     IErMin= 2 ErrMin= 7.69D-05
 ErrMax= 7.69D-05  0.00D+00 EMaxC= 1.00D-01 BMatC= 2.99D-07 BMatP= 1.03D-06
 IDIUse=1 WtCom= 1.00D+00 WtEn= 0.00D+00
 Coeff-Com:  0.291D+00 0.709D+00
 Coeff:      0.291D+00 0.709D+00
 Gap=     0.398 Goal=   None    Shift=    0.000
 Gap=     0.148 Goal=   None    Shift=    0.000
 RMSDP=1.68D-05 MaxDP=1.15D-04 DE=-2.74D-07 OVMax= 1.01D-04

 Cycle   3  Pass 1  IDiag  1:
 E= -75.7215426676307     Delta-E=       -0.000000043079 Rises=F Damp=F
 DIIS: error= 3.44D-05 at cycle   3 NSaved=   3.
 NSaved= 3 IEnMin= 3 EnMin= -75.7215426676307     IErMin= 3 ErrMin= 3.44D-05
 ErrMax= 3.44D-05  0.00D+00 EMaxC= 1.00D-01 BMatC= 6.93D-08 BMatP= 2.99D-07
 IDIUse=1 WtCom= 1.00D+00 WtEn= 0.00D+00
 Coeff-Com:  0.459D-02 0.321D+00 0.674D+00
 Coeff:      0.459D-02 0.321D+00 0.674D+00
 Gap=     0.398 Goal=   None    Shift=    0.000
 Gap=     0.148 Goal=   None    Shift=    0.000
 RMSDP=6.43D-06 MaxDP=4.78D-05 DE=-4.31D-08 OVMax= 5.53D-05

 Cycle   4  Pass 1  IDiag  1:
 E= -75.7215426813798     Delta-E=       -0.000000013749 Rises=F Damp=F
 DIIS: error= 3.36D-06 at cycle   4 NSaved=   4.
 NSaved= 4 IEnMin= 4 EnMin= -75.7215426813798     IErMin= 4 ErrMin= 3.36D-06
 ErrMax= 3.36D-06  0.00D+00 EMaxC= 1.00D-01 BMatC= 6.42D-10 BMatP= 6.93D-08
 IDIUse=1 WtCom= 1.00D+00 WtEn= 0.00D+00
 Coeff-Com: -0.822D-02 0.509D-01 0.165D+00 0.792D+00
 Coeff:     -0.822D-02 0.509D-01 0.165D+00 0.792D+00
 Gap=     0.398 Goal=   None    Shift=    0.000
 Gap=     0.148 Goal=   None    Shift=    0.000
 RMSDP=5.95D-07 MaxDP=4.24D-06 DE=-1.37D-08 OVMax= 6.04D-06

 Cycle   5  Pass 1  IDiag  1:
 E= -75.7215426815166     Delta-E=       -0.000000000137 Rises=F Damp=F
 DIIS: error= 2.94D-07 at cycle   5 NSaved=   5.
 NSaved= 5 IEnMin= 5 EnMin= -75.7215426815166     IErMin= 5 ErrMin= 2.94D-07
 ErrMax= 2.94D-07  0.00D+00 EMaxC= 1.00D-01 BMatC= 4.05D-12 BMatP= 6.42D-10
 IDIUse=1 WtCom= 1.00D+00 WtEn= 0.00D+00
 Coeff-Com:  0.766D-03-0.883D-02-0.237D-01-0.666D-01 0.110D+01
 Coeff:      0.766D-03-0.883D-02-0.237D-01-0.666D-01 0.110D+01
 Gap=     0.398 Goal=   None    Shift=    0.000
 Gap=     0.148 Goal=   None    Shift=    0.000
 RMSDP=1.23D-07 MaxDP=1.10D-06 DE=-1.37D-10 OVMax= 1.46D-06

 Cycle   6  Pass 1  IDiag  1:
 E= -75.7215426815195     Delta-E=       -0.000000000003 Rises=F Damp=F
 DIIS: error= 9.89D-08 at cycle   6 NSaved=   6.
 NSaved= 6 IEnMin= 6 EnMin= -75.7215426815195     IErMin= 6 ErrMin= 9.89D-08
 ErrMax= 9.89D-08  0.00D+00 EMaxC= 1.00D-01 BMatC= 4.09D-13 BMatP= 4.05D-12
 IDIUse=1 WtCom= 1.00D+00 WtEn= 0.00D+00
 Coeff-Com: -0.501D-04 0.185D-02 0.402D-02-0.263D-02-0.492D+00 0.149D+01
 Coeff:     -0.501D-04 0.185D-02 0.402D-02-0.263D-02-0.492D+00 0.149D+01
 Gap=     0.398 Goal=   None    Shift=    0.000
 Gap=     0.148 Goal=   None    Shift=    0.000
 RMSDP=5.65D-08 MaxDP=4.37D-07 DE=-2.90D-12 OVMax= 5.88D-07

 Cycle   7  Pass 1  IDiag  1:
 E= -75.7215426815198     Delta-E=       -0.000000000000 Rises=F Damp=F
 DIIS: error= 7.13D-09 at cycle   7 NSaved=   7.
 NSaved= 7 IEnMin= 7 EnMin= -75.7215426815198     IErMin= 7 ErrMin= 7.13D-09
 ErrMax= 7.13D-09  0.00D+00 EMaxC= 1.00D-01 BMatC= 2.77D-15 BMatP= 4.09D-13
 IDIUse=1 WtCom= 1.00D+00 WtEn= 0.00D+00
 Coeff-Com: -0.496D-05-0.429D-04-0.519D-04 0.262D-02 0.304D-01-0.152D+00
 Coeff-Com:  0.112D+01
 Coeff:     -0.496D-05-0.429D-04-0.519D-04 0.262D-02 0.304D-01-0.152D+00
 Coeff:      0.112D+01
 Gap=     0.398 Goal=   None    Shift=    0.000
 Gap=     0.148 Goal=   None    Shift=    0.000
 RMSDP=2.87D-09 MaxDP=1.86D-08 DE=-3.27D-13 OVMax= 3.11D-08

 SCF Done:  E(UB3LYP) =  -75.7215426815     A.U. after    7 cycles
            NFock=  7  Conv=0.29D-08     -V/T= 2.0054
 <Sx>= 0.0000 <Sy>= 0.0000 <Sz>= 0.5000 <S**2>= 0.7519 S= 0.5010
 <L.S>= 0.000000000000E+00
 KE= 7.531798776237D+01 PE=-1.879352276287D+02 EE= 3.259033021580D+01
 Annihilation of the first spin contaminant:
 S**2 before annihilation     0.7519,   after     0.7500
 Leave Link  502 at Tue Oct  6 16:01:07 2020, MaxMem=  2684354560 cpu:               6.7 elap:               1.0
 (Enter /udrive/faculty/rpeverati/g16/g16/l508.exe)
 QCSCF skips out because SCF is already converged.
 Leave Link  508 at Tue Oct  6 16:01:08 2020, MaxMem=  2684354560 cpu:               0.3 elap:               0.4
 (Enter /udrive/faculty/rpeverati/g16/g16/l701.exe)
 ... and contract with generalized density number  0.
 Compute integral first derivatives.
 Leave Link  701 at Tue Oct  6 16:01:09 2020, MaxMem=  2684354560 cpu:               3.3 elap:               0.7
 (Enter /udrive/faculty/rpeverati/g16/g16/l702.exe)
 L702 exits ... SP integral derivatives will be done elsewhere.
 Leave Link  702 at Tue Oct  6 16:01:10 2020, MaxMem=  2684354560 cpu:               1.8 elap:               0.6
 (Enter /udrive/faculty/rpeverati/g16/g16/l703.exe)
 Integral derivatives from FoFJK, PRISM(SPDF).
 Compute integral first derivatives, UseDBF=F ICtDFT=           0.
 Calling FoFJK, ICntrl=      2127 FMM=F ISym2X=1 I1Cent= 0 IOpClX= 1 NMat=1 NMatS=1 NMatT=0.
 FoFJK:  IHMeth= 1 ICntrl=    2127 DoSepK=F KAlg= 0 I1Cent=           0 FoldK=F
 IRaf=         0 NMat=       1 IRICut=       1 DoRegI=T DoRafI=F ISym2E= 1 IDoP0=0 IntGTp=1.
 FoFCou: FMM=F IPFlag=           0 FMFlag=      100000 FMFlg1=         800
         NFxFlg=           0 DoJE=F BraDBF=F KetDBF=F FulRan=T
         wScrn=  0.000000 ICntrl=      2127 IOpCl=  1 I1Cent=           0 NGrid=           0
         NMat0=    1 NMatS0=      1 NMatT0=    0 NMatD0=    1 NMtDS0=    0 NMtDT0=    0
 Petite list used in FoFCou.
 Leave Link  703 at Tue Oct  6 16:01:11 2020, MaxMem=  2684354560 cpu:               4.0 elap:               0.8
 (Enter /udrive/faculty/rpeverati/g16/g16/l716.exe)
 Dipole        = 0.00000000D+00-3.20558636D-32-6.92703467D-01
 ***** Axes restored to original set *****
 -------------------------------------------------------------------
 Center     Atomic                   Forces (Hartrees/Bohr)
 Number     Number              X              Y              Z
 -------------------------------------------------------------------
      1        8          -0.000000000   -0.000000000   -0.000000402
      2        1           0.000000000    0.000000000    0.000000402
 -------------------------------------------------------------------
 Cartesian Forces:  Max     0.000000402 RMS     0.000000232
 Leave Link  716 at Tue Oct  6 16:01:12 2020, MaxMem=  2684354560 cpu:               1.7 elap:               0.5
 (Enter /udrive/faculty/rpeverati/g16/g16/l103.exe)

 GradGradGradGradGradGradGradGradGradGradGradGradGradGradGradGradGradGrad
 Berny optimization.
 Optmz: redundant internal coordinate code flag= 1
 Using GEDIIS/GDIIS optimizer.
 Red2BG:  D1=  2.00D+00 OD1=  0.00D+00 B2RMS=  0.00D+00 IAprox=1
 Red2BG is reusing G-inverse.
 Internal  Forces:  Max     0.000000402 RMS     0.000000402
 Search for a local minimum.
 Step number   3 out of a maximum of  100
 All quantities printed in internal units (Hartrees-Bohrs-Radians)
 RMS Force = .40184D-06 SwitMx=.10000D-02 MixMth= 2
 Mixed Optimization -- En-DIIS/RFO-DIIS
 Swapping is turned off.
 Update second derivatives using D2CorX and points    2    3
 DE= -9.76D-07 DEPred=-9.26D-07 R= 1.05D+00
 Trust test= 1.05D+00 RLast= 2.03D-03 DXMaxT set to 3.00D-01
 The second derivative matrix:
                          R1
           R1           0.47365
 ITU=  0  1
 Eigenvectors of the second derivative matrix:
                           1
     Eigenvalues --     0.47365
   1         R1         1.00000
 DoSqrt=T IScMMF=    -3 MM Scaling Factor =       0.00000
 En-DIIS/RFO-DIIS/Sim-DIIS IScMMF=       -3 using points:     3    2
 RFO step:  Lambda=-3.40921735D-13.
 NNeg= 0 NGDIIS= 2 SimSw=  2.50D-03 Rises=F DC= -9.76D-07 SmlDif=  1.00D-05
 NRisDI= 0 DoIntr=F SqrtH=F CThrHd= 10.0 CDAdj=  3.0
 RMS Error=  0.8483870221D-06 NUsed= 2 OKEnD=F EnDIS=F
 Total RFO-DIIS matrix:
                 1             2             3 
      1   0.000000D+00 -0.100000D+01 -0.100000D+01
      2  -0.100000D+01  0.719761D-12 -0.172291D-08
      3  -0.100000D+01 -0.172291D-08  0.412419D-05
 InvSVX:  RCond= 4.64D-06 Info=           0 Equed=N FErr=  8.89D-16 BErr=  0.00D+00
 DidBck=F Rises=F RFO-DIIS coefs:    0.99958    0.00042
 Iteration  1 RMS(Cart)=  0.00000060 RMS(Int)=  0.00000000
 ITry= 1 IFail=0 DXMaxC= 4.24D-07 DCOld= 1.00D+10 DXMaxT= 3.00D-01 DXLimC= 3.00D+00 Rises=F
 ClnCor:  largest displacement from symmetrization is 0.00D+00 for atom     0.
 Variable       Old X    -DE/DX   Delta X   Delta X   Delta X     New X
                                 (Linear)    (Quad)   (Total)
    R1        1.85815  -0.00000  -0.00000  -0.00000  -0.00000   1.85815
         Item               Value     Threshold  Converged?
 Maximum Force            0.000000     0.000450     YES
 RMS     Force            0.000000     0.000300     YES
 Maximum Displacement     0.000000     0.001800     YES
 RMS     Displacement     0.000001     0.001200     YES
 Predicted change in Energy=-1.704588D-13
 Optimization completed.
    -- Stationary point found.
                           ----------------------------
                           !   Optimized Parameters   !
                           ! (Angstroms and Degrees)  !
 --------------------------                            --------------------------
 ! Name  Definition              Value          Derivative Info.                !
 --------------------------------------------------------------------------------
 ! R1    R(1,2)                  0.9833         -DE/DX =    0.0                 !
 --------------------------------------------------------------------------------
 Lowest energy point so far.  Saving SCF results.
 Largest change from initial coordinates is atom    2       0.013 Angstoms.
 GradGradGradGradGradGradGradGradGradGradGradGradGradGradGradGradGradGrad

 Leave Link  103 at Tue Oct  6 16:01:13 2020, MaxMem=  2684354560 cpu:               2.2 elap:               0.6
 (Enter /udrive/faculty/rpeverati/g16/g16/l202.exe)
                          Input orientation:                          
 ---------------------------------------------------------------------
 Center     Atomic      Atomic             Coordinates (Angstroms)
 Number     Number       Type             X           Y           Z
 ---------------------------------------------------------------------
      1          8           0        0.000000    0.000000    0.114851
      2          1           0        0.000000    0.000000   -0.868437
 ---------------------------------------------------------------------
 Stoichiometry    HO(2)
 Framework group  C*V[C*(HO)]
 Deg. of freedom     1
 Full point group                 C*V     NOp   4
 RotChk:  IX=0 Diff= 0.00D+00
 Largest Abelian subgroup         C2V     NOp   4
 Largest concise Abelian subgroup C1      NOp   1
                         Standard orientation:                         
 ---------------------------------------------------------------------
 Center     Atomic      Atomic             Coordinates (Angstroms)
 Number     Number       Type             X           Y           Z
 ---------------------------------------------------------------------
      1          8           0        0.000000    0.000000    0.109254
      2          1           0        0.000000    0.000000   -0.874034
 ---------------------------------------------------------------------
 Rotational constants (GHZ):           0.0000000         551.3243124         551.3243124
 Leave Link  202 at Tue Oct  6 16:01:14 2020, MaxMem=  2684354560 cpu:               1.2 elap:               0.5
 (Enter /udrive/faculty/rpeverati/g16/g16/l601.exe)
 Copying SCF densities to generalized density rwf, IOpCl= 1 IROHF=0.

 **********************************************************************

            Population analysis using the SCF density.

 **********************************************************************

 Orbital symmetries:
 Alpha Orbitals:
       Occupied  (SG) (SG) (SG) (PI) (PI)
       Virtual   (SG) (SG) (PI) (PI) (SG) (SG) (PI) (PI) (?A) (?A)
                 (?A)
 Beta  Orbitals:
       Occupied  (SG) (SG) (SG) (PI)
       Virtual   (PI) (SG) (SG) (PI) (PI) (SG) (SG) (PI) (PI) (DLTA)
                 (DLTA) (SG)
 Unable to determine electronic state:  partially filled degenerate orbitals.
 Alpha  occ. eigenvalues --  -19.20622  -1.00609  -0.46569  -0.40287  -0.32782
 Alpha virt. eigenvalues --    0.07028   0.77327   0.81702   0.86554   0.91878
 Alpha virt. eigenvalues --    1.22878   1.69176   1.74033   1.75290   1.75325
 Alpha virt. eigenvalues --    2.39470
  Beta  occ. eigenvalues --  -19.18139  -0.93563  -0.43976  -0.30087
  Beta virt. eigenvalues --   -0.15250   0.07920   0.78109   0.88158   0.91690
  Beta virt. eigenvalues --    0.93753   1.26527   1.74999   1.75702   1.81617
  Beta virt. eigenvalues --    1.82395   2.41907
          Condensed to atoms (all electrons):
               1          2
     1  O    8.208447   0.203861
     2  H    0.203861   0.383831
          Atomic-Atomic Spin Densities.
               1          2
     1  O    1.036897  -0.004374
     2  H   -0.004374  -0.028150
 Mulliken charges and spin densities:
               1          2
     1  O   -0.412308   1.032523
     2  H    0.412308  -0.032523
 Sum of Mulliken charges =  -0.00000   1.00000
 Mulliken charges and spin densities with hydrogens summed into heavy atoms:
               1          2
     1  O   -0.000000   1.000000
 Electronic spatial extent (au):  <R**2>=             15.0645
 Charge=             -0.0000 electrons
 Dipole moment (field-independent basis, Debye):
    X=              0.0000    Y=             -0.0000    Z=             -1.7607  Tot=              1.7607
 Quadrupole moment (field-independent basis, Debye-Ang):
   XX=             -5.2870   YY=             -6.4251   ZZ=             -4.4221
   XY=              0.0000   XZ=              0.0000   YZ=              0.0000
 Traceless Quadrupole moment (field-independent basis, Debye-Ang):
   XX=              0.0911   YY=             -1.0470   ZZ=              0.9559
   XY=              0.0000   XZ=              0.0000   YZ=              0.0000
 Octapole moment (field-independent basis, Debye-Ang**2):
  XXX=              0.0000  YYY=             -0.0000  ZZZ=             -1.8294  XYY=              0.0000
  XXY=              0.0000  XXZ=             -0.1568  XZZ=              0.0000  YZZ=             -0.0000
  YYZ=             -0.2633  XYZ=              0.0000
 Hexadecapole moment (field-independent basis, Debye-Ang**3):
 XXXX=             -3.3395 YYYY=             -4.6121 ZZZZ=             -5.0379 XXXY=              0.0000
 XXXZ=              0.0000 YYYX=              0.0000 YYYZ=              0.0000 ZZZX=              0.0000
 ZZZY=              0.0000 XXYY=             -1.3252 XXZZ=             -1.6164 YYZZ=             -1.8384
 XXYZ=              0.0000 YYXZ=              0.0000 ZZXY=              0.0000
 N-N= 4.305366968977D+00 E-N=-1.879352275587D+02  KE= 7.531798776237D+01
                          Isotropic Fermi Contact Couplings
        Atom                 a.u.       MegaHertz       Gauss      10(-4) cm-1
     1  O(17)              0.15241     -92.38756     -32.96618     -30.81717
     2  H(1)              -0.01527     -68.27161     -24.36101     -22.77296
 --------------------------------------------------------
       Center         ----  Spin Dipole Couplings  ----
                      3XX-RR        3YY-RR        3ZZ-RR
 --------------------------------------------------------
     1   Atom        3.590529     -1.823197     -1.767332
     2   Atom       -0.044571     -0.126221      0.170791
 --------------------------------------------------------
                        XY            XZ            YZ
 --------------------------------------------------------
     1   Atom        0.000000      0.000000      0.000000
     2   Atom        0.000000      0.000000      0.000000
 --------------------------------------------------------


 ---------------------------------------------------------------------------------
              Anisotropic Spin Dipole Couplings in Principal Axis System
 ---------------------------------------------------------------------------------

       Atom             a.u.   MegaHertz   Gauss  10(-4) cm-1        Axes

              Baa    -1.8232   131.925    47.074    44.006  0.0000  1.0000  0.0000
     1 O(17)  Bbb    -1.7673   127.883    45.632    42.657  0.0000  0.0000  1.0000
              Bcc     3.5905  -259.808   -92.706   -86.663  1.0000  0.0000  0.0000
 
              Baa    -0.1262   -67.345   -24.031   -22.464  0.0000  1.0000  0.0000
     2 H(1)   Bbb    -0.0446   -23.781    -8.486    -7.932  1.0000  0.0000  0.0000
              Bcc     0.1708    91.126    32.516    30.396  0.0000  0.0000  1.0000
 

 ---------------------------------------------------------------------------------

 No NMR shielding tensors so no spin-rotation constants.
 Leave Link  601 at Tue Oct  6 16:01:15 2020, MaxMem=  2684354560 cpu:               4.8 elap:               0.8
 (Enter /udrive/faculty/rpeverati/g16/g16/l9999.exe)

 Test job not archived.
 1\1\GINC-NODE54\FOpt\UB3LYP\6-31G(d)\H1O1(2)\RPEVERATI\06-Oct-2020\0\\
 #P Opt(MaxCyc=100) B3LYP/6-31G* 5D 7F Integral=UltraFineGrid SCF=(NoSy
 mm,XQC,MaxCyc=120) IOp(1/33=1)\\TS search on BH76.\\0,2\O,0.,0.,0.1148
 512737\H,0.,0.,-0.8684371934\\Version=ES64L-G16RevA.03\HF=-75.7215427\
 S2=0.751946\S2-1=0.\S2A=0.750002\RMSD=2.873e-09\RMSF=2.320e-07\Dipole=
 0.,0.,-0.6927035\Quadrupole=0.0677065,-0.7784237,0.7107172,0.,0.,0.\PG
 =C*V [C*(H1O1)]\\@


 WE ARE PERHAPS NOT FAR REMOVED FROM THE TIME WHEN WE SHALL BE ABLE TO SUBMIT
 THE BULK OF CHEMICAL PHENOMENA TO CALCULATION.

            -- JOSEPH LOUIS GAY-LUSSAC
               MEMOIRES DE LA SOCIETE D'ARCUEIL, 2, 207 (1808)
 Job cpu time:       0 days  0 hours  2 minutes 16.4 seconds.
 Elapsed time:       0 days  0 hours  0 minutes 29.0 seconds.
 File lengths (MBytes):  RWF=      5 Int=      0 D2E=      0 Chk=      1 Scr=      1
 Normal termination of Gaussian 16 at Tue Oct  6 16:01:17 2020.
