 Entering Gaussian System, Link 0=g16
 Input=MN_95_RKT21_BH76_B3LYP_631Gs.in
 Output=MN_95_RKT21_BH76_B3LYP_631Gs.log
 Initial command:
 /udrive/faculty/rpeverati/g16/g16/l1.exe "/udrive/scratch-directories/gaussian09/rpeverati/Gau-27751.inp" -scrdir="/udrive/scratch-directories/gaussian09/rpeverati/"
 Entering Link 1 = /udrive/faculty/rpeverati/g16/g16/l1.exe PID=     27768.
  
 Copyright (c) 1988,1990,1992,1993,1995,1998,2003,2009,2016,
            Gaussian, Inc.  All Rights Reserved.
  
 This is part of the Gaussian(R) 16 program.  It is based on
 the Gaussian(R) 09 system (copyright 2009, Gaussian, Inc.),
 the Gaussian(R) 03 system (copyright 2003, Gaussian, Inc.),
 the Gaussian(R) 98 system (copyright 1998, Gaussian, Inc.),
 the Gaussian(R) 94 system (copyright 1995, Gaussian, Inc.),
 the Gaussian 92(TM) system (copyright 1992, Gaussian, Inc.),
 the Gaussian 90(TM) system (copyright 1990, Gaussian, Inc.),
 the Gaussian 88(TM) system (copyright 1988, Gaussian, Inc.),
 the Gaussian 86(TM) system (copyright 1986, Carnegie Mellon
 University), and the Gaussian 82(TM) system (copyright 1983,
 Carnegie Mellon University). Gaussian is a federally registered
 trademark of Gaussian, Inc.
  
 This software contains proprietary and confidential information,
 including trade secrets, belonging to Gaussian, Inc.
  
 This software is provided under written license and may be
 used, copied, transmitted, or stored only in accord with that
 written license.
  
 The following legend is applicable only to US Government
 contracts under FAR:
  
                    RESTRICTED RIGHTS LEGEND
  
 Use, reproduction and disclosure by the US Government is
 subject to restrictions as set forth in subparagraphs (a)
 and (c) of the Commercial Computer Software - Restricted
 Rights clause in FAR 52.227-19.
  
 Gaussian, Inc.
 340 Quinnipiac St., Bldg. 40, Wallingford CT 06492
  
  
 ---------------------------------------------------------------
 Warning -- This program may not be used in any manner that
 competes with the business of Gaussian, Inc. or will provide
 assistance to any competitor of Gaussian, Inc.  The licensee
 of this program is prohibited from giving any competitor of
 Gaussian, Inc. access to this program.  By using this program,
 the user acknowledges that Gaussian, Inc. is engaged in the
 business of creating and licensing software in the field of
 computational chemistry and represents and warrants to the
 licensee that it is not a competitor of Gaussian, Inc. and that
 it will not use this program in any manner prohibited above.
 ---------------------------------------------------------------
  

 Cite this work as:
 Gaussian 16, Revision A.03,
 M. J. Frisch, G. W. Trucks, H. B. Schlegel, G. E. Scuseria, 
 M. A. Robb, J. R. Cheeseman, G. Scalmani, V. Barone, 
 G. A. Petersson, H. Nakatsuji, X. Li, M. Caricato, A. V. Marenich, 
 J. Bloino, B. G. Janesko, R. Gomperts, B. Mennucci, H. P. Hratchian, 
 J. V. Ortiz, A. F. Izmaylov, J. L. Sonnenberg, D. Williams-Young, 
 F. Ding, F. Lipparini, F. Egidi, J. Goings, B. Peng, A. Petrone, 
 T. Henderson, D. Ranasinghe, V. G. Zakrzewski, J. Gao, N. Rega, 
 G. Zheng, W. Liang, M. Hada, M. Ehara, K. Toyota, R. Fukuda, 
 J. Hasegawa, M. Ishida, T. Nakajima, Y. Honda, O. Kitao, H. Nakai, 
 T. Vreven, K. Throssell, J. A. Montgomery, Jr., J. E. Peralta, 
 F. Ogliaro, M. J. Bearpark, J. J. Heyd, E. N. Brothers, K. N. Kudin, 
 V. N. Staroverov, T. A. Keith, R. Kobayashi, J. Normand, 
 K. Raghavachari, A. P. Rendell, J. C. Burant, S. S. Iyengar, 
 J. Tomasi, M. Cossi, J. M. Millam, M. Klene, C. Adamo, R. Cammi, 
 J. W. Ochterski, R. L. Martin, K. Morokuma, O. Farkas, 
 J. B. Foresman, and D. J. Fox, Gaussian, Inc., Wallingford CT, 2016.
 
 ******************************************
 Gaussian 16:  ES64L-G16RevA.03 25-Dec-2016
                 6-Oct-2020 
 ******************************************
 %NoSave
 %nproc=12
 Will use up to   12 processors via shared memory.
 %mem=20GB
 %chk=MN_95_RKT21_BH76_B3LYP_631Gs
 ----------------------------------------------------------------------
 #P Opt(TS,MaxCyc=50,NoEigenTest,MaxStep=10,CalcFC) B3LYP/6-31G* 5D 7F 
 Integral=UltraFineGrid SCF=(NoSymm,XQC,MaxCyc=120) IOp(1/33=1)
 ----------------------------------------------------------------------
 1/5=1,6=50,8=10,10=4,11=1,18=20,26=4,33=1,38=1/1,3;
 2/9=110,12=2,17=6,18=5,40=1/2;
 3/5=1,6=6,7=1,8=11,11=2,25=1,30=1,71=2,74=-5,75=-5,140=1/1,2,3;
 4/9=2/1;
 5/5=2,7=120,8=3,13=1,38=5/2,8;
 8/6=4,10=90,11=11/1;
 11/6=1,8=1,9=11,15=111,16=1/1,2,10;
 10/6=1,13=1/2;
 6/7=2,8=2,9=2,10=2,28=1/1;
 7/10=1,18=20,25=1/1,2,3,16;
 1/5=1,6=50,8=10,10=4,11=1,18=20,26=4,33=1/3(2);
 2/9=110/2;
 99//99;
 2/9=110/2;
 3/5=1,6=6,7=1,8=11,11=2,25=1,30=1,71=1,74=-5,75=-5/1,2,3;
 4/5=5,9=2,16=3,69=1/1;
 5/5=2,7=120,8=3,13=1,38=5/2,8;
 7//1,2,3,16;
 1/5=1,6=50,8=10,11=1,18=20,26=4,33=1/3(-5);
 2/9=110/2;
 6/7=2,8=2,9=2,10=2,19=2,28=1/1;
 99/9=1/99;
 Leave Link    1 at Tue Oct  6 16:33:28 2020, MaxMem=  2684354560 cpu:               6.4 elap:               0.6
 (Enter /udrive/faculty/rpeverati/g16/g16/l101.exe)
 ONIOM data not found on unit 2.
 ------------------
 TS search on BH76.
 ------------------
 TstMul:  ICh=     0
 TstMul:  Mul=     2
 TstMul:  ICh=     0
 TstMul:  Mul=     2
 Symbolic Z-matrix:
 Charge =  0 Multiplicity = 2
 C                    -1.26075  -0.00001   0.01229 
 N                     1.31325  -0.00001  -0.13678 
 H                    -1.58399   0.90854  -0.48474 
 H                    -1.46367  -0.00457   1.0773 
 H                    -1.58475  -0.90388  -0.4927 
 H                     0.04311  -0.00006  -0.15169 
 H                     1.48046   0.80558   0.46775 
 H                     1.48056  -0.80552   0.46781 
 
 RdStrC is calling ZToCFu for IStruc=1 NZ=     8.
 PrtBox:  NBox=     1 Levels=  1 BoxLen=    8.00 SMaxX=        5.79
          Shift=            2.994740            1.708090            0.931068
 Box      1 Number                   0 centers from      1 to      8:
 After GenITR:
 ITRead=  0  0  0  0  0  0  0  0
 MicOpt= -1 -1 -1 -1 -1 -1 -1 -1
 Add virtual bond connecting atoms H6         and N2         Dist= 2.40D+00.
 Add virtual bond connecting atoms H6         and C1         Dist= 2.48D+00.
 ITRead=  0  0  0  0  0  0  0  0
 MicOpt= -1 -1 -1 -1 -1 -1 -1 -1
 NAtoms=      8 NQM=        8 NQMF=       0 NMMI=      0 NMMIF=      0
                NMic=       0 NMicF=      0.
                    Isotopes and Nuclear Properties:
 (Nuclear quadrupole moments (NQMom) in fm**2, nuclear magnetic moments (NMagM)
  in nuclear magnetons)

  Atom         1           2           3           4           5           6           7           8
 IAtWgt=          12          14           1           1           1           1           1           1
 AtmWgt=  12.0000000  14.0030740   1.0078250   1.0078250   1.0078250   1.0078250   1.0078250   1.0078250
 NucSpn=           0           2           1           1           1           1           1           1
 AtZEff=   0.0000000   0.0000000   0.0000000   0.0000000   0.0000000   0.0000000   0.0000000   0.0000000
 NQMom=    0.0000000   2.0440000   0.0000000   0.0000000   0.0000000   0.0000000   0.0000000   0.0000000
 NMagM=    0.0000000   0.4037610   2.7928460   2.7928460   2.7928460   2.7928460   2.7928460   2.7928460
 AtZNuc=   6.0000000   7.0000000   1.0000000   1.0000000   1.0000000   1.0000000   1.0000000   1.0000000
 No MM parameters found.
 Leave Link  101 at Tue Oct  6 16:33:29 2020, MaxMem=  2684354560 cpu:              12.9 elap:               1.2
 (Enter /udrive/faculty/rpeverati/g16/g16/l103.exe)

 GradGradGradGradGradGradGradGradGradGradGradGradGradGradGradGradGradGrad
 Berny optimization.
 Optmz: redundant internal coordinate code flag= 1
 Initialization pass.
                           ----------------------------
                           !    Initial Parameters    !
                           ! (Angstroms and Degrees)  !
 --------------------------                            --------------------------
 ! Name  Definition              Value          Derivative Info.                !
 --------------------------------------------------------------------------------
 ! R1    R(1,3)                  1.0849         calculate D2E/DX2 analytically  !
 ! R2    R(1,4)                  1.0842         calculate D2E/DX2 analytically  !
 ! R3    R(1,5)                  1.0849         calculate D2E/DX2 analytically  !
 ! R4    R(1,6)                  1.3141         calculate D2E/DX2 analytically  !
 ! R5    R(2,6)                  1.2702         calculate D2E/DX2 analytically  !
 ! R6    R(2,7)                  1.021          calculate D2E/DX2 analytically  !
 ! R7    R(2,8)                  1.021          calculate D2E/DX2 analytically  !
 ! A1    A(3,1,4)              113.4411         calculate D2E/DX2 analytically  !
 ! A2    A(3,1,5)              113.2966         calculate D2E/DX2 analytically  !
 ! A3    A(3,1,6)              103.7971         calculate D2E/DX2 analytically  !
 ! A4    A(4,1,5)              113.4432         calculate D2E/DX2 analytically  !
 ! A5    A(4,1,6)              107.9558         calculate D2E/DX2 analytically  !
 ! A6    A(5,1,6)              103.7799         calculate D2E/DX2 analytically  !
 ! A7    A(6,2,7)               99.8312         calculate D2E/DX2 analytically  !
 ! A8    A(6,2,8)               99.8326         calculate D2E/DX2 analytically  !
 ! A9    A(7,2,8)              104.1852         calculate D2E/DX2 analytically  !
 ! A10   L(1,6,2,7,-1)         174.868          calculate D2E/DX2 analytically  !
 ! A11   L(1,6,2,7,-2)         170.2166         calculate D2E/DX2 analytically  !
 ! D1    D(3,1,2,7)             66.8187         calculate D2E/DX2 analytically  !
 ! D2    D(3,1,2,8)            172.2587         calculate D2E/DX2 analytically  !
 ! D3    D(4,1,2,7)            -52.9713         calculate D2E/DX2 analytically  !
 ! D4    D(4,1,2,8)             52.4687         calculate D2E/DX2 analytically  !
 ! D5    D(5,1,2,7)           -172.7712         calculate D2E/DX2 analytically  !
 ! D6    D(5,1,2,8)            -67.3312         calculate D2E/DX2 analytically  !
 --------------------------------------------------------------------------------
 Maximum allowed force set to 1.00D+20.
 Trust Radius=1.00D-01 FncErr=1.00D-07 GrdErr=1.00D-06 EigMax=2.50D+02 EigMin=1.00D-04
 Number of steps in this run=     50 maximum allowed number of steps=    100.
 Search for a saddle point of order  1.
 GradGradGradGradGradGradGradGradGradGradGradGradGradGradGradGradGradGrad

 Leave Link  103 at Tue Oct  6 16:33:30 2020, MaxMem=  2684354560 cpu:               1.3 elap:               0.5
 (Enter /udrive/faculty/rpeverati/g16/g16/l202.exe)
                          Input orientation:                          
 ---------------------------------------------------------------------
 Center     Atomic      Atomic             Coordinates (Angstroms)
 Number     Number       Type             X           Y           Z
 ---------------------------------------------------------------------
      1          6           0       -1.260749   -0.000006    0.012291
      2          7           0        1.313254   -0.000005   -0.136782
      3          1           0       -1.583986    0.908539   -0.484744
      4          1           0       -1.463672   -0.004573    1.077304
      5          1           0       -1.584748   -0.903882   -0.492700
      6          1           0        0.043108   -0.000064   -0.151692
      7          1           0        1.480458    0.805577    0.467751
      8          1           0        1.480558   -0.805524    0.467808
 ---------------------------------------------------------------------
                    Distance matrix (angstroms):
                    1          2          3          4          5
     1  C    0.000000
     2  N    2.578316   0.000000
     3  H    1.084887   3.056228   0.000000
     4  H    1.084183   3.030734   1.813352   0.000000
     5  H    1.084889   3.056483   1.812439   1.813375   0.000000
     6  H    1.314128   1.270233   1.893124   1.944438   1.892905
     7  H    2.893203   1.020970   3.210711   3.113808   3.638709
     8  H    2.893289   1.020971   3.638242   3.111512   3.213776
                    6          7          8
     6  H    0.000000
     7  H    1.760324   0.000000
     8  H    1.760344   1.611101   0.000000
 Stoichiometry    CH6N(2)
 Framework group  C1[X(CH6N)]
 Deg. of freedom    18
 Full point group                 C1      NOp   1
 Largest Abelian subgroup         C1      NOp   1
 Largest concise Abelian subgroup C1      NOp   1
                         Standard orientation:                         
 ---------------------------------------------------------------------
 Center     Atomic      Atomic             Coordinates (Angstroms)
 Number     Number       Type             X           Y           Z
 ---------------------------------------------------------------------
      1          6           0       -1.260749   -0.000006    0.012291
      2          7           0        1.313254   -0.000005   -0.136782
      3          1           0       -1.583986    0.908539   -0.484744
      4          1           0       -1.463672   -0.004573    1.077304
      5          1           0       -1.584748   -0.903882   -0.492700
      6          1           0        0.043108   -0.000064   -0.151692
      7          1           0        1.480458    0.805577    0.467752
      8          1           0        1.480558   -0.805524    0.467808
 ---------------------------------------------------------------------
 Rotational constants (GHZ):          95.5988599           8.8451640           8.7471624
 Leave Link  202 at Tue Oct  6 16:33:30 2020, MaxMem=  2684354560 cpu:               1.0 elap:               0.3
 (Enter /udrive/faculty/rpeverati/g16/g16/l301.exe)
 Standard basis: 6-31G(d) (5D, 7F)
 Ernie: Thresh=  0.10000D-02 Tol=  0.10000D-05 Strict=F.
 There are    42 symmetry adapted cartesian basis functions of A   symmetry.
 There are    40 symmetry adapted basis functions of A   symmetry.
    40 basis functions,    80 primitive gaussians,    42 cartesian basis functions
    10 alpha electrons        9 beta electrons
       nuclear repulsion energy        39.4284162792 Hartrees.
 IExCor=  402 DFT=T Ex+Corr=B3LYP ExCW=0 ScaHFX=  0.200000
 ScaDFX=  0.800000  0.720000  1.000000  0.810000 ScalE2=  1.000000  1.000000
 IRadAn=      5 IRanWt=     -1 IRanGd=            0 ICorTp=0 IEmpDi=  4
 NAtoms=    8 NActive=    8 NUniq=    8 SFac= 1.00D+00 NAtFMM=   60 NAOKFM=F Big=F
 Integral buffers will be    131072 words long.
 Raffenetti 2 integral format.
 Two-electron integral symmetry is turned on.
 Leave Link  301 at Tue Oct  6 16:33:31 2020, MaxMem=  2684354560 cpu:               1.4 elap:               0.4
 (Enter /udrive/faculty/rpeverati/g16/g16/l302.exe)
 NPDir=0 NMtPBC=     1 NCelOv=     1 NCel=       1 NClECP=     1 NCelD=      1
         NCelK=      1 NCelE2=     1 NClLst=     1 CellRange=     0.0.
 One-electron integrals computed using PRISM.
 One-electron integral symmetry used in STVInt
 NBasis=    40 RedAO= T EigKep=  8.43D-03  NBF=    40
 NBsUse=    40 1.00D-06 EigRej= -1.00D+00 NBFU=    40
 Precomputing XC quadrature grid using
 IXCGrd= 4 IRadAn=           5 IRanWt=          -1 IRanGd=           0 AccXCQ= 0.00D+00.
 Generated NRdTot=       0 NPtTot=           0 NUsed=           0 NTot=          32
 NSgBfM=    42    42    42    42    42 MxSgAt=     8 MxSgA2=     8.
 Leave Link  302 at Tue Oct  6 16:33:32 2020, MaxMem=  2684354560 cpu:               3.6 elap:               0.6
 (Enter /udrive/faculty/rpeverati/g16/g16/l303.exe)
 DipDrv:  MaxL=1.
 Leave Link  303 at Tue Oct  6 16:33:32 2020, MaxMem=  2684354560 cpu:               1.0 elap:               0.3
 (Enter /udrive/faculty/rpeverati/g16/g16/l401.exe)
 SCF N**3 symmetry information disabled.
 ExpMin= 1.61D-01 ExpMax= 4.17D+03 ExpMxC= 6.27D+02 IAcc=3 IRadAn=         5 AccDes= 0.00D+00
 Harris functional with IExCor=  402 and IRadAn=       5 diagonalized for initial guess.
 HarFok:  IExCor=  402 AccDes= 0.00D+00 IRadAn=         5 IDoV= 1 UseB2=F ITyADJ=14
 ICtDFT=  3500011 ScaDFX=  1.000000  1.000000  1.000000  1.000000
 FoFCou: FMM=F IPFlag=           0 FMFlag=      100000 FMFlg1=           0
         NFxFlg=           0 DoJE=T BraDBF=F KetDBF=T FulRan=T
         wScrn=  0.000000 ICntrl=       500 IOpCl=  0 I1Cent=   200000004 NGrid=           0
         NMat0=    1 NMatS0=      1 NMatT0=    0 NMatD0=    1 NMtDS0=    0 NMtDT0=    0
 Petite list used in FoFCou.
 Harris En= -96.3842848768653    
 JPrj=0 DoOrth=F DoCkMO=F.
 Initial guess <Sx>= 0.0000 <Sy>= 0.0000 <Sz>= 0.5000 <S**2>= 0.7500 S= 0.5000
 Leave Link  401 at Tue Oct  6 16:33:33 2020, MaxMem=  2684354560 cpu:               6.3 elap:               0.8
 (Enter /udrive/faculty/rpeverati/g16/g16/l502.exe)
 Keep R1 and R2 ints in memory in canonical form, NReq=11031764.
 FoFCou: FMM=F IPFlag=           0 FMFlag=           0 FMFlg1=           0
         NFxFlg=           0 DoJE=F BraDBF=F KetDBF=F FulRan=T
         wScrn=  0.000000 ICntrl=       600 IOpCl=  0 I1Cent=           0 NGrid=           0
         NMat0=    1 NMatS0=    820 NMatT0=    0 NMatD0=    1 NMtDS0=    0 NMtDT0=    0
 Symmetry not used in FoFCou.
 Two-electron integral symmetry not used.
 UHF open shell SCF:
 Using DIIS extrapolation, IDIIS=  1040.
 NGot=  2684354560 LenX=  2683676576 LenY=  2683674371
 Requested convergence on RMS density matrix=1.00D-08 within 120 cycles.
 Requested convergence on MAX density matrix=1.00D-06.
 Requested convergence on             energy=1.00D-06.
 No special actions if energy rises.
 Integral accuracy reduced to 1.0D-05 until final iterations.

 Cycle   1  Pass 0  IDiag  1:
 E= -96.2677770573040    
 DIIS: error= 5.64D-02 at cycle   1 NSaved=   1.
 NSaved= 1 IEnMin= 1 EnMin= -96.2677770573040     IErMin= 1 ErrMin= 5.64D-02
 ErrMax= 5.64D-02  0.00D+00 EMaxC= 1.00D-01 BMatC= 3.76D-01 BMatP= 3.76D-01
 IDIUse=3 WtCom= 4.36D-01 WtEn= 5.64D-01
 Coeff-Com:  0.100D+01
 Coeff-En:   0.100D+01
 Coeff:      0.100D+01
 Gap=     0.214 Goal=   None    Shift=    0.000
 Gap=     0.193 Goal=   None    Shift=    0.000
 GapD=    0.193 DampG=1.000 DampE=0.500 DampFc=0.5000 IDamp=-1.
 Damping current iteration by 5.00D-01
 RMSDP=1.60D-02 MaxDP=1.46D-01              OVMax= 1.58D-01

 Cycle   2  Pass 0  IDiag  1:
 E= -96.3153422913410     Delta-E=       -0.047565234037 Rises=F Damp=T
 DIIS: error= 7.50D-03 at cycle   2 NSaved=   2.
 NSaved= 2 IEnMin= 2 EnMin= -96.3153422913410     IErMin= 2 ErrMin= 7.50D-03
 ErrMax= 7.50D-03  0.00D+00 EMaxC= 1.00D-01 BMatC= 9.04D-03 BMatP= 3.76D-01
 IDIUse=3 WtCom= 9.25D-01 WtEn= 7.50D-02
 Coeff-Com:  0.565D-01 0.944D+00
 Coeff-En:   0.696D-01 0.930D+00
 Coeff:      0.575D-01 0.943D+00
 Gap=     0.299 Goal=   None    Shift=    0.000
 Gap=     0.181 Goal=   None    Shift=    0.000
 RMSDP=2.12D-03 MaxDP=2.05D-02 DE=-4.76D-02 OVMax= 7.99D-02

 Cycle   3  Pass 0  IDiag  1:
 E= -96.3688280029431     Delta-E=       -0.053485711602 Rises=F Damp=F
 DIIS: error= 4.27D-03 at cycle   3 NSaved=   3.
 NSaved= 3 IEnMin= 3 EnMin= -96.3688280029431     IErMin= 3 ErrMin= 4.27D-03
 ErrMax= 4.27D-03  0.00D+00 EMaxC= 1.00D-01 BMatC= 1.88D-03 BMatP= 9.04D-03
 IDIUse=3 WtCom= 9.57D-01 WtEn= 4.27D-02
 Coeff-Com:  0.923D-02 0.221D+00 0.769D+00
 Coeff-En:   0.000D+00 0.000D+00 0.100D+01
 Coeff:      0.884D-02 0.212D+00 0.779D+00
 Gap=     0.307 Goal=   None    Shift=    0.000
 Gap=     0.174 Goal=   None    Shift=    0.000
 RMSDP=1.01D-03 MaxDP=1.14D-02 DE=-5.35D-02 OVMax= 2.09D-02

 Cycle   4  Pass 0  IDiag  1:
 E= -96.3688190231779     Delta-E=        0.000008979765 Rises=F Damp=F
 DIIS: error= 5.46D-03 at cycle   4 NSaved=   4.
 NSaved= 4 IEnMin= 3 EnMin= -96.3688280029431     IErMin= 3 ErrMin= 4.27D-03
 ErrMax= 5.46D-03  0.00D+00 EMaxC= 1.00D-01 BMatC= 2.25D-03 BMatP= 1.88D-03
 IDIUse=3 WtCom= 1.19D-01 WtEn= 8.81D-01
 Coeff-Com: -0.113D-02-0.304D-01 0.532D+00 0.500D+00
 Coeff-En:   0.000D+00 0.000D+00 0.504D+00 0.496D+00
 Coeff:     -0.135D-03-0.362D-02 0.507D+00 0.497D+00
 Gap=     0.307 Goal=   None    Shift=    0.000
 Gap=     0.180 Goal=   None    Shift=    0.000
 RMSDP=6.16D-04 MaxDP=6.81D-03 DE= 8.98D-06 OVMax= 1.41D-02

 Cycle   5  Pass 0  IDiag  1:
 E= -96.3693867156324     Delta-E=       -0.000567692455 Rises=F Damp=F
 DIIS: error= 5.94D-04 at cycle   5 NSaved=   5.
 NSaved= 5 IEnMin= 5 EnMin= -96.3693867156324     IErMin= 5 ErrMin= 5.94D-04
 ErrMax= 5.94D-04  0.00D+00 EMaxC= 1.00D-01 BMatC= 4.37D-05 BMatP= 1.88D-03
 IDIUse=3 WtCom= 9.94D-01 WtEn= 5.94D-03
 Coeff-Com: -0.209D-02-0.249D-01 0.159D-01 0.117D+00 0.894D+00
 Coeff-En:   0.000D+00 0.000D+00 0.000D+00 0.000D+00 0.100D+01
 Coeff:     -0.207D-02-0.247D-01 0.158D-01 0.116D+00 0.895D+00
 Gap=     0.308 Goal=   None    Shift=    0.000
 Gap=     0.180 Goal=   None    Shift=    0.000
 RMSDP=1.04D-04 MaxDP=1.29D-03 DE=-5.68D-04 OVMax= 2.21D-03

 Cycle   6  Pass 0  IDiag  1:
 E= -96.3694020760961     Delta-E=       -0.000015360464 Rises=F Damp=F
 DIIS: error= 1.56D-04 at cycle   6 NSaved=   6.
 NSaved= 6 IEnMin= 6 EnMin= -96.3694020760961     IErMin= 6 ErrMin= 1.56D-04
 ErrMax= 1.56D-04  0.00D+00 EMaxC= 1.00D-01 BMatC= 2.51D-06 BMatP= 4.37D-05
 IDIUse=3 WtCom= 9.98D-01 WtEn= 1.56D-03
 Coeff-Com: -0.461D-03 0.259D-02-0.706D-01-0.577D-01 0.915D-01 0.103D+01
 Coeff-En:   0.000D+00 0.000D+00 0.000D+00 0.000D+00 0.000D+00 0.100D+01
 Coeff:     -0.460D-03 0.259D-02-0.705D-01-0.577D-01 0.914D-01 0.103D+01
 Gap=     0.308 Goal=   None    Shift=    0.000
 Gap=     0.180 Goal=   None    Shift=    0.000
 RMSDP=3.91D-05 MaxDP=3.93D-04 DE=-1.54D-05 OVMax= 7.58D-04

 Cycle   7  Pass 0  IDiag  1:
 E= -96.3694034236898     Delta-E=       -0.000001347594 Rises=F Damp=F
 DIIS: error= 2.87D-05 at cycle   7 NSaved=   7.
 NSaved= 7 IEnMin= 7 EnMin= -96.3694034236898     IErMin= 7 ErrMin= 2.87D-05
 ErrMax= 2.87D-05  0.00D+00 EMaxC= 1.00D-01 BMatC= 9.15D-08 BMatP= 2.51D-06
 IDIUse=1 WtCom= 1.00D+00 WtEn= 0.00D+00
 Coeff-Com:  0.380D-04 0.116D-02-0.364D-02-0.461D-02-0.324D-01 0.526D-01
 Coeff-Com:  0.987D+00
 Coeff:      0.380D-04 0.116D-02-0.364D-02-0.461D-02-0.324D-01 0.526D-01
 Coeff:      0.987D+00
 Gap=     0.308 Goal=   None    Shift=    0.000
 Gap=     0.180 Goal=   None    Shift=    0.000
 RMSDP=7.03D-06 MaxDP=5.77D-05 DE=-1.35D-06 OVMax= 1.06D-04

 Initial convergence to 1.0D-05 achieved.  Increase integral accuracy.
 Cycle   8  Pass 1  IDiag  1:
 E= -96.3694027466777     Delta-E=        0.000000677012 Rises=F Damp=F
 DIIS: error= 7.68D-06 at cycle   1 NSaved=   1.
 NSaved= 1 IEnMin= 1 EnMin= -96.3694027466777     IErMin= 1 ErrMin= 7.68D-06
 ErrMax= 7.68D-06  0.00D+00 EMaxC= 1.00D-01 BMatC= 6.62D-09 BMatP= 6.62D-09
 IDIUse=1 WtCom= 1.00D+00 WtEn= 0.00D+00
 Coeff-Com:  0.100D+01
 Coeff:      0.100D+01
 Gap=     0.308 Goal=   None    Shift=    0.000
 Gap=     0.180 Goal=   None    Shift=    0.000
 RMSDP=7.03D-06 MaxDP=5.77D-05 DE= 6.77D-07 OVMax= 7.31D-05

 Cycle   9  Pass 1  IDiag  1:
 E= -96.3694027514243     Delta-E=       -0.000000004747 Rises=F Damp=F
 DIIS: error= 3.33D-06 at cycle   2 NSaved=   2.
 NSaved= 2 IEnMin= 2 EnMin= -96.3694027514243     IErMin= 2 ErrMin= 3.33D-06
 ErrMax= 3.33D-06  0.00D+00 EMaxC= 1.00D-01 BMatC= 1.46D-09 BMatP= 6.62D-09
 IDIUse=1 WtCom= 1.00D+00 WtEn= 0.00D+00
 Coeff-Com:  0.112D+00 0.888D+00
 Coeff:      0.112D+00 0.888D+00
 Gap=     0.308 Goal=   None    Shift=    0.000
 Gap=     0.180 Goal=   None    Shift=    0.000
 RMSDP=9.94D-07 MaxDP=1.09D-05 DE=-4.75D-09 OVMax= 3.59D-05

 Cycle  10  Pass 1  IDiag  1:
 E= -96.3694027521817     Delta-E=       -0.000000000757 Rises=F Damp=F
 DIIS: error= 3.01D-06 at cycle   3 NSaved=   3.
 NSaved= 3 IEnMin= 3 EnMin= -96.3694027521817     IErMin= 3 ErrMin= 3.01D-06
 ErrMax= 3.01D-06  0.00D+00 EMaxC= 1.00D-01 BMatC= 8.92D-10 BMatP= 1.46D-09
 IDIUse=1 WtCom= 1.00D+00 WtEn= 0.00D+00
 Coeff-Com: -0.169D+00 0.395D+00 0.774D+00
 Coeff:     -0.169D+00 0.395D+00 0.774D+00
 Gap=     0.308 Goal=   None    Shift=    0.000
 Gap=     0.180 Goal=   None    Shift=    0.000
 RMSDP=7.30D-07 MaxDP=7.31D-06 DE=-7.57D-10 OVMax= 1.12D-05

 Cycle  11  Pass 1  IDiag  1:
 E= -96.3694027524867     Delta-E=       -0.000000000305 Rises=F Damp=F
 DIIS: error= 1.86D-06 at cycle   4 NSaved=   4.
 NSaved= 4 IEnMin= 4 EnMin= -96.3694027524867     IErMin= 4 ErrMin= 1.86D-06
 ErrMax= 1.86D-06  0.00D+00 EMaxC= 1.00D-01 BMatC= 3.15D-10 BMatP= 8.92D-10
 IDIUse=1 WtCom= 1.00D+00 WtEn= 0.00D+00
 Coeff-Com: -0.121D+00-0.146D-01 0.486D+00 0.650D+00
 Coeff:     -0.121D+00-0.146D-01 0.486D+00 0.650D+00
 Gap=     0.308 Goal=   None    Shift=    0.000
 Gap=     0.180 Goal=   None    Shift=    0.000
 RMSDP=3.55D-07 MaxDP=3.81D-06 DE=-3.05D-10 OVMax= 1.47D-05

 Cycle  12  Pass 1  IDiag  1:
 E= -96.3694027525981     Delta-E=       -0.000000000111 Rises=F Damp=F
 DIIS: error= 4.41D-07 at cycle   5 NSaved=   5.
 NSaved= 5 IEnMin= 5 EnMin= -96.3694027525981     IErMin= 5 ErrMin= 4.41D-07
 ErrMax= 4.41D-07  0.00D+00 EMaxC= 1.00D-01 BMatC= 2.10D-11 BMatP= 3.15D-10
 IDIUse=1 WtCom= 1.00D+00 WtEn= 0.00D+00
 Coeff-Com: -0.472D-01-0.328D-01 0.180D+00 0.320D+00 0.580D+00
 Coeff:     -0.472D-01-0.328D-01 0.180D+00 0.320D+00 0.580D+00
 Gap=     0.308 Goal=   None    Shift=    0.000
 Gap=     0.180 Goal=   None    Shift=    0.000
 RMSDP=6.70D-08 MaxDP=5.86D-07 DE=-1.11D-10 OVMax= 1.67D-06

 Cycle  13  Pass 1  IDiag  1:
 E= -96.3694027526041     Delta-E=       -0.000000000006 Rises=F Damp=F
 DIIS: error= 9.59D-08 at cycle   6 NSaved=   6.
 NSaved= 6 IEnMin= 6 EnMin= -96.3694027526041     IErMin= 6 ErrMin= 9.59D-08
 ErrMax= 9.59D-08  0.00D+00 EMaxC= 1.00D-01 BMatC= 1.39D-12 BMatP= 2.10D-11
 IDIUse=1 WtCom= 1.00D+00 WtEn= 0.00D+00
 Coeff-Com:  0.283D-01-0.972D-03-0.118D+00-0.114D+00 0.121D-01 0.119D+01
 Coeff:      0.283D-01-0.972D-03-0.118D+00-0.114D+00 0.121D-01 0.119D+01
 Gap=     0.308 Goal=   None    Shift=    0.000
 Gap=     0.180 Goal=   None    Shift=    0.000
 RMSDP=4.60D-08 MaxDP=4.93D-07 DE=-6.03D-12 OVMax= 1.63D-06

 Cycle  14  Pass 1  IDiag  1:
 E= -96.3694027526050     Delta-E=       -0.000000000001 Rises=F Damp=F
 DIIS: error= 3.11D-08 at cycle   7 NSaved=   7.
 NSaved= 7 IEnMin= 7 EnMin= -96.3694027526050     IErMin= 7 ErrMin= 3.11D-08
 ErrMax= 3.11D-08  0.00D+00 EMaxC= 1.00D-01 BMatC= 7.60D-14 BMatP= 1.39D-12
 IDIUse=1 WtCom= 1.00D+00 WtEn= 0.00D+00
 Coeff-Com:  0.670D-02 0.168D-02-0.278D-01-0.253D-01-0.277D-01 0.191D+00
 Coeff-Com:  0.881D+00
 Coeff:      0.670D-02 0.168D-02-0.278D-01-0.253D-01-0.277D-01 0.191D+00
 Coeff:      0.881D+00
 Gap=     0.308 Goal=   None    Shift=    0.000
 Gap=     0.180 Goal=   None    Shift=    0.000
 RMSDP=7.60D-09 MaxDP=7.30D-08 DE=-8.81D-13 OVMax= 2.21D-07

 SCF Done:  E(UB3LYP) =  -96.3694027526     A.U. after   14 cycles
            NFock= 14  Conv=0.76D-08     -V/T= 2.0054
 <Sx>= 0.0000 <Sy>= 0.0000 <Sz>= 0.5000 <S**2>= 0.7573 S= 0.5037
 <L.S>= 0.000000000000E+00
 KE= 9.585187183676D+01 PE=-3.027975013153D+02 EE= 7.114781044675D+01
 Annihilation of the first spin contaminant:
 S**2 before annihilation     0.7573,   after     0.7500
 Leave Link  502 at Tue Oct  6 16:33:37 2020, MaxMem=  2684354560 cpu:              33.2 elap:               3.0
 (Enter /udrive/faculty/rpeverati/g16/g16/l508.exe)
 QCSCF skips out because SCF is already converged.
 Leave Link  508 at Tue Oct  6 16:33:37 2020, MaxMem=  2684354560 cpu:               0.2 elap:               0.2
 (Enter /udrive/faculty/rpeverati/g16/g16/l801.exe)
 DoSCS=F DFT=T ScalE2(SS,OS)=  1.000000  1.000000
 Range of M.O.s used for correlation:     1    40
 NBasis=    40 NAE=    10 NBE=     9 NFC=     0 NFV=     0
 NROrb=     40 NOA=    10 NOB=     9 NVA=    30 NVB=    31
 Leave Link  801 at Tue Oct  6 16:33:38 2020, MaxMem=  2684354560 cpu:               1.1 elap:               0.3
 (Enter /udrive/faculty/rpeverati/g16/g16/l1101.exe)
 Using compressed storage, NAtomX=     8.
 Will process      9 centers per pass.
 Leave Link 1101 at Tue Oct  6 16:33:38 2020, MaxMem=  2684354560 cpu:               3.5 elap:               0.5
 (Enter /udrive/faculty/rpeverati/g16/g16/l1102.exe)
 Symmetrizing basis deriv contribution to polar:
 IMax=3 JMax=2 DiffMx= 0.00D+00
 Leave Link 1102 at Tue Oct  6 16:33:39 2020, MaxMem=  2684354560 cpu:               0.8 elap:               0.3
 (Enter /udrive/faculty/rpeverati/g16/g16/l1110.exe)
 Forming Gx(P) for the SCF density, NAtomX=     8.
 Integral derivatives from FoFJK, PRISM(SPDF).
 Do as many integral derivatives as possible in FoFJK.
 G2DrvN: MDV=    2684353848.
 G2DrvN: will do     9 centers at a time, making    1 passes.
 Calling FoFCou, ICntrl=  3107 FMM=F I1Cent=   0 AccDes= 0.00D+00.
 FoFJK:  IHMeth= 1 ICntrl=    3107 DoSepK=F KAlg= 0 I1Cent=           0 FoldK=F
 IRaf=         0 NMat=       1 IRICut=       1 DoRegI=T DoRafI=F ISym2E= 0 IDoP0=0 IntGTp=1.
 FoFCou: FMM=F IPFlag=           0 FMFlag=      100000 FMFlg1=           0
         NFxFlg=           0 DoJE=F BraDBF=F KetDBF=F FulRan=T
         wScrn=  0.000000 ICntrl=      3107 IOpCl=  1 I1Cent=           0 NGrid=           0
         NMat0=    1 NMatS0=      1 NMatT0=    0 NMatD0=    1 NMtDS0=    0 NMtDT0=    0
 Symmetry not used in FoFCou.
 End of G2Drv F.D. properties file   721 does not exist.
 End of G2Drv F.D. properties file   722 does not exist.
 End of G2Drv F.D. properties file   788 does not exist.
 Leave Link 1110 at Tue Oct  6 16:33:43 2020, MaxMem=  2684354560 cpu:              45.3 elap:               4.1
 (Enter /udrive/faculty/rpeverati/g16/g16/l1002.exe)
 Minotr:  UHF open shell wavefunction.
          IDoAtm=11111111
          Direct CPHF calculation.
          Differentiating once with respect to nuclear coordinates.
          Requested convergence is 1.0D-08 RMS, and 1.0D-07 maximum.
          Secondary convergence is 1.0D-12 RMS, and 1.0D-12 maximum.
          NewPWx=T KeepS1=F KeepF1=F KeepIn=T MapXYZ=F SortEE=F KeepMc=T.
         2357 words used for storage of precomputed grid.
 Keep R1 and R2 ints in memory in canonical form, NReq=10997107.
 FoFCou: FMM=F IPFlag=           0 FMFlag=           0 FMFlg1=           0
         NFxFlg=           0 DoJE=F BraDBF=F KetDBF=F FulRan=T
         wScrn=  0.000000 ICntrl=       600 IOpCl=  0 I1Cent=           0 NGrid=           0
         NMat0=    1 NMatS0=    820 NMatT0=    0 NMatD0=    1 NMtDS0=    0 NMtDT0=    0
 Symmetry not used in FoFCou.
 Two-electron integral symmetry not used.
          MDV=    2684354560 using IRadAn=       1.
          Solving linear equations simultaneously, MaxMat=       0.
          There are    27 degrees of freedom in the 1st order CPHF.  IDoFFX=6 NUNeed=     0.
     21 vectors produced by pass  0 Test12= 2.14D-15 3.70D-09 XBig12= 1.84D-01 2.07D-01.
 AX will form    21 AO Fock derivatives at one time.
     21 vectors produced by pass  1 Test12= 2.14D-15 3.70D-09 XBig12= 1.20D-02 6.09D-02.
     21 vectors produced by pass  2 Test12= 2.14D-15 3.70D-09 XBig12= 1.51D-04 3.30D-03.
     21 vectors produced by pass  3 Test12= 2.14D-15 3.70D-09 XBig12= 1.62D-06 3.15D-04.
     21 vectors produced by pass  4 Test12= 2.14D-15 3.70D-09 XBig12= 1.36D-08 2.88D-05.
     19 vectors produced by pass  5 Test12= 2.14D-15 3.70D-09 XBig12= 4.30D-11 1.39D-06.
      3 vectors produced by pass  6 Test12= 2.14D-15 3.70D-09 XBig12= 5.05D-14 3.78D-08.
 InvSVY:  IOpt=1 It=  1 EMax= 2.11D-15
 Solved reduced A of dimension   127 with    21 vectors.
 End of Minotr F.D. properties file   721 does not exist.
 End of Minotr F.D. properties file   722 does not exist.
 End of Minotr F.D. properties file   788 does not exist.
 Leave Link 1002 at Tue Oct  6 16:33:48 2020, MaxMem=  2684354560 cpu:              48.1 elap:               4.3
 (Enter /udrive/faculty/rpeverati/g16/g16/l601.exe)
 Copying SCF densities to generalized density rwf, IOpCl= 1 IROHF=0.

 **********************************************************************

            Population analysis using the SCF density.

 **********************************************************************

 Orbital symmetries:
 Alpha Orbitals:
       Occupied  (A) (A) (A) (A) (A) (A) (A) (A) (A) (A)
       Virtual   (A) (A) (A) (A) (A) (A) (A) (A) (A) (A) (A) (A)
                 (A) (A) (A) (A) (A) (A) (A) (A) (A) (A) (A) (A)
                 (A) (A) (A) (A) (A) (A)
 Beta  Orbitals:
       Occupied  (A) (A) (A) (A) (A) (A) (A) (A) (A)
       Virtual   (A) (A) (A) (A) (A) (A) (A) (A) (A) (A) (A) (A)
                 (A) (A) (A) (A) (A) (A) (A) (A) (A) (A) (A) (A)
                 (A) (A) (A) (A) (A) (A) (A)
 The electronic state is 2-A.
 Alpha  occ. eigenvalues --  -14.32366 -10.17490  -0.85297  -0.69565  -0.46258
 Alpha  occ. eigenvalues --   -0.44536  -0.40922  -0.40737  -0.29361  -0.22333
 Alpha virt. eigenvalues --    0.08453   0.13301   0.15956   0.17239   0.17670
 Alpha virt. eigenvalues --    0.29985   0.50413   0.51399   0.55630   0.71137
 Alpha virt. eigenvalues --    0.72748   0.73235   0.89155   0.89270   0.89930
 Alpha virt. eigenvalues --    0.91074   0.94327   0.98151   1.23233   1.46537
 Alpha virt. eigenvalues --    1.64131   1.65577   1.66912   1.68542   1.82883
 Alpha virt. eigenvalues --    2.04280   2.22902   2.23635   2.39443   2.41491
  Beta  occ. eigenvalues --  -14.31104 -10.16608  -0.82091  -0.67362  -0.45411
  Beta  occ. eigenvalues --   -0.41157  -0.40111  -0.39964  -0.26777
  Beta virt. eigenvalues --   -0.08765   0.09130   0.13984   0.16391   0.17785
  Beta virt. eigenvalues --    0.18197   0.32031   0.50712   0.51950   0.59626
  Beta virt. eigenvalues --    0.72931   0.73239   0.75815   0.89558   0.89982
  Beta virt. eigenvalues --    0.90559   0.91710   0.95859   0.98911   1.24750
  Beta virt. eigenvalues --    1.48355   1.67245   1.68397   1.70790   1.70962
  Beta virt. eigenvalues --    1.85967   2.07412   2.24280   2.24937   2.42187
  Beta virt. eigenvalues --    2.43160
          Condensed to atoms (all electrons):
               1          2          3          4          5          6
     1  C    5.413135  -0.114231   0.369256   0.364822   0.369271   0.200097
     2  N   -0.114231   7.147701   0.001500   0.000942   0.001496   0.165199
     3  H    0.369256   0.001500   0.518138  -0.026617  -0.024907  -0.011637
     4  H    0.364822   0.000942  -0.026617   0.538000  -0.026617  -0.012872
     5  H    0.369271   0.001496  -0.024907  -0.026617   0.518044  -0.011632
     6  H    0.200097   0.165199  -0.011637  -0.012872  -0.011632   0.453327
     7  H    0.011941   0.276209  -0.000367  -0.000538   0.000086  -0.028555
     8  H    0.011939   0.276207   0.000085  -0.000542  -0.000362  -0.028550
               7          8
     1  C    0.011941   0.011939
     2  N    0.276209   0.276207
     3  H   -0.000367   0.000085
     4  H   -0.000538  -0.000542
     5  H    0.000086  -0.000362
     6  H   -0.028555  -0.028550
     7  H    0.472403  -0.028197
     8  H   -0.028197   0.472401
          Atomic-Atomic Spin Densities.
               1          2          3          4          5          6
     1  C    0.692138  -0.127923  -0.017934  -0.013465  -0.017959   0.028664
     2  N   -0.127923   0.788143   0.004218   0.003694   0.004221  -0.035423
     3  H   -0.017934   0.004218  -0.008577   0.002975   0.003784   0.001181
     4  H   -0.013465   0.003694   0.002975  -0.015979   0.002979   0.002126
     5  H   -0.017959   0.004221   0.003784   0.002979  -0.008531   0.001174
     6  H    0.028664  -0.035423   0.001181   0.002126   0.001174  -0.088024
     7  H    0.005709  -0.013550  -0.000267  -0.000232  -0.000123   0.003150
     8  H    0.005709  -0.013551  -0.000123  -0.000233  -0.000266   0.003150
               7          8
     1  C    0.005709   0.005709
     2  N   -0.013550  -0.013551
     3  H   -0.000267  -0.000123
     4  H   -0.000232  -0.000233
     5  H   -0.000123  -0.000266
     6  H    0.003150   0.003150
     7  H   -0.014978   0.003708
     8  H    0.003708  -0.014976
 Mulliken charges and spin densities:
               1          2
     1  C   -0.626230   0.554940
     2  N   -0.755023   0.609830
     3  H    0.174550  -0.014744
     4  H    0.163422  -0.018137
     5  H    0.174622  -0.014721
     6  H    0.274623  -0.084003
     7  H    0.297018  -0.016583
     8  H    0.297018  -0.016583
 Sum of Mulliken charges =  -0.00000   1.00000
 Mulliken charges and spin densities with hydrogens summed into heavy atoms:
               1          2
     1  C   -0.113636   0.507338
     2  N    0.113636   0.492662
 APT charges:
               1
     1  C   -1.271245
     2  N   -1.082327
     3  H    0.399219
     4  H    0.371196
     5  H    0.399408
     6  H    0.256518
     7  H    0.463607
     8  H    0.463625
 Sum of APT charges =  -0.00000
 APT charges with hydrogens summed into heavy atoms:
               1
     1  C   -0.101422
     2  N    0.101422
 Electronic spatial extent (au):  <R**2>=            170.4520
 Charge=              0.0000 electrons
 Dipole moment (field-independent basis, Debye):
    X=             -0.5345    Y=              0.0001    Z=              1.7230  Tot=              1.8040
 Quadrupole moment (field-independent basis, Debye-Ang):
   XX=            -16.0530   YY=            -13.5580   ZZ=            -15.5511
   XY=              0.0001   XZ=              3.0027   YZ=              0.0002
 Traceless Quadrupole moment (field-independent basis, Debye-Ang):
   XX=             -0.9989   YY=              1.4960   ZZ=             -0.4971
   XY=              0.0001   XZ=              3.0027   YZ=              0.0002
 Octapole moment (field-independent basis, Debye-Ang**2):
  XXX=              2.4975  YYY=              0.0089  ZZZ=              2.2445  XYY=              2.0511
  XXY=             -0.0005  XXZ=              4.3560  XZZ=             -0.5715  YZZ=             -0.0086
  YYZ=              0.3997  XYZ=             -0.0013
 Hexadecapole moment (field-independent basis, Debye-Ang**3):
 XXXX=           -181.2832 YYYY=            -23.9521 ZZZZ=            -24.3523 XXXY=              0.0007
 XXXZ=              8.9181 YYYX=             -0.0143 YYYZ=              0.0007 ZZZX=              1.6714
 ZZZY=             -0.0004 XXYY=            -28.9564 XXZZ=            -33.2458 YYZZ=             -7.8569
 XXYZ=              0.0032 YYXZ=              2.8367 ZZXY=              0.0143
 N-N= 3.942841627920D+01 E-N=-3.027975009010D+02  KE= 9.585187183676D+01
  Exact polarizability:   0.000   0.000   0.000   0.000   0.000   0.000
 Approx polarizability:  50.606  -0.000  26.564  -0.586   0.000  23.124
                          Isotropic Fermi Contact Couplings
        Atom                 a.u.       MegaHertz       Gauss      10(-4) cm-1
     1  C(13)              0.18164     204.19749      72.86274      68.11295
     2  N(14)              0.10826      34.97859      12.48123      11.66760
     3  H(1)              -0.00448     -20.00619      -7.13871      -6.67335
     4  H(1)              -0.00581     -25.97335      -9.26794      -8.66378
     5  H(1)              -0.00447     -19.96678      -7.12464      -6.66020
     6  H(1)              -0.02972    -132.83174     -47.39767     -44.30790
     7  H(1)              -0.00845     -37.77549     -13.47923     -12.60055
     8  H(1)              -0.00845     -37.77506     -13.47908     -12.60040
 --------------------------------------------------------
       Center         ----  Spin Dipole Couplings  ----
                      3XX-RR        3YY-RR        3ZZ-RR
 --------------------------------------------------------
     1   Atom        0.594337     -0.299500     -0.294837
     2   Atom        1.283418     -0.676783     -0.606636
     3   Atom        0.002533      0.018393     -0.020925
     4   Atom        0.000039     -0.038084      0.038045
     5   Atom        0.002552      0.017822     -0.020374
     6   Atom        0.230879     -0.117305     -0.113574
     7   Atom       -0.010481      0.028364     -0.017883
     8   Atom       -0.010476      0.028349     -0.017873
 --------------------------------------------------------
                        XY            XZ            YZ
 --------------------------------------------------------
     1   Atom       -0.000067     -0.057122     -0.000003
     2   Atom        0.000099     -0.409149     -0.000020
     3   Atom       -0.016937      0.006816     -0.031029
     4   Atom        0.000054     -0.015655     -0.000325
     5   Atom        0.016883      0.006986      0.031368
     6   Atom        0.000003     -0.005508     -0.000001
     7   Atom        0.022947      0.007020      0.065264
     8   Atom       -0.022951      0.007029     -0.065266
 --------------------------------------------------------


 ---------------------------------------------------------------------------------
              Anisotropic Spin Dipole Couplings in Principal Axis System
 ---------------------------------------------------------------------------------

       Atom             a.u.   MegaHertz   Gauss  10(-4) cm-1        Axes

              Baa    -0.2995   -40.190   -14.341   -13.406  0.0005  1.0000  0.0073
     1 C(13)  Bbb    -0.2985   -40.055   -14.293   -13.361  0.0638 -0.0073  0.9979
              Bcc     0.5980    80.245    28.633    26.767  0.9980 -0.0001 -0.0638
 
              Baa    -0.6914   -26.666    -9.515    -8.895  0.2029 -0.0000  0.9792
     2 N(14)  Bbb    -0.6768   -26.102    -9.314    -8.707 -0.0000  1.0000  0.0000
              Bcc     1.3682    52.768    18.829    17.601  0.9792  0.0000 -0.2029
 
              Baa    -0.0381   -20.345    -7.260    -6.786  0.0605  0.4942  0.8672
     3 H(1)   Bbb    -0.0054    -2.863    -1.021    -0.955  0.9123  0.3252 -0.2489
              Bcc     0.0435    23.208     8.281     7.741 -0.4051  0.8062 -0.4312
 
              Baa    -0.0381   -20.321    -7.251    -6.778  0.0004  1.0000  0.0043
     4 H(1)   Bbb    -0.0056    -2.977    -1.062    -0.993  0.9412 -0.0018  0.3378
              Bcc     0.0437    23.298     8.313     7.771 -0.3378 -0.0040  0.9412
 
              Baa    -0.0381   -20.346    -7.260    -6.787  0.0601 -0.5019  0.8629
     5 H(1)   Bbb    -0.0054    -2.863    -1.021    -0.955  0.9121 -0.3236 -0.2517
              Bcc     0.0435    23.208     8.281     7.741  0.4055  0.8021  0.4383
 
              Baa    -0.1173   -62.588   -22.333   -20.877 -0.0000  1.0000  0.0002
     6 H(1)   Bbb    -0.1137   -60.645   -21.640   -20.229  0.0160 -0.0002  0.9999
              Bcc     0.2310   123.233    43.973    41.106  0.9999  0.0000 -0.0160
 
              Baa    -0.0651   -34.738   -12.395   -11.587  0.1459 -0.5902  0.7940
     7 H(1)   Bbb    -0.0151    -8.070    -2.880    -2.692  0.9586 -0.1141 -0.2610
              Bcc     0.0802    42.807    15.275    14.279  0.2446  0.7992  0.5491
 
              Baa    -0.0651   -34.738   -12.395   -11.587  0.1458  0.5903  0.7939
     8 H(1)   Bbb    -0.0151    -8.070    -2.880    -2.692  0.9586  0.1142 -0.2610
              Bcc     0.0802    42.807    15.275    14.279 -0.2447  0.7991 -0.5491
 

 ---------------------------------------------------------------------------------

 No NMR shielding tensors so no spin-rotation constants.
 Leave Link  601 at Tue Oct  6 16:33:49 2020, MaxMem=  2684354560 cpu:               5.1 elap:               0.6
 (Enter /udrive/faculty/rpeverati/g16/g16/l701.exe)
 ... and contract with generalized density number  0.
 Compute integral second derivatives.
 Leave Link  701 at Tue Oct  6 16:33:49 2020, MaxMem=  2684354560 cpu:               4.5 elap:               0.6
 (Enter /udrive/faculty/rpeverati/g16/g16/l702.exe)
 L702 exits ... SP integral derivatives will be done elsewhere.
 Leave Link  702 at Tue Oct  6 16:33:50 2020, MaxMem=  2684354560 cpu:               1.2 elap:               0.3
 (Enter /udrive/faculty/rpeverati/g16/g16/l703.exe)
 Integral derivatives from FoFJK, PRISM(SPDF).
 Compute integral second derivatives, UseDBF=F ICtDFT=           0.
 Calling FoFJK, ICntrl=    100147 FMM=F ISym2X=0 I1Cent= 0 IOpClX= 1 NMat=1 NMatS=1 NMatT=0.
 FoFJK:  IHMeth= 1 ICntrl=  100147 DoSepK=F KAlg= 0 I1Cent=           0 FoldK=F
 IRaf=         0 NMat=       1 IRICut=       1 DoRegI=T DoRafI=F ISym2E= 0 IDoP0=0 IntGTp=1.
 FoFCou: FMM=F IPFlag=           0 FMFlag=      100000 FMFlg1=         800
         NFxFlg=           0 DoJE=F BraDBF=F KetDBF=F FulRan=T
         wScrn=  0.000000 ICntrl=    100147 IOpCl=  1 I1Cent=           0 NGrid=           0
         NMat0=    1 NMatS0=      1 NMatT0=    0 NMatD0=    1 NMtDS0=    0 NMtDT0=    0
 Symmetry not used in FoFCou.
 Leave Link  703 at Tue Oct  6 16:33:55 2020, MaxMem=  2684354560 cpu:              62.4 elap:               5.4
 (Enter /udrive/faculty/rpeverati/g16/g16/l716.exe)
 Dipole        =-2.10289860D-01 2.23476745D-05 6.77883933D-01
 Polarizability= 0.00000000D+00 0.00000000D+00 0.00000000D+00
                 0.00000000D+00 0.00000000D+00 0.00000000D+00
 ***** Axes restored to original set *****
 -------------------------------------------------------------------
 Center     Atomic                   Forces (Hartrees/Bohr)
 Number     Number              X              Y              Z
 -------------------------------------------------------------------
      1        6           0.005292461   -0.000000927    0.000861646
      2        7           0.001194947   -0.000000048   -0.007508304
      3        1          -0.001888817    0.003047145   -0.001618474
      4        1          -0.002031906   -0.000016588    0.003918454
      5        1          -0.001888858   -0.003029858   -0.001643275
      6        1          -0.005382928   -0.000000617   -0.003633092
      7        1           0.002352702    0.004316257    0.004811883
      8        1           0.002352398   -0.004315364    0.004811161
 -------------------------------------------------------------------
 Cartesian Forces:  Max     0.007508304 RMS     0.003377356
 Force constants in Cartesian coordinates: 
                1             2             3             4             5 
      1  0.187032D+00
      2  0.361156D-04  0.591874D+00
      3  0.286941D-01 -0.193072D-04  0.592757D+00
      4 -0.124407D+00 -0.183713D-05  0.202456D-01  0.108948D+00
      5 -0.682986D-05  0.460262D-02 -0.126732D-04 -0.247159D-04  0.580317D+00
      6  0.403332D-02  0.531689D-05  0.519250D-03  0.922369D-01  0.000000D+00
      7 -0.524082D-01  0.842851D-01 -0.477681D-01  0.635369D-02 -0.538305D-03
      8  0.737741D-01 -0.258136D+00  0.113394D+00  0.168699D-02  0.896506D-03
      9 -0.423197D-01  0.112808D+00 -0.112388D+00 -0.123475D-02 -0.459909D-03
     10 -0.363421D-01 -0.281821D-03  0.636957D-01  0.199504D-02  0.396657D-05
     11 -0.237090D-03 -0.508829D-01  0.122406D-02  0.234674D-05  0.101964D-03
     12  0.524661D-01  0.122963D-02 -0.337721D+00 -0.258799D-03 -0.273673D-05
     13 -0.525346D-01 -0.840375D-01 -0.486088D-01  0.636765D-02  0.536713D-03
     14 -0.735732D-01 -0.256008D+00 -0.114613D+00 -0.168777D-02  0.884639D-03
     15 -0.430627D-01 -0.114033D+00 -0.114387D+00 -0.125569D-02  0.474710D-03
     16  0.760161D-01  0.315708D-05 -0.129296D-01  0.714666D-01  0.198811D-05
     17  0.660685D-05 -0.323123D-01  0.201458D-04  0.000000D+00 -0.355739D-01
     18  0.435316D-02  0.211007D-04 -0.323777D-01  0.407936D-02  0.000000D+00
     19  0.132209D-02 -0.589113D-03 -0.166518D-02 -0.353568D-01 -0.388982D-01
     20 -0.233004D-02  0.434423D-03  0.508512D-03 -0.445824D-01 -0.275633D+00
     21 -0.208211D-02  0.204448D-02  0.179676D-02 -0.568918D-01 -0.208345D+00
     22  0.132122D-02  0.585824D-03 -0.166374D-02 -0.353677D-01  0.389253D-01
     23  0.233041D-02  0.428151D-03 -0.501807D-03  0.446073D-01 -0.275596D+00
     24 -0.208211D-02 -0.205564D-02  0.180042D-02 -0.569208D-01  0.208347D+00
                6             7             8             9            10 
      6  0.357856D+00
      7  0.344251D-03  0.570466D-01
      8 -0.696222D-03 -0.819523D-01  0.271677D+00
      9  0.684566D-04  0.460963D-01 -0.123814D+00  0.112731D+00
     10  0.759463D-03  0.314747D-02 -0.596013D-03 -0.111506D-01  0.397905D-01
     11 -0.633887D-05 -0.722818D-02  0.308174D-02  0.259908D-01  0.261736D-03
     12  0.106776D-02  0.358719D-02 -0.217087D-02 -0.987693D-02 -0.592936D-01
     13  0.346179D-03  0.472272D-02  0.966144D-02  0.591377D-02  0.315555D-02
     14  0.698913D-03 -0.973038D-02 -0.169101D-01 -0.131823D-01  0.693371D-03
     15  0.811833D-04  0.583902D-02  0.129529D-01  0.889714D-02 -0.111660D-01
     16 -0.221856D-01 -0.184051D-01 -0.181803D-02  0.258244D-02 -0.125242D-01
     17 -0.168848D-05  0.153883D-01 -0.532492D-03 -0.136084D-02 -0.805905D-04
     18 -0.140449D-01 -0.866292D-02  0.324127D-03  0.958513D-03  0.172825D-01
     19 -0.377561D-01 -0.221769D-03  0.124387D-04 -0.239432D-03  0.389349D-03
     20 -0.153536D+00  0.431024D-03  0.607008D-04  0.476704D-04  0.528379D-04
     21 -0.172760D+00 -0.452369D-03  0.286920D-04 -0.108457D-03 -0.603839D-04
     22 -0.377784D-01 -0.235461D-03 -0.768621D-03  0.352083D-03  0.388382D-03
     23  0.153536D+00 -0.655372D-03 -0.137091D-03 -0.294298D-04 -0.534866D-04
     24 -0.172787D+00  0.101669D-02 -0.191947D-04 -0.281981D-03 -0.670387D-04
               11            12            13            14            15 
     11  0.453125D-01
     12 -0.134039D-02  0.358023D+00
     13  0.719649D-02  0.365240D-02  0.571800D-01
     14  0.328460D-02  0.228414D-02  0.817254D-01  0.269354D+00
     15 -0.258642D-01 -0.100836D-01  0.469199D-01  0.125149D+00  0.114918D+00
     16  0.754283D-05 -0.812925D-03 -0.184295D-01  0.181042D-02  0.260154D-02
     17 -0.839225D-03  0.201409D-05 -0.153076D-01 -0.527987D-03  0.134263D-02
     18 -0.714166D-05 -0.144699D-02 -0.879057D-02 -0.333664D-03  0.967787D-03
     19 -0.154075D-03  0.327096D-03 -0.237927D-03  0.766884D-03  0.360473D-03
     20 -0.319684D-04  0.215307D-03  0.657406D-03 -0.138001D-03  0.277736D-04
     21  0.145436D-03  0.185324D-04  0.101399D-02  0.224530D-04 -0.281840D-03
     22  0.151228D-03  0.332461D-03 -0.223978D-03 -0.465350D-05 -0.236427D-03
     23 -0.267343D-04 -0.217094D-03 -0.432377D-03  0.611027D-04 -0.492849D-04
     24 -0.142238D-03  0.187947D-04 -0.446879D-03 -0.250840D-04 -0.111728D-03
               16            17            18            19            20 
     16 -0.818743D-01
     17 -0.435174D-05  0.689851D-01
     18  0.188502D-01 -0.161687D-05  0.525275D-01
     19 -0.812513D-02 -0.183615D-01 -0.135551D-01  0.399095D-01
     20  0.365140D-02  0.399665D-03 -0.928005D-03  0.496697D-01  0.302897D+00
     21  0.594666D-02 -0.340004D-02 -0.329210D-02  0.479001D-01  0.181582D+00
     22 -0.812448D-02  0.183590D-01 -0.135566D-01  0.232062D-02 -0.754996D-02
     23 -0.365213D-02  0.401227D-03  0.925583D-03  0.755379D-02 -0.279891D-01
     24  0.594732D-02  0.339939D-02 -0.329204D-02  0.462811D-02 -0.279180D-01
               21            22            23            24 
     21  0.164726D+00
     22  0.462591D-02  0.399214D-01
     23  0.279220D-01 -0.496982D-01  0.302858D+00
     24  0.990097D-02  0.479247D-01 -0.181586D+00  0.164753D+00
 FormGI is forming the generalized inverse of G from B-inverse, IUseBI=4.
 Force constants in internal coordinates: 
                1             2             3             4             5 
      1  0.367752D+00
      2  0.952195D-03  0.368685D+00
      3  0.822514D-03  0.951268D-03  0.367751D+00
      4  0.210703D-02  0.182187D-02  0.210552D-02  0.813000D-01
      5 -0.425042D-03 -0.126547D-03 -0.501449D-03  0.108265D+00  0.522110D-01
      6 -0.129724D-04  0.294266D-03 -0.303329D-03  0.180927D-02 -0.350678D-02
      7 -0.307263D-03  0.220463D-03  0.721818D-04  0.186576D-02 -0.350858D-02
      8  0.642489D-02  0.679849D-02 -0.177819D-02 -0.116177D-01  0.445549D-02
      9  0.662227D-02 -0.178795D-02  0.675614D-02 -0.114556D-01  0.625375D-02
     10 -0.146286D-02 -0.587531D-02 -0.613610D-02  0.137653D-01 -0.784995D-02
     11 -0.162706D-02  0.665129D-02  0.644317D-02 -0.116789D-01  0.419919D-02
     12 -0.605083D-02 -0.260656D-02 -0.610732D-02  0.145169D-01 -0.215547D-02
     13 -0.613260D-02 -0.593463D-02 -0.139466D-02  0.137375D-01 -0.803902D-02
     14  0.522323D-03  0.304546D-03 -0.138425D-02 -0.325349D-02  0.149105D-01
     15 -0.131808D-02  0.459044D-03  0.287445D-03 -0.337068D-02  0.148279D-01
     16  0.743517D-04  0.151698D-03 -0.135860D-03  0.118031D-04 -0.173701D-02
     17 -0.603203D-03 -0.241050D-02  0.323279D-02  0.205692D-02  0.133620D-02
     18  0.209063D-02 -0.160848D-02 -0.337248D-03  0.134365D-02  0.106638D-02
     19  0.372417D-04  0.349851D-02 -0.345779D-02  0.477168D-03 -0.906107D-03
     20  0.267644D-04  0.352602D-02 -0.357878D-02 -0.169556D-03  0.261831D-02
     21 -0.355746D-02  0.521505D-04  0.354731D-02  0.349644D-03 -0.174101D-02
     22 -0.356793D-02  0.796561D-04  0.342632D-02 -0.297080D-03  0.178341D-02
     23  0.364967D-02 -0.359008D-02 -0.242150D-04  0.145640D-03 -0.262991D-02
     24  0.363920D-02 -0.356258D-02 -0.145212D-03 -0.501085D-03  0.894504D-03
                6             7             8             9            10 
      6  0.439315D+00
      7 -0.606672D-02  0.439197D+00
      8  0.490024D-03  0.620686D-03  0.428741D-01
      9 -0.694708D-03  0.374213D-03 -0.382924D-04  0.454416D-01
     10 -0.363341D-03 -0.172669D-02 -0.252129D-01 -0.273922D-01  0.703125D-01
     11  0.154131D-02  0.223933D-03  0.412341D-03  0.480895D-03 -0.454270D-04
     12  0.535599D-03  0.123826D-03 -0.270342D-01  0.243852D-04 -0.329729D-02
     13 -0.186495D-02  0.115025D-03 -0.552151D-03 -0.270471D-01 -0.332307D-02
     14  0.608328D-02 -0.670183D-03  0.442170D-03 -0.152656D-03  0.897847D-03
     15 -0.366524D-03  0.606881D-02 -0.280786D-03 -0.736537D-03  0.215704D-02
     16  0.115597D-01  0.107451D-01  0.814567D-03 -0.331717D-03 -0.269621D-03
     17 -0.403167D-02 -0.862805D-03 -0.880270D-02  0.479200D-02 -0.363257D-03
     18 -0.720994D-03 -0.267270D-02 -0.128170D-03  0.225058D-02  0.389472D-02
     19 -0.618429D-02 -0.604097D-02  0.108579D-01 -0.118676D-01  0.519677D-03
     20  0.539640D-02  0.578715D-02  0.111243D-01 -0.118365D-01  0.859030D-03
     21 -0.609824D-02 -0.577676D-02 -0.119645D-01 -0.743213D-04 -0.101506D-02
     22  0.548245D-02  0.605135D-02 -0.116981D-01 -0.432680D-04 -0.675705D-03
     23 -0.502566D-02 -0.600362D-02  0.492171D-04  0.118757D-01  0.151383D-02
     24  0.655503D-02  0.582450D-02  0.315622D-03  0.119067D-01  0.185318D-02
               11            12            13            14            15 
     11  0.421105D-01
     12 -0.272124D-01  0.720601D-01
     13 -0.252050D-01 -0.334442D-02  0.705667D-01
     14 -0.117874D-02 -0.187170D-02  0.210111D-02  0.107486D+00
     15  0.360776D-03 -0.167568D-02  0.327054D-03  0.229571D-02  0.107196D+00
     16  0.106250D-04  0.433292D-03 -0.797096D-03 -0.200634D-01 -0.196607D-01
     17  0.156236D-03 -0.132282D-02  0.669780D-02  0.149505D-02  0.133842D-02
     18 -0.470421D-02 -0.472440D-03 -0.121013D-03  0.191484D-02  0.144225D-02
     19 -0.263026D-04  0.164857D-02 -0.149405D-02  0.496931D-03  0.591790D-03
     20 -0.327749D-03  0.129923D-02 -0.147065D-02 -0.456378D-03 -0.489134D-03
     21  0.121411D-01  0.183762D-03  0.700302D-03  0.544691D-03  0.532755D-03
     22  0.118397D-01 -0.165581D-03  0.723710D-03 -0.408617D-03 -0.548168D-03
     23 -0.109818D-01 -0.131406D-02 -0.768137D-03  0.306181D-03  0.612878D-03
     24 -0.112832D-01 -0.166340D-02 -0.744728D-03 -0.647127D-03 -0.468045D-03
               16            17            18            19            20 
     16  0.313599D-01
     17 -0.483755D-02  0.353501D-01
     18 -0.130513D-02 -0.322162D-02  0.156908D-01
     19 -0.126742D-01 -0.102016D-02 -0.780728D-03  0.155043D-01
     20  0.122868D-01 -0.304515D-02 -0.101669D-02  0.250073D-02  0.147504D-01
     21 -0.124008D-01  0.194329D-02 -0.959360D-03  0.199606D-02 -0.105197D-01
     22  0.125602D-01 -0.817070D-04 -0.119532D-02 -0.110075D-01  0.172989D-02
     23 -0.123423D-01  0.174667D-02  0.232117D-02  0.198955D-02 -0.103568D-01
     24  0.126186D-01 -0.278325D-03  0.208521D-02 -0.110140D-01  0.189286D-02
               21            22            23            24 
     21  0.154105D-01
     22  0.289466D-02  0.156320D-01
     23  0.149725D-02 -0.108491D-01  0.150337D-01
     24 -0.110186D-01  0.188828D-02  0.268741D-02  0.155942D-01
 Leave Link  716 at Tue Oct  6 16:33:56 2020, MaxMem=  2684354560 cpu:               1.5 elap:               0.5
 (Enter /udrive/faculty/rpeverati/g16/g16/l103.exe)

 GradGradGradGradGradGradGradGradGradGradGradGradGradGradGradGradGradGrad
 Berny optimization.
 Optmz: redundant internal coordinate code flag= 1
 Red2BG:  D1=  1.36D-01 OD1=  4.69D-15 B2RMS=  0.00D+00 IAprox=1
 Red2BG is reusing G-inverse.
 Internal  Forces:  Max     0.006694249 RMS     0.002846169
 Search for a saddle point.
 Step number   1 out of a maximum of   50
 All quantities printed in internal units (Hartrees-Bohrs-Radians)
 Swapping is turned off.
 Second derivative matrix not updated -- analytic derivatives used.
 The second derivative matrix:
                          R1        R2        R3        R4        R5
           R1           0.36775
           R2           0.00095   0.36868
           R3           0.00082   0.00095   0.36775
           R4           0.00211   0.00182   0.00211   0.08130
           R5          -0.00043  -0.00013  -0.00050   0.10826   0.05221
           R6          -0.00001   0.00029  -0.00030   0.00181  -0.00351
           R7          -0.00031   0.00022   0.00007   0.00187  -0.00351
           A1           0.00642   0.00680  -0.00178  -0.01162   0.00446
           A2           0.00662  -0.00179   0.00676  -0.01146   0.00625
           A3          -0.00146  -0.00588  -0.00614   0.01377  -0.00785
           A4          -0.00163   0.00665   0.00644  -0.01168   0.00420
           A5          -0.00605  -0.00261  -0.00611   0.01452  -0.00216
           A6          -0.00613  -0.00593  -0.00139   0.01374  -0.00804
           A7           0.00052   0.00030  -0.00138  -0.00325   0.01491
           A8          -0.00132   0.00046   0.00029  -0.00337   0.01483
           A9           0.00007   0.00015  -0.00014   0.00001  -0.00174
           A10         -0.00060  -0.00241   0.00323   0.00206   0.00134
           A11          0.00209  -0.00161  -0.00034   0.00134   0.00107
           D1           0.00004   0.00350  -0.00346   0.00048  -0.00091
           D2           0.00003   0.00353  -0.00358  -0.00017   0.00262
           D3          -0.00356   0.00005   0.00355   0.00035  -0.00174
           D4          -0.00357   0.00008   0.00343  -0.00030   0.00178
           D5           0.00365  -0.00359  -0.00002   0.00015  -0.00263
           D6           0.00364  -0.00356  -0.00015  -0.00050   0.00089
                          R6        R7        A1        A2        A3
           R6           0.43931
           R7          -0.00607   0.43920
           A1           0.00049   0.00062   0.04287
           A2          -0.00069   0.00037  -0.00004   0.04544
           A3          -0.00036  -0.00173  -0.02521  -0.02739   0.07031
           A4           0.00154   0.00022   0.00041   0.00048  -0.00005
           A5           0.00054   0.00012  -0.02703   0.00002  -0.00330
           A6          -0.00186   0.00012  -0.00055  -0.02705  -0.00332
           A7           0.00608  -0.00067   0.00044  -0.00015   0.00090
           A8          -0.00037   0.00607  -0.00028  -0.00074   0.00216
           A9           0.01156   0.01075   0.00081  -0.00033  -0.00027
           A10         -0.00403  -0.00086  -0.00880   0.00479  -0.00036
           A11         -0.00072  -0.00267  -0.00013   0.00225   0.00389
           D1          -0.00618  -0.00604   0.01086  -0.01187   0.00052
           D2           0.00540   0.00579   0.01112  -0.01184   0.00086
           D3          -0.00610  -0.00578  -0.01196  -0.00007  -0.00102
           D4           0.00548   0.00605  -0.01170  -0.00004  -0.00068
           D5          -0.00503  -0.00600   0.00005   0.01188   0.00151
           D6           0.00656   0.00582   0.00032   0.01191   0.00185
                          A4        A5        A6        A7        A8
           A4           0.04211
           A5          -0.02721   0.07206
           A6          -0.02520  -0.00334   0.07057
           A7          -0.00118  -0.00187   0.00210   0.10749
           A8           0.00036  -0.00168   0.00033   0.00230   0.10720
           A9           0.00001   0.00043  -0.00080  -0.02006  -0.01966
           A10          0.00016  -0.00132   0.00670   0.00150   0.00134
           A11         -0.00470  -0.00047  -0.00012   0.00191   0.00144
           D1          -0.00003   0.00165  -0.00149   0.00050   0.00059
           D2          -0.00033   0.00130  -0.00147  -0.00046  -0.00049
           D3           0.01214   0.00018   0.00070   0.00054   0.00053
           D4           0.01184  -0.00017   0.00072  -0.00041  -0.00055
           D5          -0.01098  -0.00131  -0.00077   0.00031   0.00061
           D6          -0.01128  -0.00166  -0.00074  -0.00065  -0.00047
                          A9        A10       A11       D1        D2
           A9           0.03136
           A10         -0.00484   0.03535
           A11         -0.00131  -0.00322   0.01569
           D1          -0.01267  -0.00102  -0.00078   0.01550
           D2           0.01229  -0.00305  -0.00102   0.00250   0.01475
           D3          -0.01240   0.00194  -0.00096   0.00200  -0.01052
           D4           0.01256  -0.00008  -0.00120  -0.01101   0.00173
           D5          -0.01234   0.00175   0.00232   0.00199  -0.01036
           D6           0.01262  -0.00028   0.00209  -0.01101   0.00189
                          D3        D4        D5        D6
           D3           0.01541
           D4           0.00289   0.01563
           D5           0.00150  -0.01085   0.01503
           D6          -0.01102   0.00189   0.00269   0.01559
 ITU=  0
 Eigenvectors of the second derivative matrix:
                           1         2         3         4         5
     Eigenvalues --    -0.05127   0.00005   0.01376   0.03094   0.05266
   1         R1         0.00828  -0.00013   0.00173   0.00212  -0.03143
   2         R2         0.00837  -0.00000  -0.00004   0.00403   0.02390
   3         R3         0.00833   0.00014   0.00103  -0.00380   0.00462
   4         R4        -0.64482  -0.00004   0.01626   0.02670   0.03440
   5         R5         0.72790   0.00001  -0.00145  -0.00732  -0.01232
   6         R6         0.01067  -0.00004  -0.00298  -0.00173   0.00885
   7         R7         0.01069   0.00005  -0.00520   0.00469   0.01050
   8         A1        -0.06824   0.00105  -0.01838  -0.11888   0.08185
   9         A2        -0.07451  -0.00001   0.01780   0.07249   0.31601
  10         A3         0.09667  -0.01634   0.05287  -0.04410   0.39899
  11         A4        -0.06871  -0.00105  -0.03073   0.01605  -0.38288
  12         A5         0.06251   0.00012  -0.02451  -0.07554  -0.32772
  13         A6         0.09680   0.01622   0.01161   0.16210  -0.06802
  14         A7        -0.08377   0.00053   0.02431  -0.00449  -0.05436
  15         A8        -0.08377  -0.00057   0.01856  -0.00134  -0.05289
  16         A9        -0.01071   0.00004   0.01365  -0.04697  -0.08514
  17         A10       -0.00394   0.00517  -0.18260  -0.85587   0.06441
  18         A11       -0.00276  -0.00773  -0.95700   0.19798   0.16813
  19         D1         0.00868   0.41007  -0.05251  -0.16168  -0.06949
  20         D2        -0.02687   0.41011  -0.09066  -0.26519  -0.16353
  21         D3         0.01831   0.40416  -0.03233   0.22539  -0.19628
  22         D4        -0.01723   0.40420  -0.07048   0.12188  -0.29032
  23         D5         0.02629   0.41004   0.13427   0.09744   0.41328
  24         D6        -0.00925   0.41009   0.09612  -0.00607   0.31925
                           6         7         8         9        10
     Eigenvalues --     0.05567   0.05881   0.08962   0.09318   0.10513
   1         R1        -0.00719  -0.00869   0.00564   0.00014   0.00725
   2         R2        -0.01969  -0.00756   0.00025  -0.01619   0.00065
   3         R3         0.02457   0.02502  -0.00567   0.00106  -0.00313
   4         R4         0.03235  -0.06499  -0.00067   0.05872  -0.00294
   5         R5        -0.00925   0.01788  -0.00063   0.03687  -0.01051
   6         R6         0.02516  -0.04167  -0.00478  -0.00235   0.01306
   7         R7         0.02930  -0.03603   0.00480  -0.00136  -0.01323
   8         A1         0.32425   0.22667  -0.38656   0.26461  -0.05237
   9         A2        -0.23678  -0.11836   0.00428  -0.42512  -0.02907
  10         A3         0.05688   0.14609   0.56728   0.28288   0.09169
  11         A4        -0.06833  -0.17596   0.38053   0.26230   0.03743
  12         A5         0.22701   0.15691   0.00602  -0.68295   0.00957
  13         A6        -0.32350  -0.22848  -0.57102   0.26798  -0.04857
  14         A7        -0.10756   0.18798   0.08425  -0.05601  -0.68626
  15         A8        -0.11955   0.17838  -0.08341  -0.07393   0.71576
  16         A9        -0.32874   0.41547  -0.00021   0.06080  -0.00609
  17         A10       -0.27238  -0.34768  -0.00330  -0.04477  -0.00177
  18         A11        0.01207   0.05428   0.00264  -0.01896  -0.00181
  19         D1         0.46793  -0.08745  -0.05290   0.08297   0.00111
  20         D2         0.06880   0.38317  -0.05269   0.11879  -0.00346
  21         D3         0.01596  -0.40288   0.12837  -0.01782   0.01293
  22         D4        -0.38317   0.06773   0.12858   0.01800   0.00837
  23         D5         0.12100  -0.20848  -0.05042  -0.11837  -0.00319
  24         D6        -0.27813   0.26214  -0.05022  -0.08255  -0.00776
                          11        12        13        14        15
     Eigenvalues --     0.10920   0.12257   0.18106   0.36750   0.36787
   1         R1        -0.03660   0.01015  -0.00495  -0.72964   0.45580
   2         R2        -0.03535   0.01365  -0.00462   0.03664  -0.71634
   3         R3        -0.03619   0.00979  -0.00510   0.68147   0.52644
   4         R4         0.07655   0.15936  -0.73620  -0.00011   0.00157
   5         R5         0.27147  -0.06868  -0.62412  -0.00019  -0.00071
   6         R6        -0.00576  -0.00671  -0.00361   0.00345   0.00651
   7         R7        -0.00630  -0.00684  -0.00324  -0.00425   0.00460
   8         A1         0.29760  -0.12738   0.08001  -0.01859  -0.00910
   9         A2         0.39467  -0.09903   0.06572  -0.00095   0.02645
  10         A3        -0.43673   0.10576  -0.07872  -0.00994  -0.00031
  11         A4         0.29472  -0.12530   0.08057   0.01899  -0.00646
  12         A5        -0.30615   0.21253  -0.11642   0.00048  -0.01266
  13         A6        -0.44934   0.10646  -0.07847   0.01009   0.00107
  14         A7        -0.22147  -0.61844  -0.10914  -0.00493  -0.00249
  15         A8        -0.15421  -0.60585  -0.10595   0.00438  -0.00288
  16         A9         0.12755   0.30776   0.03554  -0.00059   0.00006
  17         A10       -0.05107  -0.02514  -0.02366   0.00856   0.01025
  18         A11       -0.02363  -0.01466  -0.01471  -0.00576   0.00582
  19         D1        -0.04597  -0.05075  -0.00180  -0.00720  -0.01417
  20         D2         0.01588   0.04893  -0.00619  -0.00758  -0.01403
  21         D3        -0.03065  -0.04986   0.00207   0.01624   0.00049
  22         D4         0.03120   0.04982  -0.00232   0.01586   0.00063
  23         D5        -0.01580  -0.04895   0.00630  -0.00892   0.01343
  24         D6         0.04605   0.05073   0.00190  -0.00930   0.01357
                          16        17        18
     Eigenvalues --     0.37121   0.43516   0.44548
   1         R1         0.50706  -0.00279   0.00327
   2         R2         0.69472   0.00718   0.00093
   3         R3         0.50560  -0.00234  -0.00415
   4         R4         0.00547   0.00328  -0.00014
   5         R5         0.00289  -0.01076  -0.00012
   6         R6        -0.00206   0.69905   0.71301
   7         R7        -0.00176   0.71141  -0.70081
   8         A1         0.02646   0.00237  -0.00015
   9         A2         0.02152  -0.00054  -0.00176
  10         A3        -0.02971  -0.00382   0.00275
  11         A4         0.02629   0.00311   0.00226
  12         A5        -0.03045   0.00109   0.00065
  13         A6        -0.02980  -0.00341  -0.00392
  14         A7        -0.00105   0.00816   0.01401
  15         A8        -0.00090   0.00908  -0.01336
  16         A9         0.00029   0.04239   0.00175
  17         A10       -0.00181  -0.00951  -0.00570
  18         A11       -0.00112  -0.00588   0.00324
  19         D1         0.00213  -0.02283  -0.00037
  20         D2         0.00191   0.02130  -0.00031
  21         D3         0.00013  -0.02230  -0.00081
  22         D4        -0.00009   0.02183  -0.00076
  23         D5        -0.00193  -0.02108   0.00134
  24         D6        -0.00215   0.02305   0.00140
 RLam0= 3.51D-04.
 Iter=   1 RLamda= 0.00000000D+00 Sum=-8.33854933D-04.
 Iter=   2 RLamda=-8.33854933D-04 Sum=-8.20208073D-04.
 Iter=   3 RLamda=-8.20208073D-04 Sum=-8.20421792D-04.
 Iter=   4 RLamda=-8.20421792D-04 Sum=-8.20418443D-04.
 RFO step:  Lambda0=3.509862221D-04 Lambda=-8.20421792D-04.
 Linear search not attempted -- option 19 set.
 Maximum step size (   0.100) exceeded in Quadratic search.
    -- Step size scaled by   0.677
 Iteration  1 RMS(Cart)=  0.02042033 RMS(Int)=  0.00070499
 Iteration  2 RMS(Cart)=  0.00116102 RMS(Int)=  0.00007786
 Iteration  3 RMS(Cart)=  0.00000106 RMS(Int)=  0.00007786
 Iteration  4 RMS(Cart)=  0.00000000 RMS(Int)=  0.00007786
 ITry= 1 IFail=0 DXMaxC= 7.11D-02 DCOld= 1.00D+10 DXMaxT= 1.00D-01 DXLimC= 3.00D+00 Rises=F
 Variable       Old X    -DE/DX   Delta X   Delta X   Delta X     New X
                                 (Linear)    (Quad)   (Total)
    R1        2.05014   0.00386   0.00000   0.00705   0.00705   2.05719
    R2        2.04881   0.00423   0.00000   0.00712   0.00712   2.05593
    R3        2.05014   0.00385   0.00000   0.00706   0.00706   2.05720
    R4        2.48334   0.00070   0.00000   0.04927   0.04927   2.53261
    R5        2.40039   0.00588   0.00000  -0.03152  -0.03152   2.36887
    R6        1.92935   0.00669   0.00000   0.00992   0.00991   1.93927
    R7        1.92936   0.00664   0.00000   0.00989   0.00989   1.93925
    A1        1.97992  -0.00086   0.00000  -0.00121  -0.00132   1.97860
    A2        1.97740  -0.00103   0.00000  -0.00031  -0.00039   1.97701
    A3        1.81160   0.00081   0.00000  -0.00180  -0.00187   1.80973
    A4        1.97996  -0.00096   0.00000  -0.00125  -0.00106   1.97890
    A5        1.88418   0.00184   0.00000   0.00667   0.00670   1.89088
    A6        1.81130   0.00077   0.00000  -0.00161  -0.00157   1.80973
    A7        1.74238   0.00204   0.00000   0.01759   0.01761   1.75999
    A8        1.74241   0.00215   0.00000   0.01795   0.01797   1.76037
    A9        1.81837  -0.00129   0.00000  -0.01024  -0.01013   1.80825
   A10        3.05202  -0.00170   0.00000  -0.04187  -0.04188   3.01014
   A11        2.97084  -0.00113   0.00000  -0.06072  -0.06068   2.91016
    D1        1.16621   0.00033   0.00000  -0.00044  -0.00039   1.16581
    D2        3.00648  -0.00043   0.00000  -0.01113  -0.01115   2.99533
    D3       -0.92452   0.00043   0.00000   0.00567   0.00557  -0.91896
    D4        0.91575  -0.00034   0.00000  -0.00503  -0.00519   0.91056
    D5       -3.01543   0.00038   0.00000   0.01078   0.01093  -3.00450
    D6       -1.17515  -0.00038   0.00000   0.00009   0.00017  -1.17498
         Item               Value     Threshold  Converged?
 Maximum Force            0.006694     0.000450     NO 
 RMS     Force            0.002846     0.000300     NO 
 Maximum Displacement     0.071088     0.001800     NO 
 RMS     Displacement     0.020445     0.001200     NO 
 Predicted change in Energy=-2.126003D-04
 Lowest energy point so far.  Saving SCF results.
 Largest change from initial coordinates is atom    6       0.012 Angstoms.
 GradGradGradGradGradGradGradGradGradGradGradGradGradGradGradGradGradGrad

 Leave Link  103 at Tue Oct  6 16:33:57 2020, MaxMem=  2684354560 cpu:               2.9 elap:               0.6
 (Enter /udrive/faculty/rpeverati/g16/g16/l202.exe)
                          Input orientation:                          
 ---------------------------------------------------------------------
 Center     Atomic      Atomic             Coordinates (Angstroms)
 Number     Number       Type             X           Y           Z
 ---------------------------------------------------------------------
      1          6           0       -1.263704   -0.000081    0.010189
      2          7           0        1.313830   -0.000005   -0.132496
      3          1           0       -1.598192    0.911582   -0.481826
      4          1           0       -1.448491   -0.004481    1.082325
      5          1           0       -1.599636   -0.906845   -0.489843
      6          1           0        0.061564   -0.000252   -0.189310
      7          1           0        1.479074    0.806554    0.480103
      8          1           0        1.479777   -0.806410    0.480094
 ---------------------------------------------------------------------
                    Distance matrix (angstroms):
                    1          2          3          4          5
     1  C    0.000000
     2  N    2.581480   0.000000
     3  H    1.088618   3.071301   0.000000
     4  H    1.087953   3.017653   1.818831   0.000000
     5  H    1.088625   3.072188   1.818445   1.819016   0.000000
     6  H    1.340200   1.253554   1.916193   1.974168   1.916199
     7  H    2.897294   1.026217   3.225818   3.096948   3.654448
     8  H    2.897873   1.026204   3.653858   3.095243   3.230117
                    6          7          8
     6  H    0.000000
     7  H    1.763061   0.000000
     8  H    1.763327   1.612965   0.000000
 Stoichiometry    CH6N(2)
 Framework group  C1[X(CH6N)]
 Deg. of freedom    18
 Full point group                 C1      NOp   1
 RotChk:  IX=0 Diff= 4.55D-03
 Largest Abelian subgroup         C1      NOp   1
 Largest concise Abelian subgroup C1      NOp   1
                         Standard orientation:                         
 ---------------------------------------------------------------------
 Center     Atomic      Atomic             Coordinates (Angstroms)
 Number     Number       Type             X           Y           Z
 ---------------------------------------------------------------------
      1          6           0       -1.263072   -0.000038    0.013423
      2          7           0        1.313993   -0.000056   -0.137493
      3          1           0       -1.599116    0.911443   -0.477866
      4          1           0       -1.444434   -0.004030    1.086145
      5          1           0       -1.600612   -0.906986   -0.485192
      6          1           0        0.061553   -0.000306   -0.190307
      7          1           0        1.481205    0.806732    0.474270
      8          1           0        1.481885   -0.806232    0.474869
 ---------------------------------------------------------------------
 Rotational constants (GHZ):          94.7409858           8.8167352           8.7223449
 Leave Link  202 at Tue Oct  6 16:33:57 2020, MaxMem=  2684354560 cpu:               0.9 elap:               0.3
 (Enter /udrive/faculty/rpeverati/g16/g16/l301.exe)
 Standard basis: 6-31G(d) (5D, 7F)
 Ernie: Thresh=  0.10000D-02 Tol=  0.10000D-05 Strict=F.
 There are    42 symmetry adapted cartesian basis functions of A   symmetry.
 There are    40 symmetry adapted basis functions of A   symmetry.
    40 basis functions,    80 primitive gaussians,    42 cartesian basis functions
    10 alpha electrons        9 beta electrons
       nuclear repulsion energy        39.3162497866 Hartrees.
 IExCor=  402 DFT=T Ex+Corr=B3LYP ExCW=0 ScaHFX=  0.200000
 ScaDFX=  0.800000  0.720000  1.000000  0.810000 ScalE2=  1.000000  1.000000
 IRadAn=      5 IRanWt=     -1 IRanGd=            0 ICorTp=0 IEmpDi=  4
 NAtoms=    8 NActive=    8 NUniq=    8 SFac= 1.00D+00 NAtFMM=   60 NAOKFM=F Big=F
 Integral buffers will be    131072 words long.
 Raffenetti 2 integral format.
 Two-electron integral symmetry is turned on.
 Leave Link  301 at Tue Oct  6 16:33:58 2020, MaxMem=  2684354560 cpu:               1.6 elap:               0.5
 (Enter /udrive/faculty/rpeverati/g16/g16/l302.exe)
 NPDir=0 NMtPBC=     1 NCelOv=     1 NCel=       1 NClECP=     1 NCelD=      1
         NCelK=      1 NCelE2=     1 NClLst=     1 CellRange=     0.0.
 One-electron integrals computed using PRISM.
 One-electron integral symmetry used in STVInt
 NBasis=    40 RedAO= T EigKep=  9.18D-03  NBF=    40
 NBsUse=    40 1.00D-06 EigRej= -1.00D+00 NBFU=    40
 Precomputing XC quadrature grid using
 IXCGrd= 4 IRadAn=           5 IRanWt=          -1 IRanGd=           0 AccXCQ= 0.00D+00.
 Generated NRdTot=       0 NPtTot=           0 NUsed=           0 NTot=          32
 NSgBfM=    42    42    42    42    42 MxSgAt=     8 MxSgA2=     8.
 Leave Link  302 at Tue Oct  6 16:33:59 2020, MaxMem=  2684354560 cpu:               3.9 elap:               0.6
 (Enter /udrive/faculty/rpeverati/g16/g16/l303.exe)
 DipDrv:  MaxL=1.
 Leave Link  303 at Tue Oct  6 16:33:59 2020, MaxMem=  2684354560 cpu:               1.1 elap:               0.4
 (Enter /udrive/faculty/rpeverati/g16/g16/l401.exe)
 Initial guess from the checkpoint file:  "MN_95_RKT21_BH76_B3LYP_631Gs.chk"
 SCF N**3 symmetry information disabled.
 B after Tr=     0.000000    0.000000    0.000000
         Rot=    1.000000    0.000193   -0.000925    0.000001 Ang=   0.11 deg.
 Guess basis will be translated and rotated to current coordinates.
 JPrj=2 DoOrth=T DoCkMO=T.
 Initial guess <Sx>= 0.0000 <Sy>= 0.0000 <Sz>= 0.5000 <S**2>= 0.7574 S= 0.5037
 Generating alternative initial guess.
 ExpMin= 1.61D-01 ExpMax= 4.17D+03 ExpMxC= 6.27D+02 IAcc=2 IRadAn=         4 AccDes= 0.00D+00
 Harris functional with IExCor=  402 and IRadAn=       4 diagonalized for initial guess.
 HarFok:  IExCor=  402 AccDes= 0.00D+00 IRadAn=         4 IDoV= 1 UseB2=F ITyADJ=14
 ICtDFT=  3500011 ScaDFX=  1.000000  1.000000  1.000000  1.000000
 FoFCou: FMM=F IPFlag=           0 FMFlag=      100000 FMFlg1=           0
         NFxFlg=           0 DoJE=T BraDBF=F KetDBF=T FulRan=T
         wScrn=  0.000000 ICntrl=       500 IOpCl=  0 I1Cent=   200000004 NGrid=           0
         NMat0=    1 NMatS0=      1 NMatT0=    0 NMatD0=    1 NMtDS0=    0 NMtDT0=    0
 Petite list used in FoFCou.
 Harris En= -96.3828426926474    
 Leave Link  401 at Tue Oct  6 16:34:00 2020, MaxMem=  2684354560 cpu:               6.6 elap:               0.8
 (Enter /udrive/faculty/rpeverati/g16/g16/l502.exe)
 Keep R1 and R2 ints in memory in canonical form, NReq=11031764.
 FoFCou: FMM=F IPFlag=           0 FMFlag=           0 FMFlg1=           0
         NFxFlg=           0 DoJE=F BraDBF=F KetDBF=F FulRan=T
         wScrn=  0.000000 ICntrl=       600 IOpCl=  0 I1Cent=           0 NGrid=           0
         NMat0=    1 NMatS0=    820 NMatT0=    0 NMatD0=    1 NMtDS0=    0 NMtDT0=    0
 Symmetry not used in FoFCou.
 Two-electron integral symmetry not used.
 UHF open shell SCF:
 Using DIIS extrapolation, IDIIS=  1040.
 NGot=  2684354560 LenX=  2683676576 LenY=  2683674371
 Requested convergence on RMS density matrix=1.00D-08 within 120 cycles.
 Requested convergence on MAX density matrix=1.00D-06.
 Requested convergence on             energy=1.00D-06.
 No special actions if energy rises.
 Integral accuracy reduced to 1.0D-05 until final iterations.

 Cycle   1  Pass 0  IDiag  1:
 E= -96.3691690410230    
 DIIS: error= 2.45D-03 at cycle   1 NSaved=   1.
 NSaved= 1 IEnMin= 1 EnMin= -96.3691690410230     IErMin= 1 ErrMin= 2.45D-03
 ErrMax= 2.45D-03  0.00D+00 EMaxC= 1.00D-01 BMatC= 8.62D-04 BMatP= 8.62D-04
 IDIUse=3 WtCom= 9.76D-01 WtEn= 2.45D-02
 Coeff-Com:  0.100D+01
 Coeff-En:   0.100D+01
 Coeff:      0.100D+01
 Gap=     0.481 Goal=   None    Shift=    0.000
 Gap=     0.549 Goal=   None    Shift=    0.000
[...]
  12         A5        -0.03380  -0.00127  -0.00086
  13         A6        -0.03121   0.00371   0.00413
  14         A7        -0.00108  -0.01251  -0.01763
  15         A8        -0.00080  -0.01433   0.01659
  16         A9         0.00025  -0.04377  -0.00252
  17         A10       -0.00239   0.01119   0.00612
  18         A11       -0.00138   0.00745  -0.00310
  19         D1         0.00237   0.02428   0.00068
  20         D2         0.00207  -0.02214   0.00041
  21         D3         0.00018   0.02354   0.00109
  22         D4        -0.00012  -0.02287   0.00082
  23         D5        -0.00210   0.02183  -0.00166
  24         D6        -0.00240  -0.02459  -0.00193
 Eigenvalue     1 is  -5.49D-02 should be greater than     0.000000 Eigenvector:
                          R5        R4        A6        A3        A2
   1                   -0.69175   0.68716  -0.09619  -0.09608   0.07661
                          A7        A8        A4        A1        A5
   1                    0.06934   0.06912   0.06684   0.06653  -0.05992
 Angle between quadratic step and forces=  85.63 degrees.
 Linear search not attempted -- first point.
 Iteration  1 RMS(Cart)=  0.00039182 RMS(Int)=  0.00000012
 Iteration  2 RMS(Cart)=  0.00000011 RMS(Int)=  0.00000000
 ITry= 1 IFail=0 DXMaxC= 1.01D-03 DCOld= 1.00D+10 DXMaxT= 3.00D-01 DXLimC= 3.00D+00 Rises=F
 Variable       Old X    -DE/DX   Delta X   Delta X   Delta X     New X
                                 (Linear)    (Quad)   (Total)
    R1        2.06081   0.00000   0.00000   0.00000   0.00000   2.06081
    R2        2.05963   0.00000   0.00000   0.00000   0.00000   2.05964
    R3        2.06081   0.00000   0.00000   0.00000   0.00000   2.06081
    R4        2.55685   0.00000   0.00000   0.00008   0.00008   2.55692
    R5        2.35961  -0.00001   0.00000  -0.00010  -0.00010   2.35951
    R6        1.94433   0.00000   0.00000   0.00001   0.00001   1.94434
    R7        1.94433   0.00000   0.00000   0.00001   0.00001   1.94434
    A1        1.97745  -0.00000   0.00000   0.00000   0.00000   1.97745
    A2        1.97639  -0.00000   0.00000  -0.00001  -0.00001   1.97638
    A3        1.80952   0.00000   0.00000  -0.00005  -0.00005   1.80947
    A4        1.97744  -0.00000   0.00000   0.00001   0.00001   1.97745
    A5        1.89522   0.00000   0.00000   0.00001   0.00001   1.89523
    A6        1.80944   0.00000   0.00000   0.00004   0.00004   1.80947
    A7        1.76698  -0.00000   0.00000  -0.00003  -0.00003   1.76695
    A8        1.76696  -0.00000   0.00000  -0.00001  -0.00001   1.76695
    A9        1.80304   0.00000   0.00000   0.00001   0.00001   1.80305
   A10        2.99249  -0.00000   0.00000   0.00001   0.00001   2.99250
   A11        2.88617   0.00000   0.00000   0.00018   0.00018   2.88634
    D1        1.17006  -0.00000   0.00000   0.00096   0.00096   1.17103
    D2        2.99381   0.00000   0.00000   0.00097   0.00097   2.99478
    D3       -0.91275  -0.00000   0.00000   0.00094   0.00094  -0.91181
    D4        0.91099   0.00000   0.00000   0.00095   0.00095   0.91194
    D5       -2.99557  -0.00000   0.00000   0.00093   0.00093  -2.99465
    D6       -1.17183  -0.00000   0.00000   0.00094   0.00094  -1.17089
         Item               Value     Threshold  Converged?
 Maximum Force            0.000007     0.000450     YES
 RMS     Force            0.000002     0.000300     YES
 Maximum Displacement     0.001007     0.001800     YES
 RMS     Displacement     0.000392     0.001200     YES
 Predicted change in Energy=-1.816893D-09
 Optimization completed.
    -- Stationary point found.
                           ----------------------------
                           !   Optimized Parameters   !
                           ! (Angstroms and Degrees)  !
 --------------------------                            --------------------------
 ! Name  Definition              Value          Derivative Info.                !
 --------------------------------------------------------------------------------
 ! R1    R(1,3)                  1.0905         -DE/DX =    0.0                 !
 ! R2    R(1,4)                  1.0899         -DE/DX =    0.0                 !
 ! R3    R(1,5)                  1.0905         -DE/DX =    0.0                 !
 ! R4    R(1,6)                  1.353          -DE/DX =    0.0                 !
 ! R5    R(2,6)                  1.2487         -DE/DX =    0.0                 !
 ! R6    R(2,7)                  1.0289         -DE/DX =    0.0                 !
 ! R7    R(2,8)                  1.0289         -DE/DX =    0.0                 !
 ! A1    A(3,1,4)              113.2993         -DE/DX =    0.0                 !
 ! A2    A(3,1,5)              113.2389         -DE/DX =    0.0                 !
 ! A3    A(3,1,6)              103.6778         -DE/DX =    0.0                 !
 ! A4    A(4,1,5)              113.2992         -DE/DX =    0.0                 !
 ! A5    A(4,1,6)              108.588          -DE/DX =    0.0                 !
 ! A6    A(5,1,6)              103.6731         -DE/DX =    0.0                 !
 ! A7    A(6,2,7)              101.2407         -DE/DX =    0.0                 !
 ! A8    A(6,2,8)              101.2392         -DE/DX =    0.0                 !
 ! A9    A(7,2,8)              103.3067         -DE/DX =    0.0                 !
 ! A10   L(1,6,2,7,-1)         171.457          -DE/DX =    0.0                 !
 ! A11   L(1,6,2,7,-2)         165.3652         -DE/DX =    0.0                 !
 ! D1    D(3,1,2,7)             67.0398         -DE/DX =    0.0                 !
 ! D2    D(3,1,2,8)            171.5326         -DE/DX =    0.0                 !
 ! D3    D(4,1,2,7)            -52.2969         -DE/DX =    0.0                 !
 ! D4    D(4,1,2,8)             52.196          -DE/DX =    0.0                 !
 ! D5    D(5,1,2,7)           -171.6337         -DE/DX =    0.0                 !
 ! D6    D(5,1,2,8)            -67.1409         -DE/DX =    0.0                 !
 --------------------------------------------------------------------------------
 GradGradGradGradGradGradGradGradGradGradGradGradGradGradGradGradGradGrad

 Leave Link  103 at Tue Oct  6 16:35:05 2020, MaxMem=  2684354560 cpu:               1.5 elap:               0.4
 (Enter /udrive/faculty/rpeverati/g16/g16/l9999.exe)

 ----------------------------------------------------------------------

 Electric dipole moment (input orientation):
 (Debye = 10**-18 statcoulomb cm , SI units = C m)
                  (au)            (Debye)         (10**-30 SI)
   Tot        0.708709D+00      0.180136D+01      0.600869D+01
   x         -0.238943D+00     -0.607332D+00     -0.202584D+01
   y         -0.154017D-02     -0.391473D-02     -0.130581D-01
   z          0.667212D+00      0.169588D+01      0.565686D+01

 Dipole polarizability, Alpha (input orientation).
 (esu units = cm**3 , SI units = C**2 m**2 J**-1)
 Alpha(0;0):
               (au)            (10**-24 esu)      (10**-40 SI)
   iso        0.281489D+02      0.417123D+01      0.464112D+01
   aniso      0.239146D+02      0.354378D+01      0.394299D+01
   xx         0.440060D+02      0.652101D+01      0.725560D+01
   yx         0.609214D-03      0.902762D-04      0.100446D-03
   yy         0.214594D+02      0.317995D+01      0.353818D+01
   zx         0.718045D+00      0.106403D+00      0.118390D+00
   zy         0.569016D-02      0.843195D-03      0.938181D-03
   zz         0.189813D+02      0.281274D+01      0.312959D+01

 ----------------------------------------------------------------------

 Dipole orientation:
     6         -2.24608737          0.00111678          0.82327766
     7          2.25841712         -0.00019693         -1.07234284
     1         -3.16559818          1.72310416          0.16282327
     1         -1.87961386         -0.00079199          2.85004259
     1         -3.16781852         -1.71859129          0.15998607
     1         -0.00630926          0.00056632         -0.40995105
     1          2.94418409          1.52445875         -0.07958287
     1          2.94311637         -1.52530743         -0.07954447

 Electric dipole moment (dipole orientation):
 (Debye = 10**-18 statcoulomb cm , SI units = C m)
                  (au)            (Debye)         (10**-30 SI)
   Tot        0.708709D+00      0.180136D+01      0.600869D+01
   x          0.000000D+00      0.000000D+00      0.000000D+00
   y          0.000000D+00      0.000000D+00      0.000000D+00
   z          0.708709D+00      0.180136D+01      0.600869D+01

 Dipole polarizability, Alpha (dipole orientation).
 (esu units = cm**3 , SI units = C**2 m**2 J**-1)
 Alpha(0;0):
               (au)            (10**-24 esu)      (10**-40 SI)
   iso        0.281489D+02      0.417123D+01      0.464112D+01
   aniso      0.239146D+02      0.354378D+01      0.394299D+01
   xx         0.416172D+02      0.616703D+01      0.686175D+01
   yx        -0.595686D-02     -0.882716D-03     -0.982154D-03
   yy         0.214594D+02      0.317996D+01      0.353818D+01
   zx        -0.738833D+01     -0.109484D+01     -0.121817D+01
   zy         0.216910D-02      0.321427D-03      0.357636D-03
   zz         0.213701D+02      0.316672D+01      0.352345D+01

 ----------------------------------------------------------------------

 Test job not archived.
 1\1\GINC-NODE20\Freq\UB3LYP\6-31G(d)\C1H6N1(2)\RPEVERATI\06-Oct-2020\0
 \\#P Freq B3LYP/6-31G* 5D 7F Integral=UltraFineGrid SCF=(NoSymm,XQC,Ma
 xCyc=120) IOp(1/33=1) Geom=Check Guess=Read\\TS search on BH76.\\0,2\C
 ,-1.2658709625,0.0000927633,0.0094202474\N,1.3164499308,0.0006779636,-
 0.1313018334\H,-1.606475691,0.912270194,-0.4816859172\H,-1.4448975589,
 -0.0033213078,1.0845211362\H,-1.6063883112,-0.9089884689,-0.4874535234
 \H,0.0699973776,0.0007723939,-0.2053595916\H,1.4806687683,0.806210401,
 0.4873871898\H,1.4807390574,-0.8076522635,0.4837085547\\Version=ES64L-
 G16RevA.03\State=2-A\HF=-96.3696496\S2=0.757556\S2-1=0.\S2A=0.750026\R
 MSD=3.189e-09\RMSF=3.213e-06\ZeroPoint=0.0641189\Thermal=0.0688021\Dip
 ole=-0.2389429,-0.0015402,0.6672125\DipoleDeriv=0.5572352,0.0000637,-0
 .0097167,0.0000532,0.0004124,-0.0000146,0.0123637,-0.0000061,-0.001398
 3,-0.1952345,-0.0002338,0.1026325,-0.0004262,-0.1995019,0.0001236,0.19
 40427,0.000139,-0.2511541,-0.0555076,0.0597581,-0.0359115,0.0167096,-0
 .050261,0.0621735,0.0032166,0.0558156,0.0320494,-0.0834503,-0.0001515,
 0.0469526,-0.000073,0.0577807,0.0005232,0.0210824,0.0005225,-0.1066,-0
 .0554613,-0.0595485,-0.036294,-0.0167195,-0.0494994,-0.0626852,0.00311
 79,-0.0563284,0.0313064,-0.7044681,-0.0000534,-0.004617,0.0002213,0.11
 91883,-0.000116,-0.1371672,-0.0001352,0.1737742,0.2684406,0.0126203,-0
 .0314916,0.0391847,0.0615957,-0.1096339,-0.0482264,-0.1755382,0.060361
 9,0.268446,-0.012455,-0.0315542,-0.03895,0.0602853,0.1096295,-0.048429
 7,0.1755309,0.0616606\Polar=44.0059652,0.0006092,21.4593891,0.7180451,
 0.0056902,18.9813031\Quadrupole=-0.8152876,1.1093164,-0.2940288,-0.005
 3144,2.2715237,0.0034437\PG=C01 [X(C1H6N1)]\NImag=1\\0.17232414,-0.000
 15136,0.57408112,0.04109812,0.00000339,0.57304900,-0.12072874,-0.00006
 928,0.02265764,0.12626307,-0.00000603,0.00479506,0.00000608,-0.0002131
 7,0.55447132,-0.00146527,0.00000779,0.00164837,0.08609885,0.00045953,0
 .35453284,-0.05444152,0.08540747,-0.04839059,0.00588830,-0.00063118,0.
 00077488,0.05838504,0.07352888,-0.24989551,0.10661486,0.00182124,0.000
 89292,-0.00062223,-0.08210209,0.26352133,-0.04228353,0.10556586,-0.108
 47981,-0.00137310,-0.00041793,-0.00002417,0.04595227,-0.11678534,0.109
 01541,-0.03412196,-0.00017334,0.05518774,0.00158631,-0.00000163,0.0010
 6274,0.00308014,-0.00045934,-0.01120926,0.03667210,-0.00013470,-0.0519
 0723,0.00088149,0.00000191,0.00009142,-0.00000366,-0.00621378,0.002975
 14,0.02591037,0.00015401,0.04667177,0.04272729,0.00088079,-0.32942425,
 -0.00045304,-0.00000302,0.00115169,0.00323423,-0.00207760,-0.00974516,
 -0.04877678,-0.00096156,0.34960950,-0.05442507,-0.08508132,-0.04892165
 ,0.00589178,0.00062765,0.00077814,0.00512858,0.00989494,0.00571347,0.0
 0307986,0.00619315,0.00327338,0.05836898,-0.07324131,-0.24856130,-0.10
 750656,-0.00181336,0.00088594,0.00062733,-0.00992868,-0.01680605,-0.01
 270344,0.00053016,0.00312650,0.00215954,0.08179042,0.26205137,-0.04273
 862,-0.10645711,-0.10982966,-0.00138605,0.00042491,-0.00001695,0.00564
 934,0.01254424,0.00847023,-0.01120360,-0.02582978,-0.00989571,0.046460
 47,0.11775904,0.11050138,0.09084029,0.00006244,-0.01911207,0.05993942,
 0.00005012,-0.01886610,-0.01783219,-0.00197112,0.00310709,-0.01099910,
 0.00000147,-0.00069365,-0.01783498,0.00194967,0.00312000,-0.09212003,-
 0.00000530,-0.02925123,0.00000676,0.00000339,-0.04064040,-0.00005181,0
 .01366274,-0.00062470,-0.00157515,-0.00005002,-0.00090501,0.00000248,-
 0.01361689,-0.00063340,0.00156338,-0.00006164,0.07099157,0.00709700,0.
 00000953,-0.03091051,0.00408796,-0.00005115,-0.01825500,-0.00778146,0.
 00030313,0.00117154,0.01508223,0.00000279,-0.00175053,-0.00786658,-0.0
 0031603,0.00117960,0.01910871,0.00003102,0.05717279,0.00027644,-0.0005
 3525,-0.00126083,-0.03941718,-0.03183527,-0.03425834,-0.00012299,0.000
 02502,-0.00024268,0.00035146,-0.00015860,0.00034336,-0.00008592,0.0007
 3561,0.00034070,-0.00599482,-0.01944301,-0.01490808,0.04253471,-0.0023
 3266,0.00036410,0.00044776,-0.04027094,-0.25947542,-0.14410250,0.00041
 836,0.00007460,0.00003814,0.00006194,-0.00002765,0.00022952,0.00060883
 ,-0.00013789,0.00003293,0.00398010,0.00054161,-0.00056653,0.04438146,0
 .28724743,-0.00222357,0.00204870,0.00197886,-0.05489913,-0.19672030,-0
 .17029420,-0.00041848,0.00003422,-0.00011288,-0.00007075,0.00012323,0.
 00002796,0.00098225,0.00001288,-0.00029501,0.00667771,-0.00402524,-0.0
 0431445,0.04554387,0.17131132,0.16304115,0.00027642,0.00054064,-0.0012
 5835,-0.03942295,0.03200951,-0.03412489,-0.00008535,-0.00073752,0.0003
 3574,0.00035119,0.00015653,0.00034521,-0.00012324,-0.00002251,-0.00024
 224,-0.00599859,0.01951073,-0.01481976,0.00245830,-0.00684709,0.004408
 11,0.04254421,0.00234249,0.00037497,-0.00045379,0.04054020,-0.26102082
 ,0.14368554,-0.00061285,-0.00013773,-0.00003250,-0.00006178,-0.0000249
 4,-0.00023015,-0.00041677,0.00007483,-0.00003761,-0.00401103,0.0005215
 6,0.00058724,0.00683002,-0.02858678,0.02721520,-0.04461029,0.28879891,
 -0.00221141,-0.00205895,0.00196799,-0.05473313,0.19630189,-0.16874259,
 0.00097982,-0.00001129,-0.00029516,-0.00007231,-0.00012288,0.00002649,
 -0.00041947,-0.00003277,-0.00011389,0.00665831,0.00404856,-0.00429345,
 0.00444201,-0.02739065,0.00996856,0.04535619,-0.17073392,0.16148205\\0
 .00000166,-0.00000104,-0.00000003,0.00000493,-0.00000036,0.00000636,0.
 00000069,-0.00000013,0.00000070,0.00000083,-0.00000035,-0.00000138,0.0
 0000069,0.00000013,0.00000094,-0.00001055,0.00000193,-0.00000310,0.000
 00162,-0.00000458,-0.00000214,0.00000012,0.00000440,-0.00000136\\\@


                                                                                    A
                                                                                  AA
                                                                                 AAA
                                                                                AAAA
                                                                               AAAAA
                                                                              AAAAAA   KKKKKKKK
                                                                             AAAAAAA   KKKKKKKK
                                                                            AAAAAAAA   KKKKKKKK
                                       ZZZZZZZZZZZZZZZZZZZZ                AAAA  AAA   KKKKKKKK
                                       ZZZZZZZZZZZZZZZZZZZ                AAAA   AAA   KKKKKKKK          K
                                       ZZZZZZZZZZZZZZZZZZ                AAAA    AAA   KKKKKKKK         KKK
                                       ZZZZZZZZZZZZZZZZZ                AAAA     AAA   KKKKKKKK        KKKKK
                                       ZZZZZZZZZZZZZZZZ                AAAA      AAA   KKKKKKKK       KKKKKKK
                                                ZZZZZZ                AAAA       AAA   KKKKKKKK      KKKKKKK
                                               ZZZZZZ                AAAA        AAA   KKKKKKKK     KKKKKKK
                                              ZZZZZZ                AAAA         AAA   KKKKKKKK    KKKKKKK
                                             ZZZZZZ                AAAA          AAA   KKKKKKKK   KKKKKKK
                                            ZZZZZZ                AAAAAAAAAAAAAAAAAA   KKKKKKKK  KKKKKKK
                                           ZZZZZZ                AAAAAAAAAAAAAAAAAAA   KKKKKKKK KKKKKKK
                                          ZZZZZZ                AAAAAAAAAAAAAAAAAAAA   KKKKKKKKKKKKKKK
                                         ZZZZZZ                AAAAAAAAAAAAAAAAAAAAA   KKKKKKKKKKKKKK
                                        ZZZZZZ                AAAAAA        AAAAAAAA   KKKKKKKKKKKKK
                                       ZZZZZZ                AAAAAA         AAAAAAAA   KKKKKKKKKKKK
                                      ZZZZZZ                AAAAAA          AAAAAAAA   KKKKKKKKKKK
                                     ZZZZZZ                AAAAAA           AAAAAAAA   KKKKKKKKKKKK
                                    ZZZZZZ                AAAAAA            AAAAAAAA   KKKKKKKKKKKKK
                                   ZZZZZZ                AAAAAA             AAAAAAAA   KKKKKKKKKKKKKK
                                  ZZZZZZ                AAAAAA              AAAAAAAA   KKKKKKKKKKKKKKK
                                 ZZZZZZ                AAAAAA               AAAAAAAA   KKKKK KKKKKKKKKK
                                ZZZZZZ                AAAAAA                AAAAAAAA   KKKKK  KKKKKKKKKK
                               ZZZZZZ                AAAAAA                            KKKKK   KKKKKKKKKK
                              ZZZZZZ                AAAAAA                             KKKKK    KKKKKKKKKK
                             ZZZZZZ                                                    KKKKK     KKKKKKKKKK
                            ZZZZZZ                                                     KKKKK      KKKKKKKKKK
                           ZZZZZZ                                                      KKKKK       KKKKKKKKKK
                          ZZZZZZ                                                       KKKKK        KKKKKKKKKK
                         ZZZZZZZZZZZZZZZZZZZZZZZZZZZZZZZZZZZZZZZZ                      KKKKK         KKKKKKKKKK
                        ZZZZZZZZZZZZZZZZZZZZZZZZZZZZZZZZZZZZZZZZZ                      KKKKK          KKKKKKKKKK
                       ZZZZZZZZZZZZZZZZZZZZZZZZZZZZZZZZZZZZZZZZZZ                      KKKKK           KKKKKKKKKK
                       ZZZZZZZZZZZZZZZZZZZZZZZZZZZZZZZZZZZZZZZZZZ                      KKKKK            KKKKKKKKKK
                       ZZZZZZZZZZZZZZZZZZZZZZZZZZZZZZZZZZZZZZZZZZ                      KKKKK             KKKKKKKKKK
                       ZZZZZZZZZZZZZZZZZZZZZZZZZZZZZZZZZZZZZZZZZZ                      KKKKK              KKKKKKKKKK
                       ZZZZZZZZZZZZZZZZZZZZZZZZZZZZZZZZZZZZZZZZZZ                      KKKKK               KKKKKKKKKK
                       ZZZZZZZZZZZZZZZZZZZZZZZZZZZZZZZZZZZZZZZZZZ                      KKKKK                KKKKKKKKKK
                       ZZZZZZZZZZZZZZZZZZZZZZZZZZZZZZZZZZZZZZZZZZ                      KKKKK
                                                                                       KKKKK
                                                                                          (J.P.)
 Job cpu time:       0 days  0 hours  3 minutes 37.4 seconds.
 Elapsed time:       0 days  0 hours  0 minutes 23.1 seconds.
 File lengths (MBytes):  RWF=      7 Int=      0 D2E=      0 Chk=      1 Scr=      1
 Normal termination of Gaussian 16 at Tue Oct  6 16:35:06 2020.
