212
 energy: -250.111539284118 gnorm: 0.000355219521 xtb: 6.2.2 (9d81278992624c895f80dd42a50cac0aa55982e2)
C         0.80642661240365    0.00018050617653    0.01116404167032
C        -0.80642629182735   -0.00018394648370   -0.01116572407883
C         1.42507356606679    0.33457344203220   -1.36637718637214
C        -1.42507537182384   -0.33457651117427    1.36637477538872
C        -1.40104584817556    1.36825696576335   -0.41621395217268
C         1.40104929315284   -1.36825862301021    0.41621314062915
C         1.38504616224698    1.03541165499041    1.00369085492531
C        -1.38504738054221   -1.03541366602981   -1.00369321859404
C         0.99303839583690    1.07626926912164    2.34420582933728
C        -0.99303301860372   -1.07627968075878   -2.34420613134020
C        -1.01416956743645   -1.44161375244522    2.11630023080467
C         1.01417379963043    1.44161866115165   -2.11629448174802
C         1.01233499106790   -2.55686519764998   -0.20402690666661
C        -1.01234411857316    2.55685876240379    0.20404357705388
C         2.43897816636815    1.86568877736000    0.62406226220030
C        -2.43898665158718   -1.86568240549507   -0.62406608528367
C        -2.52786820435570    0.37721597691436    1.83253762369045
C         2.52785790248018   -0.37722631094954   -1.83254882646825
C         2.47495661401650   -1.43667489886694    1.30431335423011
C        -2.47493907560804    1.43667898295437   -1.30433064710769
C         1.55717178606216    1.96615584332438    3.25383030723736
C        -1.55716899627220   -1.96616537601653   -3.25383005558929
C        -1.62732293684251   -1.78883908247399    3.31321107305293
C         1.62732612138799    1.78884633303405   -3.31320512116915
C         1.60987798730645   -3.77896100049712    0.09370814678790
C        -1.60988489349935    3.77895604901971   -0.09369020254796
C         3.06028002317624    2.73529332668043    1.51926516369484
C        -3.06029016738328   -2.73528623466208   -1.51926843666507
C        -3.19500141301753    0.03132118310022    3.00790177401456
C         3.19499025609800   -0.03132948352549   -3.00791299195712
C         3.11998010996128   -2.63672254316189    1.59823133533401
C        -3.11996161454914    2.63672766479550   -1.59824666631673
C         2.59504983924114    2.79265717782937    2.82843254893608
C        -2.59505522621581   -2.79265735361949   -2.82843388818051
C        -2.72729613501680   -1.04680414735866    3.74701079425789
C         2.72729169229873    1.04680476800968   -3.74701319194148
C         2.66593349635974   -3.80745619414026    1.00011725376477
C        -2.66592656004644    3.80745688531902   -1.00011542354482
H         0.23781452669422    0.39229803567032    2.69530193475947
H        -0.23780129005993   -0.39231630357309   -2.69530083845892
H        -0.20049163513275   -2.04558281141208    1.75234585411467
H         0.20050392479249    2.04559362358307   -1.75233149965642
H         0.22623295821891   -2.53736740982395   -0.94148130062009
H        -0.22625550705356    2.53735573716200    0.94151234162801
H         2.81787587056394    1.82139354155422   -0.38683188377123
H        -2.81788774634635   -1.82138146964218    0.38682661822539
H        -2.90935958801243    1.21130676694592    1.26108634795806
H         2.90934335294305   -1.21132476471872   -1.26110478771366
H         2.84590438178600   -0.53263996960935    1.76631399194870
H        -2.84587758572698    0.53264751724970   -1.76634539349461
C         1.08905354271216    1.94493398103980    4.70649607782700
C        -1.08904455677053   -1.94495286429915   -4.70649398539475
C        -1.16127008265586   -2.98298161803101    4.13976690450244
C         1.16128058261083    2.98299697341631   -4.13975332875570
C         1.08712959850392   -5.03160920598875   -0.60210739493738
C        -1.08714695644396    5.03160112456129    0.60213890513433
C         4.29091540782255    3.50617065384091    1.05070047538589
C        -4.29093039852185   -3.50615691343628   -1.05070498486378
C        -4.44353217290112    0.81859809137239    3.39131209661497
C         4.44351790238126   -0.81860874442222   -3.39132884495450
C         4.33873841238387   -2.60092596385406    2.51478788519855
C        -4.33871168452221    2.60093535646214   -2.51481427099431
H         3.06357717577990    3.46482838375736    3.53336505873699
H        -3.06358455394608   -3.46482747535413   -3.53336611166167
H        -3.22845417931062   -1.33629486387852    4.66137414238841
H         3.22844900334404    1.33629724192306   -4.66137641672982
H         3.15049717041022   -4.74652300821189    1.22660553549048
H        -3.15048885917178    4.74652450816038   -1.22660320756517
C         5.01915589371737   -0.38944333250596   -4.74855984615646
C        -5.01917448083775    0.38943273574050    4.74854118499452
C        -4.88736109672471    4.00078549498695   -2.82635724626184
C         4.88738965524118   -4.00077454013754    2.82633416787883
C         4.76747112616939    4.54065060093598    2.08084620470644
C        -4.76748592672727   -4.54063988635728   -2.08084781335285
C         5.51238071272199   -0.57586413313396   -2.30924621581162
C        -5.51239183372808    0.57585383994209    2.30922639432583
C        -5.44255485831032    1.79063870604870   -1.80936648227695
C         5.44257693990799   -1.79063322132914    1.80932844931025
C         5.41824277740760    2.48009840954268    0.82574121608226
C        -5.41825495962863   -2.48007981583562   -0.82575418233895
C         4.11885325753299   -2.32087111217833   -3.46471393170426
C        -4.11886615112595    2.32086029581156    3.46469770250449
C        -3.97793569556563    1.92237318428932   -3.84743888062634
C         3.97797229758063   -1.92235680494334    3.84741189565927
C         4.00921361593122    4.24807825706155   -0.26719556530451
C        -4.00923678368962   -4.24805966330713    0.26719569052049
C         0.96191781016099    2.55257060554942   -5.60417387877387
C        -0.96192772842219   -2.55255224415862    5.60418930220191
C        -1.83955497223506    6.30205133341629    0.18180342265726
C         1.83953848173155   -6.30205849117080   -0.18177053829421
C         1.48913451613463    3.22201674458107    5.46178276871399
C        -1.48913380197971   -3.22203592197812   -5.46177599470597
C        -0.16721387542310    3.56695016915547   -3.63851498842392
C         0.16723674412155   -3.56691933340406    3.63854281879771
C         0.40017008441271    5.21233261491444    0.25106584992063
C        -0.40018485436310   -5.21233521116253   -0.25102107869255
C        -0.44125797737836    1.80891244932723    4.78947981555189
C         0.44126818159225   -1.80894257461564   -4.78947090446228
C         2.23893653517054    4.07899017737578   -4.06245933792149
C        -2.23891213671375   -4.07898781959780    4.06246276292351
C        -1.23347695259427    4.86474629063451    2.12484498755946
C         1.23344754563135   -4.86476239032496   -2.12481556617708
C         1.74008276658234    0.73186333994497    5.39447952100240
C        -1.74006262823244   -0.73188021533386   -5.39448430556054
H         0.56572466729311    3.38451857269306   -6.18751044261001
H        -0.56572864444567   -3.38449454984713    6.18753002673849
H        -1.41670964896792    7.16296601520050    0.70145708626087
H         1.41668190467098   -7.16297574617278   -0.70141070523395
H         1.04855953146661    3.21048085875938    6.45952697245346
H        -1.04855235020464   -3.21050817291846   -6.45951749548422
H         1.90024618036877    2.23598477660184   -6.05810261853779
H        -1.90026470615393   -2.23597911088407    6.05810913809655
H        -2.89625831306567    6.23463262566378    0.44162192291809
H         2.89623846454229   -6.23464698276398   -0.44160465125672
H         2.57059906863149    3.29417195256848    5.57631521049931
H        -2.57059837058211   -3.29418259946062   -5.57631430466744
H         0.25493079267935    1.72396613105784   -5.65591008971569
H        -0.25495263634350   -1.72393806369853    5.65593226995789
H        -1.74630385115641    6.47427837717917   -0.89072968927507
H         1.74630135048599   -6.47427581215350    0.89076536326880
H         1.12811092339940    4.10658304009651    4.93615096131719
H        -1.12812151820108   -4.10660309963869   -4.93613801623912
H         1.93926418364074    4.94700963096257   -4.65070897190815
H        -1.93923489490923   -4.94700464210333    4.65071381236340
H        -0.90685045479224    5.77059636129876    2.63668117021276
H         0.90681785520529   -5.77061477984599   -2.63664552134620
H         1.41902678866246    0.66660248762550    6.43464052865296
H        -1.41900439337158   -0.66662823431066   -6.43464521850822
H         2.37785348639485    4.39068324850077   -3.02664185551419
H        -2.37781705968232   -4.39068066919038    3.02664358573052
H        -0.62806599551504    4.03308547570675    2.48353078897083
H         0.62803373533976   -4.03310320085436   -2.48350046317340
H         1.45565029137484   -0.18804468144224    4.88314882508197
H        -1.45562292423703    0.18802795125478   -4.88315783940164
H         3.19164827720143    3.71168884358737   -4.44378669430338
H        -3.19163107965292   -3.71169738538876    4.44378258140695
H        -2.27527924018629    4.67380095788192    2.38325928705512
H         2.27524784591922   -4.67381738737418   -2.38323793820501
H         2.82639080819504    0.82202130930388    5.36808991629369
H        -2.82637149007278   -0.82202822377274   -5.36809556244026
H        -0.49036779288939    4.36703904294529   -4.30579185741312
H         0.49039621377112   -4.36699991582251    4.30582698729864
H         0.79519071714774    6.10819847144816    0.73129557579275
H        -0.79521059522289   -6.10820371305392   -0.73124172344008
H        -0.77055850670730    1.93286099124688    5.82177397642395
H         0.77057183974776   -1.93290052554004   -5.82176301527369
H        -0.94341354877843    2.80165851409134   -3.62070200382631
H         0.94342587992653   -2.80161688392853    3.62073242705251
H         0.52189219836820    5.31222162354167   -0.82797823631557
H        -0.52189867698113   -5.31221740663990    0.82802458036314
H        -0.92101366040654    2.57303953381780    4.17826488384103
H         0.92101553248043   -2.57306928931308   -4.17824909305851
H        -0.06453142492443    3.98665512298316   -2.63802270239935
H         0.06456907019750   -3.98663133073569    2.63805196943093
H         0.98288084042025    4.35576928499483    0.58716788422121
H        -0.98289751268237   -4.35577345818724   -0.58712393700727
H        -0.77648019168685    0.83054402802318    4.44867741835908
H         0.77649624692129   -0.83057452734832   -4.44867298341486
H         5.89096442194982   -1.00141171299991   -4.98398385726836
H        -5.89098876918091    1.00139545821559    4.98395853661779
H        -5.73835140317782    3.91540588345200   -3.50350020335823
H         5.73838894487657   -3.91539168250459    3.50346548910761
H         5.61443165604257    5.09544579841002    1.67488401291638
H        -5.61445013423397   -5.09542980521427   -1.67488639088014
H         4.28375302078151   -0.52427316107930   -5.54217938825827
H        -4.28377694137376    0.52427014676763    5.54216437786483
H        -4.12819989115761    4.61675468540618   -3.30911063108413
H         4.12823345154420   -4.61673894506335    3.30910151324569
H         3.97278771958156    5.25066073060237    2.31167295655169
H        -3.97280452146709   -5.25065464183652   -2.31166742878637
H         5.33456295748323    0.65391310034895   -4.72897253085802
H        -5.33457394082515   -0.65392601269456    4.72895504306828
H        -5.22745079127164    4.50031886925951   -1.91903734718932
H         5.22746645708057   -4.50031493456208    1.91901332933826
H         5.09248858778734    4.05829871592754    3.00278273181295
H        -5.09249855859197   -4.05829108734709   -3.00278773948829
H         6.43404261650437   -1.10074741143331   -2.56279124635085
H        -6.43405383474371    1.10073778449506    2.56276972580858
H        -6.34233785056517    1.76044431354372   -2.42479673490770
H         6.34236390110047   -1.76043778298704    2.42475288410748
H         6.33416539893775    2.98411478439365    0.51543055903246
H        -6.33418027530999   -2.98409180509659   -0.51544452522198
H         5.72732317160209    0.49030796812703   -2.22880622426934
H        -5.72733532861369   -0.49031803196678    2.22878575972091
H        -5.68892208951258    2.25023315251910   -0.85153859920975
H         5.68893763361793   -2.25023183772033    0.85150084004155
H         5.61491788332311    1.93213923883907    1.74792070838357
H        -5.61492539948391   -1.93212487800130   -1.74793726922187
H         5.16779174369279   -0.93233696922505   -1.33860981234731
H        -5.16780104175381    0.93232687762437    1.33859069811379
H        -5.11439718502361    0.76736008963680   -1.62685311215693
H         5.11441983089781   -0.76735474082515    1.62681340441605
H         5.13677806970357    1.76470450644943    0.05280217724330
H        -5.13679148737580   -1.76468320482905   -0.05281715092736
H         5.00743831286881   -2.88205070177517   -3.75616429191060
H        -5.00744799502816    2.88204026818097    3.75615690437524
H        -4.83673113831617    1.93465473015260   -4.51955801043064
H         4.83677215316871   -1.93463497888454    4.51952545622455
H         4.90432670849365    4.77996884396629   -0.59201354454741
H        -4.90435378282984   -4.77994291977276    0.59201472448155
H         3.77826261905762   -2.69937882588549   -2.50155786169961
H        -3.77828387673987    2.69936884060204    2.50153899956499
H        -3.68282651415907    0.88553162089684   -3.69229694663475
H         3.68286204748815   -0.88551607377279    3.69226625360085
H         3.71901279820914    3.55929830317065   -1.05961452940701
H        -3.71903291417963   -3.55927836288581    1.05961237335377
H         3.33777648414099   -2.49936462187464   -4.20387163425064
H        -3.33778223833325    2.49935150944122    4.20384843702104
H        -3.15366506874227    2.45062839901512   -4.32726142841177
H         3.15370450605803   -2.45060934984004    4.32724220939005
H         3.20875852201522    4.97397475779216   -0.12687947776634
H        -3.20878644487475   -4.97396224369272    0.12688402327224
