66
 energy: -93.411719679495 gnorm: 0.000577831114 xtb: 6.2.2 (9d81278992624c895f80dd42a50cac0aa55982e2)
Cl       14.15320745298619    3.38262196456243    8.63463708190206
Cl       20.10604481509674    5.47927079384845    8.40704554405647
C        18.18356399378643    3.54764322451279    8.40383317447055
C        18.77738871910507    2.15634466181048    8.19398250506661
C        17.26123688415676    1.60780884032874    8.45488548571664
C        16.85635716101562    3.07997588489276    8.46310271710211
C        15.79203950680399    3.92927598329984    8.56567923708070
C        16.05910333648565    5.32970706440762    8.62200901373192
C        15.01462713919452    6.27736799991657    8.72115424436151
C        15.27130176081977    7.62121534219744    8.79240624127513
C        16.59551278562146    8.08560155961729    8.76961191799762
C        17.63283511450548    7.19610573918232    8.67088901086164
C        17.40675379764003    5.80274084172563    8.59110236676728
C        18.48633794486036    4.87760387700602    8.46951489309869
C        19.82637611169061    1.75684675456302    9.21644615070034
C        20.19568488110244    2.63666675787429   10.23479689214074
C        21.17930424592276    2.30397416738749   11.15625917387706
C        21.82730751638619    1.08158181294255   11.07933435987022
C        21.47545606026869    0.19410028612627   10.07245140679042
C        20.48989582890350    0.52722134880197    9.15557680890538
C        19.38021018432014    2.08022363108670    6.72716833674649
C        18.67837051765123    3.07020624901083    5.77651287458533
C        20.86546419427274    2.49545838717353    6.78347564745262
C        19.32209103790254    0.70675399565565    6.03222776086793
C        16.63683597139100    0.78857711419652    7.33947046897232
C        15.75467923792199    1.37972537465234    6.43398528274932
C        15.14649423550068    0.63972530710446    5.42917572400147
C        15.39953128272107   -0.71718804646147    5.30687412608090
C        16.27223487984985   -1.32348231245569    6.19910644682579
C        16.88112159243776   -0.58132411116561    7.19995901597622
C        16.90544021898929    0.97765437741709    9.86797634935650
C        16.88590476090694    2.05059277946781   10.97484661830876
C        15.48255052951150    0.38454015426791    9.79800678508973
C        17.83590071456984   -0.14120814552072   10.37283114098020
H        13.99187410520327    5.91959541067736    8.74125720181281
H        14.45364248851495    8.32895243143908    8.86736643299650
H        16.79383259469517    9.14963613509955    8.82951787887539
H        18.65472052840562    7.55633387596800    8.65130881070275
H        19.72227998488929    3.60641609966848   10.31634543199704
H        21.44019670569823    3.01155627416598   11.93551684563248
H        22.59839232175307    0.82102889211897   11.79517597684374
H        21.96949368821396   -0.76823037892544    9.99620097063739
H        20.23439142353953   -0.20059728429034    8.39773275701317
H        18.90008025214520    4.10315260078070    6.03967373191242
H        19.03636624271858    2.89902729251201    4.76048346824112
H        17.59911751530826    2.93122555214783    5.78328960825812
H        21.48306341072175    1.69827863789512    7.19467564627169
H        21.21827740629611    2.70964786531495    5.77387264680279
H        21.00321271922940    3.38765139602172    7.39080002314329
H        18.37399403881462    0.56832434813630    5.51778751431581
H        20.11153341946413    0.66149627077720    5.28015189175774
H        19.46590796172906   -0.12501976064222    6.71561802926241
H        15.52137688729077    2.43384287940369    6.50802867320978
H        14.46662349329157    1.13202085853183    4.74258489266975
H        14.92254490239422   -1.29780546958878    4.52566089353459
H        16.48476240192682   -2.38389191397210    6.11922932213307
H        17.56819883524842   -1.08913501744343    7.86296574854046
H        17.81621675590771    2.61483063443288   10.99914439246547
H        16.05820611383659    2.74583903086333   10.84372867491425
H        16.76114650748213    1.55976774173371   11.94087169600822
H        14.79186522424388    1.07046486517641    9.31186511009697
H        15.47393206875772   -0.55877671259695    9.25376671105312
H        15.12209451098467    0.19439029778215   10.80969512171351
H        17.28180532144191   -0.76633801783627   11.07508051820603
H        18.20525067656867   -0.78167422335159    9.57704372895164
H        18.68933507898486    0.27045972856537   10.90672484625623
