62
 energy: -96.752104952893 gnorm: 0.000680967343 xtb: 6.2.2 (9d81278992624c895f80dd42a50cac0aa55982e2)
Br        6.05405060459877    2.75361007216689    5.80668567650015
Br        0.25678335540621   -0.50110002648677    6.52688593601851
C         3.97395375183429    0.77464315379404    3.57834604252032
C         2.49490991785883    0.11167137963815    3.70865267636592
C         2.55153142732972    0.54019237754524    5.16658754055166
C         1.89068302818415    0.47323040418534    6.35384628656036
C         2.48063349222454    1.14135132467597    7.46826699090991
C         1.85814715454662    1.15305045143621    8.73581833280040
C         2.40514471887958    1.81820001570363    9.80196377020302
C         3.61494278658629    2.51173693735382    9.64971197720357
C         4.25141510564121    2.51904323844697    8.43603019358025
C         3.72175258064219    1.84249333328089    7.31544219994719
C         4.40083955910404    1.83239143240398    6.06085582999750
C         3.81322677418197    1.15001006520732    5.04189177461625
C         5.03949502339878   -0.25483372095484    3.28317685150168
C         4.98315474938450   -0.99088967790408    2.09740330211940
C         5.93219744053400   -1.96164123222195    1.81893115390402
C         6.95590765591960   -2.21568398880532    2.72164153884878
C         7.02045861216562   -1.49120978015348    3.90205753275341
C         6.06852214439184   -0.52004542378162    4.18215173774465
C         4.07304851275962    2.00733855367336    2.70240458970006
C         3.29805948127694    3.12656039226804    3.01729749272138
C         3.36919349532690    4.28033435084804    2.25438658877195
C         4.22664185996387    4.34444642097470    1.16419535866109
C         5.01464168869084    3.24709933952159    0.85333042208442
C         4.94130293109196    2.08954963948925    1.61632956354178
C         2.45199584242659   -1.39694523716445    3.56524437898569
C         3.13569421529883   -2.18625476151104    4.49333042126331
C         3.12992745061795   -3.56789069522501    4.39590093058992
C         2.43227635409117   -4.19219151258613    3.37082517583946
C         1.73629834012160   -3.42020161075127    2.45346725328764
C         1.74339381949415   -2.03528605141574    2.55019250688020
C         1.45765130768610    0.81471415712432    2.86451888518478
C         0.33188988455809    1.40310845968133    3.43408149482075
C        -0.60490908289540    2.05365359917807    2.64273793456749
C        -0.42879500821286    2.13152844518688    1.26961459268089
C         0.69245283870931    1.55278396564188    0.69080386650464
C         1.62635850108741    0.90079905029808    1.48059619056023
H         0.92073074430921    0.62219613874027    8.85311261005578
H         1.90491259772060    1.81211688031727   10.76372478017444
H         4.04421044881665    3.03870316324061   10.49426662914075
H         5.18767853366154    3.05188678116684    8.31852140878118
H         4.17904030826952   -0.81736319851847    1.39135406159656
H         5.86734074890974   -2.52537762989981    0.89493328628969
H         7.69700375254631   -2.97691873490129    2.50618625747864
H         7.81359032403385   -1.68338410794823    4.61621751840142
H         6.13313961822537    0.02991435810653    5.11243730167788
H         2.62647289753665    3.09438893256139    3.86797719575182
H         2.75261487571287    5.13371853849332    2.51419663623385
H         4.28411321238604    5.24682192725075    0.56626125503375
H         5.69739271190809    3.28798881203812    0.01165793652779
H         5.57845388014920    1.25255221664915    1.35733376037908
H         3.68642827399957   -1.71444298504596    5.29937300194267
H         3.67354264799170   -4.15877500452589    5.12470433014901
H         2.42698624476728   -5.27332342487070    3.29183474534622
H         1.18018412975927   -3.89541657421319    1.65280522518420
H         1.18366106218542   -1.45867231847462    1.82360157066472
H         0.17785625082755    1.35869792728975    4.50444169536559
H        -1.47496592137869    2.50516056371553    3.10667125266193
H        -1.15914732478202    2.64260762287620    0.65286064268605
H         0.84450684529551    1.61206117218087   -0.38121632723847
H         2.50578082224367    0.47059210301113    1.01533823442303
