62
 energy: -96.886969561077 gnorm: 0.000395800028 xtb: 6.2.2 (9d81278992624c895f80dd42a50cac0aa55982e2)
I         3.22622188742676    1.76689040989410    6.64457331280381
I         6.84081219828502    2.76272787307225    0.58140409861482
C         2.94567478755435    0.64210059243736    3.05082102971219
C         3.66092448465591    1.02290844542711    1.64215549377765
C         4.64837712140626    1.81507283864805    2.48417093945261
C         5.80446529468241    2.53088500376471    2.41224988130515
C         6.27512709710076    3.08510441575072    3.64400541817225
C         7.45595914526667    3.85751701668343    3.69413947037433
C         7.90813912922986    4.42459778816398    4.85660524711785
C         7.18685455542340    4.24446076752109    6.04580206885499
C         6.03919684588365    3.49603185642168    6.03851557487070
C         5.54458963008167    2.88950035781428    4.86336750160940
C         4.36434603690927    2.08190488032407    4.88744804918494
C         3.99227413360006    1.53536999662822    3.69710752877132
C         3.05942784539940   -0.82961015630515    3.37526807494428
C         3.73224808711296   -1.27687594446948    4.50866912372786
C         3.83746143073327   -2.63385290243377    4.78202261518423
C         3.27570157005012   -3.56643406253459    3.92338912313663
C         2.60632037562215   -3.13268323801303    2.78705691206123
C         2.50005013419927   -1.77768894415751    2.51523932672834
C         1.54429201087560    1.18416435986013    3.24852529908237
C         1.34626310763706    2.56734492737401    3.24937918428829
C         0.08427704179284    3.10689121235064    3.43599769519720
C        -1.00872233894341    2.27409713966617    3.63477775251808
C        -0.82240721304385    0.90051007345621    3.65272523748858
C         0.44232434746523    0.35984374028433    3.46449402145655
C         4.33525346026520   -0.12264542396563    0.91447038213411
C         5.38778727866421   -0.79670442812536    1.53916864544039
C         6.03806780738524   -1.84421099631625    0.90808282492211
C         5.65547661647754   -2.23618952296656   -0.36773494681241
C         4.62371657943515   -1.56416105078724   -1.00470165497633
C         3.97100815469462   -0.51519532912805   -0.37146841962198
C         2.76534641271098    1.84623436761769    0.74541712596257
C         1.54436072951559    1.32428049986612    0.31165686590685
C         0.69983755440186    2.07072414781796   -0.49504221375447
C         1.05953145055498    3.35407928904635   -0.88368970410235
C         2.26909509664683    3.88197174040768   -0.45834351706816
C         3.11352286161100    3.13512437906637    0.35176342032932
H         8.00672240431509    3.99796581974316    2.77015732112685
H         8.81874717241309    5.01280541560378    4.85999247189261
H         7.54004088269405    4.69507347164066    6.96635305890200
H         5.47990657090388    3.34847164801751    6.95625799030246
H         4.17501546618775   -0.56397893126715    5.19332426960571
H         4.36519199008366   -2.96065566435465    5.67128233737132
H         3.36069853810193   -4.62615435286469    4.13559763923085
H         2.16741049520576   -3.85271491551440    2.10528383103842
H         1.98993558525512   -1.45607831545072    1.61441102243307
H         2.18971927847009    3.23133601003051    3.09722438724154
H        -0.04551425357813    4.18344335751438    3.42733764302631
H        -1.99736571006344    2.69432408996579    3.78025689428145
H        -1.66566587324013    0.23850349365334    3.81656005785729
H         0.55844826945672   -0.71677352048780    3.49554331611996
H         5.69993087070263   -0.50147466656591    2.53459949605647
H         6.84868407950601   -2.35581464386265    1.41511156815939
H         6.16260646882484   -3.05636383744942   -0.86297320368792
H         4.32115719093227   -1.85351688003924   -2.00515682649061
H         3.17609880527164   -0.00166487715460   -0.89871032683156
H         1.24092939472124    0.33055778847605    0.62079485051372
H        -0.24570987111047    1.64888858927632   -0.81740147966804
H         0.39830503319932    3.93939074837390   -1.51252842595647
H         2.56021451474819    4.88389713031890   -0.75414755955089
H         4.05528994823330    3.56404692223399    0.67134087823270
