74
 energy: -90.541206831294 gnorm: 0.000699331130 xtb: 6.2.2 (9d81278992624c895f80dd42a50cac0aa55982e2)
C         0.82754320166477    5.53671827105258    9.04389487586836
C         1.58941627562349    5.61162657689949    7.68189401331174
C         0.88534017355318    3.99628903332763    9.67910858202288
C         1.82070440082542    7.05384416063672    7.19270173137836
C        -0.44993716489227    3.74287824840392   10.41814217485670
C        -0.56241326182475    6.22671194355804    8.72237503097726
C         2.05097471700028    3.80056468635940   10.70289296258119
C        -1.48045565516791    6.49227875329334    9.93693978800108
C         1.71465214005724    7.92582298953912    9.51040170186873
C         3.55976640225831    2.58804825730391    9.08252706763041
C         1.48374442496855    6.51314672414444   10.07439246375220
C        -0.33698079197110    7.67889092954914    8.18029401066016
C        -1.31121054123059    5.47935587696483    7.60291024723056
C         1.91295105136151    2.47423856301201   11.48543770105638
C         0.92960672653094    1.42137775186821    9.48217139736343
C         0.63480440016004    6.69248242379341   11.34642913734505
C         0.46996133796860    7.70483738994579    6.88621909851517
C         1.07143996935363    2.76714050240657    8.71848588316006
C         0.36371729919197    8.57408932960475    9.20429822043675
C         2.04280990115287    1.28586907979487   10.52902470266802
C        -0.54226323066713    2.42099907738489   11.17759157137067
C         3.43464028996937    3.78390195249257   10.03060668552883
C         3.42383303465968    1.28866643199971    9.87507324956667
C         2.44799083735256    2.63911861755891    8.03263910688148
C        -0.51376606570293    5.52463363019587    6.29172620123784
C        -0.41975725528487    1.27662814997511   10.17967148312615
C        -0.73044317748893    7.30013518291030   11.00704692152983
C         0.57499669864300    2.37683265460859   12.21744839585438
C         2.56687315898809    7.86925558427911    8.24547715728745
C        -0.48650626444298    8.70996071271629   10.46677729347546
C         0.86818879340610    4.91288899319823    6.51088649578641
C        -0.31383337184271    6.95939983254330    5.80769461764805
H         2.47407521532963    6.14960394200173   10.36038047669328
H         4.53623215521950    2.61947472569797    8.58280592128676
H        -1.51777312137148    2.37966521524748   11.67907945632664
H        -1.23449549528344    1.32754976673242    9.45020904361772
H         3.53385005245930    7.40387347007647    8.46372298828937
H         0.75303324776530    3.84265496482399    6.64170429869453
H         0.52157770395969    9.56826987183506    8.76487791440749
H         2.24390809757237    8.51283212488332   10.27339115846334
H         3.62080255976410    4.70875548442621    9.47998356766924
H         1.16609915937107    7.37801440400239   12.01693837224823
H         4.20186576556000    1.22244677880768   10.64249477677614
H         3.52969688658994    0.42589464274362    9.20962677756385
H        -1.33231879043670    8.09713712221470    7.97143606102553
H        -2.32768875514594    7.09474009042333    9.58664186301919
H        -1.43530560203744    9.20039897387409   10.22711329152243
H         0.53291158296469    1.44505908394891   12.79031581294091
H         0.51246087516617    5.76168636069913   11.89953584374325
H         2.04599315732805    4.58502976924659   11.46325087981453
H         0.46345292702670    3.21034238928161   12.91862536124532
H         2.75617664227222    8.88173742188409    7.87436238664742
H         2.58547570493678    5.18115367809190    7.80984122676702
H         4.20235579848420    3.71410240428686   10.80918634345543
H         0.27392753877440    2.76559045427640    7.96818462291338
H         2.72624631326503    2.43957327071768   12.22372721389000
H         0.23475222345778    6.96068533697338    4.86049683377485
H        -1.27643657444083    7.45403335765645    5.64278919922961
H        -1.48761110057143    4.43515700506319    7.87392842074170
H         2.42929896861249    7.00781205759540    6.27957752683063
H        -0.47725085940025    0.30712312413372   10.68465623694717
H        -1.26931882202896    3.76420804206881    9.69738721987840
H        -1.05079107721516    4.94739584753723    5.52811491129521
H         0.03263071774076    9.32221099170238   11.21099419911686
H        -0.61550027601037    4.51900224833558   11.15905068749404
H         2.45195518290153    1.70602674665557    7.45715694853009
H         2.66496742155325    3.43037637014860    7.32082217002156
H        -1.92549483716358    5.59626209018948   10.36153651478138
H        -1.34237963864208    7.34943513175321   11.91663448361862
H         0.62345854496591    8.74587598078951    6.57167776154010
H         1.02821396923525    0.61594556854983    8.74118548447028
H         1.47426018865869    5.05129353853820    5.60837609290245
H        -2.29030703130457    5.94631637203231    7.45001680636929
H         1.90710492594409    0.34892146873242   11.08578287345905
