55
 energy: -70.354333015288 gnorm: 0.000276848352 xtb: 6.2.2 (9d81278992624c895f80dd42a50cac0aa55982e2)
B         0.32979759939759    0.66851785805504   12.55505560313317
H        -0.82115494887600    0.89705173331777   12.48875879080245
B         1.18363258455762    0.22770927696079   14.05063204833816
H         0.56261175263288   -0.00514362712286   15.02165920828844
B         2.69627980007331    1.25710733072763   14.23341671636329
H         3.00006596165303    1.60201365648852   15.31667009953731
B         2.91553195704363    2.36292131169796   12.85010759015538
H         3.15592095640303    3.50944349352356   12.93832481560491
B         2.93549237819899    1.45653029006174   11.32061768072896
H         3.37430527759995    1.96695464853215   10.35610549082806
B         1.39366548724334    0.46853342257018   11.14363301809663
H         0.93152032424846    0.36612648961446   10.06637409831268
B         1.36013708781116   -0.77056113119938   12.51240682242854
H         0.86528260123833   -1.83018554640798   12.38760962326983
B         3.82324010410260    0.85163145264512   12.82485700098107
H         4.99494987336051    0.88023054973314   12.92409205388619
B         2.93230107075232   -0.30320092106415   11.72970787796690
H         3.52842612889330   -1.08736649165614   11.08475355890865
B         2.79538399730471   -0.44104721896900   13.58296900262111
H         3.30133581402612   -1.31590908198304   14.18693909514006
N         0.41533096781205    2.94055574226727   13.92886502163847
N         0.75446403981340    3.22712829006960   11.58013705093457
C         1.26737816573207    1.88036902684298   13.49299604621057
C         1.41034976171806    2.01203213127739   11.93931612540924
C        -0.05146406439377    3.66565783609963   12.73845412042266
H         0.06306136921935    4.74550598466231   12.87797702109183
H        -1.11392876029618    3.43935843085503   12.56993171066987
C        -0.02771451709882    3.17995415775196   10.33698658272464
H        -0.86508688932480    2.47268577812412   10.42043549146642
H         0.64331029995927    2.83383518557225    9.54455749398468
C        -0.52445565090774    4.56671245597836   10.01663639683345
C         0.36077784606164    5.64210891422790   10.05552998171394
H         1.39878991664431    5.46719992480451   10.31766509045747
C        -0.08267623760794    6.92417788737414    9.77058678366000
H         0.61231023454610    7.75591467099661    9.80459352392762
C        -1.41468343159461    7.14340389214679    9.44340047573865
H        -1.76195736214198    8.14620463383721    9.22147297379276
C        -2.30029871206651    6.07602978164031    9.40397371110587
H        -3.34194859501561    6.24276327307799    9.15246336000077
C        -1.85771742411104    4.79171377985766    9.69170101001486
H        -2.55507988153744    3.96084650603067    9.66419879209643
C         0.96524542280555    3.81646348142106   14.97492845776732
H         1.82330545367113    4.39529319095312   14.60777733278591
H         1.30564225998477    3.17139455816869   15.79083942434464
C        -0.12269990525032    4.73202392165160   15.47628194475593
C         0.12238613771689    6.08676027914426   15.67493732699730
H         1.10537357074864    6.49466965911536   15.46347232704468
C        -0.88613374176515    6.91911919232291   16.14167537819886
H        -0.68635221738552    7.97418712960136   16.29300319484354
C        -2.14661724602622    6.40424492419118   16.40890051078965
H        -2.93441069933907    7.05553940076703   16.77037307548520
C        -2.39698748062507    5.05266082741750   16.20963250569995
H        -3.38119274981402    4.64650577244737   16.41562128488965
C        -1.39003025951692    4.22019819960878   15.74652718930778
H        -1.58311542825684    3.16522368417422   15.58386108783355
