54
 energy: -68.253854439070 gnorm: 0.000417213747 xtb: 6.2.2 (9d81278992624c895f80dd42a50cac0aa55982e2)
B         1.33773332784300    0.00019229472204    8.02925595616817
B         0.84473583962029    1.46912100349837    8.97463921738891
B        -0.96359567149743    1.46689693618315    9.15383016796919
B        -1.59847235236543   -0.00011710938292    8.32918063559381
B         1.51619068999294    0.00011943260592    9.80421845666940
B         0.08417825721533    0.91099435694307   10.52070234583660
B        -1.45047771772118   -0.00016651994937   10.11659190193098
C        -0.17416694879664    0.82538857409479    7.71667423958310
N        -0.34157362227598    1.38335912775903    6.41705429145585
C         0.34972168863806    2.65421421629627    6.17124025178953
H         1.42131197489102    2.49980385482570    6.33563524676631
H         0.00332529511173    3.43566624651208    6.86226438746173
C         0.11382705146462    3.06963971773972    4.74145385419346
C        -0.09413399632768    4.40609229694286    4.41483709064985
H        -0.09821992797030    5.15965284237701    5.19568494893038
C        -0.29660842353025    4.78025799053257    3.09340582215567
H        -0.45807807551698    5.82453767278841    2.84845627601224
C        -0.29621108980061    3.82234040313415    2.08905327686145
H        -0.45743838320925    4.11599597233854    1.05783520110105
C        -0.09044011569423    2.48704259480594    2.40989489253644
H        -0.08940973522775    1.73371101222091    1.62968889952439
C         0.11512519465143    2.11376847146408    3.72912862766285
H         0.27420972584801    1.07176975370854    3.98471371122129
H         2.11503963584543    0.00029478213276    7.14846368961113
H        -2.40600091540917   -0.00028780978629   10.80228132824626
H         1.41328270247906    2.48083030038105    8.78382184111244
H        -2.52857172487861   -0.00016735871935    7.60496385831830
H         2.57961579359080    0.00019049570425   10.30712452609482
H        -1.55461361164614    2.47765606757461    9.03440353203029
H         0.19134192480343    1.54392890280804   11.50727659535274
H        -1.33155886498107    1.50597342733329    6.21964335403567
B         0.84500806685980   -1.46892787140458    8.97447793766733
B        -0.96332950110240   -1.46707178998977    9.15371530467717
B         0.08435184718406   -0.91109697921185   10.52061040259141
C        -0.17401390701641   -0.82529510986905    7.71659956435730
N        -0.34128097645346   -1.38315796745690    6.41691403488731
C         0.34979694171440   -2.65414488694646    6.17117280928243
H         1.42141572212303   -2.49990627671893    6.33554904311744
H         0.00327638941338   -3.43549632762072    6.86224864581372
C         0.11380905213946   -3.06962677329959    4.74141827267178
C        -0.09428446687130   -4.40608161686204    4.41489225012882
H        -0.09839363059759   -5.15959420322720    5.19578607146152
C        -0.29686136810800   -4.78031237707878    3.09349485367632
H        -0.45843129482760   -5.82459384185710    2.84861781370866
C        -0.29644006657934   -3.82245700750666    2.08908290153012
H        -0.45775283369199   -4.11616204692237    1.05789146826179
C        -0.09053030892866   -2.48715924817098    2.40983163646969
H        -0.08947885717632   -1.73387511074267    1.62957987439383
C         0.11514307610800   -2.11382097730513    3.72903126072160
H         0.27434362424418   -1.07182096268742    3.98453450922846
H         1.41375419884350   -2.48051015504622    8.78358146196995
H        -1.55415581338542   -2.47793383227373    9.03421512270090
H         0.19164129315012   -1.54410101118529   11.50712656691080
H        -1.33125511217995   -1.50555357620737    6.21930976950649
