 Entering Gaussian System, Link 0=g16
 Input=MN_15_C2H6_BH76_AM1_SE.in
 Output=MN_15_C2H6_BH76_AM1_SE.log
 Initial command:
 /udrive/faculty/rpeverati/g16/g16/l1.exe "/udrive/scratch-directories/gaussian09/rpeverati/Gau-17548.inp" -scrdir="/udrive/scratch-directories/gaussian09/rpeverati/"
 Entering Link 1 = /udrive/faculty/rpeverati/g16/g16/l1.exe PID=     17549.
  
 Copyright (c) 1988,1990,1992,1993,1995,1998,2003,2009,2016,
            Gaussian, Inc.  All Rights Reserved.
  
 This is part of the Gaussian(R) 16 program.  It is based on
 the Gaussian(R) 09 system (copyright 2009, Gaussian, Inc.),
 the Gaussian(R) 03 system (copyright 2003, Gaussian, Inc.),
 the Gaussian(R) 98 system (copyright 1998, Gaussian, Inc.),
 the Gaussian(R) 94 system (copyright 1995, Gaussian, Inc.),
 the Gaussian 92(TM) system (copyright 1992, Gaussian, Inc.),
 the Gaussian 90(TM) system (copyright 1990, Gaussian, Inc.),
 the Gaussian 88(TM) system (copyright 1988, Gaussian, Inc.),
 the Gaussian 86(TM) system (copyright 1986, Carnegie Mellon
 University), and the Gaussian 82(TM) system (copyright 1983,
 Carnegie Mellon University). Gaussian is a federally registered
 trademark of Gaussian, Inc.
  
 This software contains proprietary and confidential information,
 including trade secrets, belonging to Gaussian, Inc.
  
 This software is provided under written license and may be
 used, copied, transmitted, or stored only in accord with that
 written license.
  
 The following legend is applicable only to US Government
 contracts under FAR:
  
                    RESTRICTED RIGHTS LEGEND
  
 Use, reproduction and disclosure by the US Government is
 subject to restrictions as set forth in subparagraphs (a)
 and (c) of the Commercial Computer Software - Restricted
 Rights clause in FAR 52.227-19.
  
 Gaussian, Inc.
 340 Quinnipiac St., Bldg. 40, Wallingford CT 06492
  
  
 ---------------------------------------------------------------
 Warning -- This program may not be used in any manner that
 competes with the business of Gaussian, Inc. or will provide
 assistance to any competitor of Gaussian, Inc.  The licensee
 of this program is prohibited from giving any competitor of
 Gaussian, Inc. access to this program.  By using this program,
 the user acknowledges that Gaussian, Inc. is engaged in the
 business of creating and licensing software in the field of
 computational chemistry and represents and warrants to the
 licensee that it is not a competitor of Gaussian, Inc. and that
 it will not use this program in any manner prohibited above.
 ---------------------------------------------------------------
  

 Cite this work as:
 Gaussian 16, Revision A.03,
 M. J. Frisch, G. W. Trucks, H. B. Schlegel, G. E. Scuseria, 
 M. A. Robb, J. R. Cheeseman, G. Scalmani, V. Barone, 
 G. A. Petersson, H. Nakatsuji, X. Li, M. Caricato, A. V. Marenich, 
 J. Bloino, B. G. Janesko, R. Gomperts, B. Mennucci, H. P. Hratchian, 
 J. V. Ortiz, A. F. Izmaylov, J. L. Sonnenberg, D. Williams-Young, 
 F. Ding, F. Lipparini, F. Egidi, J. Goings, B. Peng, A. Petrone, 
 T. Henderson, D. Ranasinghe, V. G. Zakrzewski, J. Gao, N. Rega, 
 G. Zheng, W. Liang, M. Hada, M. Ehara, K. Toyota, R. Fukuda, 
 J. Hasegawa, M. Ishida, T. Nakajima, Y. Honda, O. Kitao, H. Nakai, 
 T. Vreven, K. Throssell, J. A. Montgomery, Jr., J. E. Peralta, 
 F. Ogliaro, M. J. Bearpark, J. J. Heyd, E. N. Brothers, K. N. Kudin, 
 V. N. Staroverov, T. A. Keith, R. Kobayashi, J. Normand, 
 K. Raghavachari, A. P. Rendell, J. C. Burant, S. S. Iyengar, 
 J. Tomasi, M. Cossi, J. M. Millam, M. Klene, C. Adamo, R. Cammi, 
 J. W. Ochterski, R. L. Martin, K. Morokuma, O. Farkas, 
 J. B. Foresman, and D. J. Fox, Gaussian, Inc., Wallingford CT, 2016.
 
 ******************************************
 Gaussian 16:  ES64L-G16RevA.03 25-Dec-2016
                21-Oct-2020 
 ******************************************
 %NoSave
 %nproc=12
 Will use up to   12 processors via shared memory.
 %mem=20GB
 %chk=MN_15_C2H6_BH76_AM1_SE
 ----------------------------------------------------------------------
 #P Opt(MaxCyc=150) AM1 5D 7F Integral=UltraFineGrid SCF=(NoSymm,XQC,Ma
 xCyc=120) IOp(1/33=1)
 ----------------------------------------------------------------------
 1/6=150,18=20,19=15,26=1,33=1,38=1/1,3;
 2/9=110,12=2,17=6,18=5,40=1/2;
 3/5=2,8=11,25=1,41=700000,71=1,75=-5/1,2,3;
 4/9=2,35=1/1;
 5/5=2,7=120,8=3,13=1,35=1,38=5/2,8;
 6/7=2,8=2,9=2,10=2,28=1/1;
 7//1,2,3,16;
 1/6=150,18=20,19=15,26=1,33=1/3(2);
 2/9=110/2;
 99//99;
 2/9=110/2;
 3/5=2,8=11,25=1,41=700000,71=1,75=-5,135=20/1,2,3;
 4/5=5,9=2,16=3,35=1/1;
 5/5=2,7=120,8=3,13=1,35=1,38=5/2,8;
 7//1,2,3,16;
 1/6=150,18=20,19=15,26=1,33=1/3(-5);
 2/9=110/2;
 6/7=2,8=2,9=2,10=2,19=2,28=1/1;
 99/9=1/99;
 Leave Link    1 at Wed Oct 21 14:15:41 2020, MaxMem=  2684354560 cpu:               3.0 elap:               0.3
 (Enter /udrive/faculty/rpeverati/g16/g16/l101.exe)
 ONIOM data not found on unit 2.
 ------------------
 TS search on BH76.
 ------------------
 TstMul:  ICh=     0
 TstMul:  Mul=     1
 TstMul:  ICh=     0
 TstMul:  Mul=     1
 Symbolic Z-matrix:
 Charge =  0 Multiplicity = 1
 C                    -0.76309   0.        0. 
 C                     0.76309   0.        0. 
 H                     1.15831  -0.44364  -0.9141 
 H                    -1.15831  -1.01333  -0.07464 
 H                     1.15831  -0.56981   0.84125 
 H                     1.15831   1.01345   0.07285 
 H                    -1.15831   0.44202   0.91488 
 H                    -1.15831   0.57131  -0.84024 
 
 RdStrC is calling ZToCFu for IStruc=1 NZ=     8.
 PrtBox:  NBox=     1 Levels=  1 BoxLen=    8.00 SMaxX=        4.38
          Shift=            2.188890            1.914910            1.727390
 Box      1 Number                   0 centers from      1 to      8:
 After GenITR:
 ITRead=  0  0  0  0  0  0  0  0
 MicOpt= -1 -1 -1 -1 -1 -1 -1 -1
 ITRead=  0  0  0  0  0  0  0  0
 MicOpt= -1 -1 -1 -1 -1 -1 -1 -1
 NAtoms=      8 NQM=        8 NQMF=       0 NMMI=      0 NMMIF=      0
                NMic=       0 NMicF=      0.
                    Isotopes and Nuclear Properties:
 (Nuclear quadrupole moments (NQMom) in fm**2, nuclear magnetic moments (NMagM)
  in nuclear magnetons)

  Atom         1           2           3           4           5           6           7           8
 IAtWgt=          12          12           1           1           1           1           1           1
 AtmWgt=  12.0000000  12.0000000   1.0078250   1.0078250   1.0078250   1.0078250   1.0078250   1.0078250
 NucSpn=           0           0           1           1           1           1           1           1
 AtZEff=   0.0000000   0.0000000   0.0000000   0.0000000   0.0000000   0.0000000   0.0000000   0.0000000
 NQMom=    0.0000000   0.0000000   0.0000000   0.0000000   0.0000000   0.0000000   0.0000000   0.0000000
 NMagM=    0.0000000   0.0000000   2.7928460   2.7928460   2.7928460   2.7928460   2.7928460   2.7928460
 AtZNuc=   6.0000000   6.0000000   1.0000000   1.0000000   1.0000000   1.0000000   1.0000000   1.0000000
 No MM parameters found.
 Leave Link  101 at Wed Oct 21 14:15:42 2020, MaxMem=  2684354560 cpu:              13.4 elap:               1.1
 (Enter /udrive/faculty/rpeverati/g16/g16/l103.exe)

 GradGradGradGradGradGradGradGradGradGradGradGradGradGradGradGradGradGrad
 Berny optimization.
 Optmz: redundant internal coordinate code flag= 1
 Initialization pass.
                           ----------------------------
                           !    Initial Parameters    !
                           ! (Angstroms and Degrees)  !
 --------------------------                            --------------------------
 ! Name  Definition              Value          Derivative Info.                !
 --------------------------------------------------------------------------------
 ! R1    R(1,2)                  1.5262         estimate D2E/DX2                !
 ! R2    R(1,4)                  1.0902         estimate D2E/DX2                !
 ! R3    R(1,7)                  1.0902         estimate D2E/DX2                !
 ! R4    R(1,8)                  1.0902         estimate D2E/DX2                !
 ! R5    R(2,3)                  1.0902         estimate D2E/DX2                !
 ! R6    R(2,5)                  1.0902         estimate D2E/DX2                !
 ! R7    R(2,6)                  1.0902         estimate D2E/DX2                !
 ! A1    A(2,1,4)              111.2543         estimate D2E/DX2                !
 ! A2    A(2,1,7)              111.2543         estimate D2E/DX2                !
 ! A3    A(2,1,8)              111.2543         estimate D2E/DX2                !
 ! A4    A(4,1,7)              107.6307         estimate D2E/DX2                !
 ! A5    A(4,1,8)              107.6309         estimate D2E/DX2                !
 ! A6    A(7,1,8)              107.6307         estimate D2E/DX2                !
 ! A7    A(1,2,3)              111.2544         estimate D2E/DX2                !
 ! A8    A(1,2,5)              111.2543         estimate D2E/DX2                !
 ! A9    A(1,2,6)              111.2543         estimate D2E/DX2                !
 ! A10   A(3,2,5)              107.6306         estimate D2E/DX2                !
 ! A11   A(3,2,6)              107.631          estimate D2E/DX2                !
 ! A12   A(5,2,6)              107.6306         estimate D2E/DX2                !
 ! D1    D(4,1,2,3)             59.8984         estimate D2E/DX2                !
 ! D2    D(4,1,2,5)            -60.1015         estimate D2E/DX2                !
 ! D3    D(4,1,2,6)            179.8987         estimate D2E/DX2                !
 ! D4    D(7,1,2,3)            179.8983         estimate D2E/DX2                !
 ! D5    D(7,1,2,5)             59.8985         estimate D2E/DX2                !
 ! D6    D(7,1,2,6)            -60.1014         estimate D2E/DX2                !
 ! D7    D(8,1,2,3)            -60.1018         estimate D2E/DX2                !
 ! D8    D(8,1,2,5)            179.8984         estimate D2E/DX2                !
 ! D9    D(8,1,2,6)             59.8985         estimate D2E/DX2                !
 --------------------------------------------------------------------------------
 Maximum allowed force set to 1.00D+20.
 Trust Radius=3.00D-01 FncErr=1.00D-07 GrdErr=1.00D-07 EigMax=2.50D+02 EigMin=1.00D-04
 Number of steps in this run=    100 maximum allowed number of steps=    100.
 GradGradGradGradGradGradGradGradGradGradGradGradGradGradGradGradGradGrad

 Leave Link  103 at Wed Oct 21 14:15:43 2020, MaxMem=  2684354560 cpu:               1.5 elap:               0.5
 (Enter /udrive/faculty/rpeverati/g16/g16/l202.exe)
                          Input orientation:                          
 ---------------------------------------------------------------------
 Center     Atomic      Atomic             Coordinates (Angstroms)
 Number     Number       Type             X           Y           Z
 ---------------------------------------------------------------------
      1          6           0       -0.763095    0.000000    0.000000
      2          6           0        0.763095    0.000000    0.000000
      3          1           0        1.158311   -0.443642   -0.914095
      4          1           0       -1.158311   -1.013327   -0.074640
      5          1           0        1.158311   -0.569813    0.841254
      6          1           0        1.158311    1.013454    0.072848
      7          1           0       -1.158311    0.442020    0.914884
      8          1           0       -1.158311    0.571305   -0.840243
 ---------------------------------------------------------------------
                    Distance matrix (angstroms):
                    1          2          3          4          5
     1  C    0.000000
     2  C    1.526189   0.000000
     3  H    2.173520   1.090222   0.000000
     4  H    1.090228   2.173523   2.529024   0.000000
     5  H    2.173521   1.090225   1.759878   2.530277   0.000000
     6  H    2.173521   1.090225   1.759882   3.081611   1.759881
     7  H    1.090225   2.173521   3.081606   1.759884   2.529024
     8  H    1.090227   2.173522   2.530278   1.759888   3.081610
                    6          7          8
     6  H    0.000000
     7  H    2.530276   0.000000
     8  H    2.529025   1.759883   0.000000
 This structure is nearly, but not quite of a higher symmetry.
 Consider Symm=Loose if the higher symmetry is desired.
 Stoichiometry    C2H6
 Framework group  C1[X(C2H6)]
 Deg. of freedom    18
 Full point group                 C1      NOp   1
 Largest Abelian subgroup         C1      NOp   1
 Largest concise Abelian subgroup C1      NOp   1
                         Standard orientation:                         
 ---------------------------------------------------------------------
 Center     Atomic      Atomic             Coordinates (Angstroms)
 Number     Number       Type             X           Y           Z
 ---------------------------------------------------------------------
      1          6           0       -0.006005   -0.067296    0.760098
      2          6           0        0.006004    0.067297   -0.760098
      3          1           0       -0.940642   -0.256750   -1.193040
      4          1           0       -0.173176   -1.100868    1.064042
      5          1           0        0.796589   -0.537953   -1.204214
      6          1           0        0.171402    1.101153   -1.064031
      7          1           0        0.941283    0.255071    1.192897
      8          1           0       -0.795451    0.539344    1.204346
 ---------------------------------------------------------------------
 Rotational constants (GHZ):          80.9533118          20.0467411          20.0467273
 Leave Link  202 at Wed Oct 21 14:15:44 2020, MaxMem=  2684354560 cpu:               2.0 elap:               0.5
 (Enter /udrive/faculty/rpeverati/g16/g16/l301.exe)
 Standard basis: VSTO-6G (5D, 7F)
 Ernie: Thresh=  0.10000D-02 Tol=  0.10000D-05 Strict=F.
  NNHCO=     0 NNPyr=     0 NCTC=     0               EPep=         0.000000000
    EC=        20.729950994  ECS=         0.994344848   EG=         0.121920657
   EHC=         0.000000000  EAt=       -11.392663388  AtH=         1.042840032
 EPDDG=         0.000000000  ECC=        21.846216498 EAtT=        12.435503420
 There are    14 symmetry adapted cartesian basis functions of A   symmetry.
 There are    14 symmetry adapted basis functions of A   symmetry.
    14 basis functions,    84 primitive gaussians,    14 cartesian basis functions
     7 alpha electrons        7 beta electrons
       nuclear repulsion energy        34.2817199178 Hartrees.
 IExCor=    0 DFT=F Ex=HF Corr=None ExCW=0 ScaHFX=  1.000000
 ScaDFX=  1.000000  1.000000  1.000000  1.000000 ScalE2=  1.000000  1.000000
 IRadAn=      5 IRanWt=     -1 IRanGd=            0 ICorTp=0 IEmpDi=  4
 Integral buffers will be    131072 words long.
 Regular integral format.
 Two-electron integral symmetry is turned off.
 Leave Link  301 at Wed Oct 21 14:15:45 2020, MaxMem=  2684354560 cpu:               2.3 elap:               0.6
 (Enter /udrive/faculty/rpeverati/g16/g16/l302.exe)
 Do NDO integrals.
 NPDir=0 NMtPBC=     1 NCelOv=     1 NCel=       1 NClECP=     1 NCelD=      1
         NCelK=      1 NCelE2=     1 NClLst=     1 CellRange=     0.0.
 One-electron integrals computed using PRISM.
 NBasis=    14 RedAO= F EigKep=  0.00D+00  NBF=    14
 NBsUse=    14 1.00D-04 EigRej=  0.00D+00 NBFU=    14
 Leave Link  302 at Wed Oct 21 14:15:45 2020, MaxMem=  2684354560 cpu:               3.2 elap:               0.5
 (Enter /udrive/faculty/rpeverati/g16/g16/l303.exe)
 DipDrv:  MaxL=1.
 Leave Link  303 at Wed Oct 21 14:15:46 2020, MaxMem=  2684354560 cpu:               2.1 elap:               0.5
 (Enter /udrive/faculty/rpeverati/g16/g16/l401.exe)
 SCF N**3 symmetry information disabled.
 Simple Huckel Guess.
 JPrj=0 DoOrth=F DoCkMO=F.
 Leave Link  401 at Wed Oct 21 14:15:47 2020, MaxMem=  2684354560 cpu:               1.9 elap:               0.5
 (Enter /udrive/faculty/rpeverati/g16/g16/l502.exe)
 Keep J ints in memory in canonical form, NReq=859572.
 FoFCou: FMM=F IPFlag=           0 FMFlag=           0 FMFlg1=           0
         NFxFlg=           0 DoJE=F BraDBF=F KetDBF=F FulRan=T
         wScrn=  0.000000 ICntrl=       600 IOpCl=  2 I1Cent=           0 NGrid=           0
         NMat0=    1 NMatS0=     26 NMatT0=    0 NMatD0=    1 NMtDS0=    0 NMtDT0=    0
 Symmetry not used in FoFCou.
 Two-electron integral symmetry not used.
 Closed shell SCF:
 Using DIIS extrapolation, IDIIS=  1040.
 Overlap will be assumed to be unity.
 NGot=  2684354560 LenX=  2684293681 LenY=  2684292799
 Requested convergence on RMS density matrix=1.00D-08 within 120 cycles.
 Requested convergence on MAX density matrix=1.00D-06.
 Requested convergence on             energy=1.00D-06.
 No special actions if energy rises.

 Cycle   1  Pass 1  IDiag  1:
 E= 0.714970995932660E-01
 DIIS: error= 3.89D-02 at cycle   1 NSaved=   1.
 NSaved= 1 IEnMin= 1 EnMin= 0.714970995932660E-01 IErMin= 1 ErrMin= 3.89D-02
 ErrMax= 3.89D-02  0.00D+00 EMaxC= 1.00D-01 BMatC= 4.42D-02 BMatP= 4.42D-02
 IDIUse=3 WtCom= 6.11D-01 WtEn= 3.89D-01
 Coeff-Com:  0.100D+01
 Coeff-En:   0.100D+01
 Coeff:      0.100D+01
 GapD=    2.000 DampG=2.000 DampE=0.500 DampFc=1.0000 IDamp=-1.
 RMSDP=1.76D-02 MaxDP=1.19D-01              OVMax= 0.00D+00

 Cycle   2  Pass 1  IDiag  1:
 E=-0.188241769005231E-01 Delta-E=       -0.090321276494 Rises=F Damp=F
 DIIS: error= 9.20D-03 at cycle   2 NSaved=   2.
 NSaved= 2 IEnMin= 2 EnMin=-0.188241769005231E-01 IErMin= 2 ErrMin= 9.20D-03
 ErrMax= 9.20D-03  0.00D+00 EMaxC= 1.00D-01 BMatC= 2.47D-03 BMatP= 4.42D-02
 IDIUse=3 WtCom= 9.08D-01 WtEn= 9.20D-02
 Coeff-Com: -0.304D+00 0.130D+01
 Coeff-En:   0.000D+00 0.100D+01
 Coeff:     -0.276D+00 0.128D+01
 RMSDP=5.40D-03 MaxDP=3.54D-02 DE=-9.03D-02 OVMax= 0.00D+00

 Cycle   3  Pass 1  IDiag  3:
 E=-0.242960255350582E-01 Delta-E=       -0.005471848635 Rises=F Damp=F
 DIIS: error= 3.37D-04 at cycle   3 NSaved=   3.
 NSaved= 3 IEnMin= 3 EnMin=-0.242960255350582E-01 IErMin= 3 ErrMin= 3.37D-04
 ErrMax= 3.37D-04  0.00D+00 EMaxC= 1.00D-01 BMatC= 7.36D-06 BMatP= 2.47D-03
 IDIUse=3 WtCom= 9.97D-01 WtEn= 3.37D-03
 Coeff-Com:  0.897D-01-0.423D+00 0.133D+01
 Coeff-En:   0.000D+00 0.000D+00 0.100D+01
 Coeff:      0.894D-01-0.422D+00 0.133D+01
 Gap=     0.595 Goal=   None    Shift=    0.000
 RMSDP=4.43D-04 MaxDP=1.70D-03 DE=-5.47D-03 OVMax= 2.54D-03

 Cycle   4  Pass 1  IDiag  3:
 E=-0.243218765887363E-01 Delta-E=       -0.000025851054 Rises=F Damp=F
 DIIS: error= 8.55D-05 at cycle   4 NSaved=   4.
 NSaved= 4 IEnMin= 4 EnMin=-0.243218765887363E-01 IErMin= 4 ErrMin= 8.55D-05
 ErrMax= 8.55D-05  0.00D+00 EMaxC= 1.00D-01 BMatC= 2.12D-07 BMatP= 7.36D-06
 IDIUse=1 WtCom= 1.00D+00 WtEn= 0.00D+00
 Coeff-Com: -0.537D-01 0.257D+00-0.887D+00 0.168D+01
 Coeff:     -0.537D-01 0.257D+00-0.887D+00 0.168D+01
 Gap=     0.595 Goal=   None    Shift=    0.000
 RMSDP=1.18D-04 MaxDP=5.55D-04 DE=-2.59D-05 OVMax= 6.02D-04

 Cycle   5  Pass 1  IDiag  3:
 E=-0.243229368322915E-01 Delta-E=       -0.000001060244 Rises=F Damp=F
 DIIS: error= 6.05D-06 at cycle   5 NSaved=   5.
 NSaved= 5 IEnMin= 5 EnMin=-0.243229368322915E-01 IErMin= 5 ErrMin= 6.05D-06
 ErrMax= 6.05D-06  0.00D+00 EMaxC= 1.00D-01 BMatC= 1.76D-09 BMatP= 2.12D-07
 IDIUse=1 WtCom= 1.00D+00 WtEn= 0.00D+00
 Coeff-Com:  0.868D-03-0.444D-02 0.143D-01-0.193D-01 0.101D+01
 Coeff:      0.868D-03-0.444D-02 0.143D-01-0.193D-01 0.101D+01
 Gap=     0.595 Goal=   None    Shift=    0.000
 RMSDP=6.13D-06 MaxDP=2.06D-05 DE=-1.06D-06 OVMax= 5.66D-05

 Cycle   6  Pass 1  IDiag  3:
 E=-0.243229435232522E-01 Delta-E=       -0.000000006691 Rises=F Damp=F
 DIIS: error= 2.04D-06 at cycle   6 NSaved=   6.
 NSaved= 6 IEnMin= 6 EnMin=-0.243229435232522E-01 IErMin= 6 ErrMin= 2.04D-06
 ErrMax= 2.04D-06  0.00D+00 EMaxC= 1.00D-01 BMatC= 2.14D-10 BMatP= 1.76D-09
 IDIUse=1 WtCom= 1.00D+00 WtEn= 0.00D+00
 Coeff-Com: -0.575D-03 0.283D-02-0.711D-02-0.213D-02-0.562D+00 0.157D+01
 Coeff:     -0.575D-03 0.283D-02-0.711D-02-0.213D-02-0.562D+00 0.157D+01
 Gap=     0.595 Goal=   None    Shift=    0.000
 RMSDP=3.59D-06 MaxDP=1.16D-05 DE=-6.69D-09 OVMax= 3.26D-05

 Cycle   7  Pass 1  IDiag  3:
 E=-0.243229445727948E-01 Delta-E=       -0.000000001050 Rises=F Damp=F
 DIIS: error= 7.76D-08 at cycle   7 NSaved=   7.
 NSaved= 7 IEnMin= 7 EnMin=-0.243229445727948E-01 IErMin= 7 ErrMin= 7.76D-08
 ErrMax= 7.76D-08  0.00D+00 EMaxC= 1.00D-01 BMatC= 2.43D-13 BMatP= 2.14D-10
 IDIUse=1 WtCom= 1.00D+00 WtEn= 0.00D+00
 Coeff-Com:  0.993D-05-0.755D-04-0.663D-03 0.664D-02 0.177D+00-0.529D+00
 Coeff-Com:  0.135D+01
 Coeff:      0.993D-05-0.755D-04-0.663D-03 0.664D-02 0.177D+00-0.529D+00
 Coeff:      0.135D+01
 Gap=     0.595 Goal=   None    Shift=    0.000
 RMSDP=9.15D-08 MaxDP=3.18D-07 DE=-1.05D-09 OVMax= 7.08D-07

 Cycle   8  Pass 1  IDiag  3:
 E=-0.243229445737327E-01 Delta-E=       -0.000000000001 Rises=F Damp=F
 DIIS: error= 1.83D-08 at cycle   8 NSaved=   8.
 NSaved= 8 IEnMin= 8 EnMin=-0.243229445737327E-01 IErMin= 8 ErrMin= 1.83D-08
 ErrMax= 1.83D-08  0.00D+00 EMaxC= 1.00D-01 BMatC= 9.58D-15 BMatP= 2.43D-13
 IDIUse=1 WtCom= 1.00D+00 WtEn= 0.00D+00
 Coeff-Com: -0.123D-05 0.183D-04 0.344D-03-0.303D-02-0.776D-01 0.233D+00
 Coeff-Com: -0.616D+00 0.146D+01
 Coeff:     -0.123D-05 0.183D-04 0.344D-03-0.303D-02-0.776D-01 0.233D+00
 Coeff:     -0.616D+00 0.146D+01
 Gap=     0.595 Goal=   None    Shift=    0.000
 RMSDP=2.26D-08 MaxDP=8.80D-08 DE=-9.38D-13 OVMax= 1.50D-07

 Cycle   9  Pass 1  IDiag  3:
 E=-0.243229445737256E-01 Delta-E=        0.000000000000 Rises=F Damp=F
 DIIS: error= 5.40D-09 at cycle   9 NSaved=   9.
 NSaved= 9 IEnMin= 8 EnMin=-0.243229445737327E-01 IErMin= 9 ErrMin= 5.40D-09
 ErrMax= 5.40D-09  0.00D+00 EMaxC= 1.00D-01 BMatC= 5.69D-16 BMatP= 9.58D-15
 IDIUse=1 WtCom= 1.00D+00 WtEn= 0.00D+00
 Coeff-Com:  0.317D-06-0.942D-05-0.227D-03 0.194D-02 0.494D-01-0.149D+00
 Coeff-Com:  0.397D+00-0.104D+01 0.174D+01
 Coeff:      0.317D-06-0.942D-05-0.227D-03 0.194D-02 0.494D-01-0.149D+00
 Coeff:      0.397D+00-0.104D+01 0.174D+01
 Gap=     0.595 Goal=   None    Shift=    0.000
 RMSDP=6.80D-09 MaxDP=3.37D-08 DE= 7.11D-15 OVMax= 3.91D-08

 Cycle  10  Pass 2  IDiag  1:
 SCF Done:  E(RAM1) = -0.243229445737E-01 A.U. after   10 cycles
            NFock=  9  Conv=0.68D-08     -V/T= 0.9987
 KE=-1.852116852785D+01 PE=-4.095210941908D+01 EE= 2.516723508453D+01
 Leave Link  502 at Wed Oct 21 14:15:48 2020, MaxMem=  2684354560 cpu:               4.0 elap:               0.8
 (Enter /udrive/faculty/rpeverati/g16/g16/l508.exe)
 QCSCF skips out because SCF is already converged.
 Leave Link  508 at Wed Oct 21 14:15:49 2020, MaxMem=  2684354560 cpu:               0.9 elap:               0.9
 (Enter /udrive/faculty/rpeverati/g16/g16/l601.exe)
 Copying SCF densities to generalized density rwf, IOpCl= 0 IROHF=0.

 **********************************************************************

            Population analysis using the SCF density.

 **********************************************************************

 Orbital symmetries:
       Occupied  (A) (A) (A) (A) (A) (A) (A)
       Virtual   (A) (A) (A) (A) (A) (A) (A)
 The electronic state is 1-A.
 Alpha  occ. eigenvalues --   -1.22472  -0.88704  -0.54789  -0.54789  -0.48427
 Alpha  occ. eigenvalues --   -0.43880  -0.43880
 Alpha virt. eigenvalues --    0.15622   0.15622   0.16856   0.18699   0.18802
 Alpha virt. eigenvalues --    0.18802   0.20059
          Condensed to atoms (all electrons):
               1          2          3          4          5          6
     1  C    4.207834   0.000000   0.000000   0.000000   0.000000   0.000000
     2  C    0.000000   4.207833   0.000000   0.000000   0.000000   0.000000
     3  H    0.000000   0.000000   0.930722   0.000000   0.000000   0.000000
     4  H    0.000000   0.000000   0.000000   0.930722   0.000000   0.000000
     5  H    0.000000   0.000000   0.000000   0.000000   0.930723   0.000000
     6  H    0.000000   0.000000   0.000000   0.000000   0.000000   0.930722
     7  H    0.000000   0.000000   0.000000   0.000000   0.000000   0.000000
     8  H    0.000000   0.000000   0.000000   0.000000   0.000000   0.000000
               7          8
     1  C    0.000000   0.000000
     2  C    0.000000   0.000000
     3  H    0.000000   0.000000
     4  H    0.000000   0.000000
     5  H    0.000000   0.000000
     6  H    0.000000   0.000000
     7  H    0.930722   0.000000
     8  H    0.000000   0.930722
 Mulliken charges:
               1
     1  C   -0.207834
     2  C   -0.207833
     3  H    0.069278
     4  H    0.069278
     5  H    0.069277
     6  H    0.069278
     7  H    0.069278
     8  H    0.069278
 Sum of Mulliken charges =  -0.00000
 Mulliken charges with hydrogens summed into heavy atoms:
               1
     1  C    0.000000
     2  C   -0.000000
 Charge=             -0.0000 electrons
 Dipole moment (field-independent basis, Debye):
    X=              0.0000    Y=             -0.0000    Z=             -0.0000  Tot=              0.0000
 N-N= 3.428171991783D+01 E-N=-4.095210942264D+01  KE=-1.852116852785D+01
 Leave Link  601 at Wed Oct 21 14:15:51 2020, MaxMem=  2684354560 cpu:               2.4 elap:               0.7
 (Enter /udrive/faculty/rpeverati/g16/g16/l701.exe)
 ... and contract with generalized density number  0.
 Compute integral first derivatives.
 Leave Link  701 at Wed Oct 21 14:15:52 2020, MaxMem=  2684354560 cpu:               3.4 elap:               0.8
 (Enter /udrive/faculty/rpeverati/g16/g16/l702.exe)
 L702 exits ... SP integral derivatives will be done elsewhere.
 Leave Link  702 at Wed Oct 21 14:15:53 2020, MaxMem=  2684354560 cpu:               2.3 elap:               0.7
 (Enter /udrive/faculty/rpeverati/g16/g16/l703.exe)
 Integral derivatives from FoFJK, PRISM(SPDF).
 Compute integral first derivatives, UseDBF=F ICtDFT=           0.
 Calling FoFJK, ICntrl=      2127 FMM=F ISym2X=0 I1Cent= 0 IOpClX= 0 NMat=1 NMatS=1 NMatT=0.
 FoFJK:  IHMeth= 8 ICntrl=    2127 DoSepK=F KAlg= 0 I1Cent=           0 FoldK=F
 IRaf=         0 NMat=       1 IRICut=       1 DoRegI=T DoRafI=F ISym2E= 0 IDoP0=3 IntGTp=3.
 FoFCou: FMM=F IPFlag=           0 FMFlag=      100000 FMFlg1=         800
         NFxFlg=           0 DoJE=F BraDBF=F KetDBF=F FulRan=T
         wScrn=  0.000000 ICntrl=      2127 IOpCl=  0 I1Cent=           0 NGrid=           0
         NMat0=    1 NMatS0=      1 NMatT0=    0 NMatD0=    1 NMtDS0=    0 NMtDT0=    0
 Symmetry not used in FoFCou.
 Leave Link  703 at Wed Oct 21 14:15:54 2020, MaxMem=  2684354560 cpu:               3.0 elap:               0.8
 (Enter /udrive/faculty/rpeverati/g16/g16/l716.exe)
 Dipole        = 4.87451456D-07-1.86315949D-07-3.45382083D-08
 ***** Axes restored to original set *****
 -------------------------------------------------------------------
 Center     Atomic                   Forces (Hartrees/Bohr)
 Number     Number              X              Y              Z
 -------------------------------------------------------------------
      1        6           0.029181775   -0.000001388   -0.000000928
      2        6          -0.029183364    0.000000619    0.000001805
      3        1           0.003979262   -0.008375726   -0.017263722
      4        1          -0.003977824   -0.019132294   -0.001407210
      5        1           0.003978489   -0.010761712    0.015884299
      6        1           0.003978538    0.019136778    0.001377614
      7        1          -0.003978647    0.008348714    0.017274798
      8        1          -0.003978230    0.010785010   -0.015866655
 -------------------------------------------------------------------
 Cartesian Forces:  Max     0.029183364 RMS     0.012921003
 Leave Link  716 at Wed Oct 21 14:15:55 2020, MaxMem=  2684354560 cpu:               2.1 elap:               0.7
 (Enter /udrive/faculty/rpeverati/g16/g16/l103.exe)

 GradGradGradGradGradGradGradGradGradGradGradGradGradGradGradGradGradGrad
 Berny optimization.
 Optmz: redundant internal coordinate code flag= 1
 FormGI is forming the generalized inverse of G from B-inverse, IUseBI=4.
 Internal  Forces:  Max     0.019325586 RMS     0.009753788
 Search for a local minimum.
 Step number   1 out of a maximum of  100
 All quantities printed in internal units (Hartrees-Bohrs-Radians)
 RMS Force = .97538D-02 SwitMx=.10000D-02 MixMth= 1
 Mixed Optimization -- RFO/linear search
 Second derivative matrix not updated -- first step.
 The second derivative matrix:
                          R1        R2        R3        R4        R5
           R1           0.29778
           R2           0.00000   0.34786
           R3           0.00000   0.00000   0.34787
           R4           0.00000   0.00000   0.00000   0.34786
           R5           0.00000   0.00000   0.00000   0.00000   0.34787
           R6           0.00000   0.00000   0.00000   0.00000   0.00000
           R7           0.00000   0.00000   0.00000   0.00000   0.00000
           A1           0.00000   0.00000   0.00000   0.00000   0.00000
           A2           0.00000   0.00000   0.00000   0.00000   0.00000
           A3           0.00000   0.00000   0.00000   0.00000   0.00000
           A4           0.00000   0.00000   0.00000   0.00000   0.00000
           A5           0.00000   0.00000   0.00000   0.00000   0.00000
           A6           0.00000   0.00000   0.00000   0.00000   0.00000
           A7           0.00000   0.00000   0.00000   0.00000   0.00000
           A8           0.00000   0.00000   0.00000   0.00000   0.00000
           A9           0.00000   0.00000   0.00000   0.00000   0.00000
           A10          0.00000   0.00000   0.00000   0.00000   0.00000
           A11          0.00000   0.00000   0.00000   0.00000   0.00000
           A12          0.00000   0.00000   0.00000   0.00000   0.00000
           D1           0.00000   0.00000   0.00000   0.00000   0.00000
           D2           0.00000   0.00000   0.00000   0.00000   0.00000
           D3           0.00000   0.00000   0.00000   0.00000   0.00000
           D4           0.00000   0.00000   0.00000   0.00000   0.00000
           D5           0.00000   0.00000   0.00000   0.00000   0.00000
           D6           0.00000   0.00000   0.00000   0.00000   0.00000
           D7           0.00000   0.00000   0.00000   0.00000   0.00000
           D8           0.00000   0.00000   0.00000   0.00000   0.00000
           D9           0.00000   0.00000   0.00000   0.00000   0.00000
                          R6        R7        A1        A2        A3
           R6           0.34787
           R7           0.00000   0.34787
           A1           0.00000   0.00000   0.16000
           A2           0.00000   0.00000   0.00000   0.16000
           A3           0.00000   0.00000   0.00000   0.00000   0.16000
           A4           0.00000   0.00000   0.00000   0.00000   0.00000
           A5           0.00000   0.00000   0.00000   0.00000   0.00000
           A6           0.00000   0.00000   0.00000   0.00000   0.00000
           A7           0.00000   0.00000   0.00000   0.00000   0.00000
           A8           0.00000   0.00000   0.00000   0.00000   0.00000
           A9           0.00000   0.00000   0.00000   0.00000   0.00000
           A10          0.00000   0.00000   0.00000   0.00000   0.00000
           A11          0.00000   0.00000   0.00000   0.00000   0.00000
           A12          0.00000   0.00000   0.00000   0.00000   0.00000
           D1           0.00000   0.00000   0.00000   0.00000   0.00000
           D2           0.00000   0.00000   0.00000   0.00000   0.00000
           D3           0.00000   0.00000   0.00000   0.00000   0.00000
           D4           0.00000   0.00000   0.00000   0.00000   0.00000
           D5           0.00000   0.00000   0.00000   0.00000   0.00000
           D6           0.00000   0.00000   0.00000   0.00000   0.00000
           D7           0.00000   0.00000   0.00000   0.00000   0.00000
           D8           0.00000   0.00000   0.00000   0.00000   0.00000
           D9           0.00000   0.00000   0.00000   0.00000   0.00000
                          A4        A5        A6        A7        A8
           A4           0.16000
           A5           0.00000   0.16000
           A6           0.00000   0.00000   0.16000
           A7           0.00000   0.00000   0.00000   0.16000
           A8           0.00000   0.00000   0.00000   0.00000   0.16000
           A9           0.00000   0.00000   0.00000   0.00000   0.00000
           A10          0.00000   0.00000   0.00000   0.00000   0.00000
           A11          0.00000   0.00000   0.00000   0.00000   0.00000
           A12          0.00000   0.00000   0.00000   0.00000   0.00000
           D1           0.00000   0.00000   0.00000   0.00000   0.00000
           D2           0.00000   0.00000   0.00000   0.00000   0.00000
           D3           0.00000   0.00000   0.00000   0.00000   0.00000
           D4           0.00000   0.00000   0.00000   0.00000   0.00000
           D5           0.00000   0.00000   0.00000   0.00000   0.00000
           D6           0.00000   0.00000   0.00000   0.00000   0.00000
           D7           0.00000   0.00000   0.00000   0.00000   0.00000
           D8           0.00000   0.00000   0.00000   0.00000   0.00000
           D9           0.00000   0.00000   0.00000   0.00000   0.00000
                          A9        A10       A11       A12       D1
           A9           0.16000
           A10          0.00000   0.16000
           A11          0.00000   0.00000   0.16000
           A12          0.00000   0.00000   0.00000   0.16000
           D1           0.00000   0.00000   0.00000   0.00000   0.00420
           D2           0.00000   0.00000   0.00000   0.00000   0.00000
           D3           0.00000   0.00000   0.00000   0.00000   0.00000
           D4           0.00000   0.00000   0.00000   0.00000   0.00000
           D5           0.00000   0.00000   0.00000   0.00000   0.00000
           D6           0.00000   0.00000   0.00000   0.00000   0.00000
           D7           0.00000   0.00000   0.00000   0.00000   0.00000
           D8           0.00000   0.00000   0.00000   0.00000   0.00000
           D9           0.00000   0.00000   0.00000   0.00000   0.00000
                          D2        D3        D4        D5        D6
           D2           0.00420
           D3           0.00000   0.00420
           D4           0.00000   0.00000   0.00420
           D5           0.00000   0.00000   0.00000   0.00420
           D6           0.00000   0.00000   0.00000   0.00000   0.00420
           D7           0.00000   0.00000   0.00000   0.00000   0.00000
           D8           0.00000   0.00000   0.00000   0.00000   0.00000
           D9           0.00000   0.00000   0.00000   0.00000   0.00000
                          D7        D8        D9
           D7           0.00420
           D8           0.00000   0.00420
           D9           0.00000   0.00000   0.00420
 ITU=  0
 Eigenvectors of the second derivative matrix:
                           1         2         3         4         5
     Eigenvalues --     0.00420   0.05513   0.05513   0.05513   0.05513
   1         R1        -0.00000  -0.00000  -0.00000   0.00000   0.00000
   2         R2        -0.00000   0.00000  -0.00000   0.00000  -0.00000
   3         R3        -0.00000  -0.00000  -0.00000  -0.00000  -0.00000
   4         R4         0.00000  -0.00000   0.00000   0.00000   0.00000
   5         R5        -0.00000  -0.00000  -0.00000   0.00000  -0.00000
   6         R6         0.00000   0.00000   0.00000   0.00000   0.00000
   7         R7         0.00000   0.00000  -0.00000   0.00000   0.00000
   8         A1        -0.00000  -0.00000   0.14961   0.00000  -0.16018
   9         A2         0.00000   0.00000  -0.21352   0.00000  -0.04947
  10         A3        -0.00000   0.00000   0.06392  -0.00000   0.20965
  11         A4         0.00000  -0.00000  -0.12020   0.00000  -0.39427
  12         A5        -0.00000  -0.00000   0.40154  -0.00000   0.09304
  13         A6        -0.00000   0.00000  -0.28135  -0.00000   0.30123
  14         A7        -0.00000  -0.08571   0.00000  -0.20172  -0.00000
  15         A8        -0.00000   0.21755   0.00000   0.02663   0.00000
  16         A9         0.00000  -0.13184  -0.00000   0.17509   0.00000
  17         A10        0.00000   0.24794   0.00000  -0.32927  -0.00000
  18         A11        0.00000  -0.40912  -0.00000  -0.05009  -0.00000
  19         A12        0.00000   0.16119  -0.00000   0.37936   0.00000
  20         D1        -0.33333   0.35596   0.28264  -0.15124   0.26399
  21         D2        -0.33333  -0.04700   0.28264   0.38389   0.26399
  22         D3        -0.33333  -0.30896   0.28264  -0.23265   0.26399
  23         D4        -0.33333   0.35596   0.08730  -0.15124  -0.37677
  24         D5        -0.33333  -0.04700   0.08730   0.38389  -0.37677
  25         D6        -0.33333  -0.30896   0.08730  -0.23265  -0.37677
  26         D7        -0.33333   0.35596  -0.36994  -0.15124   0.11278
  27         D8        -0.33333  -0.04700  -0.36994   0.38389   0.11278
  28         D9        -0.33333  -0.30896  -0.36994  -0.23265   0.11278
                           6         7         8         9        10
     Eigenvalues --     0.16000   0.16000   0.16000   0.16000   0.16000
   1         R1         0.00000  -0.00000   0.00000   0.00000   0.00000
   2         R2         0.00000   0.00000  -0.00000  -0.00000   0.00000
   3         R3         0.00000   0.00000  -0.00000   0.00000  -0.00000
   4         R4         0.00000   0.00000   0.00000   0.00000  -0.00000
   5         R5         0.00000  -0.00000  -0.00000  -0.00000   0.00000
   6         R6         0.00000   0.00000  -0.00000  -0.00000  -0.00000
   7         R7         0.00000  -0.00000  -0.00000  -0.00000   0.00000
   8         A1        -0.40597  -0.05935  -0.19616   0.27778  -0.59029
   9         A2        -0.06820  -0.31574  -0.41383  -0.25849   0.41287
  10         A3        -0.18034  -0.01153  -0.00429   0.55952   0.43006
  11         A4         0.25214   0.19946   0.32436  -0.01026   0.09434
  12         A5         0.31177   0.03769   0.10659  -0.44524   0.08520
  13         A6         0.13216   0.17403   0.22234  -0.16007  -0.44823
  14         A7        -0.43010  -0.41517   0.22036  -0.36632  -0.03801
  15         A8        -0.40475   0.55404   0.22306  -0.07522   0.22480
  16         A9         0.06748   0.33751  -0.61776  -0.16584  -0.08616
  17         A10        0.44393  -0.07385  -0.23579   0.23479  -0.09933
  18         A11        0.19282   0.04129   0.21132   0.28298   0.06603
  19         A12        0.17934  -0.47409   0.20988   0.12819  -0.07372
  20         D1        -0.00000  -0.00000   0.00000   0.00000  -0.00000
  21         D2        -0.00000   0.00000   0.00000  -0.00000   0.00000
  22         D3         0.00000  -0.00000  -0.00000  -0.00000  -0.00000
  23         D4         0.00000   0.00000   0.00000   0.00000   0.00000
  24         D5         0.00000   0.00000  -0.00000  -0.00000   0.00000
  25         D6         0.00000   0.00000  -0.00000   0.00000  -0.00000
  26         D7        -0.00000  -0.00000   0.00000   0.00000   0.00000
  27         D8        -0.00000   0.00000   0.00000  -0.00000   0.00000
  28         D9         0.00000  -0.00000  -0.00000   0.00000  -0.00000
                          11        12        13        14        15
     Eigenvalues --     0.16000   0.29778   0.34786   0.34786   0.34787
   1         R1         0.00000  -1.00000  -0.00000  -0.00000   0.00000
   2         R2        -0.00000  -0.00000   1.00000  -0.00000   0.00000
   3         R3        -0.00000   0.00000  -0.00000   0.00000   0.00000
   4         R4         0.00000  -0.00000   0.00000   1.00000  -0.00000
   5         R5         0.00000   0.00000  -0.00000  -0.00000  -0.00000
   6         R6        -0.00000   0.00000   0.00000   0.00000  -0.00000
   7         R7         0.00000   0.00000  -0.00000   0.00000   1.00000
   8         A1        -0.20908  -0.00000   0.00000  -0.00000   0.00000
   9         A2        -0.40404  -0.00000  -0.00000   0.00000  -0.00000
  10         A3         0.38136   0.00000   0.00000  -0.00000   0.00000
  11         A4         0.32603   0.00000  -0.00000  -0.00000  -0.00000
  12         A5        -0.09161   0.00000   0.00000   0.00000  -0.00000
  13         A6         0.01206   0.00000  -0.00000  -0.00000   0.00000
  14         A7         0.36686  -0.00000   0.00000   0.00000  -0.00000
  15         A8        -0.31527  -0.00000  -0.00000   0.00000   0.00000
  16         A9         0.37565   0.00000  -0.00000  -0.00000  -0.00000
  17         A10       -0.02743   0.00000  -0.00000  -0.00000   0.00000
  18         A11       -0.39483   0.00000  -0.00000  -0.00000   0.00000
  19         A12       -0.03211   0.00000   0.00000   0.00000  -0.00000
  20         D1        -0.00000   0.00000   0.00000   0.00000  -0.00000
  21         D2        -0.00000   0.00000  -0.00000  -0.00000  -0.00000
  22         D3        -0.00000   0.00000   0.00000  -0.00000   0.00000
  23         D4        -0.00000  -0.00000  -0.00000   0.00000   0.00000
  24         D5        -0.00000   0.00000  -0.00000   0.00000   0.00000
  25         D6        -0.00000   0.00000   0.00000  -0.00000   0.00000
  26         D7         0.00000  -0.00000  -0.00000   0.00000   0.00000
  27         D8         0.00000   0.00000  -0.00000   0.00000  -0.00000
  28         D9         0.00000   0.00000  -0.00000  -0.00000   0.00000
                          16        17        18
     Eigenvalues --     0.34787   0.34787   0.34787
   1         R1         0.00000  -0.00000  -0.00000
   2         R2        -0.00000  -0.00000  -0.00000
   3         R3         0.00000  -1.00000   0.00000
   4         R4        -0.00000   0.00000  -0.00000
   5         R5        -0.00000  -0.00000  -1.00000
   6         R6         1.00000   0.00000  -0.00000
   7         R7         0.00000   0.00000  -0.00000
   8         A1         0.00000   0.00000  -0.00000
   9         A2         0.00000   0.00000   0.00000
  10         A3         0.00000  -0.00000  -0.00000
  11         A4         0.00000  -0.00000   0.00000
  12         A5        -0.00000  -0.00000   0.00000
  13         A6        -0.00000   0.00000  -0.00000
  14         A7         0.00000  -0.00000   0.00000
  15         A8        -0.00000   0.00000  -0.00000
  16         A9        -0.00000  -0.00000   0.00000
  17         A10        0.00000   0.00000  -0.00000
  18         A11        0.00000   0.00000  -0.00000
  19         A12        0.00000  -0.00000  -0.00000
  20         D1        -0.00000   0.00000  -0.00000
  21         D2        -0.00000  -0.00000  -0.00000
  22         D3         0.00000   0.00000  -0.00000
  23         D4         0.00000   0.00000  -0.00000
  24         D5        -0.00000  -0.00000   0.00000
  25         D6         0.00000   0.00000   0.00000
  26         D7         0.00000   0.00000   0.00000
  27         D8         0.00000  -0.00000   0.00000
  28         D9         0.00000   0.00000   0.00000
 Iter=   1 RLamda= 0.00000000D+00 Sum=-8.22676372D-03.
 Iter=   2 RLamda=-8.22676372D-03 Sum=-8.01260203D-03.
 Iter=   3 RLamda=-8.01260203D-03 Sum=-8.01802376D-03.
 Iter=   4 RLamda=-8.01802376D-03 Sum=-8.01788641D-03.
 Iter=   5 RLamda=-8.01788641D-03 Sum=-8.01788989D-03.
 RFO step:  Lambda=-8.01788641D-03 EMin= 4.19511837D-03
 Linear search not attempted -- first point.
 Iteration  1 RMS(Cart)=  0.03704309 RMS(Int)=  0.00047760
 Iteration  2 RMS(Cart)=  0.00066194 RMS(Int)=  0.00011240
 Iteration  3 RMS(Cart)=  0.00000021 RMS(Int)=  0.00011240
 ITry= 1 IFail=0 DXMaxC= 6.45D-02 DCOld= 1.00D+10 DXMaxT= 3.00D-01 DXLimC= 3.00D+00 Rises=F
 Variable       Old X    -DE/DX   Delta X   Delta X   Delta X     New X
                                 (Linear)    (Quad)   (Total)
    R1        2.88408  -0.01725   0.00000  -0.05640  -0.05640   2.82768
    R2        2.06023   0.01932   0.00000   0.05429   0.05429   2.11452
    R3        2.06023   0.01932   0.00000   0.05430   0.05430   2.11452
    R4        2.06023   0.01932   0.00000   0.05429   0.05429   2.11452
    R5        2.06022   0.01933   0.00000   0.05430   0.05430   2.11452
    R6        2.06023   0.01932   0.00000   0.05430   0.05430   2.11452
    R7        2.06023   0.01932   0.00000   0.05430   0.05430   2.11452
    A1        1.94175  -0.00314   0.00000  -0.01868  -0.01886   1.92290
    A2        1.94175  -0.00314   0.00000  -0.01868  -0.01886   1.92290
    A3        1.94175  -0.00314   0.00000  -0.01868  -0.01886   1.92290
    A4        1.87851   0.00334   0.00000   0.01987   0.01970   1.89821
    A5        1.87851   0.00334   0.00000   0.01987   0.01970   1.89821
    A6        1.87851   0.00334   0.00000   0.01987   0.01970   1.89821
    A7        1.94176  -0.00314   0.00000  -0.01869  -0.01886   1.92290
    A8        1.94175  -0.00314   0.00000  -0.01868  -0.01886   1.92290
    A9        1.94175  -0.00314   0.00000  -0.01869  -0.01886   1.92290
   A10        1.87851   0.00334   0.00000   0.01987   0.01970   1.89821
   A11        1.87851   0.00334   0.00000   0.01987   0.01970   1.89821
   A12        1.87851   0.00334   0.00000   0.01987   0.01970   1.89821
    D1        1.04542   0.00000   0.00000   0.00012   0.00012   1.04555
    D2       -1.04897   0.00000   0.00000   0.00012   0.00012  -1.04885
    D3        3.13982   0.00000   0.00000   0.00012   0.00012   3.13994
    D4        3.13982   0.00000   0.00000   0.00012   0.00012   3.13994
    D5        1.04543   0.00000   0.00000   0.00012   0.00012   1.04555
    D6       -1.04897   0.00000   0.00000   0.00012   0.00012  -1.04885
    D7       -1.04897   0.00000   0.00000   0.00012   0.00012  -1.04885
    D8        3.13982   0.00000   0.00000   0.00012   0.00012   3.13994
    D9        1.04543   0.00000   0.00000   0.00012   0.00012   1.04555
         Item               Value     Threshold  Converged?
 Maximum Force            0.019326     0.000450     NO 
 RMS     Force            0.009754     0.000300     NO 
 Maximum Displacement     0.064536     0.001800     NO 
 RMS     Displacement     0.037468     0.001200     NO 
 Predicted change in Energy=-4.110472D-03
 Lowest energy point so far.  Saving SCF results.
 Largest change from initial coordinates is atom    3       0.042 Angstoms.
 GradGradGradGradGradGradGradGradGradGradGradGradGradGradGradGradGradGrad

 Leave Link  103 at Wed Oct 21 14:15:56 2020, MaxMem=  2684354560 cpu:               6.9 elap:               1.1
 (Enter /udrive/faculty/rpeverati/g16/g16/l202.exe)
                          Input orientation:                          
 ---------------------------------------------------------------------
 Center     Atomic      Atomic             Coordinates (Angstroms)
 Number     Number       Type             X           Y           Z
 ---------------------------------------------------------------------
      1          6           0       -0.748172   -0.000000    0.000001
      2          6           0        0.748172   -0.000000    0.000001
      3          1           0        1.134067   -0.458536   -0.944931
      4          1           0       -1.134066   -1.047478   -0.077093
      5          1           0        1.134066   -0.589069    0.869571
      6          1           0        1.134066    1.047603    0.075366
      7          1           0       -1.134067    0.456973    0.945689
      8          1           0       -1.134066    0.590503   -0.868595
 ---------------------------------------------------------------------
                    Distance matrix (angstroms):
                    1          2          3          4          5
     1  C    0.000000
     2  C    1.496344   0.000000
     3  H    2.155452   1.118958   0.000000
     4  H    1.118958   2.155452   2.498884   0.000000
     5  H    2.155452   1.118958   1.819191   2.500147   0.000000
     6  H    2.155452   1.118958   1.819192   3.091444   1.819191
     7  H    1.118958   2.155453   3.091446   1.819191   2.498885
     8  H    1.118958   2.155452   2.500147   1.819191   3.091445
                    6          7          8
     6  H    0.000000
     7  H    2.500147   0.000000
     8  H    2.498885   1.819191   0.000000
 Stoichiometry    C2H6
 Framework group  C1[X(C2H6)]
 Deg. of freedom    18
 Full point group                 C1      NOp   1
 RotChk:  IX=3 Diff= 2.12D+00
 Largest Abelian subgroup         C1      NOp   1
 Largest concise Abelian subgroup C1      NOp   1
                         Standard orientation:                         
 ---------------------------------------------------------------------
 Center     Atomic      Atomic             Coordinates (Angstroms)
 Number     Number       Type             X           Y           Z
 ---------------------------------------------------------------------
      1          6           0        0.748172    0.000000    0.000000
      2          6           0       -0.748172   -0.000000    0.000000
      3          1           0       -1.134067   -0.951530    0.444682
      4          1           0        1.134066   -0.861864   -0.600286
      5          1           0       -1.134067    0.090659   -1.046391
      6          1           0       -1.134066    0.860873    0.601707
      7          1           0        1.134067    0.950794   -0.446254
      8          1           0        1.134066   -0.088931    1.046539
 ---------------------------------------------------------------------
 Rotational constants (GHZ):          75.7609332          20.5885172          20.5885156
 Leave Link  202 at Wed Oct 21 14:15:57 2020, MaxMem=  2684354560 cpu:               2.3 elap:               0.7
 (Enter /udrive/faculty/rpeverati/g16/g16/l301.exe)
 Standard basis: VSTO-6G (5D, 7F)
 Ernie: Thresh=  0.10000D-02 Tol=  0.10000D-05 Strict=F.
  NNHCO=     0 NNPyr=     0 NCTC=     0               EPep=         0.000000000
    EC=        20.692844981  ECS=         0.938031686   EG=         0.119817825
   EHC=         0.000000000  EAt=       -11.392663388  AtH=         1.042840032
 EPDDG=         0.000000000  ECC=        21.750694492 EAtT=        12.435503420
 There are    14 symmetry adapted cartesian basis functions of A   symmetry.
 There are    14 symmetry adapted basis functions of A   symmetry.
    14 basis functions,    84 primitive gaussians,    14 cartesian basis functions
     7 alpha electrons        7 beta electrons
       nuclear repulsion energy        34.1861979120 Hartrees.
 IExCor=    0 DFT=F Ex=HF Corr=None ExCW=0 ScaHFX=  1.000000
 ScaDFX=  1.000000  1.000000  1.000000  1.000000 ScalE2=  1.000000  1.000000
 IRadAn=      5 IRanWt=     -1 IRanGd=            0 ICorTp=0 IEmpDi=  4
 Integral buffers will be    131072 words long.
 Regular integral format.
 Two-electron integral symmetry is turned off.
 Leave Link  301 at Wed Oct 21 14:15:59 2020, MaxMem=  2684354560 cpu:               4.3 elap:               0.9
 (Enter /udrive/faculty/rpeverati/g16/g16/l302.exe)
 Do NDO integrals.
 NPDir=0 NMtPBC=     1 NCelOv=     1 NCel=       1 NClECP=     1 NCelD=      1
         NCelK=      1 NCelE2=     1 NClLst=     1 CellRange=     0.0.
 One-electron integrals computed using PRISM.
 NBasis=    14 RedAO= F EigKep=  0.00D+00  NBF=    14
 NBsUse=    14 1.00D-04 EigRej=  0.00D+00 NBFU=    14
 Leave Link  302 at Wed Oct 21 14:16:00 2020, MaxMem=  2684354560 cpu:               3.5 elap:               0.9
 (Enter /udrive/faculty/rpeverati/g16/g16/l303.exe)
 DipDrv:  MaxL=1.
 Leave Link  303 at Wed Oct 21 14:16:01 2020, MaxMem=  2684354560 cpu:               2.5 elap:               0.8
 (Enter /udrive/faculty/rpeverati/g16/g16/l401.exe)
 Initial guess from the checkpoint file:  "MN_15_C2H6_BH76_AM1_SE.chk"
 SCF N**3 symmetry information disabled.
 B after Tr=     0.000000    0.000000   -0.000000
         Rot=    0.663743   -0.235607   -0.645437   -0.295542 Ang= -96.83 deg.
 Guess basis will be translated and rotated to current coordinates.
 JPrj=0 DoOrth=T DoCkMO=T.
 Leave Link  401 at Wed Oct 21 14:16:02 2020, MaxMem=  2684354560 cpu:               3.0 elap:               0.8
 (Enter /udrive/faculty/rpeverati/g16/g16/l502.exe)
 Keep J ints in memory in canonical form, NReq=859572.
 FoFCou: FMM=F IPFlag=           0 FMFlag=           0 FMFlg1=           0
         NFxFlg=           0 DoJE=F BraDBF=F KetDBF=F FulRan=T
         wScrn=  0.000000 ICntrl=       600 IOpCl=  2 I1Cent=           0 NGrid=           0
         NMat0=    1 NMatS0=     26 NMatT0=    0 NMatD0=    1 NMtDS0=    0 NMtDT0=    0
 Symmetry not used in FoFCou.
 Two-electron integral symmetry not used.
 Closed shell SCF:
 Using DIIS extrapolation, IDIIS=  1040.
 Overlap will be assumed to be unity.
 NGot=  2684354560 LenX=  2684293681 LenY=  2684292799
 Requested convergence on RMS density matrix=1.00D-08 within 120 cycles.
 Requested convergence on MAX density matrix=1.00D-06.
 Requested convergence on             energy=1.00D-06.
 No special actions if energy rises.

 Cycle   1  Pass 1  IDiag  1:
 E=-0.273528416268789E-01
 DIIS: error= 1.65D-03 at cycle   1 NSaved=   1.
 NSaved= 1 IEnMin= 1 EnMin=-0.273528416268789E-01 IErMin= 1 ErrMin= 1.65D-03
 ErrMax= 1.65D-03  0.00D+00 EMaxC= 1.00D-01 BMatC= 1.31D-04 BMatP= 1.31D-04
 IDIUse=3 WtCom= 9.83D-01 WtEn= 1.65D-02
 Coeff-Com:  0.100D+01
 Coeff-En:   0.100D+01
 Coeff:      0.100D+01
 GapD=    2.000 DampG=2.000 DampE=1.000 DampFc=2.0000 IDamp=-1.
 RMSDP=1.14D-03 MaxDP=3.22D-03              OVMax= 0.00D+00

 Cycle   2  Pass 1  IDiag  3:
 E=-0.276647457151000E-01 Delta-E=       -0.000311904088 Rises=F Damp=F
 DIIS: error= 3.78D-04 at cycle   2 NSaved=   2.
 NSaved= 2 IEnMin= 2 EnMin=-0.276647457151000E-01 IErMin= 2 ErrMin= 3.78D-04
 ErrMax= 3.78D-04  0.00D+00 EMaxC= 1.00D-01 BMatC= 8.15D-06 BMatP= 1.31D-04
 IDIUse=3 WtCom= 9.96D-01 WtEn= 3.78D-03
 Coeff-Com: -0.327D+00 0.133D+01
 Coeff-En:   0.000D+00 0.100D+01
 Coeff:     -0.326D+00 0.133D+01
 Gap=     0.584 Goal=   None    Shift=    0.000
 RMSDP=4.04D-04 MaxDP=1.17D-03 DE=-3.12D-04 OVMax= 2.58D-03

 Cycle   3  Pass 1  IDiag  3:
 E=-0.276872703150133E-01 Delta-E=       -0.000022524600 Rises=F Damp=F
 DIIS: error= 3.13D-05 at cycle   3 NSaved=   3.
 NSaved= 3 IEnMin= 3 EnMin=-0.276872703150133E-01 IErMin= 3 ErrMin= 3.13D-05
 ErrMax= 3.13D-05  0.00D+00 EMaxC= 1.00D-01 BMatC= 2.76D-08 BMatP= 8.15D-06
 IDIUse=1 WtCom= 1.00D+00 WtEn= 0.00D+00
 Coeff-Com:  0.154D+00-0.635D+00 0.148D+01
 Coeff:      0.154D+00-0.635D+00 0.148D+01
 Gap=     0.584 Goal=   None    Shift=    0.000
 RMSDP=3.86D-05 MaxDP=1.77D-04 DE=-2.25D-05 OVMax= 2.39D-04

 Cycle   4  Pass 1  IDiag  3:
 E=-0.276874007552976E-01 Delta-E=       -0.000000130440 Rises=F Damp=F
 DIIS: error= 3.64D-06 at cycle   4 NSaved=   4.
 NSaved= 4 IEnMin= 4 EnMin=-0.276874007552976E-01 IErMin= 4 ErrMin= 3.64D-06
 ErrMax= 3.64D-06  0.00D+00 EMaxC= 1.00D-01 BMatC= 3.42D-10 BMatP= 2.76D-08
 IDIUse=1 WtCom= 1.00D+00 WtEn= 0.00D+00
 Coeff-Com: -0.791D-01 0.326D+00-0.772D+00 0.153D+01
 Coeff:     -0.791D-01 0.326D+00-0.772D+00 0.153D+01
 Gap=     0.584 Goal=   None    Shift=    0.000
 RMSDP=4.20D-06 MaxDP=1.38D-05 DE=-1.30D-07 OVMax= 1.78D-05

 Cycle   5  Pass 1  IDiag  3:
 E=-0.276874024398381E-01 Delta-E=       -0.000000001685 Rises=F Damp=F
 DIIS: error= 6.53D-07 at cycle   5 NSaved=   5.
 NSaved= 5 IEnMin= 5 EnMin=-0.276874024398381E-01 IErMin= 5 ErrMin= 6.53D-07
 ErrMax= 6.53D-07  0.00D+00 EMaxC= 1.00D-01 BMatC= 8.28D-12 BMatP= 3.42D-10
 IDIUse=1 WtCom= 1.00D+00 WtEn= 0.00D+00
 Coeff-Com:  0.349D-01-0.144D+00 0.341D+00-0.741D+00 0.151D+01
 Coeff:      0.349D-01-0.144D+00 0.341D+00-0.741D+00 0.151D+01
 Gap=     0.584 Goal=   None    Shift=    0.000
 RMSDP=7.34D-07 MaxDP=2.91D-06 DE=-1.68D-09 OVMax= 2.57D-06

 Cycle   6  Pass 1  IDiag  3:
 E=-0.276874024841902E-01 Delta-E=       -0.000000000044 Rises=F Damp=F
 DIIS: error= 7.27D-08 at cycle   6 NSaved=   6.
 NSaved= 6 IEnMin= 6 EnMin=-0.276874024841902E-01 IErMin= 6 ErrMin= 7.27D-08
 ErrMax= 7.27D-08  0.00D+00 EMaxC= 1.00D-01 BMatC= 1.33D-13 BMatP= 8.28D-12
 IDIUse=1 WtCom= 1.00D+00 WtEn= 0.00D+00
 Coeff-Com: -0.153D-01 0.632D-01-0.149D+00 0.327D+00-0.736D+00 0.151D+01
 Coeff:     -0.153D-01 0.632D-01-0.149D+00 0.327D+00-0.736D+00 0.151D+01
 Gap=     0.584 Goal=   None    Shift=    0.000
 RMSDP=9.80D-08 MaxDP=3.82D-07 DE=-4.44D-11 OVMax= 0.00D+00

 Cycle   7  Pass 1  IDiag  3:
 E=-0.276874024848439E-01 Delta-E=       -0.000000000001 Rises=F Damp=F
 DIIS: error= 8.23D-09 at cycle   7 NSaved=   7.
 NSaved= 7 IEnMin= 7 EnMin=-0.276874024848439E-01 IErMin= 7 ErrMin= 8.23D-09
 ErrMax= 8.23D-09  0.00D+00 EMaxC= 1.00D-01 BMatC= 3.16D-15 BMatP= 1.33D-13
 IDIUse=1 WtCom= 1.00D+00 WtEn= 0.00D+00
 Coeff-Com:  0.670D-03-0.276D-02 0.639D-02-0.139D-01 0.388D-01-0.909D-01
 Coeff-Com:  0.106D+01
 Coeff:      0.670D-03-0.276D-02 0.639D-02-0.139D-01 0.388D-01-0.909D-01
 Coeff:      0.106D+01
 Gap=     0.584 Goal=   None    Shift=    0.000
 RMSDP=9.41D-09 MaxDP=3.58D-08 DE=-6.54D-13 OVMax= 0.00D+00

 SCF Done:  E(RAM1) = -0.276874024848E-01 A.U. after    7 cycles
            NFock=  7  Conv=0.94D-08     -V/T= 0.9985
 KE=-1.848935025060D+01 PE=-4.088197846581D+01 EE= 2.515744340195D+01
 Leave Link  502 at Wed Oct 21 14:16:04 2020, MaxMem=  2684354560 cpu:               6.7 elap:               1.2
 (Enter /udrive/faculty/rpeverati/g16/g16/l508.exe)
 QCSCF skips out because SCF is already converged.
 Leave Link  508 at Wed Oct 21 14:16:04 2020, MaxMem=  2684354560 cpu:               0.6 elap:               0.6
 (Enter /udrive/faculty/rpeverati/g16/g16/l701.exe)
 ... and contract with generalized density number  0.
 Compute integral first derivatives.
 Leave Link  701 at Wed Oct 21 14:16:06 2020, MaxMem=  2684354560 cpu:               3.3 elap:               0.9
 (Enter /udrive/faculty/rpeverati/g16/g16/l702.exe)
 L702 exits ... SP integral derivatives will be done elsewhere.
 Leave Link  702 at Wed Oct 21 14:16:07 2020, MaxMem=  2684354560 cpu:               2.2 elap:               0.8
 (Enter /udrive/faculty/rpeverati/g16/g16/l703.exe)
 Integral derivatives from FoFJK, PRISM(SPDF).
 Compute integral first derivatives, UseDBF=F ICtDFT=           0.
 Calling FoFJK, ICntrl=      2127 FMM=F ISym2X=0 I1Cent= 0 IOpClX= 0 NMat=1 NMatS=1 NMatT=0.
 FoFJK:  IHMeth= 8 ICntrl=    2127 DoSepK=F KAlg= 0 I1Cent=           0 FoldK=F
 IRaf=         0 NMat=       1 IRICut=       1 DoRegI=T DoRafI=F ISym2E= 0 IDoP0=3 IntGTp=3.
 FoFCou: FMM=F IPFlag=           0 FMFlag=      100000 FMFlg1=         800
         NFxFlg=           0 DoJE=F BraDBF=F KetDBF=F FulRan=T
         wScrn=  0.000000 ICntrl=      2127 IOpCl=  0 I1Cent=           0 NGrid=           0
         NMat0=    1 NMatS0=      1 NMatT0=    0 NMatD0=    1 NMtDS0=    0 NMtDT0=    0
 Symmetry not used in FoFCou.
 Leave Link  703 at Wed Oct 21 14:16:08 2020, MaxMem=  2684354560 cpu:               3.2 elap:               0.8
 (Enter /udrive/faculty/rpeverati/g16/g16/l716.exe)
 Dipole        =-7.06362759D-08 1.11552432D-08-7.97975541D-08
 ***** Axes restored to original set *****
 -------------------------------------------------------------------
 Center     Atomic                   Forces (Hartrees/Bohr)
 Number     Number              X              Y              Z
 -------------------------------------------------------------------
      1        6          -0.002537542   -0.000000176   -0.000000069
      2        6           0.002537610    0.000000045    0.000000451
      3        1           0.001085113    0.000801104    0.001644503
      4        1          -0.001085175    0.001824055    0.000136944
      5        1           0.001085027    0.001023770   -0.001516168
      6        1           0.001085158   -0.001824807   -0.000128682
      7        1          -0.001085041   -0.000793375   -0.001648138
      8        1          -0.001085150   -0.001030616    0.001511159
 -------------------------------------------------------------------
 Cartesian Forces:  Max     0.002537610 RMS     0.001291323
 Leave Link  716 at Wed Oct 21 14:16:09 2020, MaxMem=  2684354560 cpu:               2.0 elap:               0.7
 (Enter /udrive/faculty/rpeverati/g16/g16/l103.exe)

 GradGradGradGradGradGradGradGradGradGradGradGradGradGradGradGradGradGrad
 Berny optimization.
 Optmz: redundant internal coordinate code flag= 1
 Using GEDIIS/GDIIS optimizer.
 Red2BG:  D1=  2.64D-01 OD1=  9.32D-02 B2RMS=  0.00D+00 IAprox=0
 FormGI is forming the generalized inverse of G from B-inverse, IUseBI=4.
 Internal  Forces:  Max     0.005792908 RMS     0.001689731
 Search for a local minimum.
 Step number   2 out of a maximum of  100
 All quantities printed in internal units (Hartrees-Bohrs-Radians)
 RMS Force = .16897D-02 SwitMx=.10000D-02 MixMth= 1
 Mixed Optimization -- RFO/linear search
 Update second derivatives using D2CorX and points    1    2
 DE= -3.36D-03 DEPred=-4.11D-03 R= 8.19D-01
 TightC=F SS=  1.41D+00  RLast= 1.59D-01 DXNew= 5.0454D-01 4.7749D-01
 Trust test= 8.19D-01 RLast= 1.59D-01 DXMaxT set to 4.77D-01
 The second derivative matrix:
                          R1        R2        R3        R4        R5
           R1           0.31951
           R2          -0.01127   0.34873
           R3          -0.01127   0.00087   0.34874
           R4          -0.01127   0.00087   0.00087   0.34873
           R5          -0.01127   0.00087   0.00087   0.00087   0.34874
           R6          -0.01127   0.00087   0.00087   0.00087   0.00087
           R7          -0.01127   0.00087   0.00087   0.00087   0.00087
           A1           0.00566  -0.00360  -0.00360  -0.00360  -0.00360
           A2           0.00566  -0.00360  -0.00360  -0.00360  -0.00360
           A3           0.00566  -0.00360  -0.00360  -0.00360  -0.00360
           A4          -0.00598   0.00382   0.00382   0.00382   0.00382
           A5          -0.00598   0.00382   0.00382   0.00382   0.00382
           A6          -0.00598   0.00382   0.00382   0.00382   0.00382
           A7           0.00566  -0.00360  -0.00360  -0.00360  -0.00360
           A8           0.00566  -0.00360  -0.00360  -0.00360  -0.00360
           A9           0.00566  -0.00360  -0.00360  -0.00360  -0.00360
           A10         -0.00598   0.00382   0.00382   0.00382   0.00382
           A11         -0.00598   0.00382   0.00382   0.00382   0.00382
           A12         -0.00598   0.00382   0.00382   0.00382   0.00382
           D1           0.00000  -0.00000  -0.00000  -0.00000  -0.00000
           D2           0.00000  -0.00000  -0.00000  -0.00000  -0.00000
           D3           0.00000  -0.00000  -0.00000  -0.00000  -0.00000
           D4           0.00000  -0.00000  -0.00000  -0.00000  -0.00000
           D5           0.00000  -0.00000  -0.00000  -0.00000  -0.00000
           D6           0.00000  -0.00000  -0.00000  -0.00000  -0.00000
           D7           0.00000  -0.00000  -0.00000  -0.00000  -0.00000
           D8           0.00000  -0.00000  -0.00000  -0.00000  -0.00000
           D9           0.00000  -0.00000  -0.00000  -0.00000  -0.00000
                          R6        R7        A1        A2        A3
           R6           0.34874
           R7           0.00087   0.34874
           A1          -0.00360  -0.00360   0.16139
           A2          -0.00360  -0.00360   0.00139   0.16139
           A3          -0.00360  -0.00360   0.00139   0.00139   0.16139
           A4           0.00382   0.00382  -0.00146  -0.00146  -0.00146
           A5           0.00382   0.00382  -0.00146  -0.00146  -0.00146
           A6           0.00382   0.00382  -0.00146  -0.00146  -0.00146
           A7          -0.00360  -0.00360   0.00139   0.00139   0.00139
           A8          -0.00360  -0.00360   0.00139   0.00139   0.00139
           A9          -0.00360  -0.00360   0.00139   0.00139   0.00139
           A10          0.00382   0.00382  -0.00146  -0.00146  -0.00146
           A11          0.00382   0.00382  -0.00146  -0.00146  -0.00146
           A12          0.00382   0.00382  -0.00146  -0.00146  -0.00146
           D1          -0.00000  -0.00000   0.00000   0.00000   0.00000
           D2          -0.00000  -0.00000   0.00000   0.00000   0.00000
           D3          -0.00000  -0.00000   0.00000   0.00000   0.00000
           D4          -0.00000  -0.00000   0.00000   0.00000   0.00000
           D5          -0.00000  -0.00000   0.00000   0.00000   0.00000
           D6          -0.00000  -0.00000   0.00000   0.00000   0.00000
           D7          -0.00000  -0.00000   0.00000   0.00000   0.00000
           D8          -0.00000  -0.00000   0.00000   0.00000   0.00000
           D9          -0.00000  -0.00000   0.00000   0.00000   0.00000
                          A4        A5        A6        A7        A8
           A4           0.16154
           A5           0.00154   0.16154
           A6           0.00154   0.00154   0.16154
           A7          -0.00146  -0.00146  -0.00146   0.16139
           A8          -0.00146  -0.00146  -0.00146   0.00139   0.16139
           A9          -0.00146  -0.00146  -0.00146   0.00139   0.00139
           A10          0.00154   0.00154   0.00154  -0.00146  -0.00146
           A11          0.00154   0.00154   0.00154  -0.00146  -0.00146
           A12          0.00154   0.00154   0.00154  -0.00146  -0.00146
           D1          -0.00000  -0.00000  -0.00000   0.00000   0.00000
           D2          -0.00000  -0.00000  -0.00000   0.00000   0.00000
           D3          -0.00000  -0.00000  -0.00000   0.00000   0.00000
           D4          -0.00000  -0.00000  -0.00000   0.00000   0.00000
           D5          -0.00000  -0.00000  -0.00000   0.00000   0.00000
           D6          -0.00000  -0.00000  -0.00000   0.00000   0.00000
           D7          -0.00000  -0.00000  -0.00000   0.00000   0.00000
           D8          -0.00000  -0.00000  -0.00000   0.00000   0.00000
           D9          -0.00000  -0.00000  -0.00000   0.00000   0.00000
                          A9        A10       A11       A12       D1
           A9           0.16139
           A10         -0.00146   0.16154
           A11         -0.00146   0.00154   0.16154
           A12         -0.00146   0.00154   0.00154   0.16154
           D1           0.00000  -0.00000  -0.00000  -0.00000   0.00420
           D2           0.00000  -0.00000  -0.00000  -0.00000  -0.00000
           D3           0.00000  -0.00000  -0.00000  -0.00000  -0.00000
           D4           0.00000  -0.00000  -0.00000  -0.00000  -0.00000
           D5           0.00000  -0.00000  -0.00000  -0.00000  -0.00000
           D6           0.00000  -0.00000  -0.00000  -0.00000  -0.00000
           D7           0.00000  -0.00000  -0.00000  -0.00000  -0.00000
           D8           0.00000  -0.00000  -0.00000  -0.00000  -0.00000
           D9           0.00000  -0.00000  -0.00000  -0.00000  -0.00000
                          D2        D3        D4        D5        D6
           D2           0.00420
           D3          -0.00000   0.00420
           D4          -0.00000  -0.00000   0.00420
           D5          -0.00000  -0.00000  -0.00000   0.00420
           D6          -0.00000  -0.00000  -0.00000  -0.00000   0.00420
           D7          -0.00000  -0.00000  -0.00000  -0.00000  -0.00000
           D8          -0.00000  -0.00000  -0.00000  -0.00000  -0.00000
           D9          -0.00000  -0.00000  -0.00000  -0.00000  -0.00000
                          D7        D8        D9
           D7           0.00420
           D8          -0.00000   0.00420
           D9          -0.00000  -0.00000   0.00420
 ITU=  1  0
 Use linear search instead of GDIIS.
 Eigenvectors of the second derivative matrix:
                           1         2         3         4         5
     Eigenvalues --     0.00420   0.05710   0.05710   0.05710   0.05710
   1         R1         0.00001   0.00000   0.00000   0.00000   0.00000
   2         R2        -0.00002  -0.00000   0.00000  -0.00000  -0.00000
   3         R3        -0.00002  -0.00000   0.00000  -0.00000  -0.00000
   4         R4        -0.00002  -0.00000   0.00000  -0.00000  -0.00000
   5         R5        -0.00002  -0.00000   0.00000  -0.00000  -0.00000
   6         R6        -0.00002  -0.00000   0.00000  -0.00000  -0.00000
   7         R7        -0.00002  -0.00000   0.00000  -0.00000  -0.00000
   8         A1         0.00000  -0.20899  -0.00001  -0.05882  -0.00001
   9         A2         0.00000   0.05356   0.00001   0.21040   0.00002
  10         A3         0.00000   0.15543   0.00001  -0.15158  -0.00001
  11         A4        -0.00000  -0.30310  -0.00001   0.29559   0.00002
  12         A5        -0.00000  -0.10444  -0.00001  -0.41029  -0.00004
  13         A6        -0.00000   0.40754   0.00002   0.11469   0.00001
  14         A7         0.00000  -0.00000  -0.01505  -0.00002   0.21659
  15         A8         0.00000  -0.00001   0.19510   0.00001  -0.09526
  16         A9         0.00000   0.00001  -0.18004   0.00001  -0.12133
  17         A10       -0.00000  -0.00002   0.35109  -0.00002   0.23660
  18         A11       -0.00000   0.00002  -0.38044  -0.00001   0.18575
  19         A12       -0.00000   0.00000   0.02935   0.00003  -0.42235
  20         D1        -0.33333   0.10377   0.38218  -0.36878   0.02653
  21         D2        -0.33333   0.10379  -0.16808  -0.36874  -0.34428
  22         D3        -0.33333   0.10379  -0.21409  -0.36880   0.31766
  23         D4        -0.33333  -0.37127   0.38216   0.09450   0.02657
  24         D5        -0.33333  -0.37125  -0.16810   0.09454  -0.34425
  25         D6        -0.33333  -0.37125  -0.21411   0.09448   0.31770
  26         D7        -0.33333   0.26746   0.38219   0.27426   0.02659
  27         D8        -0.33333   0.26748  -0.16807   0.27430  -0.34423
  28         D9        -0.33333   0.26748  -0.21407   0.27424   0.31772
                           6         7         8         9        10
     Eigenvalues --     0.16000   0.16000   0.16000   0.16000   0.16000
   1         R1        -0.00000  -0.00000  -0.00000   0.00000  -0.00000
   2         R2         0.00000   0.00000   0.00000  -0.00000   0.00000
   3         R3         0.00000   0.00000   0.00000  -0.00000   0.00000
   4         R4         0.00000   0.00000   0.00000  -0.00000   0.00000
   5         R5         0.00000   0.00000   0.00000  -0.00000   0.00000
   6         R6         0.00000   0.00000   0.00000  -0.00000   0.00000
   7         R7         0.00000   0.00000   0.00000  -0.00000   0.00000
   8         A1         0.46712  -0.06787   0.60646   0.11590  -0.07106
   9         A2        -0.46026   0.13621   0.12988   0.04647   0.59972
  10         A3         0.23208  -0.12646  -0.36935  -0.63391   0.03130
  11         A4        -0.00352  -0.03504  -0.37760  -0.08327  -0.27111
  12         A5        -0.35855   0.09966  -0.12160   0.26564   0.02039
  13         A6         0.11701  -0.00500   0.12280   0.30124  -0.32360
  14         A7        -0.11558  -0.67074  -0.18905   0.32700  -0.05619
  15         A8        -0.42441   0.23078   0.19655  -0.21444  -0.53952
  16         A9         0.30106   0.49807  -0.37449   0.35895   0.03577
  17         A10        0.27691   0.22562  -0.00385  -0.05772   0.30548
  18         A11       -0.09511   0.08855   0.28899  -0.35177   0.01047
  19         A12        0.06326  -0.37376   0.09125  -0.07411   0.25832
  20         D1        -0.00000  -0.00000  -0.00000   0.00000  -0.00000
  21         D2        -0.00000  -0.00000  -0.00000   0.00000  -0.00000
  22         D3        -0.00000  -0.00000  -0.00000  -0.00000  -0.00000
  23         D4        -0.00000  -0.00000  -0.00000   0.00000  -0.00000
  24         D5        -0.00000  -0.00000  -0.00000   0.00000  -0.00000
  25         D6        -0.00000  -0.00000  -0.00000   0.00000  -0.00000
  26         D7        -0.00000  -0.00000  -0.00000   0.00000  -0.00000
  27         D8        -0.00000  -0.00000  -0.00000   0.00000  -0.00000
  28         D9        -0.00000  -0.00000  -0.00000  -0.00000  -0.00000
                          11        12        13        14        15
     Eigenvalues --     0.17049   0.30401   0.34786   0.34787   0.34787
   1         R1        -0.10449  -0.86742  -0.00002   0.00003  -0.00001
   2         R2         0.06274  -0.20304   0.89253  -0.16539   0.00925
   3         R3         0.06274  -0.20305  -0.13942   0.24019  -0.07220
   4         R4         0.06274  -0.20305  -0.35589  -0.82787   0.01987
   5         R5         0.06275  -0.20306  -0.07623   0.08707  -0.00987
   6         R6         0.06275  -0.20305  -0.15795   0.31976  -0.67806
   7         R7         0.06274  -0.20305  -0.16292   0.34606   0.73106
   8         A1         0.28003  -0.00412  -0.00000   0.00000  -0.00000
   9         A2         0.28003  -0.00412  -0.00000   0.00000  -0.00000
  10         A3         0.28003  -0.00412  -0.00000   0.00000  -0.00000
  11         A4        -0.28720   0.00422   0.00000  -0.00000   0.00000
  12         A5        -0.28720   0.00422   0.00000  -0.00000   0.00000
  13         A6        -0.28720   0.00422   0.00000  -0.00000   0.00000
  14         A7         0.28004  -0.00412  -0.00000   0.00000  -0.00000
  15         A8         0.28005  -0.00412  -0.00000   0.00000  -0.00000
  16         A9         0.28004  -0.00412  -0.00000   0.00000  -0.00000
  17         A10       -0.28722   0.00422   0.00000  -0.00000   0.00000
  18         A11       -0.28722   0.00422   0.00000  -0.00000   0.00000
  19         A12       -0.28722   0.00422   0.00000  -0.00000   0.00000
  20         D1         0.00000   0.00000  -0.00000   0.00000  -0.00000
  21         D2         0.00000   0.00000  -0.00000   0.00000  -0.00000
  22         D3         0.00000   0.00000  -0.00000   0.00000  -0.00000
  23         D4         0.00000   0.00000  -0.00000   0.00000  -0.00000
  24         D5         0.00000   0.00000  -0.00000   0.00000  -0.00000
  25         D6         0.00000   0.00000  -0.00000   0.00000  -0.00000
  26         D7         0.00000   0.00000  -0.00000   0.00000  -0.00000
  27         D8         0.00000   0.00000  -0.00000   0.00000  -0.00000
  28         D9         0.00000   0.00000  -0.00000   0.00000  -0.00000
                          16        17        18
     Eigenvalues --     0.34787   0.34787   0.37565
   1         R1         0.00001  -0.00001   0.48649
   2         R2         0.03051   0.09169  -0.34850
   3         R3        -0.82801   0.25572  -0.34856
   4         R4         0.05999   0.13174  -0.34852
   5         R5        -0.03911  -0.90459  -0.34862
   6         R6         0.44664   0.21646  -0.34862
   7         R7         0.32994   0.20908  -0.34859
   8         A1         0.00000  -0.00000   0.05281
   9         A2         0.00000  -0.00000   0.05280
  10         A3         0.00000  -0.00000   0.05281
  11         A4        -0.00000   0.00000  -0.05416
  12         A5        -0.00000   0.00000  -0.05416
  13         A6        -0.00000   0.00000  -0.05416
  14         A7         0.00000  -0.00000   0.05280
  15         A8         0.00000  -0.00000   0.05281
  16         A9         0.00000  -0.00000   0.05281
  17         A10       -0.00000   0.00000  -0.05416
  18         A11       -0.00000   0.00000  -0.05416
  19         A12       -0.00000   0.00000  -0.05416
  20         D1         0.00000  -0.00000   0.00001
  21         D2         0.00000  -0.00000   0.00001
  22         D3         0.00000  -0.00000   0.00001
  23         D4         0.00000  -0.00000   0.00001
  24         D5         0.00000  -0.00000   0.00001
  25         D6         0.00000  -0.00000   0.00001
  26         D7         0.00000  -0.00000   0.00001
  27         D8         0.00000  -0.00000   0.00001
  28         D9         0.00000  -0.00000   0.00001
 Iter=   1 RLamda= 0.00000000D+00 Sum=-1.46956208D-04.
 Iter=   2 RLamda=-1.46956208D-04 Sum=-1.46850759D-04.
 Iter=   3 RLamda=-1.46850759D-04 Sum=-1.46850834D-04.
 RFO step:  Lambda=-1.46850759D-04 EMin= 4.19511750D-03
 Quartic linear search produced a step of -0.13132.
 Iteration  1 RMS(Cart)=  0.01235067 RMS(Int)=  0.00004713
 Iteration  2 RMS(Cart)=  0.00003952 RMS(Int)=  0.00001082
 Iteration  3 RMS(Cart)=  0.00000000 RMS(Int)=  0.00001082
 ITry= 1 IFail=0 DXMaxC= 2.47D-02 DCOld= 1.00D+10 DXMaxT= 4.77D-01 DXLimC= 3.00D+00 Rises=F
 Variable       Old X    -DE/DX   Delta X   Delta X   Delta X     New X
                                 (Linear)    (Quad)   (Total)
    R1        2.82768   0.00579   0.00741   0.00853   0.01594   2.84362
    R2        2.11452  -0.00134  -0.00713   0.00471  -0.00242   2.11211
    R3        2.11452  -0.00134  -0.00713   0.00472  -0.00242   2.11211
    R4        2.11452  -0.00134  -0.00713   0.00471  -0.00242   2.11211
    R5        2.11452  -0.00134  -0.00713   0.00472  -0.00242   2.11211
    R6        2.11452  -0.00134  -0.00713   0.00471  -0.00242   2.11211
    R7        2.11452  -0.00134  -0.00713   0.00471  -0.00242   2.11211
    A1        1.92290   0.00170   0.00248   0.00643   0.00889   1.93179
    A2        1.92290   0.00170   0.00248   0.00643   0.00889   1.93179
    A3        1.92290   0.00170   0.00248   0.00643   0.00889   1.93179
    A4        1.89821  -0.00174  -0.00259  -0.00660  -0.00920   1.88901
    A5        1.89821  -0.00174  -0.00259  -0.00660  -0.00920   1.88901
    A6        1.89821  -0.00174  -0.00259  -0.00660  -0.00920   1.88901
    A7        1.92290   0.00170   0.00248   0.00643   0.00889   1.93179
    A8        1.92290   0.00170   0.00248   0.00643   0.00889   1.93179
    A9        1.92290   0.00170   0.00248   0.00643   0.00889   1.93179
   A10        1.89821  -0.00174  -0.00259  -0.00660  -0.00920   1.88901
   A11        1.89821  -0.00174  -0.00259  -0.00660  -0.00920   1.88901
   A12        1.89821  -0.00174  -0.00259  -0.00660  -0.00920   1.88901
    D1        1.04555   0.00000  -0.00002   0.00036   0.00034   1.04589
    D2       -1.04885   0.00000  -0.00002   0.00036   0.00034  -1.04851
    D3        3.13994   0.00000  -0.00002   0.00036   0.00034   3.14028
    D4        3.13994   0.00000  -0.00002   0.00036   0.00034   3.14028
    D5        1.04555   0.00000  -0.00002   0.00036   0.00034   1.04589
    D6       -1.04885   0.00000  -0.00002   0.00036   0.00034  -1.04851
    D7       -1.04885   0.00000  -0.00002   0.00036   0.00034  -1.04851
    D8        3.13994   0.00000  -0.00002   0.00036   0.00034   3.14028
    D9        1.04555   0.00000  -0.00002   0.00036   0.00034   1.04589
         Item               Value     Threshold  Converged?
 Maximum Force            0.005793     0.000450     NO 
 RMS     Force            0.001690     0.000300     NO 
 Maximum Displacement     0.024739     0.001800     NO 
 RMS     Displacement     0.012344     0.001200     NO 
 Predicted change in Energy=-1.462197D-04
 Lowest energy point so far.  Saving SCF results.
 Largest change from initial coordinates is atom    4       2.048 Angstoms.
 GradGradGradGradGradGradGradGradGradGradGradGradGradGradGradGradGradGrad

 Leave Link  103 at Wed Oct 21 14:16:10 2020, MaxMem=  2684354560 cpu:               5.8 elap:               1.1
 (Enter /udrive/faculty/rpeverati/g16/g16/l202.exe)
                          Input orientation:                          
 ---------------------------------------------------------------------
 Center     Atomic      Atomic             Coordinates (Angstroms)
 Number     Number       Type             X           Y           Z
 ---------------------------------------------------------------------
      1          6           0       -0.752388   -0.000000    0.000000
      2          6           0        0.752388   -0.000000    0.000001
      3          1           0        1.147158   -0.456336   -0.940808
      4          1           0       -1.147157   -1.042834   -0.076572
      5          1           0        1.147157   -0.586598    0.865605
      6          1           0        1.147157    1.042933    0.075209
      7          1           0       -1.147158    0.455103    0.941407
      8          1           0       -1.147157    0.587730   -0.864834
 ---------------------------------------------------------------------
[...]
  28         D9        -0.33333  -0.38179  -0.29394  -0.02369  -0.25219
                           6         7         8         9        10
     Eigenvalues --     0.13660   0.16000   0.16000   0.16000   0.16000
   1         R1         0.25367  -0.00000   0.00000  -0.00000  -0.00000
   2         R2        -0.02895  -0.00000  -0.00000   0.00000  -0.00000
   3         R3        -0.02896  -0.00000  -0.00000   0.00000  -0.00000
   4         R4        -0.02896  -0.00000  -0.00000   0.00000  -0.00000
   5         R5        -0.02897  -0.00000  -0.00000   0.00000  -0.00000
   6         R6        -0.02895  -0.00000  -0.00000   0.00000  -0.00000
   7         R7        -0.02896  -0.00000  -0.00000   0.00000  -0.00000
   8         A1        -0.27235  -0.54432  -0.45329  -0.26833  -0.09137
   9         A2        -0.27229   0.07814   0.28858  -0.34416   0.50251
  10         A3        -0.27235  -0.15251   0.21126   0.68574   0.15973
  11         A4         0.28448   0.24350   0.08604   0.31992  -0.21475
  12         A5         0.28451   0.36397   0.12642  -0.21802  -0.03571
  13         A6         0.28448   0.03885  -0.26108  -0.17842  -0.34590
  14         A7        -0.27236   0.53348  -0.36076  -0.04561   0.21606
  15         A8        -0.27229   0.10453  -0.21155   0.23133  -0.35278
  16         A9        -0.27237  -0.01930   0.52578  -0.25898  -0.43411
  17         A10        0.28448  -0.33325   0.29893  -0.09701   0.07141
  18         A11        0.28451  -0.26857  -0.08619   0.15909   0.11389
  19         A12        0.28449  -0.04451  -0.16412   0.01444   0.41101
  20         D1         0.00040  -0.00000  -0.00000   0.00000   0.00000
  21         D2         0.00040  -0.00000  -0.00000   0.00000   0.00000
  22         D3         0.00039  -0.00000  -0.00000   0.00000   0.00000
  23         D4         0.00040  -0.00000  -0.00000   0.00000   0.00000
  24         D5         0.00040  -0.00000  -0.00000   0.00000   0.00000
  25         D6         0.00039  -0.00000  -0.00000   0.00000   0.00000
  26         D7         0.00040  -0.00000  -0.00000   0.00000   0.00000
  27         D8         0.00040  -0.00000  -0.00000   0.00000   0.00000
  28         D9         0.00039  -0.00000  -0.00000   0.00000   0.00000
                          11        12        13        14        15
     Eigenvalues --     0.16000   0.34786   0.34787   0.34787   0.34787
   1         R1        -0.00002   0.00001   0.00002  -0.00001  -0.00001
   2         R2         0.00000  -0.89252  -0.16540   0.00924  -0.03051
   3         R3         0.00000   0.13942   0.24018  -0.07208   0.82802
   4         R4         0.00000   0.35591  -0.82785   0.01983  -0.06002
   5         R5         0.00000   0.07623   0.08707  -0.00984   0.03915
   6         R6         0.00000   0.15794   0.31980  -0.67814  -0.44653
   7         R7         0.00000   0.16292   0.34608   0.73100  -0.33005
   8         A1        -0.14609   0.00000   0.00000  -0.00000  -0.00000
   9         A2         0.37836   0.00000   0.00000  -0.00000  -0.00000
  10         A3        -0.19952   0.00000   0.00000  -0.00000  -0.00000
  11         A4        -0.12132  -0.00000  -0.00000   0.00000   0.00000
  12         A5         0.18052  -0.00000  -0.00000   0.00000   0.00000
  13         A6        -0.09341  -0.00000  -0.00000   0.00000   0.00000
  14         A7        -0.37408   0.00000   0.00000  -0.00000  -0.00000
  15         A8         0.60815   0.00000   0.00000  -0.00000  -0.00000
  16         A9        -0.26667   0.00000   0.00000  -0.00000  -0.00000
  17         A10       -0.12226  -0.00000  -0.00000   0.00000   0.00000
  18         A11        0.33468  -0.00000  -0.00000   0.00000   0.00000
  19         A12       -0.17836  -0.00000  -0.00000   0.00000   0.00000
  20         D1        -0.00000  -0.00000   0.00000  -0.00000  -0.00000
  21         D2        -0.00000  -0.00000   0.00000  -0.00000  -0.00000
  22         D3        -0.00000  -0.00000   0.00000  -0.00000  -0.00000
  23         D4        -0.00000  -0.00000   0.00000  -0.00000  -0.00000
  24         D5        -0.00000  -0.00000   0.00000  -0.00000  -0.00000
  25         D6        -0.00000  -0.00000   0.00000  -0.00000  -0.00000
  26         D7        -0.00000  -0.00000   0.00000  -0.00000  -0.00000
  27         D8        -0.00000  -0.00000   0.00000  -0.00000  -0.00000
  28         D9        -0.00000  -0.00000   0.00000  -0.00000  -0.00000
                          16        17        18
     Eigenvalues --     0.34787   0.37621   0.48867
   1         R1        -0.00001   0.36025   0.89771
   2         R2         0.09169  -0.37498   0.15868
   3         R3         0.25574  -0.37502   0.15868
   4         R4         0.13175  -0.37499   0.15868
   5         R5        -0.90459  -0.37507   0.15869
   6         R6         0.21642  -0.37507   0.15868
   7         R7         0.20907  -0.37505   0.15868
   8         A1         0.00000   0.04582   0.05857
   9         A2         0.00000   0.04581   0.05857
  10         A3         0.00000   0.04581   0.05857
  11         A4        -0.00000  -0.04786  -0.06118
  12         A5        -0.00000  -0.04786  -0.06119
  13         A6        -0.00000  -0.04785  -0.06119
  14         A7         0.00000   0.04581   0.05857
  15         A8         0.00000   0.04581   0.05857
  16         A9         0.00000   0.04582   0.05857
  17         A10       -0.00000  -0.04786  -0.06118
  18         A11       -0.00000  -0.04786  -0.06119
  19         A12       -0.00000  -0.04786  -0.06118
  20         D1         0.00000  -0.00005   0.00014
  21         D2         0.00000  -0.00005   0.00014
  22         D3         0.00000  -0.00005   0.00014
  23         D4         0.00000  -0.00005   0.00014
  24         D5         0.00000  -0.00005   0.00014
  25         D6         0.00000  -0.00005   0.00014
  26         D7         0.00000  -0.00005   0.00014
  27         D8         0.00000  -0.00005   0.00014
  28         D9         0.00000  -0.00005   0.00014
 DoSqrt=T IScMMF=    -3 MM Scaling Factor =       0.00000
 En-DIIS/RFO-DIIS/Sim-DIIS IScMMF=       -3 using points:     4    3
 Iter=   1 RLamda=-4.58056734D-02 Sum=-6.37041828D-07.
 Iter=   2 RLamda=-6.37041828D-07 Sum=-7.17353283D-07.
 Iter=   3 RLamda=-7.17353283D-07 Sum=-7.17353083D-07.
 RFO step:  Lambda=-7.17353283D-07.
 NNeg= 0 NGDIIS= 2 SimSw=  2.50D-01 Rises=F DC= -1.71D-05 SmlDif=  1.00D-05
 NRisDI= 0 DoIntr=F SqrtH=F CThrHd= 10.0 CDAdj=  3.0
 RMS Error=  0.2983078025D-03 NUsed= 2 OKEnD=T EnDIS=F
 Energy Point     1  -0.2782221757D-01
 Energy Point     2  -0.2780506838D-01
 Total En-DIIS matrix:
                 1             2             3 
      1   0.000000D+00 -0.100000D+01 -0.100000D+01
      2  -0.100000D+01  0.000000D+00  0.396293D-04
      3  -0.100000D+01  0.396293D-04  0.000000D+00
 Total RFO-DIIS matrix:
                 1             2             3 
      1   0.000000D+00 -0.100000D+01 -0.100000D+01
      2  -0.100000D+01  0.249165D-05 -0.165340D-05
      3  -0.100000D+01 -0.165340D-05  0.844582D-04
 InvSVX:  RCond= 1.02D-04 Info=           0 Equed=N FErr=  9.53D-16 BErr=  1.39D-17
 DidBck=F Rises=F RFO-DIIS coefs:    0.95407    0.04593
 Iteration  1 RMS(Cart)=  0.00029477 RMS(Int)=  0.00000004
 Iteration  2 RMS(Cart)=  0.00000004 RMS(Int)=  0.00000000
 ITry= 1 IFail=0 DXMaxC= 4.91D-04 DCOld= 1.00D+10 DXMaxT= 4.77D-01 DXLimC= 3.00D+00 Rises=F
 Variable       Old X    -DE/DX   Delta X   Delta X   Delta X     New X
                                 (Linear)    (Quad)   (Total)
    R1        2.83523   0.00008   0.00039  -0.00040  -0.00002   2.83521
    R2        2.11044   0.00021   0.00008   0.00047   0.00055   2.11099
    R3        2.11044   0.00021   0.00008   0.00047   0.00055   2.11099
    R4        2.11044   0.00021   0.00008   0.00047   0.00055   2.11099
    R5        2.11044   0.00021   0.00008   0.00047   0.00055   2.11099
    R6        2.11044   0.00021   0.00008   0.00047   0.00055   2.11099
    R7        2.11044   0.00021   0.00008   0.00047   0.00055   2.11099
    A1        1.93225   0.00001  -0.00002   0.00013   0.00011   1.93236
    A2        1.93225   0.00001  -0.00002   0.00013   0.00011   1.93236
    A3        1.93225   0.00001  -0.00002   0.00013   0.00011   1.93236
    A4        1.88853  -0.00002   0.00002  -0.00014  -0.00012   1.88841
    A5        1.88853  -0.00002   0.00002  -0.00014  -0.00012   1.88841
    A6        1.88853  -0.00002   0.00002  -0.00014  -0.00012   1.88841
    A7        1.93225   0.00001  -0.00002   0.00013   0.00011   1.93236
    A8        1.93225   0.00001  -0.00002   0.00013   0.00011   1.93236
    A9        1.93225   0.00001  -0.00002   0.00013   0.00011   1.93236
   A10        1.88853  -0.00002   0.00002  -0.00014  -0.00012   1.88841
   A11        1.88853  -0.00002   0.00002  -0.00014  -0.00012   1.88841
   A12        1.88853  -0.00001   0.00002  -0.00014  -0.00012   1.88841
    D1        1.04613   0.00000  -0.00001   0.00026   0.00025   1.04638
    D2       -1.04827   0.00000  -0.00001   0.00026   0.00025  -1.04802
    D3        3.14052   0.00000  -0.00001   0.00026   0.00025   3.14077
    D4        3.14052   0.00000  -0.00001   0.00026   0.00025   3.14077
    D5        1.04613   0.00000  -0.00001   0.00026   0.00025   1.04638
    D6       -1.04827   0.00000  -0.00001   0.00026   0.00025  -1.04802
    D7       -1.04827   0.00000  -0.00001   0.00026   0.00025  -1.04802
    D8        3.14052   0.00000  -0.00001   0.00026   0.00025   3.14077
    D9        1.04613   0.00000  -0.00001   0.00026   0.00025   1.04638
         Item               Value     Threshold  Converged?
 Maximum Force            0.000213     0.000450     YES
 RMS     Force            0.000100     0.000300     YES
 Maximum Displacement     0.000491     0.001800     YES
 RMS     Displacement     0.000295     0.001200     YES
 Predicted change in Energy=-3.586774D-07
 Optimization completed.
    -- Stationary point found.
                           ----------------------------
                           !   Optimized Parameters   !
                           ! (Angstroms and Degrees)  !
 --------------------------                            --------------------------
 ! Name  Definition              Value          Derivative Info.                !
 --------------------------------------------------------------------------------
 ! R1    R(1,2)                  1.5003         -DE/DX =    0.0001              !
 ! R2    R(1,4)                  1.1168         -DE/DX =    0.0002              !
 ! R3    R(1,7)                  1.1168         -DE/DX =    0.0002              !
 ! R4    R(1,8)                  1.1168         -DE/DX =    0.0002              !
 ! R5    R(2,3)                  1.1168         -DE/DX =    0.0002              !
 ! R6    R(2,5)                  1.1168         -DE/DX =    0.0002              !
 ! R7    R(2,6)                  1.1168         -DE/DX =    0.0002              !
 ! A1    A(2,1,4)              110.7099         -DE/DX =    0.0                 !
 ! A2    A(2,1,7)              110.7099         -DE/DX =    0.0                 !
 ! A3    A(2,1,8)              110.7099         -DE/DX =    0.0                 !
 ! A4    A(4,1,7)              108.2047         -DE/DX =    0.0                 !
 ! A5    A(4,1,8)              108.2047         -DE/DX =    0.0                 !
 ! A6    A(7,1,8)              108.2047         -DE/DX =    0.0                 !
 ! A7    A(1,2,3)              110.7099         -DE/DX =    0.0                 !
 ! A8    A(1,2,5)              110.7099         -DE/DX =    0.0                 !
 ! A9    A(1,2,6)              110.7099         -DE/DX =    0.0                 !
 ! A10   A(3,2,5)              108.2047         -DE/DX =    0.0                 !
 ! A11   A(3,2,6)              108.2047         -DE/DX =    0.0                 !
 ! A12   A(5,2,6)              108.2047         -DE/DX =    0.0                 !
 ! D1    D(4,1,2,3)             59.9388         -DE/DX =    0.0                 !
 ! D2    D(4,1,2,5)            -60.0612         -DE/DX =    0.0                 !
 ! D3    D(4,1,2,6)            179.9388         -DE/DX =    0.0                 !
 ! D4    D(7,1,2,3)            179.9388         -DE/DX =    0.0                 !
 ! D5    D(7,1,2,5)             59.9388         -DE/DX =    0.0                 !
 ! D6    D(7,1,2,6)            -60.0612         -DE/DX =    0.0                 !
 ! D7    D(8,1,2,3)            -60.0612         -DE/DX =    0.0                 !
 ! D8    D(8,1,2,5)            179.9388         -DE/DX =    0.0                 !
 ! D9    D(8,1,2,6)             59.9388         -DE/DX =    0.0                 !
 --------------------------------------------------------------------------------
 Lowest energy point so far.  Saving SCF results.
 Largest change from initial coordinates is atom    5       2.850 Angstoms.
 GradGradGradGradGradGradGradGradGradGradGradGradGradGradGradGradGradGrad

 Leave Link  103 at Wed Oct 21 14:16:35 2020, MaxMem=  2684354560 cpu:               5.0 elap:               0.9
 (Enter /udrive/faculty/rpeverati/g16/g16/l202.exe)
                          Input orientation:                          
 ---------------------------------------------------------------------
 Center     Atomic      Atomic             Coordinates (Angstroms)
 Number     Number       Type             X           Y           Z
 ---------------------------------------------------------------------
      1          6           0       -0.750169   -0.000000    0.000000
      2          6           0        0.750169   -0.000000    0.000001
      3          1           0        1.145109   -0.455782   -0.939957
      4          1           0       -1.145108   -1.041838   -0.076373
      5          1           0        1.145108   -0.586137    0.864700
      6          1           0        1.145108    1.041918    0.075262
      7          1           0       -1.145109    0.454778    0.940445
      8          1           0       -1.145108    0.587059   -0.864071
 ---------------------------------------------------------------------
                    Distance matrix (angstroms):
                    1          2          3          4          5
     1  C    0.000000
     2  C    1.500338   0.000000
     3  H    2.164101   1.116797   0.000000
     4  H    1.116797   2.164102   2.516810   0.000000
     5  H    2.164102   1.116797   1.809358   2.517612   0.000000
     6  H    2.164102   1.116797   1.809358   3.100021   1.809358
     7  H    1.116797   2.164101   3.100021   1.809358   2.516811
     8  H    1.116797   2.164101   2.517612   1.809358   3.100021
                    6          7          8
     6  H    0.000000
     7  H    2.517612   0.000000
     8  H    2.516811   1.809358   0.000000
 This structure is nearly, but not quite of a higher symmetry.
 Consider Symm=Loose if the higher symmetry is desired.
 Stoichiometry    C2H6
 Framework group  C1[X(C2H6)]
 Deg. of freedom    18
 Full point group                 C1      NOp   1
 RotChk:  IX=3 Diff= 7.47D-08
 Largest Abelian subgroup         C1      NOp   1
 Largest concise Abelian subgroup C1      NOp   1
                         Standard orientation:                         
 ---------------------------------------------------------------------
 Center     Atomic      Atomic             Coordinates (Angstroms)
 Number     Number       Type             X           Y           Z
 ---------------------------------------------------------------------
      1          6           0        0.393695    0.317990   -0.553751
      2          6           0       -0.393695   -0.317990    0.553751
      3          1           0       -0.272078   -1.428031    0.537803
      4          1           0        0.050678   -0.057239   -1.548124
      5          1           0       -1.480878   -0.084586    0.449865
      6          1           0       -0.049933    0.056412    1.548179
      7          1           0        0.271196    1.427944   -0.538481
      8          1           0        1.481014    0.085501   -0.449242
 ---------------------------------------------------------------------
 Rotational constants (GHZ):          76.5866505          20.4320016          20.4320014
 Leave Link  202 at Wed Oct 21 14:16:36 2020, MaxMem=  2684354560 cpu:               1.3 elap:               0.4
 (Enter /udrive/faculty/rpeverati/g16/g16/l601.exe)
 Copying SCF densities to generalized density rwf, IOpCl= 0 IROHF=0.

 **********************************************************************

            Population analysis using the SCF density.

 **********************************************************************

 Orbital symmetries:
       Occupied  (A) (A) (A) (A) (A) (A) (A)
       Virtual   (A) (A) (A) (A) (A) (A) (A)
 The electronic state is 1-A.
 Alpha  occ. eigenvalues --   -1.22066  -0.86720  -0.54703  -0.54703  -0.48331
 Alpha  occ. eigenvalues --   -0.43246  -0.43246
 Alpha virt. eigenvalues --    0.15139   0.15139   0.17153   0.18176   0.18522
 Alpha virt. eigenvalues --    0.18522   0.19287
          Condensed to atoms (all electrons):
               1          2          3          4          5          6
     1  C    4.211807   0.000000   0.000000   0.000000   0.000000   0.000000
     2  C    0.000000   4.211807   0.000000   0.000000   0.000000   0.000000
     3  H    0.000000   0.000000   0.929398   0.000000   0.000000   0.000000
     4  H    0.000000   0.000000   0.000000   0.929398   0.000000   0.000000
     5  H    0.000000   0.000000   0.000000   0.000000   0.929398   0.000000
     6  H    0.000000   0.000000   0.000000   0.000000   0.000000   0.929398
     7  H    0.000000   0.000000   0.000000   0.000000   0.000000   0.000000
     8  H    0.000000   0.000000   0.000000   0.000000   0.000000   0.000000
               7          8
     1  C    0.000000   0.000000
     2  C    0.000000   0.000000
     3  H    0.000000   0.000000
     4  H    0.000000   0.000000
     5  H    0.000000   0.000000
     6  H    0.000000   0.000000
     7  H    0.929398   0.000000
     8  H    0.000000   0.929398
 Mulliken charges:
               1
     1  C   -0.211807
     2  C   -0.211807
     3  H    0.070602
     4  H    0.070602
     5  H    0.070602
     6  H    0.070602
     7  H    0.070602
     8  H    0.070602
 Sum of Mulliken charges =   0.00000
 Mulliken charges with hydrogens summed into heavy atoms:
               1
     1  C    0.000000
     2  C   -0.000000
 Charge=              0.0000 electrons
 Dipole moment (field-independent basis, Debye):
    X=             -0.0000    Y=              0.0000    Z=             -0.0000  Tot=              0.0000
 N-N= 3.417080475211D+01 E-N=-4.084878425601D+01  KE=-1.848812383971D+01
 Leave Link  601 at Wed Oct 21 14:16:37 2020, MaxMem=  2684354560 cpu:               2.1 elap:               0.6
 (Enter /udrive/faculty/rpeverati/g16/g16/l9999.exe)

 Test job not archived.
 1\1\GINC-NODE63\FOpt\RAM1\ZDO\C2H6\RPEVERATI\21-Oct-2020\0\\#P Opt(Max
 Cyc=150) AM1 5D 7F Integral=UltraFineGrid SCF=(NoSymm,XQC,MaxCyc=120) 
 IOp(1/33=1)\\TS search on BH76.\\0,1\C,-0.7501688721,-0.0000003866,0.0
 000004511\C,0.7501688617,-0.0000002625,0.0000013508\H,1.14510906,-0.45
 578246,-0.9399565527\H,-1.1451084661,-1.0418381686,-0.0763725012\H,1.1
 451081077,-0.586136806,0.8646995998\H,1.1451084581,1.0419184588,0.0752
 618392\H,-1.1451090877,0.4547777288,0.9404445954\H,-1.1451080617,0.587
 0592478,-0.8640713597\\Version=ES64L-G16RevA.03\State=1-A\HF=-0.027822
 2\RMSD=1.833e-09\RMSF=1.189e-04\Dipole=0.,0.,0.\PG=C01 [X(C2H6)]\\@


 THE WORLD IS MADE UP OF THE WILLS, THE WON'TS, AND THE CANT'S:
 THE WILLS DO EVERYTHING,
 THE WON'TS DO NOTHING,
 THE CAN'TS CAN'T DO ANYTHING.

                               -- FROM WALT DISNEY'S "BLACK HOLE"
 Job cpu time:       0 days  0 hours  2 minutes 53.8 seconds.
 Elapsed time:       0 days  0 hours  0 minutes 40.2 seconds.
 File lengths (MBytes):  RWF=      5 Int=      0 D2E=      0 Chk=      2 Scr=      1
 Normal termination of Gaussian 16 at Wed Oct 21 14:16:38 2020.
