 Entering Gaussian System, Link 0=g16
 Input=MN_49_hcnts_BH76_AM1_SE.in
 Output=MN_49_hcnts_BH76_AM1_SE.log
 Initial command:
 /udrive/faculty/rpeverati/g16/g16/l1.exe "/udrive/scratch-directories/gaussian09/rpeverati/Gau-3111.inp" -scrdir="/udrive/scratch-directories/gaussian09/rpeverati/"
 Entering Link 1 = /udrive/faculty/rpeverati/g16/g16/l1.exe PID=      3112.
  
 Copyright (c) 1988,1990,1992,1993,1995,1998,2003,2009,2016,
            Gaussian, Inc.  All Rights Reserved.
  
 This is part of the Gaussian(R) 16 program.  It is based on
 the Gaussian(R) 09 system (copyright 2009, Gaussian, Inc.),
 the Gaussian(R) 03 system (copyright 2003, Gaussian, Inc.),
 the Gaussian(R) 98 system (copyright 1998, Gaussian, Inc.),
 the Gaussian(R) 94 system (copyright 1995, Gaussian, Inc.),
 the Gaussian 92(TM) system (copyright 1992, Gaussian, Inc.),
 the Gaussian 90(TM) system (copyright 1990, Gaussian, Inc.),
 the Gaussian 88(TM) system (copyright 1988, Gaussian, Inc.),
 the Gaussian 86(TM) system (copyright 1986, Carnegie Mellon
 University), and the Gaussian 82(TM) system (copyright 1983,
 Carnegie Mellon University). Gaussian is a federally registered
 trademark of Gaussian, Inc.
  
 This software contains proprietary and confidential information,
 including trade secrets, belonging to Gaussian, Inc.
  
 This software is provided under written license and may be
 used, copied, transmitted, or stored only in accord with that
 written license.
  
 The following legend is applicable only to US Government
 contracts under FAR:
  
                    RESTRICTED RIGHTS LEGEND
  
 Use, reproduction and disclosure by the US Government is
 subject to restrictions as set forth in subparagraphs (a)
 and (c) of the Commercial Computer Software - Restricted
 Rights clause in FAR 52.227-19.
  
 Gaussian, Inc.
 340 Quinnipiac St., Bldg. 40, Wallingford CT 06492
  
  
 ---------------------------------------------------------------
 Warning -- This program may not be used in any manner that
 competes with the business of Gaussian, Inc. or will provide
 assistance to any competitor of Gaussian, Inc.  The licensee
 of this program is prohibited from giving any competitor of
 Gaussian, Inc. access to this program.  By using this program,
 the user acknowledges that Gaussian, Inc. is engaged in the
 business of creating and licensing software in the field of
 computational chemistry and represents and warrants to the
 licensee that it is not a competitor of Gaussian, Inc. and that
 it will not use this program in any manner prohibited above.
 ---------------------------------------------------------------
  

 Cite this work as:
 Gaussian 16, Revision A.03,
 M. J. Frisch, G. W. Trucks, H. B. Schlegel, G. E. Scuseria, 
 M. A. Robb, J. R. Cheeseman, G. Scalmani, V. Barone, 
 G. A. Petersson, H. Nakatsuji, X. Li, M. Caricato, A. V. Marenich, 
 J. Bloino, B. G. Janesko, R. Gomperts, B. Mennucci, H. P. Hratchian, 
 J. V. Ortiz, A. F. Izmaylov, J. L. Sonnenberg, D. Williams-Young, 
 F. Ding, F. Lipparini, F. Egidi, J. Goings, B. Peng, A. Petrone, 
 T. Henderson, D. Ranasinghe, V. G. Zakrzewski, J. Gao, N. Rega, 
 G. Zheng, W. Liang, M. Hada, M. Ehara, K. Toyota, R. Fukuda, 
 J. Hasegawa, M. Ishida, T. Nakajima, Y. Honda, O. Kitao, H. Nakai, 
 T. Vreven, K. Throssell, J. A. Montgomery, Jr., J. E. Peralta, 
 F. Ogliaro, M. J. Bearpark, J. J. Heyd, E. N. Brothers, K. N. Kudin, 
 V. N. Staroverov, T. A. Keith, R. Kobayashi, J. Normand, 
 K. Raghavachari, A. P. Rendell, J. C. Burant, S. S. Iyengar, 
 J. Tomasi, M. Cossi, J. M. Millam, M. Klene, C. Adamo, R. Cammi, 
 J. W. Ochterski, R. L. Martin, K. Morokuma, O. Farkas, 
 J. B. Foresman, and D. J. Fox, Gaussian, Inc., Wallingford CT, 2016.
 
 ******************************************
 Gaussian 16:  ES64L-G16RevA.03 25-Dec-2016
                21-Oct-2020 
 ******************************************
 %NoSave
 %nproc=12
 Will use up to   12 processors via shared memory.
 %mem=20GB
 %chk=MN_49_hcnts_BH76_AM1_SE
 ----------------------------------------------------------------------
 #P Opt(TS,MaxCyc=50,NoEigenTest,MaxStep=10,AddRedundant) AM1 5D 7F Int
 egral=UltraFineGrid SCF=(NoSymm,XQC,MaxCyc=120) IOp(1/33=1)
 ----------------------------------------------------------------------
 1/5=1,6=50,8=10,11=1,18=120,26=1,33=1,38=1/1,3;
 2/9=110,12=2,17=6,18=5,40=1/2;
 3/5=2,8=11,25=1,41=700000,71=1,75=-5/1,2,3;
 4/9=2,35=1/1;
 5/5=2,7=120,8=3,13=1,35=1,38=5/2,8;
 6/7=2,8=2,9=2,10=2,28=1/1;
 7//1,2,3,16;
 1/5=1,6=50,8=10,11=1,18=20,26=1,33=1/3(2);
 2/9=110/2;
 99//99;
 2/9=110/2;
 3/5=2,8=11,25=1,41=700000,71=1,75=-5,135=20/1,2,3;
 4/5=5,9=2,16=3,35=1/1;
 5/5=2,7=120,8=3,13=1,35=1,38=5/2,8;
 7//1,2,3,16;
 1/5=1,6=50,8=10,11=1,18=20,26=1,33=1/3(-5);
 2/9=110/2;
 6/7=2,8=2,9=2,10=2,19=2,28=1/1;
 99/9=1/99;
 Leave Link    1 at Wed Oct 21 14:16:06 2020, MaxMem=  2684354560 cpu:               9.9 elap:               1.2
 (Enter /udrive/faculty/rpeverati/g16/g16/l101.exe)
 ONIOM data not found on unit 2.
 ------------------
 TS search on BH76.
 ------------------
 TstMul:  ICh=     0
 TstMul:  Mul=     1
 TstMul:  ICh=     0
 TstMul:  Mul=     1
 Symbolic Z-matrix:
 Charge =  0 Multiplicity = 1
 C                     0.08032   0.62026   0. 
 N                     0.08032  -0.56809   0. 
 H                    -1.04415   0.25512   0. 
 
 RdStrC is calling ZToCFu for IStruc=1 NZ=     3.
 PrtBox:  NBox=     1 Levels=  1 BoxLen=    8.00 SMaxX=        2.25
          Shift=            1.973150            1.073540            0.000000
 Box      1 Number                   0 centers from      1 to      3:
 After GenITR:
 ITRead=  0  0  0
 MicOpt= -1 -1 -1
 The following ModRedundant input section has been read:
 
 ITRead=  0  0  0
 MicOpt= -1 -1 -1
 NAtoms=      3 NQM=        3 NQMF=       0 NMMI=      0 NMMIF=      0
                NMic=       0 NMicF=      0.
                    Isotopes and Nuclear Properties:
 (Nuclear quadrupole moments (NQMom) in fm**2, nuclear magnetic moments (NMagM)
  in nuclear magnetons)

  Atom         1           2           3
 IAtWgt=          12          14           1
 AtmWgt=  12.0000000  14.0030740   1.0078250
 NucSpn=           0           2           1
 AtZEff=   0.0000000   0.0000000   0.0000000
 NQMom=    0.0000000   2.0440000   0.0000000
 NMagM=    0.0000000   0.4037610   2.7928460
 AtZNuc=   6.0000000   7.0000000   1.0000000
 No MM parameters found.
 Leave Link  101 at Wed Oct 21 14:16:08 2020, MaxMem=  2684354560 cpu:              15.3 elap:               1.7
 (Enter /udrive/faculty/rpeverati/g16/g16/l103.exe)

 GradGradGradGradGradGradGradGradGradGradGradGradGradGradGradGradGradGrad
 Berny optimization.
 Optmz: redundant internal coordinate code flag= 1
 Initialization pass.
                           ----------------------------
                           !    Initial Parameters    !
                           ! (Angstroms and Degrees)  !
 --------------------------                            --------------------------
 ! Name  Definition              Value          Derivative Info.                !
 --------------------------------------------------------------------------------
 ! R1    R(1,2)                  1.1884         estimate D2E/DX2                !
 ! R2    R(1,3)                  1.1823         estimate D2E/DX2                !
 ! A1    A(2,1,3)               72.0103         estimate D2E/DX2                !
 --------------------------------------------------------------------------------
 Maximum allowed force set to 1.00D+20.
 Trust Radius=1.00D-01 FncErr=1.00D-07 GrdErr=1.00D-07 EigMax=2.50D+02 EigMin=1.00D-04
 Number of steps in this run=     50 maximum allowed number of steps=    100.
 Search for a saddle point of order  1.
 GradGradGradGradGradGradGradGradGradGradGradGradGradGradGradGradGradGrad

 Leave Link  103 at Wed Oct 21 14:16:09 2020, MaxMem=  2684354560 cpu:               1.4 elap:               0.8
 (Enter /udrive/faculty/rpeverati/g16/g16/l202.exe)
                          Input orientation:                          
 ---------------------------------------------------------------------
 Center     Atomic      Atomic             Coordinates (Angstroms)
 Number     Number       Type             X           Y           Z
 ---------------------------------------------------------------------
      1          6           0        0.080319    0.620259    0.000000
      2          7           0        0.080319   -0.568093    0.000000
      3          1           0       -1.044146    0.255121    0.000000
 ---------------------------------------------------------------------
                    Distance matrix (angstroms):
                    1          2          3
     1  C    0.000000
     2  N    1.188352   0.000000
     3  H    1.182264   1.393594   0.000000
 Stoichiometry    CHN
 Framework group  CS[SG(CHN)]
 Deg. of freedom     3
 Full point group                 CS      NOp   2
 Largest Abelian subgroup         CS      NOp   2
 Largest concise Abelian subgroup C1      NOp   1
                         Standard orientation:                         
 ---------------------------------------------------------------------
 Center     Atomic      Atomic             Coordinates (Angstroms)
 Number     Number       Type             X           Y           Z
 ---------------------------------------------------------------------
      1          6           0        0.080319    0.620257    0.000000
      2          7           0        0.080319   -0.568095    0.000000
      3          1           0       -1.044146    0.255119    0.000000
 ---------------------------------------------------------------------
 Rotational constants (GHZ):         415.7753317          54.8709834          48.4737702
 Leave Link  202 at Wed Oct 21 14:16:11 2020, MaxMem=  2684354560 cpu:               2.8 elap:               1.0
 (Enter /udrive/faculty/rpeverati/g16/g16/l301.exe)
 Standard basis: VSTO-6G (5D, 7F)
 Ernie: Thresh=  0.10000D-02 Tol=  0.10000D-05 Strict=F.
  NNHCO=     0 NNPyr=     0 NCTC=     0               EPep=         0.000000000
    EC=         9.264787623  ECS=         0.633915424   EG=         0.047837345
   EHC=         0.000000000  EAt=       -12.297057412  AtH=         0.535437334
 EPDDG=         0.000000000  ECC=         9.946540392 EAtT=        12.832494746
 There are     7 symmetry adapted cartesian basis functions of A'  symmetry.
 There are     2 symmetry adapted cartesian basis functions of A"  symmetry.
 There are     7 symmetry adapted basis functions of A'  symmetry.
 There are     2 symmetry adapted basis functions of A"  symmetry.
     9 basis functions,    54 primitive gaussians,     9 cartesian basis functions
     5 alpha electrons        5 beta electrons
       nuclear repulsion energy        22.7790351379 Hartrees.
 IExCor=    0 DFT=F Ex=HF Corr=None ExCW=0 ScaHFX=  1.000000
 ScaDFX=  1.000000  1.000000  1.000000  1.000000 ScalE2=  1.000000  1.000000
 IRadAn=      5 IRanWt=     -1 IRanGd=            0 ICorTp=0 IEmpDi=  4
 Integral buffers will be    131072 words long.
 Regular integral format.
 Two-electron integral symmetry is turned off.
 Leave Link  301 at Wed Oct 21 14:16:12 2020, MaxMem=  2684354560 cpu:               1.8 elap:               0.8
 (Enter /udrive/faculty/rpeverati/g16/g16/l302.exe)
 Do NDO integrals.
 NPDir=0 NMtPBC=     1 NCelOv=     1 NCel=       1 NClECP=     1 NCelD=      1
         NCelK=      1 NCelE2=     1 NClLst=     1 CellRange=     0.0.
 One-electron integrals computed using PRISM.
 NBasis=     9 RedAO= T EigKep=  1.00D+00  NBF=     7     2
 NBsUse=     9 1.00D-06 EigRej= -1.00D+00 NBFU=     7     2
 Leave Link  302 at Wed Oct 21 14:16:14 2020, MaxMem=  2684354560 cpu:               5.1 elap:               1.0
 (Enter /udrive/faculty/rpeverati/g16/g16/l303.exe)
 DipDrv:  MaxL=1.
 Leave Link  303 at Wed Oct 21 14:16:15 2020, MaxMem=  2684354560 cpu:               3.0 elap:               1.0
 (Enter /udrive/faculty/rpeverati/g16/g16/l401.exe)
 SCF N**3 symmetry information disabled.
 Simple Huckel Guess.
 JPrj=0 DoOrth=F DoCkMO=F.
 Initial guess orbital symmetries:
       Occupied  (A') (A') (A') (A") (A')
       Virtual   (A') (A") (A') (A')
 The electronic state of the initial guess is 1-A'.
 Leave Link  401 at Wed Oct 21 14:16:16 2020, MaxMem=  2684354560 cpu:               2.8 elap:               0.8
 (Enter /udrive/faculty/rpeverati/g16/g16/l502.exe)
 Keep J ints in memory in canonical form, NReq=859290.
 FoFCou: FMM=F IPFlag=           0 FMFlag=           0 FMFlg1=           0
         NFxFlg=           0 DoJE=F BraDBF=F KetDBF=F FulRan=T
         wScrn=  0.000000 ICntrl=       600 IOpCl=  2 I1Cent=           0 NGrid=           0
         NMat0=    1 NMatS0=     21 NMatT0=    0 NMatD0=    1 NMtDS0=    0 NMtDT0=    0
 Symmetry not used in FoFCou.
 Two-electron integral symmetry not used.
 Closed shell SCF:
 Using DIIS extrapolation, IDIIS=  1040.
 Overlap will be assumed to be unity.
 NGot=  2684354560 LenX=  2684293973 LenY=  2684293091
 Requested convergence on RMS density matrix=1.00D-08 within 120 cycles.
 Requested convergence on MAX density matrix=1.00D-06.
 Requested convergence on             energy=1.00D-06.
 No special actions if energy rises.

 Cycle   1  Pass 1  IDiag  1:
 E= 0.344315259207786    
 DIIS: error= 6.19D-02 at cycle   1 NSaved=   1.
 NSaved= 1 IEnMin= 1 EnMin= 0.344315259207786     IErMin= 1 ErrMin= 6.19D-02
 ErrMax= 6.19D-02  0.00D+00 EMaxC= 1.00D-01 BMatC= 4.58D-02 BMatP= 4.58D-02
 IDIUse=3 WtCom= 3.81D-01 WtEn= 6.19D-01
 Coeff-Com:  0.100D+01
 Coeff-En:   0.100D+01
 Coeff:      0.100D+01
 GapD=    2.000 DampG=2.000 DampE=0.500 DampFc=1.0000 IDamp=-1.
 RMSDP=3.76D-02 MaxDP=1.39D-01              OVMax= 0.00D+00

 Cycle   2  Pass 1  IDiag  1:
 E= 0.208927658362153     Delta-E=       -0.135387600846 Rises=F Damp=F
 DIIS: error= 1.98D-02 at cycle   2 NSaved=   2.
 NSaved= 2 IEnMin= 2 EnMin= 0.208927658362153     IErMin= 2 ErrMin= 1.98D-02
 ErrMax= 1.98D-02  0.00D+00 EMaxC= 1.00D-01 BMatC= 5.05D-03 BMatP= 4.58D-02
 IDIUse=3 WtCom= 8.02D-01 WtEn= 1.98D-01
 Coeff-Com: -0.437D+00 0.144D+01
 Coeff-En:   0.000D+00 0.100D+01
 Coeff:     -0.350D+00 0.135D+01
 RMSDP=1.69D-02 MaxDP=5.29D-02 DE=-1.35D-01 OVMax= 0.00D+00

 Cycle   3  Pass 1  IDiag  3:
 E= 0.191984045986409     Delta-E=       -0.016943612376 Rises=F Damp=F
 DIIS: error= 2.43D-03 at cycle   3 NSaved=   3.
 NSaved= 3 IEnMin= 3 EnMin= 0.191984045986409     IErMin= 3 ErrMin= 2.43D-03
 ErrMax= 2.43D-03  0.00D+00 EMaxC= 1.00D-01 BMatC= 1.15D-04 BMatP= 5.05D-03
 IDIUse=3 WtCom= 9.76D-01 WtEn= 2.43D-02
 Coeff-Com:  0.105D+00-0.417D+00 0.131D+01
 Coeff-En:   0.000D+00 0.000D+00 0.100D+01
 Coeff:      0.103D+00-0.407D+00 0.130D+01
 Gap=     0.431 Goal=   None    Shift=    0.000
 RMSDP=3.13D-03 MaxDP=8.26D-03 DE=-1.69D-02 OVMax= 1.03D-02

 Cycle   4  Pass 1  IDiag  3:
 E= 0.191463759788604     Delta-E=       -0.000520286198 Rises=F Damp=F
 DIIS: error= 7.52D-04 at cycle   4 NSaved=   4.
 NSaved= 4 IEnMin= 4 EnMin= 0.191463759788604     IErMin= 4 ErrMin= 7.52D-04
 ErrMax= 7.52D-04  0.00D+00 EMaxC= 1.00D-01 BMatC= 1.04D-05 BMatP= 1.15D-04
 IDIUse=3 WtCom= 9.92D-01 WtEn= 7.52D-03
 Coeff-Com:  0.146D-01-0.489D-01-0.130D+00 0.116D+01
 Coeff-En:   0.000D+00 0.000D+00 0.000D+00 0.100D+01
 Coeff:      0.145D-01-0.486D-01-0.129D+00 0.116D+01
 Gap=     0.432 Goal=   None    Shift=    0.000
 RMSDP=1.30D-03 MaxDP=3.13D-03 DE=-5.20D-04 OVMax= 6.80D-03

 Cycle   5  Pass 1  IDiag  3:
 E= 0.191389240177411     Delta-E=       -0.000074519611 Rises=F Damp=F
 DIIS: error= 3.35D-04 at cycle   5 NSaved=   5.
 NSaved= 5 IEnMin= 5 EnMin= 0.191389240177411     IErMin= 5 ErrMin= 3.35D-04
 ErrMax= 3.35D-04  0.00D+00 EMaxC= 1.00D-01 BMatC= 2.09D-06 BMatP= 1.04D-05
 IDIUse=3 WtCom= 9.97D-01 WtEn= 3.35D-03
 Coeff-Com: -0.224D-01 0.838D-01-0.987D-01-0.800D+00 0.184D+01
 Coeff-En:   0.000D+00 0.000D+00 0.000D+00 0.000D+00 0.100D+01
 Coeff:     -0.224D-01 0.835D-01-0.984D-01-0.797D+00 0.183D+01
 Gap=     0.432 Goal=   None    Shift=    0.000
 RMSDP=1.08D-03 MaxDP=2.64D-03 DE=-7.45D-05 OVMax= 6.01D-03

 Cycle   6  Pass 1  IDiag  3:
 E= 0.191366316974619     Delta-E=       -0.000022923203 Rises=F Damp=F
 DIIS: error= 1.08D-04 at cycle   6 NSaved=   6.
 NSaved= 6 IEnMin= 6 EnMin= 0.191366316974619     IErMin= 6 ErrMin= 1.08D-04
 ErrMax= 1.08D-04  0.00D+00 EMaxC= 1.00D-01 BMatC= 1.54D-07 BMatP= 2.09D-06
 IDIUse=3 WtCom= 9.99D-01 WtEn= 1.08D-03
 Coeff-Com:  0.138D-01-0.484D-01 0.470D-01 0.577D+00-0.139D+01 0.180D+01
 Coeff-En:   0.000D+00 0.000D+00 0.000D+00 0.000D+00 0.000D+00 0.100D+01
 Coeff:      0.138D-01-0.484D-01 0.469D-01 0.576D+00-0.139D+01 0.180D+01
 Gap=     0.432 Goal=   None    Shift=    0.000
 RMSDP=2.55D-04 MaxDP=8.00D-04 DE=-2.29D-05 OVMax= 1.43D-03

 Cycle   7  Pass 1  IDiag  3:
 E= 0.191364998700294     Delta-E=       -0.000001318274 Rises=F Damp=F
 DIIS: error= 2.55D-05 at cycle   7 NSaved=   7.
 NSaved= 7 IEnMin= 7 EnMin= 0.191364998700294     IErMin= 7 ErrMin= 2.55D-05
 ErrMax= 2.55D-05  0.00D+00 EMaxC= 1.00D-01 BMatC= 1.36D-08 BMatP= 1.54D-07
 IDIUse=1 WtCom= 1.00D+00 WtEn= 0.00D+00
 Coeff-Com:  0.573D-03-0.404D-02 0.101D-01-0.426D-01 0.103D+00-0.404D+00
 Coeff-Com:  0.134D+01
 Coeff:      0.573D-03-0.404D-02 0.101D-01-0.426D-01 0.103D+00-0.404D+00
 Coeff:      0.134D+01
 Gap=     0.432 Goal=   None    Shift=    0.000
 RMSDP=6.24D-05 MaxDP=1.97D-04 DE=-1.32D-06 OVMax= 3.40D-04

 Cycle   8  Pass 1  IDiag  3:
 E= 0.191364913270199     Delta-E=       -0.000000085430 Rises=F Damp=F
 DIIS: error= 5.49D-06 at cycle   8 NSaved=   8.
 NSaved= 8 IEnMin= 8 EnMin= 0.191364913270199     IErMin= 8 ErrMin= 5.49D-06
 ErrMax= 5.49D-06  0.00D+00 EMaxC= 1.00D-01 BMatC= 3.58D-10 BMatP= 1.36D-08
 IDIUse=1 WtCom= 1.00D+00 WtEn= 0.00D+00
 Coeff-Com: -0.397D-03 0.272D-02-0.657D-02 0.244D-01-0.567D-01 0.235D+00
 Coeff-Com: -0.898D+00 0.170D+01
 Coeff:     -0.397D-03 0.272D-02-0.657D-02 0.244D-01-0.567D-01 0.235D+00
 Coeff:     -0.898D+00 0.170D+01
 Gap=     0.432 Goal=   None    Shift=    0.000
 RMSDP=1.10D-05 MaxDP=3.53D-05 DE=-8.54D-08 OVMax= 5.56D-05

 Cycle   9  Pass 1  IDiag  3:
 E= 0.191364910477557     Delta-E=       -0.000000002793 Rises=F Damp=F
 DIIS: error= 1.32D-06 at cycle   9 NSaved=   9.
 NSaved= 9 IEnMin= 9 EnMin= 0.191364910477557     IErMin= 9 ErrMin= 1.32D-06
 ErrMax= 1.32D-06  0.00D+00 EMaxC= 1.00D-01 BMatC= 2.11D-11 BMatP= 3.58D-10
 IDIUse=1 WtCom= 1.00D+00 WtEn= 0.00D+00
 Coeff-Com:  0.113D-03-0.123D-02 0.349D-02-0.196D-01 0.463D-01-0.158D+00
 Coeff-Com:  0.579D+00-0.116D+01 0.171D+01
 Coeff:      0.113D-03-0.123D-02 0.349D-02-0.196D-01 0.463D-01-0.158D+00
 Coeff:      0.579D+00-0.116D+01 0.171D+01
 Gap=     0.432 Goal=   None    Shift=    0.000
 RMSDP=2.34D-06 MaxDP=7.33D-06 DE=-2.79D-09 OVMax= 1.25D-05

 Cycle  10  Pass 1  IDiag  3:
 E= 0.191364910336393     Delta-E=       -0.000000000141 Rises=F Damp=F
 DIIS: error= 2.22D-07 at cycle  10 NSaved=  10.
 NSaved=10 IEnMin=10 EnMin= 0.191364910336393     IErMin=10 ErrMin= 2.22D-07
 ErrMax= 2.22D-07  0.00D+00 EMaxC= 1.00D-01 BMatC= 1.04D-12 BMatP= 2.11D-11
 IDIUse=1 WtCom= 1.00D+00 WtEn= 0.00D+00
 Coeff-Com: -0.485D-04 0.426D-03-0.105D-02 0.517D-02-0.123D-01 0.448D-01
 Coeff-Com: -0.171D+00 0.335D+00-0.550D+00 0.135D+01
 Coeff:     -0.485D-04 0.426D-03-0.105D-02 0.517D-02-0.123D-01 0.448D-01
 Coeff:     -0.171D+00 0.335D+00-0.550D+00 0.135D+01
 Gap=     0.432 Goal=   None    Shift=    0.000
 RMSDP=4.68D-07 MaxDP=1.56D-06 DE=-1.41D-10 OVMax= 2.10D-06

 Cycle  11  Pass 1  IDiag  3:
 E= 0.191364910330567     Delta-E=       -0.000000000006 Rises=F Damp=F
 DIIS: error= 8.14D-08 at cycle  11 NSaved=  11.
 NSaved=11 IEnMin=11 EnMin= 0.191364910330567     IErMin=11 ErrMin= 8.14D-08
 ErrMax= 8.14D-08  0.00D+00 EMaxC= 1.00D-01 BMatC= 8.20D-14 BMatP= 1.04D-12
 IDIUse=1 WtCom= 1.00D+00 WtEn= 0.00D+00
 Coeff-Com: -0.184D-05 0.209D-04-0.105D-03 0.563D-03-0.120D-02 0.389D-02
 Coeff-Com: -0.125D-01 0.309D-01-0.295D-01-0.420D+00 0.143D+01
 Coeff:     -0.184D-05 0.209D-04-0.105D-03 0.563D-03-0.120D-02 0.389D-02
 Coeff:     -0.125D-01 0.309D-01-0.295D-01-0.420D+00 0.143D+01
 Gap=     0.432 Goal=   None    Shift=    0.000
 RMSDP=1.23D-07 MaxDP=4.93D-07 DE=-5.83D-12 OVMax= 5.40D-07

 Cycle  12  Pass 1  IDiag  3:
 E= 0.191364910330087     Delta-E=       -0.000000000000 Rises=F Damp=F
 DIIS: error= 1.18D-08 at cycle  12 NSaved=  12.
 NSaved=12 IEnMin=12 EnMin= 0.191364910330087     IErMin=12 ErrMin= 1.18D-08
 ErrMax= 1.18D-08  0.00D+00 EMaxC= 1.00D-01 BMatC= 1.71D-15 BMatP= 8.20D-14
 IDIUse=1 WtCom= 1.00D+00 WtEn= 0.00D+00
 Coeff-Com: -0.732D-06 0.358D-05 0.255D-04-0.152D-03 0.267D-03-0.635D-03
 Coeff-Com:  0.109D-02-0.670D-02 0.138D-02 0.310D+00-0.104D+01 0.173D+01
 Coeff:     -0.732D-06 0.358D-05 0.255D-04-0.152D-03 0.267D-03-0.635D-03
 Coeff:      0.109D-02-0.670D-02 0.138D-02 0.310D+00-0.104D+01 0.173D+01
 Gap=     0.432 Goal=   None    Shift=    0.000
 RMSDP=1.97D-08 MaxDP=7.32D-08 DE=-4.80D-13 OVMax= 9.34D-08

 Cycle  13  Pass 1  IDiag  3:
 E= 0.191364910330080     Delta-E=       -0.000000000000 Rises=F Damp=F
 DIIS: error= 1.80D-09 at cycle  13 NSaved=  13.
 NSaved=13 IEnMin=13 EnMin= 0.191364910330080     IErMin=13 ErrMin= 1.80D-09
 ErrMax= 1.80D-09  0.00D+00 EMaxC= 1.00D-01 BMatC= 3.85D-17 BMatP= 1.71D-15
 IDIUse=1 WtCom= 1.00D+00 WtEn= 0.00D+00
 Coeff-Com:  0.458D-07-0.434D-06-0.115D-04 0.548D-04-0.927D-04 0.247D-03
 Coeff-Com: -0.482D-03 0.273D-02-0.892D-03-0.123D+00 0.414D+00-0.779D+00
 Coeff-Com:  0.149D+01
 Coeff:      0.458D-07-0.434D-06-0.115D-04 0.548D-04-0.927D-04 0.247D-03
 Coeff:     -0.482D-03 0.273D-02-0.892D-03-0.123D+00 0.414D+00-0.779D+00
 Coeff:      0.149D+01
 Gap=     0.432 Goal=   None    Shift=    0.000
 RMSDP=3.04D-09 MaxDP=1.10D-08 DE=-7.11D-15 OVMax= 1.13D-08

 Cycle  14  Pass 2  IDiag  1:
 SCF Done:  E(RAM1) =  0.191364910330     A.U. after   14 cycles
            NFock= 13  Conv=0.30D-08     -V/T= 1.0094
 KE=-2.035988530534D+01 PE=-1.757254045354D+01 EE= 1.534475553136D+01
 Leave Link  502 at Wed Oct 21 14:16:19 2020, MaxMem=  2684354560 cpu:              13.8 elap:               1.9
 (Enter /udrive/faculty/rpeverati/g16/g16/l508.exe)
 QCSCF skips out because SCF is already converged.
 Leave Link  508 at Wed Oct 21 14:16:20 2020, MaxMem=  2684354560 cpu:               1.2 elap:               0.8
 (Enter /udrive/faculty/rpeverati/g16/g16/l601.exe)
 Copying SCF densities to generalized density rwf, IOpCl= 0 IROHF=0.

 **********************************************************************

            Population analysis using the SCF density.

 **********************************************************************

 Orbital symmetries:
       Occupied  (A') (A') (A') (A") (A')
       Virtual   (A') (A") (A') (A')
 The electronic state is 1-A'.
 Alpha  occ. eigenvalues --   -1.40202  -0.69605  -0.58760  -0.50727  -0.42852
 Alpha virt. eigenvalues --    0.00328   0.04686   0.06651   0.18927
          Condensed to atoms (all electrons):
               1          2          3
     1  C    4.121559   0.000000   0.000000
     2  N    0.000000   5.176122   0.000000
     3  H    0.000000   0.000000   0.702319
 Mulliken charges:
               1
     1  C   -0.121559
     2  N   -0.176122
     3  H    0.297681
 Sum of Mulliken charges =   0.00000
 Mulliken charges with hydrogens summed into heavy atoms:
               1
     1  C    0.176122
     2  N   -0.176122
 Charge=              0.0000 electrons
 Dipole moment (field-independent basis, Debye):
    X=             -2.1141    Y=              0.0652    Z=              0.0000  Tot=              2.1151
 N-N= 2.277903513786D+01 E-N=-1.757254045544D+01  KE=-2.035988530534D+01
 Leave Link  601 at Wed Oct 21 14:16:22 2020, MaxMem=  2684354560 cpu:               2.6 elap:               1.1
 (Enter /udrive/faculty/rpeverati/g16/g16/l701.exe)
 ... and contract with generalized density number  0.
 Compute integral first derivatives.
 Leave Link  701 at Wed Oct 21 14:16:23 2020, MaxMem=  2684354560 cpu:               6.1 elap:               1.3
 (Enter /udrive/faculty/rpeverati/g16/g16/l702.exe)
 L702 exits ... SP integral derivatives will be done elsewhere.
 Leave Link  702 at Wed Oct 21 14:16:25 2020, MaxMem=  2684354560 cpu:               2.2 elap:               0.8
 (Enter /udrive/faculty/rpeverati/g16/g16/l703.exe)
 Integral derivatives from FoFJK, PRISM(SPDF).
 Compute integral first derivatives, UseDBF=F ICtDFT=           0.
 Calling FoFJK, ICntrl=      2127 FMM=F ISym2X=1 I1Cent= 0 IOpClX= 0 NMat=1 NMatS=1 NMatT=0.
 FoFJK:  IHMeth= 8 ICntrl=    2127 DoSepK=F KAlg= 0 I1Cent=           0 FoldK=F
 IRaf=         0 NMat=       1 IRICut=       1 DoRegI=T DoRafI=F ISym2E= 1 IDoP0=3 IntGTp=3.
 FoFCou: FMM=F IPFlag=           0 FMFlag=      100000 FMFlg1=         800
         NFxFlg=           0 DoJE=F BraDBF=F KetDBF=F FulRan=T
         wScrn=  0.000000 ICntrl=      2127 IOpCl=  0 I1Cent=           0 NGrid=           0
         NMat0=    1 NMatS0=      1 NMatT0=    0 NMatD0=    1 NMtDS0=    0 NMtDT0=    0
 Petite list used in FoFCou.
 Leave Link  703 at Wed Oct 21 14:16:26 2020, MaxMem=  2684354560 cpu:               4.2 elap:               0.9
 (Enter /udrive/faculty/rpeverati/g16/g16/l716.exe)
 Dipole        =-8.31756676D-01 2.56625359D-02 9.71659592D-17
 ***** Axes restored to original set *****
 -------------------------------------------------------------------
 Center     Atomic                   Forces (Hartrees/Bohr)
 Number     Number              X              Y              Z
 -------------------------------------------------------------------
      1        6           0.012364264    0.051768680    0.000000000
      2        7           0.028189606   -0.068391174    0.000000000
      3        1          -0.040553870    0.016622494   -0.000000000
 -------------------------------------------------------------------
 Cartesian Forces:  Max     0.068391174 RMS     0.033707568
 Leave Link  716 at Wed Oct 21 14:16:28 2020, MaxMem=  2684354560 cpu:               3.7 elap:               0.9
 (Enter /udrive/faculty/rpeverati/g16/g16/l103.exe)

 GradGradGradGradGradGradGradGradGradGradGradGradGradGradGradGradGradGrad
 Berny optimization.
 Optmz: redundant internal coordinate code flag= 1
 FormGI is forming the generalized inverse of G from B-inverse, IUseBI=4.
 Internal  Forces:  Max     0.068391174 RMS     0.057163063
 Search for a saddle point.
 Step number   1 out of a maximum of   50
 All quantities printed in internal units (Hartrees-Bohrs-Radians)
 Swapping is turned off.
 Second derivative matrix not updated -- first step.
 The second derivative matrix:
                          R1        R2        A1
           R1           1.10901
           R2           0.00000   0.26007
           A1           0.00000   0.00000   0.16000
 ITU=  0
 Eigenvectors of the second derivative matrix:
                           1         2         3
     Eigenvalues --     0.16000   0.26007   1.10901
   1         R1         0.00000   0.00000   1.00000
   2         R2         0.00000  -1.00000  -0.00000
   3         A1        -1.00000  -0.00000   0.00000
 Eigenvalue     1 is   1.60D-01 should be less than     0.000000 Eigenvector:
                          A1        R2        R1
   1                   -1.00000   0.00000   0.00000
 RLam0= 1.82D-01.
 Iter=   1 RLamda= 0.00000000D+00 Sum=-8.51676610D-03.
 Iter=   2 RLamda=-8.51676610D-03 Sum=-8.34829669D-03.
 Iter=   3 RLamda=-8.34829669D-03 Sum=-8.35154054D-03.
 Iter=   4 RLamda=-8.35154054D-03 Sum=-8.35147805D-03.
 Iter=   5 RLamda=-8.35147805D-03 Sum=-8.35147925D-03.
 RFO step:  Lambda0=1.820168147D-01 Lambda=-8.35147805D-03.
 Linear search not attempted -- option 19 set.
 Maximum step size (   0.100) exceeded in Quadratic search.
    -- Step size scaled by   0.509
 Iteration  1 RMS(Cart)=  0.05065482 RMS(Int)=  0.00141693
 Iteration  2 RMS(Cart)=  0.00183698 RMS(Int)=  0.00000083
 Iteration  3 RMS(Cart)=  0.00000069 RMS(Int)=  0.00000000
 ITry= 1 IFail=0 DXMaxC= 4.85D-02 DCOld= 1.00D+10 DXMaxT= 1.00D-01 DXLimC= 3.00D+00 Rises=F
 ClnCor:  largest displacement from symmetrization is 1.36D-15 for atom     3.
 Variable       Old X    -DE/DX   Delta X   Delta X   Delta X     New X
                                 (Linear)    (Quad)   (Total)
    R1        2.24566   0.06839   0.00000   0.03118   0.03118   2.27684
    R2        2.23415   0.03344   0.00000   0.06346   0.06346   2.29762
    A1        1.25682   0.06330   0.00000  -0.07071  -0.07071   1.18611
         Item               Value     Threshold  Converged?
 Maximum Force            0.068391     0.000450     NO 
 RMS     Force            0.057163     0.000300     NO 
 Maximum Displacement     0.048535     0.001800     NO 
 RMS     Displacement     0.051778     0.001200     NO 
 Predicted change in Energy= 1.684510D-03
 Lowest energy point so far.  Saving SCF results.
 Largest change from initial coordinates is atom    1       0.026 Angstoms.
 GradGradGradGradGradGradGradGradGradGradGradGradGradGradGradGradGradGrad

 Leave Link  103 at Wed Oct 21 14:16:30 2020, MaxMem=  2684354560 cpu:               6.3 elap:               1.3
 (Enter /udrive/faculty/rpeverati/g16/g16/l202.exe)
                          Input orientation:                          
 ---------------------------------------------------------------------
 Center     Atomic      Atomic             Coordinates (Angstroms)
 Number     Number       Type             X           Y           Z
 ---------------------------------------------------------------------
      1          6           0        0.102718    0.640882    0.000000
      2          7           0        0.055171   -0.563032    0.000000
      3          1           0       -1.041397    0.229437    0.000000
 ---------------------------------------------------------------------
                    Distance matrix (angstroms):
                    1          2          3
     1  C    0.000000
     2  N    1.204853   0.000000
     3  H    1.215847   1.352948   0.000000
 Stoichiometry    CHN
 Framework group  CS[SG(CHN)]
 Deg. of freedom     3
 Full point group                 CS      NOp   2
 RotChk:  IX=0 Diff= 5.58D-02
 Largest Abelian subgroup         CS      NOp   2
 Largest concise Abelian subgroup C1      NOp   1
                         Standard orientation:                         
 ---------------------------------------------------------------------
 Center     Atomic      Atomic             Coordinates (Angstroms)
 Number     Number       Type             X           Y           Z
 ---------------------------------------------------------------------
      1          6           0        0.080499    0.635018    0.000000
      2          7           0        0.080499   -0.569836    0.000000
      3          1           0       -1.046487    0.178744    0.000000
 ---------------------------------------------------------------------
 Rotational constants (GHZ):         411.9274918          53.6361002          47.4568558
 Leave Link  202 at Wed Oct 21 14:16:31 2020, MaxMem=  2684354560 cpu:               3.4 elap:               0.8
 (Enter /udrive/faculty/rpeverati/g16/g16/l301.exe)
 Standard basis: VSTO-6G (5D, 7F)
 Ernie: Thresh=  0.10000D-02 Tol=  0.10000D-05 Strict=F.
  NNHCO=     0 NNPyr=     0 NCTC=     0               EPep=         0.000000000
    EC=         9.226019686  ECS=         0.607230114   EG=         0.049714143
   EHC=         0.000000000  EAt=       -12.297057412  AtH=         0.535437334
 EPDDG=         0.000000000  ECC=         9.882963943 EAtT=        12.832494746
 There are     7 symmetry adapted cartesian basis functions of A'  symmetry.
 There are     2 symmetry adapted cartesian basis functions of A"  symmetry.
 There are     7 symmetry adapted basis functions of A'  symmetry.
 There are     2 symmetry adapted basis functions of A"  symmetry.
     9 basis functions,    54 primitive gaussians,     9 cartesian basis functions
     5 alpha electrons        5 beta electrons
       nuclear repulsion energy        22.7154586891 Hartrees.
 IExCor=    0 DFT=F Ex=HF Corr=None ExCW=0 ScaHFX=  1.000000
 ScaDFX=  1.000000  1.000000  1.000000  1.000000 ScalE2=  1.000000  1.000000
 IRadAn=      5 IRanWt=     -1 IRanGd=            0 ICorTp=0 IEmpDi=  4
 Integral buffers will be    131072 words long.
 Regular integral format.
 Two-electron integral symmetry is turned off.
 Leave Link  301 at Wed Oct 21 14:16:32 2020, MaxMem=  2684354560 cpu:               3.1 elap:               0.8
 (Enter /udrive/faculty/rpeverati/g16/g16/l302.exe)
 Do NDO integrals.
 NPDir=0 NMtPBC=     1 NCelOv=     1 NCel=       1 NClECP=     1 NCelD=      1
         NCelK=      1 NCelE2=     1 NClLst=     1 CellRange=     0.0.
 One-electron integrals computed using PRISM.
 NBasis=     9 RedAO= T EigKep=  1.00D+00  NBF=     7     2
 NBsUse=     9 1.00D-06 EigRej= -1.00D+00 NBFU=     7     2
 Leave Link  302 at Wed Oct 21 14:16:34 2020, MaxMem=  2684354560 cpu:               3.8 elap:               1.1
 (Enter /udrive/faculty/rpeverati/g16/g16/l303.exe)
 DipDrv:  MaxL=1.
 Leave Link  303 at Wed Oct 21 14:16:35 2020, MaxMem=  2684354560 cpu:               2.6 elap:               0.7
 (Enter /udrive/faculty/rpeverati/g16/g16/l401.exe)
 Initial guess from the checkpoint file:  "MN_49_hcnts_BH76_AM1_SE.chk"
 SCF N**3 symmetry information disabled.
 B after Tr=    -0.000000    0.000000    0.000000
         Rot=    0.999973    0.000000    0.000000   -0.007393 Ang=  -0.85 deg.
 Guess basis will be translated and rotated to current coordinates.
 JPrj=0 DoOrth=T DoCkMO=T.
 Initial guess orbital symmetries:
       Occupied  (A') (A') (A') (A") (A')
       Virtual   (A') (A") (A') (A')
 The electronic state of the initial guess is 1-A'.
 Leave Link  401 at Wed Oct 21 14:16:36 2020, MaxMem=  2684354560 cpu:               3.2 elap:               0.7
 (Enter /udrive/faculty/rpeverati/g16/g16/l502.exe)
 Keep J ints in memory in canonical form, NReq=859290.
 FoFCou: FMM=F IPFlag=           0 FMFlag=           0 FMFlg1=           0
         NFxFlg=           0 DoJE=F BraDBF=F KetDBF=F FulRan=T
         wScrn=  0.000000 ICntrl=       600 IOpCl=  2 I1Cent=           0 NGrid=           0
         NMat0=    1 NMatS0=     21 NMatT0=    0 NMatD0=    1 NMtDS0=    0 NMtDT0=    0
 Symmetry not used in FoFCou.
 Two-electron integral symmetry not used.
 Closed shell SCF:
 Using DIIS extrapolation, IDIIS=  1040.
 Overlap will be assumed to be unity.
 NGot=  2684354560 LenX=  2684293973 LenY=  2684293091
 Requested convergence on RMS density matrix=1.00D-08 within 120 cycles.
 Requested convergence on MAX density matrix=1.00D-06.
 Requested convergence on             energy=1.00D-06.
 No special actions if energy rises.

 Cycle   1  Pass 1  IDiag  1:
 E= 0.193274237900354    
 DIIS: error= 3.42D-03 at cycle   1 NSaved=   1.
 NSaved= 1 IEnMin= 1 EnMin= 0.193274237900354     IErMin= 1 ErrMin= 3.42D-03
 ErrMax= 3.42D-03  0.00D+00 EMaxC= 1.00D-01 BMatC= 3.12D-04 BMatP= 3.12D-04
 IDIUse=3 WtCom= 9.66D-01 WtEn= 3.42D-02
 Coeff-Com:  0.100D+01
 Coeff-En:   0.100D+01
 Coeff:      0.100D+01
 GapD=    2.000 DampG=2.000 DampE=1.000 DampFc=2.0000 IDamp=-1.
 RMSDP=4.33D-03 MaxDP=1.25D-02              OVMax= 0.00D+00

 Cycle   2  Pass 1  IDiag  3:
 E= 0.191860846243586     Delta-E=       -0.001413391657 Rises=F Damp=F
 DIIS: error= 1.86D-03 at cycle   2 NSaved=   2.
 NSaved= 2 IEnMin= 2 EnMin= 0.191860846243586     IErMin= 2 ErrMin= 1.86D-03
 ErrMax= 1.86D-03  0.00D+00 EMaxC= 1.00D-01 BMatC= 7.66D-05 BMatP= 3.12D-04
 IDIUse=3 WtCom= 9.81D-01 WtEn= 1.86D-02
 Coeff-Com: -0.820D+00 0.182D+01
 Coeff-En:   0.000D+00 0.100D+01
 Coeff:     -0.805D+00 0.180D+01
 Gap=     0.439 Goal=   None    Shift=    0.000
 RMSDP=4.37D-03 MaxDP=1.27D-02 DE=-1.41D-03 OVMax= 2.02D-02

 Cycle   3  Pass 1  IDiag  3:
 E= 0.191290610175479     Delta-E=       -0.000570236068 Rises=F Damp=F
 DIIS: error= 4.30D-04 at cycle   3 NSaved=   3.
 NSaved= 3 IEnMin= 3 EnMin= 0.191290610175479     IErMin= 3 ErrMin= 4.30D-04
 ErrMax= 4.30D-04  0.00D+00 EMaxC= 1.00D-01 BMatC= 4.44D-06 BMatP= 7.66D-05
 IDIUse=3 WtCom= 9.96D-01 WtEn= 4.30D-03
 Coeff-Com:  0.264D+00-0.736D+00 0.147D+01
 Coeff-En:   0.000D+00 0.000D+00 0.100D+01
 Coeff:      0.263D+00-0.733D+00 0.147D+01
 Gap=     0.439 Goal=   None    Shift=    0.000
 RMSDP=1.29D-03 MaxDP=3.51D-03 DE=-5.70D-04 OVMax= 7.46D-03

 Cycle   4  Pass 1  IDiag  3:
 E= 0.191246031974561     Delta-E=       -0.000044578201 Rises=F Damp=F
 DIIS: error= 2.18D-04 at cycle   4 NSaved=   4.
 NSaved= 4 IEnMin= 4 EnMin= 0.191246031974561     IErMin= 4 ErrMin= 2.18D-04
 ErrMax= 2.18D-04  0.00D+00 EMaxC= 1.00D-01 BMatC= 6.38D-07 BMatP= 4.44D-06
 IDIUse=3 WtCom= 9.98D-01 WtEn= 2.18D-03
 Coeff-Com: -0.604D-01 0.200D+00-0.748D+00 0.161D+01
 Coeff-En:   0.000D+00 0.000D+00 0.000D+00 0.100D+01
 Coeff:     -0.603D-01 0.200D+00-0.746D+00 0.161D+01
 Gap=     0.439 Goal=   None    Shift=    0.000
 RMSDP=5.45D-04 MaxDP=1.69D-03 DE=-4.46D-05 OVMax= 3.31D-03

 Cycle   5  Pass 1  IDiag  3:
 E= 0.191239506368842     Delta-E=       -0.000006525606 Rises=F Damp=F
 DIIS: error= 6.13D-05 at cycle   5 NSaved=   5.
 NSaved= 5 IEnMin= 5 EnMin= 0.191239506368842     IErMin= 5 ErrMin= 6.13D-05
 ErrMax= 6.13D-05  0.00D+00 EMaxC= 1.00D-01 BMatC= 5.85D-08 BMatP= 6.38D-07
 IDIUse=1 WtCom= 1.00D+00 WtEn= 0.00D+00
 Coeff-Com: -0.254D-01 0.530D-01 0.455D-01-0.567D+00 0.149D+01
 Coeff:     -0.254D-01 0.530D-01 0.455D-01-0.567D+00 0.149D+01
 Gap=     0.439 Goal=   None    Shift=    0.000
 RMSDP=1.67D-04 MaxDP=5.80D-04 DE=-6.53D-06 OVMax= 9.31D-04

 Cycle   6  Pass 1  IDiag  3:
 E= 0.191239009472696     Delta-E=       -0.000000496896 Rises=F Damp=F
 DIIS: error= 9.07D-06 at cycle   6 NSaved=   6.
 NSaved= 6 IEnMin= 6 EnMin= 0.191239009472696     IErMin= 6 ErrMin= 9.07D-06
 ErrMax= 9.07D-06  0.00D+00 EMaxC= 1.00D-01 BMatC= 1.66D-09 BMatP= 5.85D-08
 IDIUse=1 WtCom= 1.00D+00 WtEn= 0.00D+00
 Coeff-Com:  0.169D-01-0.390D-01 0.151D-01 0.215D+00-0.753D+00 0.154D+01
 Coeff:      0.169D-01-0.390D-01 0.151D-01 0.215D+00-0.753D+00 0.154D+01
 Gap=     0.439 Goal=   None    Shift=    0.000
 RMSDP=1.95D-05 MaxDP=5.99D-05 DE=-4.97D-07 OVMax= 6.23D-05

 Cycle   7  Pass 1  IDiag  3:
 E= 0.191238998542325     Delta-E=       -0.000000010930 Rises=F Damp=F
 DIIS: error= 2.84D-06 at cycle   7 NSaved=   7.
 NSaved= 7 IEnMin= 7 EnMin= 0.191238998542325     IErMin= 7 ErrMin= 2.84D-06
 ErrMax= 2.84D-06  0.00D+00 EMaxC= 1.00D-01 BMatC= 6.84D-11 BMatP= 1.66D-09
 IDIUse=1 WtCom= 1.00D+00 WtEn= 0.00D+00
 Coeff-Com: -0.851D-02 0.199D-01-0.122D-01-0.904D-01 0.342D+00-0.831D+00
 Coeff-Com:  0.158D+01
 Coeff:     -0.851D-02 0.199D-01-0.122D-01-0.904D-01 0.342D+00-0.831D+00
 Coeff:      0.158D+01
 Gap=     0.439 Goal=   None    Shift=    0.000
 RMSDP=4.57D-06 MaxDP=1.88D-05 DE=-1.09D-08 OVMax= 1.96D-05

 Cycle   8  Pass 1  IDiag  3:
 E= 0.191238998000792     Delta-E=       -0.000000000542 Rises=F Damp=F
 DIIS: error= 4.38D-07 at cycle   8 NSaved=   8.
 NSaved= 8 IEnMin= 8 EnMin= 0.191238998000792     IErMin= 8 ErrMin= 4.38D-07
 ErrMax= 4.38D-07  0.00D+00 EMaxC= 1.00D-01 BMatC= 4.98D-12 BMatP= 6.84D-11
 IDIUse=1 WtCom= 1.00D+00 WtEn= 0.00D+00
 Coeff-Com:  0.242D-02-0.582D-02 0.592D-02 0.160D-01-0.761D-01 0.231D+00
 Coeff-Com: -0.697D+00 0.152D+01
 Coeff:      0.242D-02-0.582D-02 0.592D-02 0.160D-01-0.761D-01 0.231D+00
 Coeff:     -0.697D+00 0.152D+01
 Gap=     0.439 Goal=   None    Shift=    0.000
 RMSDP=1.20D-06 MaxDP=3.74D-06 DE=-5.42D-10 OVMax= 5.35D-06

 Cycle   9  Pass 1  IDiag  3:
 E= 0.191238997964252     Delta-E=       -0.000000000037 Rises=F Damp=F
 DIIS: error= 1.11D-07 at cycle   9 NSaved=   9.
 NSaved= 9 IEnMin= 9 EnMin= 0.191238997964252     IErMin= 9 ErrMin= 1.11D-07
 ErrMax= 1.11D-07  0.00D+00 EMaxC= 1.00D-01 BMatC= 2.10D-13 BMatP= 4.98D-12
 IDIUse=1 WtCom= 1.00D+00 WtEn= 0.00D+00
 Coeff-Com: -0.235D-03 0.635D-03-0.172D-02 0.319D-02-0.323D-02-0.167D-01
 Coeff-Com:  0.145D+00-0.565D+00 0.144D+01
 Coeff:     -0.235D-03 0.635D-03-0.172D-02 0.319D-02-0.323D-02-0.167D-01
 Coeff:      0.145D+00-0.565D+00 0.144D+01
 Gap=     0.439 Goal=   None    Shift=    0.000
 RMSDP=2.28D-07 MaxDP=7.04D-07 DE=-3.65D-11 OVMax= 9.69D-07

 Cycle  10  Pass 1  IDiag  3:
 E= 0.191238997962991     Delta-E=       -0.000000000001 Rises=F Damp=F
 DIIS: error= 1.45D-08 at cycle  10 NSaved=  10.
 NSaved=10 IEnMin=10 EnMin= 0.191238997962991     IErMin=10 ErrMin= 1.45D-08
 ErrMax= 1.45D-08  0.00D+00 EMaxC= 1.00D-01 BMatC= 3.42D-15 BMatP= 2.10D-13
 IDIUse=1 WtCom= 1.00D+00 WtEn= 0.00D+00
 Coeff-Com:  0.368D-04-0.130D-03 0.765D-03-0.254D-02 0.504D-02 0.482D-03
 Coeff-Com: -0.571D-01 0.266D+00-0.759D+00 0.155D+01
 Coeff:      0.368D-04-0.130D-03 0.765D-03-0.254D-02 0.504D-02 0.482D-03
 Coeff:     -0.571D-01 0.266D+00-0.759D+00 0.155D+01
 Gap=     0.439 Goal=   None    Shift=    0.000
 RMSDP=2.48D-08 MaxDP=8.16D-08 DE=-1.26D-12 OVMax= 1.10D-07

 Cycle  11  Pass 1  IDiag  3:
 E= 0.191238997962977     Delta-E=       -0.000000000000 Rises=F Damp=F
 DIIS: error= 4.11D-09 at cycle  11 NSaved=  11.
 NSaved=11 IEnMin=11 EnMin= 0.191238997962977     IErMin=11 ErrMin= 4.11D-09
 ErrMax= 4.11D-09  0.00D+00 EMaxC= 1.00D-01 BMatC= 2.03D-16 BMatP= 3.42D-15
 IDIUse=1 WtCom= 1.00D+00 WtEn= 0.00D+00
 Coeff-Com: -0.194D-04 0.795D-04-0.583D-03 0.208D-02-0.431D-02 0.555D-03
 Coeff-Com:  0.423D-01-0.204D+00 0.586D+00-0.130D+01 0.188D+01
 Coeff:     -0.194D-04 0.795D-04-0.583D-03 0.208D-02-0.431D-02 0.555D-03
 Coeff:      0.423D-01-0.204D+00 0.586D+00-0.130D+01 0.188D+01
 Gap=     0.439 Goal=   None    Shift=    0.000
 RMSDP=7.84D-09 MaxDP=2.39D-08 DE=-1.42D-14 OVMax= 3.63D-08

 Cycle  12  Pass 2  IDiag  1:
 SCF Done:  E(RAM1) =  0.191238997963     A.U. after   12 cycles
            NFock= 11  Conv=0.78D-08     -V/T= 1.0094
 KE=-2.034802854166D+01 PE=-1.749443760273D+01 EE= 1.531824645321D+01
 Leave Link  502 at Wed Oct 21 14:16:38 2020, MaxMem=  2684354560 cpu:              14.4 elap:               2.0
 (Enter /udrive/faculty/rpeverati/g16/g16/l508.exe)
 QCSCF skips out because SCF is already converged.
 Leave Link  508 at Wed Oct 21 14:16:39 2020, MaxMem=  2684354560 cpu:               1.1 elap:               0.6
 (Enter /udrive/faculty/rpeverati/g16/g16/l701.exe)
 ... and contract with generalized density number  0.
 Compute integral first derivatives.
 Leave Link  701 at Wed Oct 21 14:16:41 2020, MaxMem=  2684354560 cpu:               6.5 elap:               1.1
 (Enter /udrive/faculty/rpeverati/g16/g16/l702.exe)
 L702 exits ... SP integral derivatives will be done elsewhere.
 Leave Link  702 at Wed Oct 21 14:16:42 2020, MaxMem=  2684354560 cpu:               2.5 elap:               0.9
 (Enter /udrive/faculty/rpeverati/g16/g16/l703.exe)
 Integral derivatives from FoFJK, PRISM(SPDF).
 Compute integral first derivatives, UseDBF=F ICtDFT=           0.
 Calling FoFJK, ICntrl=      2127 FMM=F ISym2X=1 I1Cent= 0 IOpClX= 0 NMat=1 NMatS=1 NMatT=0.
 FoFJK:  IHMeth= 8 ICntrl=    2127 DoSepK=F KAlg= 0 I1Cent=           0 FoldK=F
 IRaf=         0 NMat=       1 IRICut=       1 DoRegI=T DoRafI=F ISym2E= 1 IDoP0=3 IntGTp=3.
 FoFCou: FMM=F IPFlag=           0 FMFlag=      100000 FMFlg1=         800
         NFxFlg=           0 DoJE=F BraDBF=F KetDBF=F FulRan=T
         wScrn=  0.000000 ICntrl=      2127 IOpCl=  0 I1Cent=           0 NGrid=           0
         NMat0=    1 NMatS0=      1 NMatT0=    0 NMatD0=    1 NMtDS0=    0 NMtDT0=    0
 Petite list used in FoFCou.
 Leave Link  703 at Wed Oct 21 14:16:44 2020, MaxMem=  2684354560 cpu:               5.5 elap:               1.2
 (Enter /udrive/faculty/rpeverati/g16/g16/l716.exe)
 Dipole        =-8.16842331D-01-6.10571403D-03 5.43895195D-16
 ***** Axes restored to original set *****
 -------------------------------------------------------------------
 Center     Atomic                   Forces (Hartrees/Bohr)
 Number     Number              X              Y              Z
 -------------------------------------------------------------------
      1        6           0.020106721    0.029084522    0.000000000
      2        7           0.013910350   -0.032854084    0.000000000
      3        1          -0.034017072    0.003769562   -0.000000000
 -------------------------------------------------------------------
 Cartesian Forces:  Max     0.034017072 RMS     0.020260660
 Leave Link  716 at Wed Oct 21 14:16:45 2020, MaxMem=  2684354560 cpu:               1.9 elap:               0.9
 (Enter /udrive/faculty/rpeverati/g16/g16/l103.exe)

 GradGradGradGradGradGradGradGradGradGradGradGradGradGradGradGradGradGrad
 Berny optimization.
 Optmz: redundant internal coordinate code flag= 1
 Red2BG:  D1=  4.52D-01 OD1=  5.74D-02 B2RMS=  0.00D+00 IAprox=0
 FormGI is forming the generalized inverse of G from B-inverse, IUseBI=4.
 Internal  Forces:  Max     0.034598934 RMS     0.032576398
 Search for a saddle point.
 Step number   2 out of a maximum of   50
 All quantities printed in internal units (Hartrees-Bohrs-Radians)
 Swapping is turned off.
 Update second derivatives using D2CorX and points    1    2
 The second derivative matrix:
                          R1        R2        A1
           R1           1.12000
           R2           0.01424   0.21415
           A1          -0.00401   0.16026  -0.26389
 ITU=  0  0
 Eigenvectors of the second derivative matrix:
                           1         2         3
     Eigenvalues --    -0.31269   0.26272   1.12023
   1         R1        -0.00557   0.01452   0.99988
   2         R2         0.29115  -0.95655   0.01552
   3         A1        -0.95666  -0.29120  -0.00110
 RLam0= 1.88D-03.
 Iter=   1 RLamda= 0.00000000D+00 Sum=-6.74645350D-03.
 Iter=   2 RLamda=-6.74645350D-03 Sum=-6.59574723D-03.
 Iter=   3 RLamda=-6.59574723D-03 Sum=-6.59903373D-03.
 Iter=   4 RLamda=-6.59903373D-03 Sum=-6.59896202D-03.
 Iter=   5 RLamda=-6.59896202D-03 Sum=-6.59896359D-03.
 RFO step:  Lambda0=1.881914026D-03 Lambda=-6.59896202D-03.
 Linear search not attempted -- option 19 set.
 Maximum step size (   0.100) exceeded in Quadratic search.
    -- Step size scaled by   0.600
 Iteration  1 RMS(Cart)=  0.03953652 RMS(Int)=  0.00025995
 Iteration  2 RMS(Cart)=  0.00024234 RMS(Int)=  0.00000002
 Iteration  3 RMS(Cart)=  0.00000002 RMS(Int)=  0.00000000
 ITry= 1 IFail=0 DXMaxC= 4.58D-02 DCOld= 1.00D+10 DXMaxT= 1.00D-01 DXLimC= 3.00D+00 Rises=F
 ClnCor:  largest displacement from symmetrization is 4.48D-16 for atom     3.
 Variable       Old X    -DE/DX   Delta X   Delta X   Delta X     New X
                                 (Linear)    (Quad)   (Total)
    R1        2.27684   0.03228   0.00000   0.01589   0.01589   2.29273
    R2        2.29762   0.03073   0.00000   0.09686   0.09686   2.39448
    A1        1.18611   0.03460   0.00000  -0.01910  -0.01910   1.16700
         Item               Value     Threshold  Converged?
 Maximum Force            0.034599     0.000450     NO 
 RMS     Force            0.032576     0.000300     NO 
 Maximum Displacement     0.045849     0.001800     NO 
 RMS     Displacement     0.039561     0.001200     NO 
 Predicted change in Energy=-2.004555D-03
 Lowest energy point so far.  Saving SCF results.
 Largest change from initial coordinates is atom    3       0.090 Angstoms.
 GradGradGradGradGradGradGradGradGradGradGradGradGradGradGradGradGradGrad

 Leave Link  103 at Wed Oct 21 14:16:47 2020, MaxMem=  2684354560 cpu:               6.2 elap:               1.7
 (Enter /udrive/faculty/rpeverati/g16/g16/l202.exe)
                          Input orientation:                          
 ---------------------------------------------------------------------
 Center     Atomic      Atomic             Coordinates (Angstroms)
 Number     Number       Type             X           Y           Z
 ---------------------------------------------------------------------
      1          6           0        0.126932    0.648848    0.000000
      2          7           0        0.055219   -0.562293    0.000000
      3          1           0       -1.065659    0.220732    0.000000
 ---------------------------------------------------------------------
                    Distance matrix (angstroms):
                    1          2          3
     1  C    0.000000
     2  N    1.213262   0.000000
     3  H    1.267105   1.367295   0.000000
 Stoichiometry    CHN
 Framework group  CS[SG(CHN)]
 Deg. of freedom     3
 Full point group                 CS      NOp   2
 RotChk:  IX=0 Diff= 2.78D-02
 Largest Abelian subgroup         CS      NOp   2
 Largest concise Abelian subgroup C1      NOp   1
                         Standard orientation:                         
 ---------------------------------------------------------------------
 Center     Atomic      Atomic             Coordinates (Angstroms)
 Number     Number       Type             X           Y           Z
 ---------------------------------------------------------------------
      1          6           0        0.083229    0.642192    0.000000
      2          7           0        0.083229   -0.571070    0.000000
      3          1           0       -1.081972    0.144334    0.000000
 ---------------------------------------------------------------------
 Rotational constants (GHZ):         384.7562037          52.9769891          46.5654091
 Leave Link  202 at Wed Oct 21 14:16:48 2020, MaxMem=  2684354560 cpu:               2.4 elap:               0.7
 (Enter /udrive/faculty/rpeverati/g16/g16/l301.exe)
 Standard basis: VSTO-6G (5D, 7F)
 Ernie: Thresh=  0.10000D-02 Tol=  0.10000D-05 Strict=F.
  NNHCO=     0 NNPyr=     0 NCTC=     0               EPep=         0.000000000
    EC=         9.164362554  ECS=         0.579028687   EG=         0.049044693
   EHC=         0.000000000  EAt=       -12.297057412  AtH=         0.535437334
 EPDDG=         0.000000000  ECC=         9.792435933 EAtT=        12.832494746
 There are     7 symmetry adapted cartesian basis functions of A'  symmetry.
 There are     2 symmetry adapted cartesian basis functions of A"  symmetry.
 There are     7 symmetry adapted basis functions of A'  symmetry.
 There are     2 symmetry adapted basis functions of A"  symmetry.
     9 basis functions,    54 primitive gaussians,     9 cartesian basis functions
     5 alpha electrons        5 beta electrons
       nuclear repulsion energy        22.6249306794 Hartrees.
 IExCor=    0 DFT=F Ex=HF Corr=None ExCW=0 ScaHFX=  1.000000
 ScaDFX=  1.000000  1.000000  1.000000  1.000000 ScalE2=  1.000000  1.000000
 IRadAn=      5 IRanWt=     -1 IRanGd=            0 ICorTp=0 IEmpDi=  4
 Integral buffers will be    131072 words long.
 Regular integral format.
 Two-electron integral symmetry is turned off.
 Leave Link  301 at Wed Oct 21 14:16:49 2020, MaxMem=  2684354560 cpu:               3.3 elap:               0.8
 (Enter /udrive/faculty/rpeverati/g16/g16/l302.exe)
 Do NDO integrals.
 NPDir=0 NMtPBC=     1 NCelOv=     1 NCel=       1 NClECP=     1 NCelD=      1
         NCelK=      1 NCelE2=     1 NClLst=     1 CellRange=     0.0.
 One-electron integrals computed using PRISM.
 NBasis=     9 RedAO= T EigKep=  1.00D+00  NBF=     7     2
 NBsUse=     9 1.00D-06 EigRej= -1.00D+00 NBFU=     7     2
 Leave Link  302 at Wed Oct 21 14:16:51 2020, MaxMem=  2684354560 cpu:               3.6 elap:               0.9
 (Enter /udrive/faculty/rpeverati/g16/g16/l303.exe)
 DipDrv:  MaxL=1.
 Leave Link  303 at Wed Oct 21 14:16:52 2020, MaxMem=  2684354560 cpu:               3.1 elap:               1.2
 (Enter /udrive/faculty/rpeverati/g16/g16/l401.exe)
 Initial guess from the checkpoint file:  "MN_49_hcnts_BH76_AM1_SE.chk"
 SCF N**3 symmetry information disabled.
 B after Tr=     0.000000   -0.000000    0.000000
         Rot=    0.999993    0.000000    0.000000   -0.003820 Ang=  -0.44 deg.
 Guess basis will be translated and rotated to current coordinates.
 JPrj=0 DoOrth=T DoCkMO=T.
 Initial guess orbital symmetries:
       Occupied  (A') (A') (A') (A") (A')
       Virtual   (A') (A") (A') (A')
 The electronic state of the initial guess is 1-A'.
 Leave Link  401 at Wed Oct 21 14:16:54 2020, MaxMem=  2684354560 cpu:               5.9 elap:               1.3
 (Enter /udrive/faculty/rpeverati/g16/g16/l502.exe)
 Keep J ints in memory in canonical form, NReq=859290.
 FoFCou: FMM=F IPFlag=           0 FMFlag=           0 FMFlg1=           0
         NFxFlg=           0 DoJE=F BraDBF=F KetDBF=F FulRan=T
         wScrn=  0.000000 ICntrl=       600 IOpCl=  2 I1Cent=           0 NGrid=           0
         NMat0=    1 NMatS0=     21 NMatT0=    0 NMatD0=    1 NMtDS0=    0 NMtDT0=    0
 Symmetry not used in FoFCou.
 Two-electron integral symmetry not used.
 Closed shell SCF:
 Using DIIS extrapolation, IDIIS=  1040.
 Overlap will be assumed to be unity.
 NGot=  2684354560 LenX=  2684293973 LenY=  2684293091
 Requested convergence on RMS density matrix=1.00D-08 within 120 cycles.
 Requested convergence on MAX density matrix=1.00D-06.
 Requested convergence on             energy=1.00D-06.
 No special actions if energy rises.

 Cycle   1  Pass 1  IDiag  1:
 E= 0.189691207483357    
 DIIS: error= 3.05D-03 at cycle   1 NSaved=   1.
 NSaved= 1 IEnMin= 1 EnMin= 0.189691207483357     IErMin= 1 ErrMin= 3.05D-03
 ErrMax= 3.05D-03  0.00D+00 EMaxC= 1.00D-01 BMatC= 1.06D-04 BMatP= 1.06D-04
 IDIUse=3 WtCom= 9.69D-01 WtEn= 3.05D-02
 Coeff-Com:  0.100D+01
 Coeff-En:   0.100D+01
 Coeff:      0.100D+01
 GapD=    2.000 DampG=2.000 DampE=1.000 DampFc=2.0000 IDamp=-1.
 RMSDP=2.11D-03 MaxDP=7.50D-03              OVMax= 0.00D+00

 Cycle   2  Pass 1  IDiag  3:
 E= 0.189325508858659     Delta-E=       -0.000365698625 Rises=F Damp=F
 DIIS: error= 1.08D-03 at cycle   2 NSaved=   2.
 NSaved= 2 IEnMin= 2 EnMin= 0.189325508858659     IErMin= 2 ErrMin= 1.08D-03
 ErrMax= 1.08D-03  0.00D+00 EMaxC= 1.00D-01 BMatC= 1.65D-05 BMatP= 1.06D-04
 IDIUse=3 WtCom= 9.89D-01 WtEn= 1.08D-02
 Coeff-Com: -0.494D+00 0.149D+01
 Coeff-En:   0.000D+00 0.100D+01
 Coeff:     -0.489D+00 0.149D+01
 Gap=     0.438 Goal=   None    Shift=    0.000
 RMSDP=1.53D-03 MaxDP=5.16D-03 DE=-3.66D-04 OVMax= 5.95D-03

 Cycle   3  Pass 1  IDiag  3:
 E= 0.189229767568296     Delta-E=       -0.000095741290 Rises=F Damp=F
 DIIS: error= 2.49D-04 at cycle   3 NSaved=   3.
 NSaved= 3 IEnMin= 3 EnMin= 0.189229767568296     IErMin= 3 ErrMin= 2.49D-04
 ErrMax= 2.49D-04  0.00D+00 EMaxC= 1.00D-01 BMatC= 1.36D-06 BMatP= 1.65D-05
 IDIUse=3 WtCom= 9.98D-01 WtEn= 2.49D-03
 Coeff-Com:  0.269D+00-0.963D+00 0.169D+01
 Coeff-En:   0.000D+00 0.000D+00 0.100D+01
 Coeff:      0.268D+00-0.960D+00 0.169D+01
 Gap=     0.438 Goal=   None    Shift=    0.000
 RMSDP=6.52D-04 MaxDP=2.00D-03 DE=-9.57D-05 OVMax= 3.38D-03

 Cycle   4  Pass 1  IDiag  3:
 E= 0.189218395111624     Delta-E=       -0.000011372457 Rises=F Damp=F
 DIIS: error= 8.04D-05 at cycle   4 NSaved=   4.
 NSaved= 4 IEnMin= 4 EnMin= 0.189218395111624     IErMin= 4 ErrMin= 8.04D-05
 ErrMax= 8.04D-05  0.00D+00 EMaxC= 1.00D-01 BMatC= 9.91D-08 BMatP= 1.36D-06
 IDIUse=1 WtCom= 1.00D+00 WtEn= 0.00D+00
 Coeff-Com: -0.470D-01 0.190D+00-0.504D+00 0.136D+01
 Coeff:     -0.470D-01 0.190D+00-0.504D+00 0.136D+01
 Gap=     0.438 Goal=   None    Shift=    0.000
 RMSDP=1.78D-04 MaxDP=5.27D-04 DE=-1.14D-05 OVMax= 1.09D-03

 Cycle   5  Pass 1  IDiag  3:
 E= 0.189217448563216     Delta-E=       -0.000000946548 Rises=F Damp=F
 DIIS: error= 3.49D-05 at cycle   5 NSaved=   5.
 NSaved= 5 IEnMin= 5 EnMin= 0.189217448563216     IErMin= 5 ErrMin= 3.49D-05
 ErrMax= 3.49D-05  0.00D+00 EMaxC= 1.00D-01 BMatC= 1.79D-08 BMatP= 9.91D-08
 IDIUse=1 WtCom= 1.00D+00 WtEn= 0.00D+00
 Coeff-Com: -0.303D-01 0.971D-01-0.807D-01-0.710D+00 0.172D+01
 Coeff:     -0.303D-01 0.971D-01-0.807D-01-0.710D+00 0.172D+01
 Gap=     0.438 Goal=   None    Shift=    0.000
 RMSDP=1.07D-04 MaxDP=3.54D-04 DE=-9.47D-07 OVMax= 6.35D-04

 Cycle   6  Pass 1  IDiag  3:
 E= 0.189217263541377     Delta-E=       -0.000000185022 Rises=F Damp=F
 DIIS: error= 5.07D-06 at cycle   6 NSaved=   6.
 NSaved= 6 IEnMin= 6 EnMin= 0.189217263541377     IErMin= 6 ErrMin= 5.07D-06
 ErrMax= 5.07D-06  0.00D+00 EMaxC= 1.00D-01 BMatC= 4.53D-10 BMatP= 1.79D-08
 IDIUse=1 WtCom= 1.00D+00 WtEn= 0.00D+00
 Coeff-Com:  0.208D-01-0.684D-01 0.723D-01 0.388D+00-0.107D+01 0.166D+01
 Coeff:      0.208D-01-0.684D-01 0.723D-01 0.388D+00-0.107D+01 0.166D+01
 Gap=     0.438 Goal=   None    Shift=    0.000
 RMSDP=1.17D-05 MaxDP=3.45D-05 DE=-1.85D-07 OVMax= 4.99D-05

 Cycle   7  Pass 1  IDiag  3:
 E= 0.189217260334189     Delta-E=       -0.000000003207 Rises=F Damp=F
 DIIS: error= 1.15D-06 at cycle   7 NSaved=   7.
 NSaved= 7 IEnMin= 7 EnMin= 0.189217260334189     IErMin= 7 ErrMin= 1.15D-06
 ErrMax= 1.15D-06  0.00D+00 EMaxC= 1.00D-01 BMatC= 1.19D-11 BMatP= 4.53D-10
 IDIUse=1 WtCom= 1.00D+00 WtEn= 0.00D+00
 Coeff-Com: -0.101D-01 0.333D-01-0.356D-01-0.188D+00 0.522D+00-0.881D+00
 Coeff-Com:  0.156D+01
 Coeff:     -0.101D-01 0.333D-01-0.356D-01-0.188D+00 0.522D+00-0.881D+00
 Coeff:      0.156D+01
 Gap=     0.438 Goal=   None    Shift=    0.000
 RMSDP=1.71D-06 MaxDP=7.56D-06 DE=-3.21D-09 OVMax= 7.88D-06

 Cycle   8  Pass 1  IDiag  3:
 E= 0.189217260254470     Delta-E=       -0.000000000080 Rises=F Damp=F
 DIIS: error= 1.89D-07 at cycle   8 NSaved=   8.
 NSaved= 8 IEnMin= 8 EnMin= 0.189217260254470     IErMin= 8 ErrMin= 1.89D-07
 ErrMax= 1.89D-07  0.00D+00 EMaxC= 1.00D-01 BMatC= 6.21D-13 BMatP= 1.19D-11
 IDIUse=1 WtCom= 1.00D+00 WtEn= 0.00D+00
 Coeff-Com:  0.567D-02-0.187D-01 0.204D-01 0.103D+00-0.286D+00 0.484D+00
 Coeff-Com: -0.904D+00 0.160D+01
 Coeff:      0.567D-02-0.187D-01 0.204D-01 0.103D+00-0.286D+00 0.484D+00
 Coeff:     -0.904D+00 0.160D+01
 Gap=     0.438 Goal=   None    Shift=    0.000
 RMSDP=3.65D-07 MaxDP=1.33D-06 DE=-7.97D-11 OVMax= 1.39D-06

 Cycle   9  Pass 1  IDiag  3:
 E= 0.189217260250288     Delta-E=       -0.000000000004 Rises=F Damp=F
 DIIS: error= 6.70D-08 at cycle   9 NSaved=   9.
 NSaved= 9 IEnMin= 9 EnMin= 0.189217260250288     IErMin= 9 ErrMin= 6.70D-08
 ErrMax= 6.70D-08  0.00D+00 EMaxC= 1.00D-01 BMatC= 3.88D-14 BMatP= 6.21D-13
 IDIUse=1 WtCom= 1.00D+00 WtEn= 0.00D+00
 Coeff-Com: -0.381D-03 0.126D-02-0.147D-02-0.597D-02 0.165D-01-0.249D-01
 Coeff-Com:  0.229D-01-0.278D+00 0.127D+01
 Coeff:     -0.381D-03 0.126D-02-0.147D-02-0.597D-02 0.165D-01-0.249D-01
 Coeff:      0.229D-01-0.278D+00 0.127D+01
 Gap=     0.438 Goal=   None    Shift=    0.000
 RMSDP=1.21D-07 MaxDP=5.09D-07 DE=-4.18D-12 OVMax= 5.30D-07

 Cycle  10  Pass 1  IDiag  3:
 E= 0.189217260250015     Delta-E=       -0.000000000000 Rises=F Damp=F
 DIIS: error= 6.66D-09 at cycle  10 NSaved=  10.
 NSaved=10 IEnMin=10 EnMin= 0.189217260250015     IErMin=10 ErrMin= 6.66D-09
 ErrMax= 6.66D-09  0.00D+00 EMaxC= 1.00D-01 BMatC= 8.51D-16 BMatP= 3.88D-14
 IDIUse=1 WtCom= 1.00D+00 WtEn= 0.00D+00
 Coeff-Com: -0.112D-05 0.229D-05 0.430D-04-0.443D-03 0.127D-02-0.359D-02
 Coeff-Com:  0.182D-01 0.721D-01-0.536D+00 0.145D+01
 Coeff:     -0.112D-05 0.229D-05 0.430D-04-0.443D-03 0.127D-02-0.359D-02
 Coeff:      0.182D-01 0.721D-01-0.536D+00 0.145D+01
 Gap=     0.438 Goal=   None    Shift=    0.000
 RMSDP=1.21D-08 MaxDP=4.23D-08 DE=-2.74D-13 OVMax= 5.79D-08

 Cycle  11  Pass 1  IDiag  3:
 E= 0.189217260249993     Delta-E=       -0.000000000000 Rises=F Damp=F
 DIIS: error= 2.50D-09 at cycle  11 NSaved=  11.
 NSaved=11 IEnMin=11 EnMin= 0.189217260249993     IErMin=11 ErrMin= 2.50D-09
 ErrMax= 2.50D-09  0.00D+00 EMaxC= 1.00D-01 BMatC= 7.18D-17 BMatP= 8.51D-16
 IDIUse=1 WtCom= 1.00D+00 WtEn= 0.00D+00
 Coeff-Com: -0.169D-04 0.567D-04-0.942D-04 0.419D-05-0.347D-04 0.114D-02
 Coeff-Com: -0.109D-01-0.544D-01 0.388D+00-0.118D+01 0.185D+01
 Coeff:     -0.169D-04 0.567D-04-0.942D-04 0.419D-05-0.347D-04 0.114D-02
 Coeff:     -0.109D-01-0.544D-01 0.388D+00-0.118D+01 0.185D+01
 Gap=     0.438 Goal=   None    Shift=    0.000
 RMSDP=5.10D-09 MaxDP=1.68D-08 DE=-2.13D-14 OVMax= 2.61D-08

 Cycle  12  Pass 2  IDiag  1:
 SCF Done:  E(RAM1) =  0.189217260250     A.U. after   12 cycles
            NFock= 11  Conv=0.51D-08     -V/T= 1.0093
 KE=-2.033421975754D+01 PE=-1.738525697126D+01 EE= 1.528376330961D+01
 Leave Link  502 at Wed Oct 21 14:16:57 2020, MaxMem=  2684354560 cpu:              17.2 elap:               2.2
 (Enter /udrive/faculty/rpeverati/g16/g16/l508.exe)
 QCSCF skips out because SCF is already converged.
 Leave Link  508 at Wed Oct 21 14:16:58 2020, MaxMem=  2684354560 cpu:               1.2 elap:               0.7
 (Enter /udrive/faculty/rpeverati/g16/g16/l701.exe)
 ... and contract with generalized density number  0.
 Compute integral first derivatives.
 Leave Link  701 at Wed Oct 21 14:16:59 2020, MaxMem=  2684354560 cpu:               4.2 elap:               1.0
 (Enter /udrive/faculty/rpeverati/g16/g16/l702.exe)
 L702 exits ... SP integral derivatives will be done elsewhere.
 Leave Link  702 at Wed Oct 21 14:17:01 2020, MaxMem=  2684354560 cpu:               2.4 elap:               0.7
 (Enter /udrive/faculty/rpeverati/g16/g16/l703.exe)
 Integral derivatives from FoFJK, PRISM(SPDF).
 Compute integral first derivatives, UseDBF=F ICtDFT=           0.
 Calling FoFJK, ICntrl=      2127 FMM=F ISym2X=1 I1Cent= 0 IOpClX= 0 NMat=1 NMatS=1 NMatT=0.
 FoFJK:  IHMeth= 8 ICntrl=    2127 DoSepK=F KAlg= 0 I1Cent=           0 FoldK=F
 IRaf=         0 NMat=       1 IRICut=       1 DoRegI=T DoRafI=F ISym2E= 1 IDoP0=3 IntGTp=3.
 FoFCou: FMM=F IPFlag=           0 FMFlag=      100000 FMFlg1=         800
         NFxFlg=           0 DoJE=F BraDBF=F KetDBF=F FulRan=T
         wScrn=  0.000000 ICntrl=      2127 IOpCl=  0 I1Cent=           0 NGrid=           0
         NMat0=    1 NMatS0=      1 NMatT0=    0 NMatD0=    1 NMtDS0=    0 NMtDT0=    0
 Petite list used in FoFCou.
 Leave Link  703 at Wed Oct 21 14:17:02 2020, MaxMem=  2684354560 cpu:               2.7 elap:               0.8
 (Enter /udrive/faculty/rpeverati/g16/g16/l716.exe)
 Dipole        =-8.34245962D-01-1.46273617D-02 1.66918302D-15
 ***** Axes restored to original set *****
 -------------------------------------------------------------------
 Center     Atomic                   Forces (Hartrees/Bohr)
 Number     Number              X              Y              Z
 -------------------------------------------------------------------
      1        6           0.010330896    0.011388256    0.000000000
      2        7           0.003560923   -0.010658603    0.000000000
      3        1          -0.013891819   -0.000729653   -0.000000000
 -------------------------------------------------------------------
 Cartesian Forces:  Max     0.013891819 RMS     0.007861445
 Leave Link  716 at Wed Oct 21 14:17:03 2020, MaxMem=  2684354560 cpu:               2.2 elap:               0.7
 (Enter /udrive/faculty/rpeverati/g16/g16/l103.exe)

 GradGradGradGradGradGradGradGradGradGradGradGradGradGradGradGradGradGrad
 Berny optimization.
 Optmz: redundant internal coordinate code flag= 1
 Red2BG:  D1=  4.30D-01 OD1=  2.94D-02 B2RMS=  0.00D+00 IAprox=0
 FormGI is forming the generalized inverse of G from B-inverse, IUseBI=4.
 Internal  Forces:  Max     0.013321411 RMS     0.011229227
 Search for a saddle point.
 Step number   3 out of a maximum of   50
 All quantities printed in internal units (Hartrees-Bohrs-Radians)
 Swapping is turned off.
 Update second derivatives using D2CorX and points    1    2    3
 The second derivative matrix:
                          R1        R2        A1
           R1           1.12621
           R2           0.03848   0.21291
           A1          -0.01192   0.20007  -0.30436
 ITU=  0  0  0
 Eigenvectors of the second derivative matrix:
                           1         2         3
     Eigenvalues --    -0.37309   0.28001   1.12783
   1         R1        -0.01584   0.03841  -0.99914
   2         R2         0.32399  -0.94515  -0.04147
   3         A1        -0.94593  -0.32437   0.00252
 RLam0= 6.50D-05.
 Iter=   1 RLamda= 0.00000000D+00 Sum=-9.42532250D-04.
 Iter=   2 RLamda=-9.42532250D-04 Sum=-9.39638129D-04.
 Iter=   3 RLamda=-9.39638129D-04 Sum=-9.39646987D-04.
 RFO step:  Lambda0=6.499271243D-05 Lambda=-9.39638129D-04.
 Linear search not attempted -- option 19 set.
 Iteration  1 RMS(Cart)=  0.02663175 RMS(Int)=  0.00010669
 Iteration  2 RMS(Cart)=  0.00015648 RMS(Int)=  0.00000001
 Iteration  3 RMS(Cart)=  0.00000001 RMS(Int)=  0.00000000
 ITry= 1 IFail=0 DXMaxC= 3.73D-02 DCOld= 1.00D+10 DXMaxT= 1.00D-01 DXLimC= 3.00D+00 Rises=F
 ClnCor:  largest displacement from symmetrization is 2.24D-16 for atom     2.
 Variable       Old X    -DE/DX   Delta X   Delta X   Delta X     New X
                                 (Linear)    (Quad)   (Total)
    R1        2.29273   0.01043   0.00000   0.00739   0.00739   2.30012
    R2        2.39448   0.01332   0.00000   0.05616   0.05616   2.45064
    A1        1.16700   0.00959   0.00000   0.00516   0.00516   1.17216
         Item               Value     Threshold  Converged?
 Maximum Force            0.013321     0.000450     NO 
 RMS     Force            0.011229     0.000300     NO 
 Maximum Displacement     0.037259     0.001800     NO 
 RMS     Displacement     0.026705     0.001200     NO 
 Predicted change in Energy=-4.387594D-04
 Lowest energy point so far.  Saving SCF results.
 Largest change from initial coordinates is atom    3       0.125 Angstoms.
 GradGradGradGradGradGradGradGradGradGradGradGradGradGradGradGradGradGrad

 Leave Link  103 at Wed Oct 21 14:17:05 2020, MaxMem=  2684354560 cpu:               9.9 elap:               1.5
 (Enter /udrive/faculty/rpeverati/g16/g16/l202.exe)
                          Input orientation:                          
 ---------------------------------------------------------------------
 Center     Atomic      Atomic             Coordinates (Angstroms)
 Number     Number       Type             X           Y           Z
 ---------------------------------------------------------------------
      1          6           0        0.138696    0.650121    0.000000
      2          7           0        0.063171   -0.564707    0.000000
      3          1           0       -1.085375    0.221874    0.000000
 ---------------------------------------------------------------------
                    Distance matrix (angstroms):
                    1          2          3
     1  C    0.000000
     2  N    1.217173   0.000000
     3  H    1.296822   1.392073   0.000000
 Stoichiometry    CHN
 Framework group  CS[SG(CHN)]
 Deg. of freedom     3
 Full point group                 CS      NOp   2
 RotChk:  IX=0 Diff= 4.17D-03
 Largest Abelian subgroup         CS      NOp   2
 Largest concise Abelian subgroup C1      NOp   1
                         Standard orientation:                         
 ---------------------------------------------------------------------
 Center     Atomic      Atomic             Coordinates (Angstroms)
 Number     Number       Type             X           Y           Z
 ---------------------------------------------------------------------
      1          6           0        0.085367    0.644542    0.000000
      2          7           0        0.085367   -0.572631    0.000000
      3          1           0       -1.109773    0.141167    0.000000
 ---------------------------------------------------------------------
 Rotational constants (GHZ):         365.6762235          52.6434917          46.0185655
 Leave Link  202 at Wed Oct 21 14:17:07 2020, MaxMem=  2684354560 cpu:               1.5 elap:               1.0
 (Enter /udrive/faculty/rpeverati/g16/g16/l301.exe)
 Standard basis: VSTO-6G (5D, 7F)
 Ernie: Thresh=  0.10000D-02 Tol=  0.10000D-05 Strict=F.
  NNHCO=     0 NNPyr=     0 NCTC=     0               EPep=         0.000000000
    EC=         9.120755314  ECS=         0.562090608   EG=         0.047941519
   EHC=         0.000000000  EAt=       -12.297057412  AtH=         0.535437334
 EPDDG=         0.000000000  ECC=         9.730787441 EAtT=        12.832494746
 There are     7 symmetry adapted cartesian basis functions of A'  symmetry.
 There are     2 symmetry adapted cartesian basis functions of A"  symmetry.
 There are     7 symmetry adapted basis functions of A'  symmetry.
 There are     2 symmetry adapted basis functions of A"  symmetry.
     9 basis functions,    54 primitive gaussians,     9 cartesian basis functions
     5 alpha electrons        5 beta electrons
       nuclear repulsion energy        22.5632821871 Hartrees.
 IExCor=    0 DFT=F Ex=HF Corr=None ExCW=0 ScaHFX=  1.000000
 ScaDFX=  1.000000  1.000000  1.000000  1.000000 ScalE2=  1.000000  1.000000
 IRadAn=      5 IRanWt=     -1 IRanGd=            0 ICorTp=0 IEmpDi=  4
 Integral buffers will be    131072 words long.
 Regular integral format.
 Two-electron integral symmetry is turned off.
 Leave Link  301 at Wed Oct 21 14:17:08 2020, MaxMem=  2684354560 cpu:               3.4 elap:               1.2
 (Enter /udrive/faculty/rpeverati/g16/g16/l302.exe)
 Do NDO integrals.
 NPDir=0 NMtPBC=     1 NCelOv=     1 NCel=       1 NClECP=     1 NCelD=      1
         NCelK=      1 NCelE2=     1 NClLst=     1 CellRange=     0.0.
 One-electron integrals computed using PRISM.
 NBasis=     9 RedAO= T EigKep=  1.00D+00  NBF=     7     2
 NBsUse=     9 1.00D-06 EigRej= -1.00D+00 NBFU=     7     2
 Leave Link  302 at Wed Oct 21 14:17:10 2020, MaxMem=  2684354560 cpu:               6.5 elap:               1.4
 (Enter /udrive/faculty/rpeverati/g16/g16/l303.exe)
 DipDrv:  MaxL=1.
 Leave Link  303 at Wed Oct 21 14:17:11 2020, MaxMem=  2684354560 cpu:               3.3 elap:               1.0
 (Enter /udrive/faculty/rpeverati/g16/g16/l401.exe)
 Initial guess from the checkpoint file:  "MN_49_hcnts_BH76_AM1_SE.chk"
 SCF N**3 symmetry information disabled.
 B after Tr=    -0.000000   -0.000000    0.000000
         Rot=    1.000000    0.000000    0.000000   -0.000658 Ang=  -0.08 deg.
 Guess basis will be translated and rotated to current coordinates.
 JPrj=0 DoOrth=T DoCkMO=T.
 Initial guess orbital symmetries:
       Occupied  (A') (A') (A') (A") (A')
       Virtual   (A') (A") (A') (A')
 The electronic state of the initial guess is 1-A'.
 Leave Link  401 at Wed Oct 21 14:17:13 2020, MaxMem=  2684354560 cpu:               5.8 elap:               1.2
 (Enter /udrive/faculty/rpeverati/g16/g16/l502.exe)
 Keep J ints in memory in canonical form, NReq=859290.
 FoFCou: FMM=F IPFlag=           0 FMFlag=           0 FMFlg1=           0
         NFxFlg=           0 DoJE=F BraDBF=F KetDBF=F FulRan=T
         wScrn=  0.000000 ICntrl=       600 IOpCl=  2 I1Cent=           0 NGrid=           0
         NMat0=    1 NMatS0=     21 NMatT0=    0 NMatD0=    1 NMtDS0=    0 NMtDT0=    0
 Symmetry not used in FoFCou.
 Two-electron integral symmetry not used.
 Closed shell SCF:
 Using DIIS extrapolation, IDIIS=  1040.
 Overlap will be assumed to be unity.
 NGot=  2684354560 LenX=  2684293973 LenY=  2684293091
 Requested convergence on RMS density matrix=1.00D-08 within 120 cycles.
 Requested convergence on MAX density matrix=1.00D-06.
 Requested convergence on             energy=1.00D-06.
 No special actions if energy rises.

 Cycle   1  Pass 1  IDiag  1:
 E= 0.188827833280271    
 DIIS: error= 1.74D-03 at cycle   1 NSaved=   1.
 NSaved= 1 IEnMin= 1 EnMin= 0.188827833280271     IErMin= 1 ErrMin= 1.74D-03
 ErrMax= 1.74D-03  0.00D+00 EMaxC= 1.00D-01 BMatC= 3.85D-05 BMatP= 3.85D-05
 IDIUse=3 WtCom= 9.83D-01 WtEn= 1.74D-02
 Coeff-Com:  0.100D+01
 Coeff-En:   0.100D+01
 Coeff:      0.100D+01
 GapD=    2.000 DampG=2.000 DampE=1.000 DampFc=2.0000 IDamp=-1.
 RMSDP=7.71D-04 MaxDP=2.64D-03              OVMax= 0.00D+00

 Cycle   2  Pass 1  IDiag  3:
 E= 0.188754251394204     Delta-E=       -0.000073581886 Rises=F Damp=F
 DIIS: error= 4.53D-04 at cycle   2 NSaved=   2.
 NSaved= 2 IEnMin= 2 EnMin= 0.188754251394204     IErMin= 2 ErrMin= 4.53D-04
 ErrMax= 4.53D-04  0.00D+00 EMaxC= 1.00D-01 BMatC= 2.21D-06 BMatP= 3.85D-05
 IDIUse=3 WtCom= 9.95D-01 WtEn= 4.53D-03
 Coeff-Com: -0.296D+00 0.130D+01
 Coeff-En:   0.000D+00 0.100D+01
 Coeff:     -0.294D+00 0.129D+01
 Gap=     0.434 Goal=   None    Shift=    0.000
 RMSDP=2.87D-04 MaxDP=1.04D-03 DE=-7.36D-05 OVMax= 1.04D-03

 Cycle   3  Pass 1  IDiag  3:
 E= 0.188748638647155     Delta-E=       -0.000005612747 Rises=F Damp=F
 DIIS: error= 4.70D-05 at cycle   3 NSaved=   3.
 NSaved= 3 IEnMin= 3 EnMin= 0.188748638647155     IErMin= 3 ErrMin= 4.70D-05
 ErrMax= 4.70D-05  0.00D+00 EMaxC= 1.00D-01 BMatC= 4.16D-08 BMatP= 2.21D-06
 IDIUse=1 WtCom= 1.00D+00 WtEn= 0.00D+00
 Coeff-Com:  0.187D+00-0.851D+00 0.166D+01
 Coeff:      0.187D+00-0.851D+00 0.166D+01
 Gap=     0.434 Goal=   None    Shift=    0.000
 RMSDP=8.79D-05 MaxDP=2.19D-04 DE=-5.61D-06 OVMax= 3.43D-04

 Cycle   4  Pass 1  IDiag  3:
 E= 0.188748383481222     Delta-E=       -0.000000255166 Rises=F Damp=F
 DIIS: error= 8.89D-06 at cycle   4 NSaved=   4.
 NSaved= 4 IEnMin= 4 EnMin= 0.188748383481222     IErMin= 4 ErrMin= 8.89D-06
 ErrMax= 8.89D-06  0.00D+00 EMaxC= 1.00D-01 BMatC= 1.45D-09 BMatP= 4.16D-08
 IDIUse=1 WtCom= 1.00D+00 WtEn= 0.00D+00
 Coeff-Com: -0.884D-01 0.406D+00-0.881D+00 0.156D+01
 Coeff:     -0.884D-01 0.406D+00-0.881D+00 0.156D+01
 Gap=     0.434 Goal=   None    Shift=    0.000
 RMSDP=1.98D-05 MaxDP=5.69D-05 DE=-2.55D-07 OVMax= 7.06D-05

 Cycle   5  Pass 1  IDiag  3:
 E= 0.188748372063309     Delta-E=       -0.000000011418 Rises=F Damp=F
 DIIS: error= 2.89D-06 at cycle   5 NSaved=   5.
 NSaved= 5 IEnMin= 5 EnMin= 0.188748372063309     IErMin= 5 ErrMin= 2.89D-06
 ErrMax= 2.89D-06  0.00D+00 EMaxC= 1.00D-01 BMatC= 1.28D-10 BMatP= 1.45D-09
 IDIUse=1 WtCom= 1.00D+00 WtEn= 0.00D+00
 Coeff-Com:  0.705D-01-0.323D+00 0.710D+00-0.140D+01 0.194D+01
 Coeff:      0.705D-01-0.323D+00 0.710D+00-0.140D+01 0.194D+01
 Gap=     0.434 Goal=   None    Shift=    0.000
 RMSDP=7.54D-06 MaxDP=2.13D-05 DE=-1.14D-08 OVMax= 3.13D-05

 Cycle   6  Pass 1  IDiag  3:
 E= 0.188748370856175     Delta-E=       -0.000000001207 Rises=F Damp=F
 DIIS: error= 6.45D-07 at cycle   6 NSaved=   6.
 NSaved= 6 IEnMin= 6 EnMin= 0.188748370856175     IErMin= 6 ErrMin= 6.45D-07
 ErrMax= 6.45D-07  0.00D+00 EMaxC= 1.00D-01 BMatC= 6.21D-12 BMatP= 1.28D-10
 IDIUse=1 WtCom= 1.00D+00 WtEn= 0.00D+00
 Coeff-Com: -0.270D-01 0.124D+00-0.271D+00 0.531D+00-0.853D+00 0.150D+01
 Coeff:     -0.270D-01 0.124D+00-0.271D+00 0.531D+00-0.853D+00 0.150D+01
 Gap=     0.434 Goal=   None    Shift=    0.000
 RMSDP=1.53D-06 MaxDP=5.39D-06 DE=-1.21D-09 OVMax= 7.69D-06

 Cycle   7  Pass 1  IDiag  3:
 E= 0.188748370799541     Delta-E=       -0.000000000057 Rises=F Damp=F
 DIIS: error= 1.60D-07 at cycle   7 NSaved=   7.
 NSaved= 7 IEnMin= 7 EnMin= 0.188748370799541     IErMin= 7 ErrMin= 1.60D-07
 ErrMax= 1.60D-07  0.00D+00 EMaxC= 1.00D-01 BMatC= 5.79D-13 BMatP= 6.21D-12
 IDIUse=1 WtCom= 1.00D+00 WtEn= 0.00D+00
 Coeff-Com: -0.189D-02 0.868D-02-0.199D-01 0.434D-01-0.394D-01-0.360D+00
 Coeff-Com:  0.137D+01
 Coeff:     -0.189D-02 0.868D-02-0.199D-01 0.434D-01-0.394D-01-0.360D+00
 Coeff:      0.137D+01
 Gap=     0.434 Goal=   None    Shift=    0.000
 RMSDP=4.89D-07 MaxDP=1.64D-06 DE=-5.66D-11 OVMax= 2.59D-06

 Cycle   8  Pass 1  IDiag  3:
 E= 0.188748370794574     Delta-E=       -0.000000000005 Rises=F Damp=F
 DIIS: error= 5.42D-08 at cycle   8 NSaved=   8.
 NSaved= 8 IEnMin= 8 EnMin= 0.188748370794574     IErMin= 8 ErrMin= 5.42D-08
 ErrMax= 5.42D-08  0.00D+00 EMaxC= 1.00D-01 BMatC= 3.54D-14 BMatP= 5.79D-13
 IDIUse=1 WtCom= 1.00D+00 WtEn= 0.00D+00
 Coeff-Com:  0.239D-02-0.110D-01 0.242D-01-0.490D-01 0.657D-01 0.910D-01
 Coeff-Com: -0.627D+00 0.150D+01
 Coeff:      0.239D-02-0.110D-01 0.242D-01-0.490D-01 0.657D-01 0.910D-01
 Coeff:     -0.627D+00 0.150D+01
 Gap=     0.434 Goal=   None    Shift=    0.000
 RMSDP=1.03D-07 MaxDP=3.24D-07 DE=-4.97D-12 OVMax= 4.95D-07

 Cycle   9  Pass 1  IDiag  3:
 E= 0.188748370794254     Delta-E=       -0.000000000000 Rises=F Damp=F
 DIIS: error= 1.72D-08 at cycle   9 NSaved=   9.
 NSaved= 9 IEnMin= 9 EnMin= 0.188748370794254     IErMin= 9 ErrMin= 1.72D-08
 ErrMax= 1.72D-08  0.00D+00 EMaxC= 1.00D-01 BMatC= 4.44D-15 BMatP= 3.54D-14
 IDIUse=1 WtCom= 1.00D+00 WtEn= 0.00D+00
 Coeff-Com: -0.175D-02 0.802D-02-0.176D-01 0.345D-01-0.488D-01-0.213D-01
 Coeff-Com:  0.301D+00-0.113D+01 0.187D+01
 Coeff:     -0.175D-02 0.802D-02-0.176D-01 0.345D-01-0.488D-01-0.213D-01
 Coeff:      0.301D+00-0.113D+01 0.187D+01
 Gap=     0.434 Goal=   None    Shift=    0.000
 RMSDP=5.47D-08 MaxDP=1.74D-07 DE=-3.20D-13 OVMax= 2.93D-07

 Cycle  10  Pass 1  IDiag  3:
 E= 0.188748370794222     Delta-E=       -0.000000000000 Rises=F Damp=F
 DIIS: error= 1.30D-09 at cycle  10 NSaved=  10.
 NSaved=10 IEnMin=10 EnMin= 0.188748370794222     IErMin=10 ErrMin= 1.30D-09
 ErrMax= 1.30D-09  0.00D+00 EMaxC= 1.00D-01 BMatC= 4.53D-17 BMatP= 4.44D-15
 IDIUse=1 WtCom= 1.00D+00 WtEn= 0.00D+00
 Coeff-Com:  0.109D-03-0.501D-03 0.106D-02-0.183D-02 0.257D-02 0.606D-04
 Coeff-Com: -0.140D-01 0.995D-01-0.238D+00 0.115D+01
 Coeff:      0.109D-03-0.501D-03 0.106D-02-0.183D-02 0.257D-02 0.606D-04
 Coeff:     -0.140D-01 0.995D-01-0.238D+00 0.115D+01
 Gap=     0.434 Goal=   None    Shift=    0.000
 RMSDP=2.33D-09 MaxDP=5.67D-09 DE=-3.20D-14 OVMax= 6.92D-09

 Cycle  11  Pass 2  IDiag  1:
 SCF Done:  E(RAM1) =  0.188748370794     A.U. after   11 cycles
            NFock= 10  Conv=0.23D-08     -V/T= 1.0093
 KE=-2.032381943229D+01 PE=-1.731036488143D+01 EE= 1.525965049745D+01
 Leave Link  502 at Wed Oct 21 14:17:16 2020, MaxMem=  2684354560 cpu:              14.9 elap:               2.3
 (Enter /udrive/faculty/rpeverati/g16/g16/l508.exe)
 QCSCF skips out because SCF is already converged.
 Leave Link  508 at Wed Oct 21 14:17:17 2020, MaxMem=  2684354560 cpu:               1.1 elap:               0.8
 (Enter /udrive/faculty/rpeverati/g16/g16/l701.exe)
 ... and contract with generalized density number  0.
 Compute integral first derivatives.
 Leave Link  701 at Wed Oct 21 14:17:19 2020, MaxMem=  2684354560 cpu:               3.6 elap:               1.0
 (Enter /udrive/faculty/rpeverati/g16/g16/l702.exe)
 L702 exits ... SP integral derivatives will be done elsewhere.
 Leave Link  702 at Wed Oct 21 14:17:20 2020, MaxMem=  2684354560 cpu:               2.8 elap:               0.9
 (Enter /udrive/faculty/rpeverati/g16/g16/l703.exe)
 Integral derivatives from FoFJK, PRISM(SPDF).
 Compute integral first derivatives, UseDBF=F ICtDFT=           0.
 Calling FoFJK, ICntrl=      2127 FMM=F ISym2X=1 I1Cent= 0 IOpClX= 0 NMat=1 NMatS=1 NMatT=0.
 FoFJK:  IHMeth= 8 ICntrl=    2127 DoSepK=F KAlg= 0 I1Cent=           0 FoldK=F
 IRaf=         0 NMat=       1 IRICut=       1 DoRegI=T DoRafI=F ISym2E= 1 IDoP0=3 IntGTp=3.
 FoFCou: FMM=F IPFlag=           0 FMFlag=      100000 FMFlg1=         800
         NFxFlg=           0 DoJE=F BraDBF=F KetDBF=F FulRan=T
         wScrn=  0.000000 ICntrl=      2127 IOpCl=  0 I1Cent=           0 NGrid=           0
         NMat0=    1 NMatS0=      1 NMatT0=    0 NMatD0=    1 NMtDS0=    0 NMtDT0=    0
 Petite list used in FoFCou.
 Leave Link  703 at Wed Oct 21 14:17:21 2020, MaxMem=  2684354560 cpu:               3.2 elap:               0.9
 (Enter /udrive/faculty/rpeverati/g16/g16/l716.exe)
 Dipole        =-8.53042238D-01-1.43024805D-02 2.11494642D-16
 ***** Axes restored to original set *****
 -------------------------------------------------------------------
 Center     Atomic                   Forces (Hartrees/Bohr)
 Number     Number              X              Y              Z
 -------------------------------------------------------------------
      1        6           0.001767141    0.000056470    0.000000000
      2        7          -0.000444182    0.000902909    0.000000000
      3        1          -0.001322958   -0.000959380   -0.000000000
 -------------------------------------------------------------------
 Cartesian Forces:  Max     0.001767141 RMS     0.000869811
 Leave Link  716 at Wed Oct 21 14:17:23 2020, MaxMem=  2684354560 cpu:               3.3 elap:               0.9
 (Enter /udrive/faculty/rpeverati/g16/g16/l103.exe)

 GradGradGradGradGradGradGradGradGradGradGradGradGradGradGradGradGradGrad
 Berny optimization.
 Optmz: redundant internal coordinate code flag= 1
 Red2BG:  D1=  4.20D-01 OD1=  7.17D-03 B2RMS=  0.00D+00 IAprox=0
 FormGI is forming the generalized inverse of G from B-inverse, IUseBI=4.
 Internal  Forces:  Max     0.001565556 RMS     0.001229278
 Search for a saddle point.
[...]
                 2.28750713D+00 2.41417963D-14-2.28850542D-14
                -5.16824704D-14-1.50918002D+00-9.61808867D+00
                -2.32226168D-14
 Full mass-weighted force constant matrix:
 Low frequencies ----1407.4660   -0.1044   -0.0787    0.0006    1.8009    5.8075
 Low frequencies ---    6.1046 2102.8144 2401.4757
 ******    1 imaginary frequencies (negative Signs) ****** 
 Diagonal vibrational polarizability:
        1.4080859       0.2313911       0.0000000
 Harmonic frequencies (cm**-1), IR intensities (KM/Mole), Raman scattering
 activities (A**4/AMU), depolarization ratios for plane and unpolarized
 incident light, reduced masses (AMU), force constants (mDyne/A),
 and normal coordinates:
                      1                      2                      3
                     A'                     A'                     A'
 Frequencies --  -1407.4660              2102.8144              2401.4757
 Red. masses --      1.1860                 3.8283                 1.2889
 Frc consts  --      1.3842                 9.9737                 4.3794
 IR Inten    --     22.3953               160.9396                76.2399
  Atom  AN      X      Y      Z        X      Y      Z        X      Y      Z
     1   6    -0.08  -0.06  -0.00    -0.06   0.36   0.00    -0.05  -0.11  -0.00
     2   7     0.07  -0.02  -0.00    -0.01  -0.32   0.00    -0.03   0.09  -0.00
     3   1    -0.10   0.99   0.00     0.85   0.21   0.00     0.99   0.03   0.00

 -------------------
 - Thermochemistry -
 -------------------
 Temperature   298.150 Kelvin.  Pressure   1.00000 Atm.
 Atom     1 has atomic number  6 and mass  12.00000
 Atom     2 has atomic number  7 and mass  14.00307
 Atom     3 has atomic number  1 and mass   1.00783
 Molecular mass:    27.01090 amu.
 Principal axes and moments of inertia in atomic units:
                           1         2         3
     Eigenvalues --     4.96920  34.25400  39.22320
           X           -0.02260   0.99974   0.00000
           Y            0.99974   0.02260   0.00000
           Z            0.00000   0.00000   1.00000
 This molecule is an asymmetric top.
 Rotational symmetry number  1.
 Rotational temperatures (Kelvin)     17.43015     2.52858     2.20823
 Rotational constants (GHZ):         363.18543    52.68702    46.01209
    1 imaginary frequencies ignored.
 Zero-point vibrational energy      26941.6 (Joules/Mol)
                                    6.43921 (Kcal/Mol)
 Vibrational temperatures:   3025.48  3455.19
          (Kelvin)
 
 Zero-point correction=                           0.010262 (Hartree/Particle)
 Thermal correction to Energy=                    0.013095
 Thermal correction to Enthalpy=                  0.014039
 Thermal correction to Gibbs Free Energy=        -0.010844
 Sum of electronic and zero-point Energies=              0.199012
 Sum of electronic and thermal Energies=                 0.201845
 Sum of electronic and thermal Enthalpies=               0.202789
 Sum of electronic and thermal Free Energies=            0.177906
 
                     E (Thermal)             CV                S
                      KCal/Mol        Cal/Mol-Kelvin    Cal/Mol-Kelvin
 Total                    8.217              5.972             52.370
 Electronic               0.000              0.000              0.000
 Translational            0.889              2.981             35.816
 Rotational               0.889              2.981             16.553
 Vibrational              6.440              0.010              0.001
                       Q            Log10(Q)             Ln(Q)
 Total Bot       0.972587D+05          4.987929         11.485130
 Total V=0       0.510387D+10          9.707899         22.353265
 Vib (Bot)       0.190568D-04         -4.719950        -10.868086
 Vib (V=0)       0.100005D+01          0.000021          0.000048
 Electronic      0.100000D+01          0.000000          0.000000
 Translational   0.551776D+07          6.741762         15.523482
 Rotational      0.924945D+03          2.966116          6.829734
 
                                                          TS search on BH76.
                                                             IR Spectrum
 
      2              2                                                                                                               
      4              1                                                                                                               
      0              0                                                                                                               
      1              3                                                                                                               
 
      X              X                                                                                                               
      X              X                                                                                                               
      X              X                                                                                                               
      X              X                                                                                                               
      X              X                                                                                                               
      X              X                                                                                                               
      X              X                                                                                                               
      X              X                                                                                                               
      X              X                                                                                                               
                     X                                                                                                               
                     X                                                                                                               
                     X                                                                                                               
                     X                                                                                                               
                     X                                                                                                               
                     X                                                                                                               
                     X                                                                                                               
                     X                                                                                                               
                     X                                                                                                               
                     X                                                                                                               
                     X                                                                                                               
 
 ***** Axes restored to original set *****
 -------------------------------------------------------------------
 Center     Atomic                   Forces (Hartrees/Bohr)
 Number     Number              X              Y              Z
 -------------------------------------------------------------------
      1        6          -0.000001605   -0.000020884    0.000000000
      2        7           0.000001322    0.000020685   -0.000000000
      3        1           0.000000283    0.000000199    0.000000000
 -------------------------------------------------------------------
 Cartesian Forces:  Max     0.000020884 RMS     0.000009823
 Force constants in Cartesian coordinates: 
                1             2             3             4             5 
      1  0.328395D-01
      2  0.229873D-01  0.107641D+01
      3  0.000000D+00  0.000000D+00  0.920745D-05
      4  0.104435D+00  0.299161D-01  0.000000D+00 -0.413887D-01
      5 -0.837936D-01 -0.115519D+01  0.000000D+00  0.349283D-01  0.117216D+01
      6  0.000000D+00  0.000000D+00 -0.901423D-05  0.000000D+00  0.000000D+00
      7 -0.137275D+00 -0.529032D-01  0.000000D+00 -0.630464D-01  0.488652D-01
      8  0.608063D-01  0.787824D-01  0.000000D+00 -0.648444D-01 -0.169674D-01
      9  0.000000D+00  0.000000D+00  0.000000D+00  0.000000D+00  0.000000D+00
                6             7             8             9 
      6  0.900372D-05
      7  0.000000D+00  0.200321D+00
      8  0.000000D+00  0.403808D-02 -0.618153D-01
      9  0.000000D+00  0.000000D+00  0.000000D+00  0.000000D+00
 FormGI is forming the generalized inverse of G from B-inverse, IUseBI=4.
 Force constants in internal coordinates: 
                1             2             3 
      1  0.117205D+01
      2  0.358030D-01  0.174787D+00
      3  0.842528D-01  0.190891D+00 -0.218241D+00
 Leave Link  716 at Wed Oct 21 14:18:40 2020, MaxMem=  2684354560 cpu:               6.3 elap:               1.3
 (Enter /udrive/faculty/rpeverati/g16/g16/l103.exe)

 GradGradGradGradGradGradGradGradGradGradGradGradGradGradGradGradGradGrad
 Berny optimization.
 Optmz: redundant internal coordinate code flag= 1
 Red2BG:  D1=  4.21D-01 OD1=  1.20D-15 B2RMS=  0.00D+00 IAprox=1
 Red2BG is reusing G-inverse.
 Internal  Forces:  Max     0.000020727 RMS     0.000011969
 Search for a local minimum.
 Step number   1 out of a maximum of    2
 All quantities printed in internal units (Hartrees-Bohrs-Radians)
 Second derivative matrix not updated -- analytic derivatives used.
 The second derivative matrix:
                          R1        R2        A1
           R1           1.17205
           R2           0.03580   0.17479
           A1           0.08425   0.19089  -0.21824
 ITU=  0
 Eigenvectors of the second derivative matrix:
                           1         2         3
     Eigenvalues --    -0.29855   0.24773   1.17942
   1         R1         0.04412   0.06941  -0.99661
   2         R2         0.37078  -0.92747  -0.04818
   3         A1        -0.92767  -0.36740  -0.06666
 Eigenvalue     1 is  -2.99D-01 should be greater than     0.000000 Eigenvector:
                          A1        R2        R1
   1                   -0.92767   0.37078   0.04412
 Angle between quadratic step and forces=  15.45 degrees.
 Linear search not attempted -- first point.
 Iteration  1 RMS(Cart)=  0.00000791 RMS(Int)=  0.00000000
 Iteration  2 RMS(Cart)=  0.00000000 RMS(Int)=  0.00000000
 ITry= 1 IFail=0 DXMaxC= 9.28D-06 DCOld= 1.00D+10 DXMaxT= 3.00D-01 DXLimC= 3.00D+00 Rises=F
 ClnCor:  largest displacement from symmetrization is 9.04D-16 for atom     3.
 Variable       Old X    -DE/DX   Delta X   Delta X   Delta X     New X
                                 (Linear)    (Quad)   (Total)
    R1        2.29886  -0.00002   0.00000  -0.00002  -0.00002   2.29884
    R2        2.45261  -0.00000   0.00000   0.00000   0.00000   2.45261
    A1        1.17875   0.00000   0.00000   0.00000   0.00000   1.17875
         Item               Value     Threshold  Converged?
 Maximum Force            0.000021     0.000450     YES
 RMS     Force            0.000012     0.000300     YES
 Maximum Displacement     0.000009     0.001800     YES
 RMS     Displacement     0.000008     0.001200     YES
 Predicted change in Energy=-1.918069D-10
 Optimization completed.
    -- Stationary point found.
                           ----------------------------
                           !   Optimized Parameters   !
                           ! (Angstroms and Degrees)  !
 --------------------------                            --------------------------
 ! Name  Definition              Value          Derivative Info.                !
 --------------------------------------------------------------------------------
 ! R1    R(1,2)                  1.2165         -DE/DX =    0.0                 !
 ! R2    R(1,3)                  1.2979         -DE/DX =    0.0                 !
 ! A1    A(2,1,3)               67.5374         -DE/DX =    0.0                 !
 --------------------------------------------------------------------------------
 GradGradGradGradGradGradGradGradGradGradGradGradGradGradGradGradGradGrad

 Leave Link  103 at Wed Oct 21 14:18:42 2020, MaxMem=  2684354560 cpu:               7.5 elap:               1.5
 (Enter /udrive/faculty/rpeverati/g16/g16/l9999.exe)

 ----------------------------------------------------------------------

 Electric dipole moment (input orientation):
 (Debye = 10**-18 statcoulomb cm , SI units = C m)
                  (au)            (Debye)         (10**-30 SI)
   Tot        0.857947D+00      0.218068D+01      0.727398D+01
   x         -0.857112D+00     -0.217856D+01     -0.726690D+01
   y          0.378367D-01      0.961713D-01      0.320793D+00
   z          0.000000D+00      0.000000D+00      0.000000D+00

 Dipole polarizability, Alpha (input orientation).
 (esu units = cm**3 , SI units = C**2 m**2 J**-1)
 Alpha(0;0):
               (au)            (10**-24 esu)      (10**-40 SI)
   iso        0.115945D+02      0.171812D+01      0.191167D+01
   aniso      0.132334D+02      0.196098D+01      0.218189D+01
   xx         0.108813D+02      0.161245D+01      0.179409D+01
   yx         0.882257D+00      0.130737D+00      0.145465D+00
   yy         0.195150D+02      0.289183D+01      0.321759D+01
   zx         0.000000D+00      0.000000D+00      0.000000D+00
   zy         0.000000D+00      0.000000D+00      0.000000D+00
   zz         0.438703D+01      0.650091D+00      0.723324D+00

 First dipole hyperpolarizability, Beta (input orientation).
 ||, _|_  parallel and perpendicular components, (z) with respect to z axis,
 vector components x,y,z.  Values do not include the 1/n! factor of 1/2.
 (esu units = statvolt**-1 cm**4 , SI units = C**3 m**3 J**-2)
 Beta(0;0,0):
               (au)            (10**-30 esu)      (10**-50 SI)
   || (z)     0.000000D+00      0.000000D+00      0.000000D+00
   _|_(z)     0.000000D+00      0.000000D+00      0.000000D+00
   x         -0.159884D+03     -0.138128D+01     -0.512647D+00
   y          0.384105D+01      0.331837D-01      0.123158D-01
   z          0.000000D+00      0.000000D+00      0.000000D+00
   ||         0.319861D+02      0.276335D+00      0.102559D+00
   xxx       -0.459158D+02     -0.396677D+00     -0.147223D+00
   xxy        0.762461D+01      0.658707D-01      0.244473D-01
   yxy       -0.530607D+01     -0.458403D-01     -0.170132D-01
   yyy        0.316827D+01      0.273714D-01      0.101586D-01
   xxz        0.000000D+00      0.000000D+00      0.000000D+00
   yxz        0.000000D+00      0.000000D+00      0.000000D+00
   yyz        0.000000D+00      0.000000D+00      0.000000D+00
   zxz       -0.207293D+01     -0.179085D-01     -0.664655D-02
   zyz       -0.951253D+01     -0.821809D-01     -0.305006D-01
   zzz        0.000000D+00      0.000000D+00      0.000000D+00

 ----------------------------------------------------------------------

 Dipole orientation:
     6          0.05451738          1.23497825         -0.20686861
     7         -0.04685471         -1.06139631         -0.17283824
     1          0.01467440          0.33241805          2.07327967

 Electric dipole moment (dipole orientation):
 (Debye = 10**-18 statcoulomb cm , SI units = C m)
                  (au)            (Debye)         (10**-30 SI)
   Tot        0.857947D+00      0.218068D+01      0.727398D+01
   x          0.000000D+00      0.000000D+00      0.000000D+00
   y          0.000000D+00      0.000000D+00      0.000000D+00
   z          0.857947D+00      0.218068D+01      0.727398D+01

 Dipole polarizability, Alpha (dipole orientation).
 (esu units = cm**3 , SI units = C**2 m**2 J**-1)
 Alpha(0;0):
               (au)            (10**-24 esu)      (10**-40 SI)
   iso        0.115945D+02      0.171812D+01      0.191167D+01
   aniso      0.132334D+02      0.196098D+01      0.218189D+01
   xx         0.441658D+01      0.654469D+00      0.728195D+00
   yx         0.669203D+00      0.991657D-01      0.110337D+00
   yy         0.195464D+02      0.289648D+01      0.322277D+01
   zx        -0.219818D-01     -0.325736D-02     -0.362431D-02
   zy        -0.497952D+00     -0.737889D-01     -0.821012D-01
   zz         0.108204D+02      0.160341D+01      0.178404D+01

 First dipole hyperpolarizability, Beta (dipole orientation).
 ||, _|_  parallel and perpendicular components, (z) with respect to z axis,
 vector components x,y,z.  Values do not include the 1/n! factor of 1/2.
 (esu units = statvolt**-1 cm**4 , SI units = C**3 m**3 J**-2)
 Beta(0;0,0):
               (au)            (10**-30 esu)      (10**-50 SI)
   || (z)     0.319796D+02      0.276279D+00      0.102538D+00
   _|_(z)     0.106599D+02      0.920931D-01      0.341794D-01
   x         -0.141734D+00     -0.122447D-02     -0.454450D-03
   y         -0.321069D+01     -0.277379D-01     -0.102946D-01
   z          0.159898D+03      0.138140D+01      0.512692D+00
   ||         0.319861D+02      0.276335D+00      0.102559D+00
   xxx       -0.126674D+01     -0.109436D-01     -0.406162D-02
   xxy       -0.952457D+01     -0.822849D-01     -0.305392D-01
   yxy        0.953801D+00      0.824010D-02      0.305823D-02
   yyy        0.243567D+01      0.210423D-01      0.780964D-02
   xxz        0.165757D+01      0.143201D-01      0.531477D-02
   yxz        0.139961D+00      0.120915D-02      0.448766D-03
   yyz        0.482192D+01      0.416576D-01      0.154608D-01
   zxz        0.265691D+00      0.229536D-02      0.851901D-03
   zyz        0.601867D+01      0.519967D-01      0.192980D-01
   zzz        0.468199D+02      0.404488D+00      0.150122D+00

 ----------------------------------------------------------------------

 Test job not archived.
 1\1\GINC-NODE61\Freq\RAM1\ZDO\C1H1N1\RPEVERATI\21-Oct-2020\0\\#P Freq 
 AM1 5D 7F Integral=UltraFineGrid SCF=(NoSymm,XQC,MaxCyc=120) IOp(1/33=
 1) Geom=Check Guess=Read\\TS search on BH76.\\0,1\C,0.138213001,0.6486
 945506,0.\N,0.0665786274,-0.5657003498,0.\H,-1.0882995495,0.2242931846
 ,0.\\Version=ES64L-G16RevA.03\State=1-A'\HF=0.1887501\RMSD=1.941e-10\R
 MSF=9.823e-06\ZeroPoint=0.0102615\Thermal=0.0130946\Dipole=-0.8571123,
 0.0378367,0.\DipoleDeriv=-0.1571745,0.2336678,0.,0.6322301,0.1523236,0
 .,0.,0.,-0.2297284,-0.2629226,-0.2293571,0.,-0.566691,-0.3117486,0.,0.
 ,0.,-0.1487597,0.4200968,-0.0043108,0.,-0.06554,0.1594246,0.,0.,0.,0.3
 784882\Polar=10.881324,0.8822575,19.5150352,0.,0.,4.3870335\HyperPolar
 =-45.9158066,7.6246126,-5.3060715,3.1682694,0.,0.,0.,-2.0729257,-9.512
 5303,0.\PG=CS [SG(C1H1N1)]\NImag=1\\0.03283950,0.02298733,1.07640548,0
 .,0.,0.00000921,0.10443523,0.02991608,0.,-0.04138866,-0.08379363,-1.15
 518770,0.,0.03492827,1.17215509,0.,0.,-0.00000901,0.,0.,0.00000900,-0.
 13727488,-0.05290320,0.,-0.06304643,0.04886518,0.,0.20032133,0.0608063
 2,0.07878240,0.,-0.06484444,-0.01696736,0.,0.00403808,-0.06181526,0.,0
 .,-0.00000031,0.,0.,0.00000016,0.,0.,0.00000012\\0.00000161,0.00002088
 ,0.,-0.00000132,-0.00002069,0.,-0.00000028,-0.00000020,0.\\\@


 YE HAVE SOWN MUCH, AND BRING IN LITTLE.
 YE EAT, BUT YE HAVE NOT ENOUGH.
 YE DRINK, BUT YE ARE NOT FILLED WITH DRINK.
 YE CLOTHE YOU, BUT THERE IS NONE WARM.
 AND HE THAT EARNETH WAGES EARNETH WAGES TO PUT
 IT INTO A BAG WITH HOLES.
                                     HAGGAI I,6
 Job cpu time:       0 days  0 hours  2 minutes 21.5 seconds.
 Elapsed time:       0 days  0 hours  0 minutes 27.8 seconds.
 File lengths (MBytes):  RWF=      5 Int=      0 D2E=      0 Chk=      2 Scr=      1
 Normal termination of Gaussian 16 at Wed Oct 21 14:18:45 2020.
