 Entering Gaussian System, Link 0=g16
 Input=MN_52_hf2ts_BH76_AM1_SE.in
 Output=MN_52_hf2ts_BH76_AM1_SE.log
 Initial command:
 /udrive/faculty/rpeverati/g16/g16/l1.exe "/udrive/scratch-directories/gaussian09/rpeverati/Gau-25579.inp" -scrdir="/udrive/scratch-directories/gaussian09/rpeverati/"
 Entering Link 1 = /udrive/faculty/rpeverati/g16/g16/l1.exe PID=     25593.
  
 Copyright (c) 1988,1990,1992,1993,1995,1998,2003,2009,2016,
            Gaussian, Inc.  All Rights Reserved.
  
 This is part of the Gaussian(R) 16 program.  It is based on
 the Gaussian(R) 09 system (copyright 2009, Gaussian, Inc.),
 the Gaussian(R) 03 system (copyright 2003, Gaussian, Inc.),
 the Gaussian(R) 98 system (copyright 1998, Gaussian, Inc.),
 the Gaussian(R) 94 system (copyright 1995, Gaussian, Inc.),
 the Gaussian 92(TM) system (copyright 1992, Gaussian, Inc.),
 the Gaussian 90(TM) system (copyright 1990, Gaussian, Inc.),
 the Gaussian 88(TM) system (copyright 1988, Gaussian, Inc.),
 the Gaussian 86(TM) system (copyright 1986, Carnegie Mellon
 University), and the Gaussian 82(TM) system (copyright 1983,
 Carnegie Mellon University). Gaussian is a federally registered
 trademark of Gaussian, Inc.
  
 This software contains proprietary and confidential information,
 including trade secrets, belonging to Gaussian, Inc.
  
 This software is provided under written license and may be
 used, copied, transmitted, or stored only in accord with that
 written license.
  
 The following legend is applicable only to US Government
 contracts under FAR:
  
                    RESTRICTED RIGHTS LEGEND
  
 Use, reproduction and disclosure by the US Government is
 subject to restrictions as set forth in subparagraphs (a)
 and (c) of the Commercial Computer Software - Restricted
 Rights clause in FAR 52.227-19.
  
 Gaussian, Inc.
 340 Quinnipiac St., Bldg. 40, Wallingford CT 06492
  
  
 ---------------------------------------------------------------
 Warning -- This program may not be used in any manner that
 competes with the business of Gaussian, Inc. or will provide
 assistance to any competitor of Gaussian, Inc.  The licensee
 of this program is prohibited from giving any competitor of
 Gaussian, Inc. access to this program.  By using this program,
 the user acknowledges that Gaussian, Inc. is engaged in the
 business of creating and licensing software in the field of
 computational chemistry and represents and warrants to the
 licensee that it is not a competitor of Gaussian, Inc. and that
 it will not use this program in any manner prohibited above.
 ---------------------------------------------------------------
  

 Cite this work as:
 Gaussian 16, Revision A.03,
 M. J. Frisch, G. W. Trucks, H. B. Schlegel, G. E. Scuseria, 
 M. A. Robb, J. R. Cheeseman, G. Scalmani, V. Barone, 
 G. A. Petersson, H. Nakatsuji, X. Li, M. Caricato, A. V. Marenich, 
 J. Bloino, B. G. Janesko, R. Gomperts, B. Mennucci, H. P. Hratchian, 
 J. V. Ortiz, A. F. Izmaylov, J. L. Sonnenberg, D. Williams-Young, 
 F. Ding, F. Lipparini, F. Egidi, J. Goings, B. Peng, A. Petrone, 
 T. Henderson, D. Ranasinghe, V. G. Zakrzewski, J. Gao, N. Rega, 
 G. Zheng, W. Liang, M. Hada, M. Ehara, K. Toyota, R. Fukuda, 
 J. Hasegawa, M. Ishida, T. Nakajima, Y. Honda, O. Kitao, H. Nakai, 
 T. Vreven, K. Throssell, J. A. Montgomery, Jr., J. E. Peralta, 
 F. Ogliaro, M. J. Bearpark, J. J. Heyd, E. N. Brothers, K. N. Kudin, 
 V. N. Staroverov, T. A. Keith, R. Kobayashi, J. Normand, 
 K. Raghavachari, A. P. Rendell, J. C. Burant, S. S. Iyengar, 
 J. Tomasi, M. Cossi, J. M. Millam, M. Klene, C. Adamo, R. Cammi, 
 J. W. Ochterski, R. L. Martin, K. Morokuma, O. Farkas, 
 J. B. Foresman, and D. J. Fox, Gaussian, Inc., Wallingford CT, 2016.
 
 ******************************************
 Gaussian 16:  ES64L-G16RevA.03 25-Dec-2016
                28-Oct-2020 
 ******************************************
 %NoSave
 %nproc=12
 Will use up to   12 processors via shared memory.
 %mem=20GB
 %chk=MN_52_hf2ts_BH76_AM1_SE
 ----------------------------------------------------------------------
 #P Opt(TS,MaxCyc=50,NoEigenTest,MaxStep=10,AddRedundant) AM1 5D 7F Int
 egral=UltraFineGrid SCF=(NoSymm,XQC,MaxCyc=120) IOp(1/33=1)
 ----------------------------------------------------------------------
 1/5=1,6=50,8=10,11=1,18=120,26=1,33=1,38=1/1,3;
 2/9=110,12=2,17=6,18=5,40=1/2;
 3/5=2,8=11,25=1,41=700000,71=1,75=-5/1,2,3;
 4/9=2,35=1/1;
 5/5=2,7=120,8=3,13=1,35=1,38=5/2,8;
 6/7=2,8=2,9=2,10=2,28=1/1;
 7//1,2,3,16;
 1/5=1,6=50,8=10,11=1,18=20,26=1,33=1/3(2);
 2/9=110/2;
 99//99;
 2/9=110/2;
 3/5=2,8=11,25=1,41=700000,71=1,75=-5,135=20/1,2,3;
 4/5=5,9=2,16=3,35=1/1;
 5/5=2,7=120,8=3,13=1,35=1,38=5/2,8;
 7//1,2,3,16;
 1/5=1,6=50,8=10,11=1,18=20,26=1,33=1/3(-5);
 2/9=110/2;
 6/7=2,8=2,9=2,10=2,19=2,28=1/1;
 99/9=1/99;
 Leave Link    1 at Wed Oct 28 14:20:51 2020, MaxMem=  2684354560 cpu:               2.2 elap:               0.2
 (Enter /udrive/faculty/rpeverati/g16/g16/l101.exe)
 ONIOM results not found on unit 2.
 ------------------
 TS search on BH76.
 ------------------
 TstMul:  ICh=     0
 TstMul:  Mul=     2
 TstMul:  ICh=     0
 TstMul:  Mul=     2
 Symbolic Z-matrix:
 Charge =  0 Multiplicity = 2
 H                     0.        0.       -2.23128 
 F                     0.        0.       -0.61622 
 F                     0.        0.        0.86414 
 
 RdStrC is calling ZToCFu for IStruc=1 NZ=     3.
 PrtBox:  NBox=     1 Levels=  1 BoxLen=    8.00 SMaxX=        5.85
          Shift=            0.000000            0.000000            4.216500
 Box      1 Number                   0 centers from      1 to      3:
 After GenITR:
 ITRead=  0  0  0
 MicOpt= -1 -1 -1
 Add virtual bond connecting atoms F2         and H1         Dist= 3.05D+00.
 The following ModRedundant input section has been read:
 B       1       2 D                                                           
 B       2       3 D                                                           
 
 ITRead=  0  0  0
 MicOpt= -1 -1 -1
 NAtoms=      3 NQM=        3 NQMF=       0 NMMI=      0 NMMIF=      0
                NMic=       0 NMicF=      0.
                    Isotopes and Nuclear Properties:
 (Nuclear quadrupole moments (NQMom) in fm**2, nuclear magnetic moments (NMagM)
  in nuclear magnetons)

  Atom         1           2           3
 IAtWgt=           1          19          19
 AtmWgt=   1.0078250  18.9984033  18.9984033
 NucSpn=           1           1           1
 AtZEff=   0.0000000   0.0000000   0.0000000
 NQMom=    0.0000000   0.0000000   0.0000000
 NMagM=    2.7928460   2.6288670   2.6288670
 AtZNuc=   1.0000000   9.0000000   9.0000000
 No MM parameters found.
 Leave Link  101 at Wed Oct 28 14:20:51 2020, MaxMem=  2684354560 cpu:               6.3 elap:               0.6
 (Enter /udrive/faculty/rpeverati/g16/g16/l103.exe)

 GradGradGradGradGradGradGradGradGradGradGradGradGradGradGradGradGradGrad
 Berny optimization.
 Optmz: redundant internal coordinate code flag= 1
 Initialization pass.
                           ----------------------------
                           !    Initial Parameters    !
                           ! (Angstroms and Degrees)  !
 --------------------------                            --------------------------
 ! Name  Definition              Value          Derivative Info.                !
 --------------------------------------------------------------------------------
 ! R1    R(1,2)                  1.6151         calc D2E/DXDY, step=    0.0026  !
 ! R2    R(2,3)                  1.4804         calc D2E/DXDY, step=    0.0026  !
 ! A1    L(1,2,3,-1,-1)        180.0            estimate D2E/DX2                !
 ! A2    L(1,2,3,-2,-2)        180.0            estimate D2E/DX2                !
 --------------------------------------------------------------------------------
 Maximum allowed force set to 1.00D+20.
 Trust Radius=1.00D-01 FncErr=1.00D-07 GrdErr=1.00D-07 EigMax=2.50D+02 EigMin=1.00D-04
 Number of steps in this run=     50 maximum allowed number of steps=    100.
 Search for a saddle point of order  1.
 GradGradGradGradGradGradGradGradGradGradGradGradGradGradGradGradGradGrad

 Leave Link  103 at Wed Oct 28 14:20:52 2020, MaxMem=  2684354560 cpu:               0.2 elap:               0.1
 (Enter /udrive/faculty/rpeverati/g16/g16/l202.exe)
                          Input orientation:                          
 ---------------------------------------------------------------------
 Center     Atomic      Atomic             Coordinates (Angstroms)
 Number     Number       Type             X           Y           Z
 ---------------------------------------------------------------------
      1          1           0        0.000000    0.000000   -2.231276
      2          9           0        0.000000    0.000000   -0.616216
      3          9           0        0.000000    0.000000    0.864136
 ---------------------------------------------------------------------
                    Distance matrix (angstroms):
                    1          2          3
     1  H    0.000000
     2  F    1.615059   0.000000
     3  F    3.095412   1.480352   0.000000
 Stoichiometry    F2H(2)
 Framework group  C*V[C*(HFF)]
 Deg. of freedom     2
 Full point group                 C*V     NOp   4
 Largest Abelian subgroup         C2V     NOp   4
 Largest concise Abelian subgroup C1      NOp   1
                         Standard orientation:                         
 ---------------------------------------------------------------------
 Center     Atomic      Atomic             Coordinates (Angstroms)
 Number     Number       Type             X           Y           Z
 ---------------------------------------------------------------------
      1          1           0        0.000000    0.000000   -2.231276
      2          9           0        0.000000    0.000000   -0.616216
      3          9           0        0.000000    0.000000    0.864136
 ---------------------------------------------------------------------
 Rotational constants (GHZ):           0.0000000          19.2429738          19.2429738
 Leave Link  202 at Wed Oct 28 14:20:52 2020, MaxMem=  2684354560 cpu:               0.2 elap:               0.1
 (Enter /udrive/faculty/rpeverati/g16/g16/l301.exe)
 Standard basis: VSTO-6G (5D, 7F)
 Ernie: Thresh=  0.10000D-02 Tol=  0.10000D-05 Strict=F.
  NNHCO=     0 NNPyr=     0 NCTC=     0               EPep=         0.000000000
    EC=        18.283449333  ECS=         0.027649117   EG=         0.156715297
   EHC=         0.000000000  EAt=       -35.866516601  AtH=         0.143236084
 EPDDG=         0.000000000  ECC=        18.467813746 EAtT=        36.009752685
 There are     5 symmetry adapted cartesian basis functions of A1  symmetry.
 There are     0 symmetry adapted cartesian basis functions of A2  symmetry.
 There are     2 symmetry adapted cartesian basis functions of B1  symmetry.
 There are     2 symmetry adapted cartesian basis functions of B2  symmetry.
 There are     5 symmetry adapted basis functions of A1  symmetry.
 There are     0 symmetry adapted basis functions of A2  symmetry.
 There are     2 symmetry adapted basis functions of B1  symmetry.
 There are     2 symmetry adapted basis functions of B2  symmetry.
     9 basis functions,    54 primitive gaussians,     9 cartesian basis functions
     8 alpha electrons        7 beta electrons
       nuclear repulsion energy        54.4775664315 Hartrees.
 IExCor=    0 DFT=F Ex=HF Corr=None ExCW=0 ScaHFX=  1.000000
 ScaDFX=  1.000000  1.000000  1.000000  1.000000 ScalE2=  1.000000  1.000000
 IRadAn=      5 IRanWt=     -1 IRanGd=            0 ICorTp=0 IEmpDi=  4
 Integral buffers will be    131072 words long.
 Regular integral format.
 Two-electron integral symmetry is turned off.
 Leave Link  301 at Wed Oct 28 14:20:52 2020, MaxMem=  2684354560 cpu:               2.8 elap:               0.3
 (Enter /udrive/faculty/rpeverati/g16/g16/l302.exe)
 Do NDO integrals.
 NPDir=0 NMtPBC=     1 NCelOv=     1 NCel=       1 NClECP=     1 NCelD=      1
         NCelK=      1 NCelE2=     1 NClLst=     1 CellRange=     0.0.
 One-electron integrals computed using PRISM.
 NBasis=     9 RedAO= T EigKep=  1.00D+00  NBF=     5     0     2     2
 NBsUse=     9 1.00D-06 EigRej= -1.00D+00 NBFU=     5     0     2     2
 Leave Link  302 at Wed Oct 28 14:20:53 2020, MaxMem=  2684354560 cpu:              11.6 elap:               1.1
 (Enter /udrive/faculty/rpeverati/g16/g16/l303.exe)
 DipDrv:  MaxL=1.
 Leave Link  303 at Wed Oct 28 14:20:54 2020, MaxMem=  2684354560 cpu:               3.9 elap:               0.4
 (Enter /udrive/faculty/rpeverati/g16/g16/l401.exe)
 SCF N**3 symmetry information disabled.
 Simple Huckel Guess.
 JPrj=0 DoOrth=F DoCkMO=F.
 Initial guess orbital symmetries:
 Alpha Orbitals:
       Occupied  (SG) (SG) (SG) (PI) (PI) (PI) (PI) (SG)
       Virtual   (SG)
 Beta  Orbitals:
       Occupied  (SG) (SG) (SG) (PI) (PI) (PI) (PI)
       Virtual   (SG) (SG)
 The electronic state of the initial guess is 2-SG.
 Initial guess <Sx>= 0.0000 <Sy>= 0.0000 <Sz>= 0.5000 <S**2>= 0.7500 S= 0.5000
 Leave Link  401 at Wed Oct 28 14:20:54 2020, MaxMem=  2684354560 cpu:               2.2 elap:               0.2
 (Enter /udrive/faculty/rpeverati/g16/g16/l502.exe)
 Keep J ints in memory in canonical form, NReq=859290.
 FoFCou: FMM=F IPFlag=           0 FMFlag=           0 FMFlg1=           0
         NFxFlg=           0 DoJE=F BraDBF=F KetDBF=F FulRan=T
         wScrn=  0.000000 ICntrl=       600 IOpCl=  2 I1Cent=           0 NGrid=           0
         NMat0=    1 NMatS0=     21 NMatT0=    0 NMatD0=    1 NMtDS0=    0 NMtDT0=    0
 Symmetry not used in FoFCou.
 Two-electron integral symmetry not used.
 UHF open shell SCF:
 Using DIIS extrapolation, IDIIS=  1040.
 Overlap will be assumed to be unity.
 NGot=  2684354560 LenX=  2684293973 LenY=  2684293091
 Requested convergence on RMS density matrix=1.00D-08 within 120 cycles.
 Requested convergence on MAX density matrix=1.00D-06.
 Requested convergence on             energy=1.00D-06.
 No special actions if energy rises.

 Cycle   1  Pass 1  IDiag  1:
 E= 0.163791855503519    
 DIIS: error= 8.81D-02 at cycle   1 NSaved=   1.
 NSaved= 1 IEnMin= 1 EnMin= 0.163791855503519     IErMin= 1 ErrMin= 8.81D-02
 ErrMax= 8.81D-02  0.00D+00 EMaxC= 1.00D-01 BMatC= 2.14D-01 BMatP= 2.14D-01
 IDIUse=3 WtCom= 1.19D-01 WtEn= 8.81D-01
 Coeff-Com:  0.100D+01
 Coeff-En:   0.100D+01
 Coeff:      0.100D+01
 GapD=    2.000 DampG=2.000 DampE=0.500 DampFc=1.0000 IDamp=-1.
 RMSDP=2.92D-02 MaxDP=1.15D-01              OVMax= 0.00D+00

 Cycle   2  Pass 1  IDiag  1:
 E= 0.641307003027904E-01 Delta-E=       -0.099661155201 Rises=F Damp=F
 DIIS: error= 1.95D-02 at cycle   2 NSaved=   2.
 NSaved= 2 IEnMin= 2 EnMin= 0.641307003027904E-01 IErMin= 2 ErrMin= 1.95D-02
 ErrMax= 1.95D-02  0.00D+00 EMaxC= 1.00D-01 BMatC= 1.40D-02 BMatP= 2.14D-01
 IDIUse=3 WtCom= 8.05D-01 WtEn= 1.95D-01
 Coeff-Com: -0.236D+00 0.124D+01
 Coeff-En:   0.000D+00 0.100D+01
 Coeff:     -0.190D+00 0.119D+01
 RMSDP=1.55D-02 MaxDP=1.07D-01 DE=-9.97D-02 OVMax= 0.00D+00

 Cycle   3  Pass 1  IDiag  3:
 E= 0.497325527061818E-01 Delta-E=       -0.014398147597 Rises=F Damp=F
 DIIS: error= 1.19D-02 at cycle   3 NSaved=   3.
 NSaved= 3 IEnMin= 3 EnMin= 0.497325527061818E-01 IErMin= 3 ErrMin= 1.19D-02
 ErrMax= 1.19D-02  0.00D+00 EMaxC= 1.00D-01 BMatC= 2.39D-03 BMatP= 1.40D-02
 IDIUse=3 WtCom= 8.81D-01 WtEn= 1.19D-01
 Coeff-Com:  0.232D+00-0.148D+01 0.225D+01
 Coeff-En:   0.000D+00 0.000D+00 0.100D+01
 Coeff:      0.204D+00-0.130D+01 0.210D+01
 Gap=     0.423 Goal=   None    Shift=    0.000
 Gap=     0.493 Goal=   None    Shift=    0.000
 RMSDP=1.48D-02 MaxDP=9.06D-02 DE=-1.44D-02 OVMax= 1.12D-01

 Cycle   4  Pass 1  IDiag  3:
 E= 0.446068108196016E-01 Delta-E=       -0.005125741887 Rises=F Damp=F
 DIIS: error= 2.09D-03 at cycle   4 NSaved=   4.
 NSaved= 4 IEnMin= 4 EnMin= 0.446068108196016E-01 IErMin= 4 ErrMin= 2.09D-03
 ErrMax= 2.09D-03  0.00D+00 EMaxC= 1.00D-01 BMatC= 6.18D-05 BMatP= 2.39D-03
 IDIUse=3 WtCom= 9.79D-01 WtEn= 2.09D-02
 Coeff-Com: -0.189D-01 0.123D+00-0.315D+00 0.121D+01
 Coeff-En:   0.000D+00 0.000D+00 0.000D+00 0.100D+01
 Coeff:     -0.185D-01 0.121D+00-0.308D+00 0.121D+01
 Gap=     0.432 Goal=   None    Shift=    0.000
 Gap=     0.498 Goal=   None    Shift=    0.000
 RMSDP=2.31D-03 MaxDP=1.28D-02 DE=-5.13D-03 OVMax= 1.91D-02

 Cycle   5  Pass 1  IDiag  3:
 E= 0.444727821328286E-01 Delta-E=       -0.000134028687 Rises=F Damp=F
 DIIS: error= 6.11D-04 at cycle   5 NSaved=   5.
 NSaved= 5 IEnMin= 5 EnMin= 0.444727821328286E-01 IErMin= 5 ErrMin= 6.11D-04
 ErrMax= 6.11D-04  0.00D+00 EMaxC= 1.00D-01 BMatC= 7.42D-06 BMatP= 6.18D-05
 IDIUse=3 WtCom= 9.94D-01 WtEn= 6.11D-03
 Coeff-Com:  0.538D-02-0.323D-01 0.100D+00-0.570D+00 0.150D+01
 Coeff-En:   0.000D+00 0.000D+00 0.000D+00 0.000D+00 0.100D+01
 Coeff:      0.534D-02-0.321D-01 0.996D-01-0.566D+00 0.149D+01
 Gap=     0.431 Goal=   None    Shift=    0.000
 Gap=     0.499 Goal=   None    Shift=    0.000
 RMSDP=6.42D-04 MaxDP=3.40D-03 DE=-1.34D-04 OVMax= 5.20D-03

 Cycle   6  Pass 1  IDiag  3:
 E= 0.444573610788339E-01 Delta-E=       -0.000015421054 Rises=F Damp=F
 DIIS: error= 4.34D-04 at cycle   6 NSaved=   6.
 NSaved= 6 IEnMin= 6 EnMin= 0.444573610788339E-01 IErMin= 6 ErrMin= 4.34D-04
 ErrMax= 4.34D-04  0.00D+00 EMaxC= 1.00D-01 BMatC= 2.72D-06 BMatP= 7.42D-06
 IDIUse=3 WtCom= 9.96D-01 WtEn= 4.34D-03
 Coeff-Com: -0.132D-01 0.813D-01-0.199D+00 0.885D+00-0.253D+01 0.277D+01
 Coeff-En:   0.000D+00 0.000D+00 0.000D+00 0.000D+00 0.000D+00 0.100D+01
 Coeff:     -0.132D-01 0.810D-01-0.198D+00 0.881D+00-0.251D+01 0.276D+01
 Gap=     0.431 Goal=   None    Shift=    0.000
 Gap=     0.500 Goal=   None    Shift=    0.000
 RMSDP=6.30D-04 MaxDP=3.67D-03 DE=-1.54D-05 OVMax= 3.91D-03

 Cycle   7  Pass 1  IDiag  3:
 E= 0.444485801004220E-01 Delta-E=       -0.000008780978 Rises=F Damp=F
 DIIS: error= 2.15D-04 at cycle   7 NSaved=   7.
 NSaved= 7 IEnMin= 7 EnMin= 0.444485801004220E-01 IErMin= 7 ErrMin= 2.15D-04
 ErrMax= 2.15D-04  0.00D+00 EMaxC= 1.00D-01 BMatC= 6.07D-07 BMatP= 2.72D-06
 IDIUse=3 WtCom= 9.98D-01 WtEn= 2.15D-03
 Coeff-Com: -0.254D-02 0.169D-01-0.209D-01-0.915D-02 0.272D+00-0.112D+01
 Coeff-Com:  0.187D+01
 Coeff-En:   0.000D+00 0.000D+00 0.000D+00 0.000D+00 0.000D+00 0.000D+00
 Coeff-En:   0.100D+01
 Coeff:     -0.253D-02 0.169D-01-0.208D-01-0.913D-02 0.272D+00-0.112D+01
 Coeff:      0.187D+01
 Gap=     0.431 Goal=   None    Shift=    0.000
 Gap=     0.500 Goal=   None    Shift=    0.000
 RMSDP=4.10D-04 MaxDP=2.43D-03 DE=-8.78D-06 OVMax= 2.02D-03

 Cycle   8  Pass 1  IDiag  3:
 E= 0.444465652305723E-01 Delta-E=       -0.000002014870 Rises=F Damp=F
 DIIS: error= 5.06D-05 at cycle   8 NSaved=   8.
 NSaved= 8 IEnMin= 8 EnMin= 0.444465652305723E-01 IErMin= 8 ErrMin= 5.06D-05
 ErrMax= 5.06D-05  0.00D+00 EMaxC= 1.00D-01 BMatC= 4.87D-08 BMatP= 6.07D-07
 IDIUse=1 WtCom= 1.00D+00 WtEn= 0.00D+00
 Coeff-Com: -0.188D-02 0.102D-01-0.404D-01 0.219D+00-0.821D+00 0.184D+01
 Coeff-Com: -0.257D+01 0.237D+01
 Coeff:     -0.188D-02 0.102D-01-0.404D-01 0.219D+00-0.821D+00 0.184D+01
 Coeff:     -0.257D+01 0.237D+01
 Gap=     0.431 Goal=   None    Shift=    0.000
 Gap=     0.500 Goal=   None    Shift=    0.000
 RMSDP=6.51D-05 MaxDP=4.39D-04 DE=-2.01D-06 OVMax= 4.69D-04

 Cycle   9  Pass 1  IDiag  3:
 E= 0.444465164375600E-01 Delta-E=       -0.000000048793 Rises=F Damp=F
 DIIS: error= 1.21D-05 at cycle   9 NSaved=   9.
 NSaved= 9 IEnMin= 9 EnMin= 0.444465164375600E-01 IErMin= 9 ErrMin= 1.21D-05
 ErrMax= 1.21D-05  0.00D+00 EMaxC= 1.00D-01 BMatC= 4.37D-09 BMatP= 4.87D-08
 IDIUse=1 WtCom= 1.00D+00 WtEn= 0.00D+00
 Coeff-Com: -0.295D-04 0.201D-03-0.187D-02 0.255D-01-0.773D-01 0.112D+00
 Coeff-Com: -0.714D-01 0.996D-02 0.100D+01
 Coeff:     -0.295D-04 0.201D-03-0.187D-02 0.255D-01-0.773D-01 0.112D+00
 Coeff:     -0.714D-01 0.996D-02 0.100D+01
 Gap=     0.431 Goal=   None    Shift=    0.000
 Gap=     0.500 Goal=   None    Shift=    0.000
 RMSDP=2.62D-05 MaxDP=1.39D-04 DE=-4.88D-08 OVMax= 2.13D-04

 Cycle  10  Pass 1  IDiag  3:
 E= 0.444465068505338E-01 Delta-E=       -0.000000009587 Rises=F Damp=F
 DIIS: error= 1.68D-06 at cycle  10 NSaved=  10.
 NSaved=10 IEnMin=10 EnMin= 0.444465068505338E-01 IErMin=10 ErrMin= 1.68D-06
 ErrMax= 1.68D-06  0.00D+00 EMaxC= 1.00D-01 BMatC= 8.65D-11 BMatP= 4.37D-09
 IDIUse=1 WtCom= 1.00D+00 WtEn= 0.00D+00
 Coeff-Com:  0.602D-05-0.609D-04 0.528D-03-0.754D-02 0.224D-01-0.208D-01
 Coeff-Com: -0.829D-02 0.571D-01-0.309D+00 0.127D+01
 Coeff:      0.602D-05-0.609D-04 0.528D-03-0.754D-02 0.224D-01-0.208D-01
 Coeff:     -0.829D-02 0.571D-01-0.309D+00 0.127D+01
 Gap=     0.431 Goal=   None    Shift=    0.000
 Gap=     0.500 Goal=   None    Shift=    0.000
 RMSDP=1.89D-06 MaxDP=1.09D-05 DE=-9.59D-09 OVMax= 1.11D-05

 Cycle  11  Pass 1  IDiag  3:
 E= 0.444465067846238E-01 Delta-E=       -0.000000000066 Rises=F Damp=F
 DIIS: error= 2.13D-07 at cycle  11 NSaved=  11.
 NSaved=11 IEnMin=11 EnMin= 0.444465067846238E-01 IErMin=11 ErrMin= 2.13D-07
 ErrMax= 2.13D-07  0.00D+00 EMaxC= 1.00D-01 BMatC= 1.88D-12 BMatP= 8.65D-11
 IDIUse=1 WtCom= 1.00D+00 WtEn= 0.00D+00
 Coeff-Com: -0.377D-05 0.306D-04-0.145D-03 0.178D-02-0.553D-02 0.565D-02
 Coeff-Com:  0.790D-03-0.153D-01 0.923D-01-0.405D+00 0.133D+01
 Coeff:     -0.377D-05 0.306D-04-0.145D-03 0.178D-02-0.553D-02 0.565D-02
 Coeff:      0.790D-03-0.153D-01 0.923D-01-0.405D+00 0.133D+01
 Gap=     0.431 Goal=   None    Shift=    0.000
 Gap=     0.500 Goal=   None    Shift=    0.000
 RMSDP=5.18D-07 MaxDP=3.09D-06 DE=-6.59D-11 OVMax= 3.53D-06

 Cycle  12  Pass 1  IDiag  3:
 E= 0.444465067818385E-01 Delta-E=       -0.000000000003 Rises=F Damp=F
 DIIS: error= 2.92D-08 at cycle  12 NSaved=  12.
 NSaved=12 IEnMin=12 EnMin= 0.444465067818385E-01 IErMin=12 ErrMin= 2.92D-08
 ErrMax= 2.92D-08  0.00D+00 EMaxC= 1.00D-01 BMatC= 3.27D-14 BMatP= 1.88D-12
 IDIUse=1 WtCom= 1.00D+00 WtEn= 0.00D+00
 Coeff-Com:  0.318D-07-0.104D-05-0.178D-05-0.194D-04 0.154D-04 0.197D-03
 Coeff-Com: -0.597D-03 0.895D-03-0.721D-02 0.223D-01-0.486D-01 0.103D+01
 Coeff:      0.318D-07-0.104D-05-0.178D-05-0.194D-04 0.154D-04 0.197D-03
 Coeff:     -0.597D-03 0.895D-03-0.721D-02 0.223D-01-0.486D-01 0.103D+01
 Gap=     0.431 Goal=   None    Shift=    0.000
 Gap=     0.500 Goal=   None    Shift=    0.000
 RMSDP=5.29D-08 MaxDP=3.14D-07 DE=-2.79D-12 OVMax= 4.27D-07

 Cycle  13  Pass 1  IDiag  3:
 E= 0.444465067817461E-01 Delta-E=       -0.000000000000 Rises=F Damp=F
 DIIS: error= 4.77D-09 at cycle  13 NSaved=  13.
 NSaved=13 IEnMin=13 EnMin= 0.444465067817461E-01 IErMin=13 ErrMin= 4.77D-09
 ErrMax= 4.77D-09  0.00D+00 EMaxC= 1.00D-01 BMatC= 6.25D-16 BMatP= 3.27D-14
 IDIUse=1 WtCom= 1.00D+00 WtEn= 0.00D+00
 Coeff-Com:  0.252D-07-0.217D-06 0.938D-06-0.114D-04 0.359D-04-0.222D-04
 Coeff-Com: -0.435D-04 0.228D-03-0.805D-03 0.270D-02-0.138D-01-0.292D-02
 Coeff-Com:  0.101D+01
 Coeff:      0.252D-07-0.217D-06 0.938D-06-0.114D-04 0.359D-04-0.222D-04
 Coeff:     -0.435D-04 0.228D-03-0.805D-03 0.270D-02-0.138D-01-0.292D-02
 Coeff:      0.101D+01
 Gap=     0.431 Goal=   None    Shift=    0.000
 Gap=     0.500 Goal=   None    Shift=    0.000
 RMSDP=6.84D-09 MaxDP=3.41D-08 DE=-9.24D-14 OVMax= 4.25D-08

 Cycle  14  Pass 2  IDiag  1:
 SCF Done:  E(UAM1) =  0.444465067817E-01 A.U. after   14 cycles
            NFock= 13  Conv=0.68D-08     -V/T= 1.0007
 <Sx>= 0.0000 <Sy>= 0.0000 <Sz>= 0.5000 <S**2>= 0.7987 S= 0.5241
 <L.S>= 0.000000000000E+00
 KE=-5.963869618946D+01 PE=-3.616623614633D+01 EE= 4.137181241109D+01
 Annihilation of the first spin contaminant:
 S**2 before annihilation     0.7987,   after     0.7500
 Leave Link  502 at Wed Oct 28 14:20:54 2020, MaxMem=  2684354560 cpu:               2.4 elap:               0.3
 (Enter /udrive/faculty/rpeverati/g16/g16/l508.exe)
 QCSCF skips out because SCF is already converged.
 Leave Link  508 at Wed Oct 28 14:20:54 2020, MaxMem=  2684354560 cpu:               0.1 elap:               0.1
 (Enter /udrive/faculty/rpeverati/g16/g16/l601.exe)
 Copying SCF densities to generalized density rwf, IOpCl= 1 IROHF=0.

 **********************************************************************

            Population analysis using the SCF density.

 **********************************************************************

 Orbital symmetries:
 Alpha Orbitals:
       Occupied  (SG) (SG) (SG) (PI) (PI) (PI) (PI) (SG)
       Virtual   (SG)
 Beta  Orbitals:
       Occupied  (SG) (SG) (SG) (PI) (PI) (PI) (PI)
       Virtual   (SG) (SG)
 The electronic state is 2-SG.
 Alpha  occ. eigenvalues --   -1.74126  -1.64636  -0.70748  -0.61425  -0.61425
 Alpha  occ. eigenvalues --   -0.51574  -0.51574  -0.41604
 Alpha virt. eigenvalues --    0.01390
  Beta  occ. eigenvalues --   -1.73642  -1.62447  -0.68209  -0.61224  -0.61224
  Beta  occ. eigenvalues --   -0.51137  -0.51137
  Beta virt. eigenvalues --   -0.02487   0.08678
          Condensed to atoms (all electrons):
               1          2          3
     1  H    0.926828   0.000000   0.000000
     2  F    0.000000   7.031673   0.000000
     3  F    0.000000   0.000000   7.041499
          Atomic-Atomic Spin Densities.
               1          2          3
     1  H    0.862515   0.000000   0.000000
     2  F    0.000000  -0.189906   0.000000
     3  F    0.000000   0.000000   0.327391
 Mulliken charges and spin densities:
               1          2
     1  H    0.073172   0.862515
     2  F   -0.031673  -0.189906
     3  F   -0.041499   0.327391
 Sum of Mulliken charges =  -0.00000   1.00000
 Mulliken charges and spin densities with hydrogens summed into heavy atoms:
               1          2
     2  F    0.041499   0.672609
     3  F   -0.041499   0.327391
 Charge=             -0.0000 electrons
 Dipole moment (field-independent basis, Debye):
    X=              0.0000    Y=             -0.0000    Z=             -0.9182  Tot=              0.9182
 N-N= 5.447756643148D+01 E-N=-3.616623619795D+01  KE=-5.963869618946D+01
 Leave Link  601 at Wed Oct 28 14:20:54 2020, MaxMem=  2684354560 cpu:               2.0 elap:               0.2
 (Enter /udrive/faculty/rpeverati/g16/g16/l701.exe)
 ... and contract with generalized density number  0.
 Compute integral first derivatives.
 Leave Link  701 at Wed Oct 28 14:20:55 2020, MaxMem=  2684354560 cpu:               1.2 elap:               0.2
 (Enter /udrive/faculty/rpeverati/g16/g16/l702.exe)
 L702 exits ... SP integral derivatives will be done elsewhere.
 Leave Link  702 at Wed Oct 28 14:20:55 2020, MaxMem=  2684354560 cpu:               0.3 elap:               0.1
 (Enter /udrive/faculty/rpeverati/g16/g16/l703.exe)
 Integral derivatives from FoFJK, PRISM(SPDF).
 Compute integral first derivatives, UseDBF=F ICtDFT=           0.
 Calling FoFJK, ICntrl=      2127 FMM=F ISym2X=1 I1Cent= 0 IOpClX= 1 NMat=1 NMatS=1 NMatT=0.
 FoFJK:  IHMeth= 8 ICntrl=    2127 DoSepK=F KAlg= 0 I1Cent=           0 FoldK=F
 IRaf=         0 NMat=       1 IRICut=       1 DoRegI=T DoRafI=F ISym2E= 1 IDoP0=3 IntGTp=3.
 FoFCou: FMM=F IPFlag=           0 FMFlag=      100000 FMFlg1=         800
         NFxFlg=           0 DoJE=F BraDBF=F KetDBF=F FulRan=T
         wScrn=  0.000000 ICntrl=      2127 IOpCl=  1 I1Cent=           0 NGrid=           0
         NMat0=    1 NMatS0=      1 NMatT0=    0 NMatD0=    1 NMtDS0=    0 NMtDT0=    0
 Petite list used in FoFCou.
 Leave Link  703 at Wed Oct 28 14:20:55 2020, MaxMem=  2684354560 cpu:               0.4 elap:               0.1
 (Enter /udrive/faculty/rpeverati/g16/g16/l716.exe)
 Dipole        = 2.46401450D-16-2.39788678D-16-3.61264203D-01
 ***** Axes restored to original set *****
 -------------------------------------------------------------------
 Center     Atomic                   Forces (Hartrees/Bohr)
 Number     Number              X              Y              Z
 -------------------------------------------------------------------
      1        1           0.000000000    0.000000000    0.011153574
      2        9          -0.000000000   -0.000000000    0.004742359
      3        9           0.000000000    0.000000000   -0.015895933
 -------------------------------------------------------------------
 Cartesian Forces:  Max     0.015895933 RMS     0.006663106
 Leave Link  716 at Wed Oct 28 14:20:55 2020, MaxMem=  2684354560 cpu:               0.4 elap:               0.1
 (Enter /udrive/faculty/rpeverati/g16/g16/l103.exe)

 GradGradGradGradGradGradGradGradGradGradGradGradGradGradGradGradGradGrad
 Berny optimization.
 Optmz: redundant internal coordinate code flag= 1
 FormGI is forming the generalized inverse of G from B-inverse, IUseBI=4.
 Internal  Forces:  Max     0.015895933 RMS     0.009709311
 Numerically estimating second derivatives.
 Iteration  1 RMS(Cart)=  0.00204124 RMS(Int)=  0.00000000
 Iteration  2 RMS(Cart)=  0.00000000 RMS(Int)=  0.00000001
 Largest change from initial coordinates is atom    1       0.001 Angstoms.
 GradGradGradGradGradGradGradGradGradGradGradGradGradGradGradGradGradGrad

 Leave Link  103 at Wed Oct 28 14:20:55 2020, MaxMem=  2684354560 cpu:               0.4 elap:               0.1
 (Enter /udrive/faculty/rpeverati/g16/g16/l202.exe)
                          Input orientation:                          
 ---------------------------------------------------------------------
 Center     Atomic      Atomic             Coordinates (Angstroms)
 Number     Number       Type             X           Y           Z
 ---------------------------------------------------------------------
      1          1           0        0.000000    0.000000   -2.229512
      2          9           0        0.000000    0.000000   -0.617098
      3          9           0        0.000000    0.000000    0.863254
 ---------------------------------------------------------------------
                    Distance matrix (angstroms):
                    1          2          3
     1  H    0.000000
     2  F    1.612414   0.000000
     3  F    3.092766   1.480352   0.000000
 Stoichiometry    F2H(2)
 Framework group  C*V[C*(HFF)]
 Deg. of freedom     2
 Full point group                 C*V     NOp   4
 RotChk:  IX=0 Diff= 0.00D+00
 Largest Abelian subgroup         C2V     NOp   4
 Largest concise Abelian subgroup C1      NOp   1
                         Standard orientation:                         
 ---------------------------------------------------------------------
 Center     Atomic      Atomic             Coordinates (Angstroms)
 Number     Number       Type             X           Y           Z
 ---------------------------------------------------------------------
      1          1           0        0.000000    0.000000   -2.228769
      2          9           0        0.000000    0.000000   -0.616356
      3          9           0        0.000000    0.000000    0.863997
 ---------------------------------------------------------------------
 Rotational constants (GHZ):           0.0000000          19.2519385          19.2519385
 Leave Link  202 at Wed Oct 28 14:20:55 2020, MaxMem=  2684354560 cpu:               0.2 elap:               0.1
 (Enter /udrive/faculty/rpeverati/g16/g16/l301.exe)
 Standard basis: VSTO-6G (5D, 7F)
 Ernie: Thresh=  0.10000D-02 Tol=  0.10000D-05 Strict=F.
  NNHCO=     0 NNPyr=     0 NCTC=     0               EPep=         0.000000000
    EC=        18.286673704  ECS=         0.027819587   EG=         0.156899797
   EHC=         0.000000000  EAt=       -35.866516601  AtH=         0.143236084
 EPDDG=         0.000000000  ECC=        18.471393088 EAtT=        36.009752685
 There are     5 symmetry adapted cartesian basis functions of A1  symmetry.
 There are     0 symmetry adapted cartesian basis functions of A2  symmetry.
 There are     2 symmetry adapted cartesian basis functions of B1  symmetry.
 There are     2 symmetry adapted cartesian basis functions of B2  symmetry.
 There are     5 symmetry adapted basis functions of A1  symmetry.
 There are     0 symmetry adapted basis functions of A2  symmetry.
 There are     2 symmetry adapted basis functions of B1  symmetry.
 There are     2 symmetry adapted basis functions of B2  symmetry.
     9 basis functions,    54 primitive gaussians,     9 cartesian basis functions
     8 alpha electrons        7 beta electrons
       nuclear repulsion energy        54.4811457732 Hartrees.
 IExCor=    0 DFT=F Ex=HF Corr=None ExCW=0 ScaHFX=  1.000000
 ScaDFX=  1.000000  1.000000  1.000000  1.000000 ScalE2=  1.000000  1.000000
 IRadAn=      5 IRanWt=     -1 IRanGd=            0 ICorTp=0 IEmpDi=  4
 Integral buffers will be    131072 words long.
 Regular integral format.
 Two-electron integral symmetry is turned off.
 Leave Link  301 at Wed Oct 28 14:20:55 2020, MaxMem=  2684354560 cpu:               0.9 elap:               0.1
 (Enter /udrive/faculty/rpeverati/g16/g16/l302.exe)
 Do NDO integrals.
 NPDir=0 NMtPBC=     1 NCelOv=     1 NCel=       1 NClECP=     1 NCelD=      1
         NCelK=      1 NCelE2=     1 NClLst=     1 CellRange=     0.0.
 One-electron integrals computed using PRISM.
 NBasis=     9 RedAO= T EigKep=  1.00D+00  NBF=     5     0     2     2
 NBsUse=     9 1.00D-06 EigRej= -1.00D+00 NBFU=     5     0     2     2
 Leave Link  302 at Wed Oct 28 14:20:55 2020, MaxMem=  2684354560 cpu:               0.9 elap:               0.1
 (Enter /udrive/faculty/rpeverati/g16/g16/l303.exe)
 DipDrv:  MaxL=1.
 Leave Link  303 at Wed Oct 28 14:20:55 2020, MaxMem=  2684354560 cpu:               0.4 elap:               0.1
 (Enter /udrive/faculty/rpeverati/g16/g16/l401.exe)
 Initial guess from the checkpoint file:  "MN_52_hf2ts_BH76_AM1_SE.chk"
 SCF N**3 symmetry information disabled.
 B after Tr=     0.000000    0.000000    0.000000
         Rot=    1.000000    0.000000    0.000000    0.000000 Ang=   0.00 deg.
 Guess basis will be translated and rotated to current coordinates.
 JPrj=0 DoOrth=T DoCkMO=T.
 Initial guess orbital symmetries:
 Alpha Orbitals:
       Occupied  (SG) (SG) (SG) (PI) (PI) (PI) (PI) (SG)
       Virtual   (SG)
 Beta  Orbitals:
       Occupied  (SG) (SG) (SG) (PI) (PI) (PI) (PI)
       Virtual   (SG) (SG)
 The electronic state of the initial guess is 2-SG.
 Initial guess <Sx>= 0.0000 <Sy>= 0.0000 <Sz>= 0.5000 <S**2>= 0.7987 S= 0.5241
 Leave Link  401 at Wed Oct 28 14:20:56 2020, MaxMem=  2684354560 cpu:               1.1 elap:               0.1
 (Enter /udrive/faculty/rpeverati/g16/g16/l502.exe)
 Keep J ints in memory in canonical form, NReq=859290.
 FoFCou: FMM=F IPFlag=           0 FMFlag=           0 FMFlg1=           0
         NFxFlg=           0 DoJE=F BraDBF=F KetDBF=F FulRan=T
         wScrn=  0.000000 ICntrl=       600 IOpCl=  2 I1Cent=           0 NGrid=           0
         NMat0=    1 NMatS0=     21 NMatT0=    0 NMatD0=    1 NMtDS0=    0 NMtDT0=    0
 Symmetry not used in FoFCou.
 Two-electron integral symmetry not used.
 UHF open shell SCF:
 Using DIIS extrapolation, IDIIS=  1040.
 Overlap will be assumed to be unity.
 NGot=  2684354560 LenX=  2684293973 LenY=  2684293091
 Requested convergence on RMS density matrix=1.00D-08 within 120 cycles.
 Requested convergence on MAX density matrix=1.00D-06.
 Requested convergence on             energy=1.00D-06.
 No special actions if energy rises.

 Cycle   1  Pass 1  IDiag  1:
 E= 0.443916935486328E-01
 DIIS: error= 3.01D-04 at cycle   1 NSaved=   1.
 NSaved= 1 IEnMin= 1 EnMin= 0.443916935486328E-01 IErMin= 1 ErrMin= 3.01D-04
 ErrMax= 3.01D-04  0.00D+00 EMaxC= 1.00D-01 BMatC= 1.19D-06 BMatP= 1.19D-06
 IDIUse=3 WtCom= 9.97D-01 WtEn= 3.01D-03
 Coeff-Com:  0.100D+01
 Coeff-En:   0.100D+01
 Coeff:      0.100D+01
 RMSDP=1.09D-04 MaxDP=4.94D-04              OVMax= 0.00D+00

 Cycle   2  Pass 1  IDiag  3:
 E= 0.443907591610966E-01 Delta-E=       -0.000000934388 Rises=F Damp=F
 DIIS: error= 7.38D-05 at cycle   2 NSaved=   2.
 NSaved= 2 IEnMin= 2 EnMin= 0.443907591610966E-01 IErMin= 2 ErrMin= 7.38D-05
 ErrMax= 7.38D-05  0.00D+00 EMaxC= 1.00D-01 BMatC= 1.89D-07 BMatP= 1.19D-06
 IDIUse=1 WtCom= 1.00D+00 WtEn= 0.00D+00
 Coeff-Com: -0.373D+00 0.137D+01
 Coeff:     -0.373D+00 0.137D+01
 Gap=     0.430 Goal=   None    Shift=    0.000
 Gap=     0.486 Goal=   None    Shift=    0.000
 RMSDP=8.74D-05 MaxDP=4.46D-04 DE=-9.34D-07 OVMax= 6.80D-04

 Cycle   3  Pass 1  IDiag  3:
 E= 0.443904219181732E-01 Delta-E=       -0.000000337243 Rises=F Damp=F
 DIIS: error= 4.03D-05 at cycle   3 NSaved=   3.
 NSaved= 3 IEnMin= 3 EnMin= 0.443904219181732E-01 IErMin= 3 ErrMin= 4.03D-05
 ErrMax= 4.03D-05  0.00D+00 EMaxC= 1.00D-01 BMatC= 4.77D-08 BMatP= 1.89D-07
 IDIUse=1 WtCom= 1.00D+00 WtEn= 0.00D+00
 Coeff-Com:  0.272D+00-0.132D+01 0.205D+01
 Coeff:      0.272D+00-0.132D+01 0.205D+01
 Gap=     0.430 Goal=   None    Shift=    0.000
 Gap=     0.486 Goal=   None    Shift=    0.000
 RMSDP=7.66D-05 MaxDP=3.92D-04 DE=-3.37D-07 OVMax= 5.97D-04

 Cycle   4  Pass 1  IDiag  3:
 E= 0.443902811425332E-01 Delta-E=       -0.000000140776 Rises=F Damp=F
 DIIS: error= 2.89D-05 at cycle   4 NSaved=   4.
 NSaved= 4 IEnMin= 4 EnMin= 0.443902811425332E-01 IErMin= 4 ErrMin= 2.89D-05
 ErrMax= 2.89D-05  0.00D+00 EMaxC= 1.00D-01 BMatC= 1.40D-08 BMatP= 4.77D-08
 IDIUse=1 WtCom= 1.00D+00 WtEn= 0.00D+00
 Coeff-Com: -0.485D+00 0.250D+01-0.429D+01 0.328D+01
 Coeff:     -0.485D+00 0.250D+01-0.429D+01 0.328D+01
 Gap=     0.430 Goal=   None    Shift=    0.000
 Gap=     0.486 Goal=   None    Shift=    0.000
 RMSDP=5.71D-05 MaxDP=3.44D-04 DE=-1.41D-07 OVMax= 3.13D-04

 Cycle   5  Pass 1  IDiag  3:
 E= 0.443902312573599E-01 Delta-E=       -0.000000049885 Rises=F Damp=F
 DIIS: error= 9.22D-06 at cycle   5 NSaved=   5.
 NSaved= 5 IEnMin= 5 EnMin= 0.443902312573599E-01 IErMin= 5 ErrMin= 9.22D-06
 ErrMax= 9.22D-06  0.00D+00 EMaxC= 1.00D-01 BMatC= 1.60D-09 BMatP= 1.40D-08
 IDIUse=1 WtCom= 1.00D+00 WtEn= 0.00D+00
 Coeff-Com:  0.276D+00-0.145D+01 0.262D+01-0.242D+01 0.197D+01
 Coeff:      0.276D+00-0.145D+01 0.262D+01-0.242D+01 0.197D+01
 Gap=     0.430 Goal=   None    Shift=    0.000
 Gap=     0.486 Goal=   None    Shift=    0.000
 RMSDP=1.81D-05 MaxDP=1.12D-04 DE=-4.99D-08 OVMax= 1.08D-04

 Cycle   6  Pass 1  IDiag  3:
 E= 0.443902266753256E-01 Delta-E=       -0.000000004582 Rises=F Damp=F
 DIIS: error= 7.28D-07 at cycle   6 NSaved=   6.
 NSaved= 6 IEnMin= 6 EnMin= 0.443902266753256E-01 IErMin= 6 ErrMin= 7.28D-07
 ErrMax= 7.28D-07  0.00D+00 EMaxC= 1.00D-01 BMatC= 2.04D-11 BMatP= 1.60D-09
 IDIUse=1 WtCom= 1.00D+00 WtEn= 0.00D+00
 Coeff-Com: -0.875D-01 0.456D+00-0.828D+00 0.773D+00-0.706D+00 0.139D+01
 Coeff:     -0.875D-01 0.456D+00-0.828D+00 0.773D+00-0.706D+00 0.139D+01
 Gap=     0.430 Goal=   None    Shift=    0.000
 Gap=     0.486 Goal=   None    Shift=    0.000
 RMSDP=1.34D-06 MaxDP=7.67D-06 DE=-4.58D-09 OVMax= 8.46D-06

 Cycle   7  Pass 1  IDiag  3:
 E= 0.443902266466054E-01 Delta-E=       -0.000000000029 Rises=F Damp=F
 DIIS: error= 4.13D-08 at cycle   7 NSaved=   7.
 NSaved= 7 IEnMin= 7 EnMin= 0.443902266466054E-01 IErMin= 7 ErrMin= 4.13D-08
 ErrMax= 4.13D-08  0.00D+00 EMaxC= 1.00D-01 BMatC= 4.79D-14 BMatP= 2.04D-11
 IDIUse=1 WtCom= 1.00D+00 WtEn= 0.00D+00
 Coeff-Com:  0.233D-01-0.121D+00 0.221D+00-0.207D+00 0.192D+00-0.390D+00
 Coeff-Com:  0.128D+01
 Coeff:      0.233D-01-0.121D+00 0.221D+00-0.207D+00 0.192D+00-0.390D+00
 Coeff:      0.128D+01
 Gap=     0.430 Goal=   None    Shift=    0.000
 Gap=     0.486 Goal=   None    Shift=    0.000
 RMSDP=1.79D-08 MaxDP=9.40D-08 DE=-2.87D-11 OVMax= 1.10D-07

 Cycle   8  Pass 1  IDiag  3:
 E= 0.443902266465557E-01 Delta-E=       -0.000000000000 Rises=F Damp=F
 DIIS: error= 3.95D-09 at cycle   8 NSaved=   8.
 NSaved= 8 IEnMin= 8 EnMin= 0.443902266465557E-01 IErMin= 8 ErrMin= 3.95D-09
 ErrMax= 3.95D-09  0.00D+00 EMaxC= 1.00D-01 BMatC= 4.24D-16 BMatP= 4.79D-14
 IDIUse=1 WtCom= 1.00D+00 WtEn= 0.00D+00
 Coeff-Com: -0.480D-02 0.250D-01-0.456D-01 0.428D-01-0.397D-01 0.795D-01
 Coeff-Com: -0.305D+00 0.125D+01
 Coeff:     -0.480D-02 0.250D-01-0.456D-01 0.428D-01-0.397D-01 0.795D-01
 Coeff:     -0.305D+00 0.125D+01
 Gap=     0.430 Goal=   None    Shift=    0.000
 Gap=     0.486 Goal=   None    Shift=    0.000
 RMSDP=1.93D-09 MaxDP=7.39D-09 DE=-4.97D-14 OVMax= 9.81D-09

 Cycle   9  Pass 2  IDiag  1:
 SCF Done:  E(UAM1) =  0.443902266466E-01 A.U. after    9 cycles
            NFock=  8  Conv=0.19D-08     -V/T= 1.0007
 <Sx>= 0.0000 <Sy>= 0.0000 <Sz>= 0.5000 <S**2>= 0.7992 S= 0.5243
 <L.S>= 0.000000000000E+00
 KE=-5.964206624615D+01 PE=-3.617218822480D+01 EE= 4.137749892440D+01
 Annihilation of the first spin contaminant:
 S**2 before annihilation     0.7992,   after     0.7500
 Leave Link  502 at Wed Oct 28 14:20:56 2020, MaxMem=  2684354560 cpu:               0.7 elap:               0.1
 (Enter /udrive/faculty/rpeverati/g16/g16/l508.exe)
 QCSCF skips out because SCF is already converged.
 Leave Link  508 at Wed Oct 28 14:20:56 2020, MaxMem=  2684354560 cpu:               0.1 elap:               0.0
 (Enter /udrive/faculty/rpeverati/g16/g16/l701.exe)
 ... and contract with generalized density number  0.
 Compute integral first derivatives.
 Leave Link  701 at Wed Oct 28 14:20:56 2020, MaxMem=  2684354560 cpu:               0.9 elap:               0.1
 (Enter /udrive/faculty/rpeverati/g16/g16/l702.exe)
 L702 exits ... SP integral derivatives will be done elsewhere.
 Leave Link  702 at Wed Oct 28 14:20:56 2020, MaxMem=  2684354560 cpu:               0.3 elap:               0.1
 (Enter /udrive/faculty/rpeverati/g16/g16/l703.exe)
 Integral derivatives from FoFJK, PRISM(SPDF).
 Compute integral first derivatives, UseDBF=F ICtDFT=           0.
 Calling FoFJK, ICntrl=      2127 FMM=F ISym2X=1 I1Cent= 0 IOpClX= 1 NMat=1 NMatS=1 NMatT=0.
 FoFJK:  IHMeth= 8 ICntrl=    2127 DoSepK=F KAlg= 0 I1Cent=           0 FoldK=F
 IRaf=         0 NMat=       1 IRICut=       1 DoRegI=T DoRafI=F ISym2E= 1 IDoP0=3 IntGTp=3.
 FoFCou: FMM=F IPFlag=           0 FMFlag=      100000 FMFlg1=         800
         NFxFlg=           0 DoJE=F BraDBF=F KetDBF=F FulRan=T
         wScrn=  0.000000 ICntrl=      2127 IOpCl=  1 I1Cent=           0 NGrid=           0
         NMat0=    1 NMatS0=      1 NMatT0=    0 NMatD0=    1 NMtDS0=    0 NMtDT0=    0
 Petite list used in FoFCou.
 Leave Link  703 at Wed Oct 28 14:20:56 2020, MaxMem=  2684354560 cpu:               0.5 elap:               0.1
 (Enter /udrive/faculty/rpeverati/g16/g16/l716.exe)
 Dipole        =-2.71509590D-16 1.41997786D-17-3.65072559D-01
 ***** Axes restored to original set *****
 -------------------------------------------------------------------
 Center     Atomic                   Forces (Hartrees/Bohr)
 Number     Number              X              Y              Z
 -------------------------------------------------------------------
      1        1           0.000000000    0.000000000    0.011359154
      2        9          -0.000000000   -0.000000000    0.003916531
      3        9           0.000000000    0.000000000   -0.015275686
 -------------------------------------------------------------------
 Cartesian Forces:  Max     0.015275686 RMS     0.006478307
 Leave Link  716 at Wed Oct 28 14:20:56 2020, MaxMem=  2684354560 cpu:               0.3 elap:               0.1
 (Enter /udrive/faculty/rpeverati/g16/g16/l103.exe)

 GradGradGradGradGradGradGradGradGradGradGradGradGradGradGradGradGradGrad
 Berny optimization.
 Optmz: redundant internal coordinate code flag= 1
 Red2BG:  D1=  7.06D-01 OD1=  3.33D-16 B2RMS=  0.00D+00 IAprox=1
 Red2BG is reusing G-inverse.
 Internal  Forces:  Max     0.015275686 RMS     0.009518101
 Numerically estimating second derivatives.
 Iteration  1 RMS(Cart)=  0.00204124 RMS(Int)=  0.00000000
 Iteration  2 RMS(Cart)=  0.00000000 RMS(Int)=  0.00000000
 Largest change from initial coordinates is atom    1       0.001 Angstoms.
 GradGradGradGradGradGradGradGradGradGradGradGradGradGradGradGradGradGrad

 Leave Link  103 at Wed Oct 28 14:20:56 2020, MaxMem=  2684354560 cpu:               0.3 elap:               0.1
 (Enter /udrive/faculty/rpeverati/g16/g16/l202.exe)
                          Input orientation:                          
 ---------------------------------------------------------------------
 Center     Atomic      Atomic             Coordinates (Angstroms)
 Number     Number       Type             X           Y           Z
 ---------------------------------------------------------------------
      1          1           0        0.000000    0.000000   -2.230394
      2          9           0        0.000000    0.000000   -0.615334
      3          9           0        0.000000    0.000000    0.862372
 ---------------------------------------------------------------------
                    Distance matrix (angstroms):
                    1          2          3
     1  H    0.000000
     2  F    1.615059   0.000000
     3  F    3.092766   1.477706   0.000000
 Stoichiometry    F2H(2)
 Framework group  C*V[C*(HFF)]
 Deg. of freedom     2
 Full point group                 C*V     NOp   4
 RotChk:  IX=0 Diff= 0.00D+00
 Largest Abelian subgroup         C2V     NOp   4
 Largest concise Abelian subgroup C1      NOp   1
                         Standard orientation:                         
 ---------------------------------------------------------------------
 Center     Atomic      Atomic             Coordinates (Angstroms)
 Number     Number       Type             X           Y           Z
 ---------------------------------------------------------------------
      1          1           0        0.000000    0.000000   -2.230022
      2          9           0        0.000000    0.000000   -0.614963
      3          9           0        0.000000    0.000000    0.862743
 ---------------------------------------------------------------------
 Rotational constants (GHZ):           0.0000000          19.3021109          19.3021109
 Leave Link  202 at Wed Oct 28 14:20:56 2020, MaxMem=  2684354560 cpu:               0.2 elap:               0.1
 (Enter /udrive/faculty/rpeverati/g16/g16/l301.exe)
 Standard basis: VSTO-6G (5D, 7F)
 Ernie: Thresh=  0.10000D-02 Tol=  0.10000D-05 Strict=F.
  NNHCO=     0 NNPyr=     0 NCTC=     0               EPep=         0.000000000
    EC=        18.304757866  ECS=         0.027788779   EG=         0.158875561
   EHC=         0.000000000  EAt=       -35.866516601  AtH=         0.143236084
 EPDDG=         0.000000000  ECC=        18.491422206 EAtT=        36.009752685
 There are     5 symmetry adapted cartesian basis functions of A1  symmetry.
 There are     0 symmetry adapted cartesian basis functions of A2  symmetry.
 There are     2 symmetry adapted cartesian basis functions of B1  symmetry.
 There are     2 symmetry adapted cartesian basis functions of B2  symmetry.
 There are     5 symmetry adapted basis functions of A1  symmetry.
 There are     0 symmetry adapted basis functions of A2  symmetry.
 There are     2 symmetry adapted basis functions of B1  symmetry.
 There are     2 symmetry adapted basis functions of B2  symmetry.
     9 basis functions,    54 primitive gaussians,     9 cartesian basis functions
     8 alpha electrons        7 beta electrons
       nuclear repulsion energy        54.5011748919 Hartrees.
 IExCor=    0 DFT=F Ex=HF Corr=None ExCW=0 ScaHFX=  1.000000
 ScaDFX=  1.000000  1.000000  1.000000  1.000000 ScalE2=  1.000000  1.000000
 IRadAn=      5 IRanWt=     -1 IRanGd=            0 ICorTp=0 IEmpDi=  4
 Integral buffers will be    131072 words long.
 Regular integral format.
 Two-electron integral symmetry is turned off.
 Leave Link  301 at Wed Oct 28 14:20:57 2020, MaxMem=  2684354560 cpu:               0.9 elap:               0.1
 (Enter /udrive/faculty/rpeverati/g16/g16/l302.exe)
 Do NDO integrals.
 NPDir=0 NMtPBC=     1 NCelOv=     1 NCel=       1 NClECP=     1 NCelD=      1
         NCelK=      1 NCelE2=     1 NClLst=     1 CellRange=     0.0.
 One-electron integrals computed using PRISM.
 NBasis=     9 RedAO= T EigKep=  1.00D+00  NBF=     5     0     2     2
 NBsUse=     9 1.00D-06 EigRej= -1.00D+00 NBFU=     5     0     2     2
 Leave Link  302 at Wed Oct 28 14:20:57 2020, MaxMem=  2684354560 cpu:               0.9 elap:               0.1
 (Enter /udrive/faculty/rpeverati/g16/g16/l303.exe)
 DipDrv:  MaxL=1.
 Leave Link  303 at Wed Oct 28 14:20:57 2020, MaxMem=  2684354560 cpu:               0.4 elap:               0.1
 (Enter /udrive/faculty/rpeverati/g16/g16/l401.exe)
 Initial guess from the checkpoint file:  "MN_52_hf2ts_BH76_AM1_SE.chk"
 SCF N**3 symmetry information disabled.
 B after Tr=     0.000000    0.000000   -0.000000
         Rot=    1.000000    0.000000    0.000000    0.000000 Ang=   0.00 deg.
 Guess basis will be translated and rotated to current coordinates.
 JPrj=0 DoOrth=T DoCkMO=T.
 Initial guess orbital symmetries:
 Alpha Orbitals:
       Occupied  (SG) (SG) (SG) (PI) (PI) (PI) (PI) (SG)
       Virtual   (SG)
 Beta  Orbitals:
       Occupied  (SG) (SG) (SG) (PI) (PI) (PI) (PI)
       Virtual   (SG) (SG)
 The electronic state of the initial guess is 2-SG.
 Initial guess <Sx>= 0.0000 <Sy>= 0.0000 <Sz>= 0.5000 <S**2>= 0.7992 S= 0.5243
 Leave Link  401 at Wed Oct 28 14:20:57 2020, MaxMem=  2684354560 cpu:               1.1 elap:               0.1
 (Enter /udrive/faculty/rpeverati/g16/g16/l502.exe)
 Keep J ints in memory in canonical form, NReq=859290.
 FoFCou: FMM=F IPFlag=           0 FMFlag=           0 FMFlg1=           0
         NFxFlg=           0 DoJE=F BraDBF=F KetDBF=F FulRan=T
         wScrn=  0.000000 ICntrl=       600 IOpCl=  2 I1Cent=           0 NGrid=           0
         NMat0=    1 NMatS0=     21 NMatT0=    0 NMatD0=    1 NMtDS0=    0 NMtDT0=    0
 Symmetry not used in FoFCou.
 Two-electron integral symmetry not used.
 UHF open shell SCF:
 Using DIIS extrapolation, IDIIS=  1040.
 Overlap will be assumed to be unity.
 NGot=  2684354560 LenX=  2684293973 LenY=  2684293091
 Requested convergence on RMS density matrix=1.00D-08 within 120 cycles.
 Requested convergence on MAX density matrix=1.00D-06.
 Requested convergence on             energy=1.00D-06.
 No special actions if energy rises.

 Cycle   1  Pass 1  IDiag  1:
 E= 0.443809537721833E-01
 DIIS: error= 3.31D-04 at cycle   1 NSaved=   1.
 NSaved= 1 IEnMin= 1 EnMin= 0.443809537721833E-01 IErMin= 1 ErrMin= 3.31D-04
 ErrMax= 3.31D-04  0.00D+00 EMaxC= 1.00D-01 BMatC= 7.15D-06 BMatP= 7.15D-06
 IDIUse=3 WtCom= 9.97D-01 WtEn= 3.31D-03
 Coeff-Com:  0.100D+01
 Coeff-En:   0.100D+01
 Coeff:      0.100D+01
 RMSDP=2.50D-04 MaxDP=1.18D-03              OVMax= 0.00D+00

 Cycle   2  Pass 1  IDiag  3:
 E= 0.443759123490821E-01 Delta-E=       -0.000005041423 Rises=F Damp=F
 DIIS: error= 1.92D-04 at cycle   2 NSaved=   2.
 NSaved= 2 IEnMin= 2 EnMin= 0.443759123490821E-01 IErMin= 2 ErrMin= 1.92D-04
 ErrMax= 1.92D-04  0.00D+00 EMaxC= 1.00D-01 BMatC= 1.09D-06 BMatP= 7.15D-06
 IDIUse=3 WtCom= 9.98D-01 WtEn= 1.92D-03
 Coeff-Com: -0.211D+00 0.121D+01
 Coeff-En:   0.000D+00 0.100D+01
 Coeff:     -0.211D+00 0.121D+01
 Gap=     0.431 Goal=   None    Shift=    0.000
 Gap=     0.487 Goal=   None    Shift=    0.000
 RMSDP=1.85D-04 MaxDP=9.04D-04 DE=-5.04D-06 OVMax= 1.38D-03

 Cycle   3  Pass 1  IDiag  3:
 E= 0.443739658909479E-01 Delta-E=       -0.000001946458 Rises=F Damp=F
 DIIS: error= 1.62D-04 at cycle   3 NSaved=   3.
 NSaved= 3 IEnMin= 3 EnMin= 0.443739658909479E-01 IErMin= 3 ErrMin= 1.62D-04
 ErrMax= 1.62D-04  0.00D+00 EMaxC= 1.00D-01 BMatC= 5.25D-07 BMatP= 1.09D-06
 IDIUse=3 WtCom= 9.98D-01 WtEn= 1.62D-03
 Coeff-Com:  0.325D+00-0.238D+01 0.306D+01
 Coeff-En:   0.000D+00 0.000D+00 0.100D+01
 Coeff:      0.324D+00-0.238D+01 0.305D+01
 Gap=     0.431 Goal=   None    Shift=    0.000
 Gap=     0.487 Goal=   None    Shift=    0.000
 RMSDP=3.27D-04 MaxDP=1.78D-03 DE=-1.95D-06 OVMax= 2.23D-03

 Cycle   4  Pass 1  IDiag  3:
 E= 0.443721030769026E-01 Delta-E=       -0.000001862814 Rises=F Damp=F
 DIIS: error= 7.84D-05 at cycle   4 NSaved=   4.
 NSaved= 4 IEnMin= 4 EnMin= 0.443721030769026E-01 IErMin= 4 ErrMin= 7.84D-05
 ErrMax= 7.84D-05  0.00D+00 EMaxC= 1.00D-01 BMatC= 1.08D-07 BMatP= 5.25D-07
 IDIUse=1 WtCom= 1.00D+00 WtEn= 0.00D+00
 Coeff-Com: -0.617D+00 0.461D+01-0.627D+01 0.327D+01
 Coeff:     -0.617D+00 0.461D+01-0.627D+01 0.327D+01
 Gap=     0.430 Goal=   None    Shift=    0.000
 Gap=     0.487 Goal=   None    Shift=    0.000
 RMSDP=1.71D-04 MaxDP=1.03D-03 DE=-1.86D-06 OVMax= 9.48D-04

 Cycle   5  Pass 1  IDiag  3:
 E= 0.443717549389575E-01 Delta-E=       -0.000000348138 Rises=F Damp=F
 DIIS: error= 8.78D-06 at cycle   5 NSaved=   5.
 NSaved= 5 IEnMin= 5 EnMin= 0.443717549389575E-01 IErMin= 5 ErrMin= 8.78D-06
 ErrMax= 8.78D-06  0.00D+00 EMaxC= 1.00D-01 BMatC= 2.06D-09 BMatP= 1.08D-07
 IDIUse=1 WtCom= 1.00D+00 WtEn= 0.00D+00
 Coeff-Com:  0.327D+00-0.246D+01 0.337D+01-0.184D+01 0.161D+01
 Coeff:      0.327D+00-0.246D+01 0.337D+01-0.184D+01 0.161D+01
 Gap=     0.430 Goal=   None    Shift=    0.000
 Gap=     0.487 Goal=   None    Shift=    0.000
 RMSDP=1.23D-05 MaxDP=6.95D-05 DE=-3.48D-07 OVMax= 6.45D-05

 Cycle   6  Pass 1  IDiag  3:
 E= 0.443717514426822E-01 Delta-E=       -0.000000003496 Rises=F Damp=F
 DIIS: error= 8.87D-07 at cycle   6 NSaved=   6.
 NSaved= 6 IEnMin= 6 EnMin= 0.443717514426822E-01 IErMin= 6 ErrMin= 8.87D-07
 ErrMax= 8.87D-07  0.00D+00 EMaxC= 1.00D-01 BMatC= 2.29D-11 BMatP= 2.06D-09
 IDIUse=1 WtCom= 1.00D+00 WtEn= 0.00D+00
 Coeff-Com: -0.629D-01 0.474D+00-0.648D+00 0.349D+00-0.361D+00 0.125D+01
 Coeff:     -0.629D-01 0.474D+00-0.648D+00 0.349D+00-0.361D+00 0.125D+01
 Gap=     0.430 Goal=   None    Shift=    0.000
 Gap=     0.487 Goal=   None    Shift=    0.000
 RMSDP=1.29D-06 MaxDP=8.92D-06 DE=-3.50D-09 OVMax= 9.06D-06

 Cycle   7  Pass 1  IDiag  3:
 E= 0.443717514150848E-01 Delta-E=       -0.000000000028 Rises=F Damp=F
 DIIS: error= 8.88D-08 at cycle   7 NSaved=   7.
 NSaved= 7 IEnMin= 7 EnMin= 0.443717514150848E-01 IErMin= 7 ErrMin= 8.88D-08
 ErrMax= 8.88D-08  0.00D+00 EMaxC= 1.00D-01 BMatC= 2.36D-13 BMatP= 2.29D-11
 IDIUse=1 WtCom= 1.00D+00 WtEn= 0.00D+00
 Coeff-Com:  0.185D-01-0.139D+00 0.190D+00-0.101D+00 0.106D+00-0.393D+00
 Coeff-Com:  0.132D+01
 Coeff:      0.185D-01-0.139D+00 0.190D+00-0.101D+00 0.106D+00-0.393D+00
 Coeff:      0.132D+01
 Gap=     0.430 Goal=   None    Shift=    0.000
 Gap=     0.487 Goal=   None    Shift=    0.000
 RMSDP=1.20D-07 MaxDP=7.95D-07 DE=-2.76D-11 OVMax= 7.45D-07

 Cycle   8  Pass 1  IDiag  3:
 E= 0.443717514148574E-01 Delta-E=       -0.000000000000 Rises=F Damp=F
 DIIS: error= 1.43D-08 at cycle   8 NSaved=   8.
 NSaved= 8 IEnMin= 8 EnMin= 0.443717514148574E-01 IErMin= 8 ErrMin= 1.43D-08
 ErrMax= 1.43D-08  0.00D+00 EMaxC= 1.00D-01 BMatC= 5.76D-15 BMatP= 2.36D-13
 IDIUse=1 WtCom= 1.00D+00 WtEn= 0.00D+00
 Coeff-Com: -0.198D-02 0.149D-01-0.202D-01 0.103D-01-0.106D-01 0.401D-01
 Coeff-Com: -0.182D+00 0.115D+01
 Coeff:     -0.198D-02 0.149D-01-0.202D-01 0.103D-01-0.106D-01 0.401D-01
 Coeff:     -0.182D+00 0.115D+01
 Gap=     0.430 Goal=   None    Shift=    0.000
 Gap=     0.487 Goal=   None    Shift=    0.000
 RMSDP=3.26D-08 MaxDP=1.98D-07 DE=-2.27D-13 OVMax= 1.97D-07

 Cycle   9  Pass 1  IDiag  3:
 E= 0.443717514148574E-01 Delta-E=        0.000000000000 Rises=F Damp=F
 DIIS: error= 1.73D-09 at cycle   9 NSaved=   9.
 NSaved= 9 IEnMin= 8 EnMin= 0.443717514148574E-01 IErMin= 9 ErrMin= 1.73D-09
 ErrMax= 1.73D-09  0.00D+00 EMaxC= 1.00D-01 BMatC= 6.30D-17 BMatP= 5.76D-15
 IDIUse=1 WtCom= 1.00D+00 WtEn= 0.00D+00
 Coeff-Com:  0.175D-03-0.131D-02 0.177D-02-0.833D-03 0.795D-03-0.331D-02
 Coeff-Com:  0.209D-01-0.196D+00 0.118D+01
 Coeff:      0.175D-03-0.131D-02 0.177D-02-0.833D-03 0.795D-03-0.331D-02
 Coeff:      0.209D-01-0.196D+00 0.118D+01
 Gap=     0.430 Goal=   None    Shift=    0.000
 Gap=     0.487 Goal=   None    Shift=    0.000
 RMSDP=3.20D-09 MaxDP=1.98D-08 DE= 0.00D+00 OVMax= 2.09D-08

 Cycle  10  Pass 2  IDiag  1:
 SCF Done:  E(UAM1) =  0.443717514149E-01 A.U. after   10 cycles
            NFock=  9  Conv=0.32D-08     -V/T= 1.0007
 <Sx>= 0.0000 <Sy>= 0.0000 <Sz>= 0.5000 <S**2>= 0.7968 S= 0.5231
 <L.S>= 0.000000000000E+00
 KE=-5.963618361474D+01 PE=-3.620724589158D+01 EE= 4.138662636588D+01
 Annihilation of the first spin contaminant:
 S**2 before annihilation     0.7968,   after     0.7500
 Leave Link  502 at Wed Oct 28 14:20:57 2020, MaxMem=  2684354560 cpu:               0.7 elap:               0.1
 (Enter /udrive/faculty/rpeverati/g16/g16/l508.exe)
 QCSCF skips out because SCF is already converged.
 Leave Link  508 at Wed Oct 28 14:20:57 2020, MaxMem=  2684354560 cpu:               0.1 elap:               0.1
 (Enter /udrive/faculty/rpeverati/g16/g16/l701.exe)
 ... and contract with generalized density number  0.
 Compute integral first derivatives.
 Leave Link  701 at Wed Oct 28 14:20:57 2020, MaxMem=  2684354560 cpu:               0.9 elap:               0.1
 (Enter /udrive/faculty/rpeverati/g16/g16/l702.exe)
 L702 exits ... SP integral derivatives will be done elsewhere.
 Leave Link  702 at Wed Oct 28 14:20:57 2020, MaxMem=  2684354560 cpu:               0.3 elap:               0.1
 (Enter /udrive/faculty/rpeverati/g16/g16/l703.exe)
 Integral derivatives from FoFJK, PRISM(SPDF).
 Compute integral first derivatives, UseDBF=F ICtDFT=           0.
 Calling FoFJK, ICntrl=      2127 FMM=F ISym2X=1 I1Cent= 0 IOpClX= 1 NMat=1 NMatS=1 NMatT=0.
 FoFJK:  IHMeth= 8 ICntrl=    2127 DoSepK=F KAlg= 0 I1Cent=           0 FoldK=F
 IRaf=         0 NMat=       1 IRICut=       1 DoRegI=T DoRafI=F ISym2E= 1 IDoP0=3 IntGTp=3.
 FoFCou: FMM=F IPFlag=           0 FMFlag=      100000 FMFlg1=         800
         NFxFlg=           0 DoJE=F BraDBF=F KetDBF=F FulRan=T
         wScrn=  0.000000 ICntrl=      2127 IOpCl=  1 I1Cent=           0 NGrid=           0
         NMat0=    1 NMatS0=      1 NMatT0=    0 NMatD0=    1 NMtDS0=    0 NMtDT0=    0
 Petite list used in FoFCou.
 Leave Link  703 at Wed Oct 28 14:20:57 2020, MaxMem=  2684354560 cpu:               0.4 elap:               0.1
 (Enter /udrive/faculty/rpeverati/g16/g16/l716.exe)
 Dipole        =-3.37580575D-16-4.61697101D-16-3.55003901D-01
 ***** Axes restored to original set *****
 -------------------------------------------------------------------
 Center     Atomic                   Forces (Hartrees/Bohr)
 Number     Number              X              Y              Z
 -------------------------------------------------------------------
      1        1           0.000000000    0.000000000    0.010540600
      2        9           0.000000000    0.000000000    0.003457062
      3        9          -0.000000000   -0.000000000   -0.013997662
 -------------------------------------------------------------------
 Cartesian Forces:  Max     0.013997662 RMS     0.005953431
 Leave Link  716 at Wed Oct 28 14:20:58 2020, MaxMem=  2684354560 cpu:               0.3 elap:               0.1
 (Enter /udrive/faculty/rpeverati/g16/g16/l103.exe)

 GradGradGradGradGradGradGradGradGradGradGradGradGradGradGradGradGradGrad
 Berny optimization.
 Optmz: redundant internal coordinate code flag= 1
 Red2BG:  D1=  7.06D-01 OD1=  3.33D-16 B2RMS=  0.00D+00 IAprox=1
 Red2BG is reusing G-inverse.
 Internal  Forces:  Max     0.013997662 RMS     0.008761261
 Search for a saddle point.
 Step number   1 out of a maximum of   50
 All quantities printed in internal units (Hartrees-Bohrs-Radians)
 Swapping is turned off.
 Second derivative matrix not updated -- first step.
 The second derivative matrix:
                          R1        R2        A1        A2
           R1          -0.04112
           R2           0.12259   0.37965
           A1          -0.00000  -0.00000   0.00230
           A2          -0.00000   0.00000   0.00000   0.00230
 ITU=  0
 Eigenvectors of the second derivative matrix:
                           1         2         3         4
     Eigenvalues --    -0.07423   0.00230   0.00230   0.41277
   1         R1        -0.96540  -0.00000  -0.00000  -0.26076
   2         R2         0.26076   0.00000   0.00000  -0.96540
   3         A1        -0.00000  -0.70710   0.70711   0.00000
   4         A2        -0.00000   0.70711   0.70710   0.00000
 RLam0= 5.86D-04.
 Iter=   1 RLamda= 0.00000000D+00 Sum=-8.07288648D-04.
 Iter=   2 RLamda=-8.07288648D-04 Sum=-8.05712838D-04.
 Iter=   3 RLamda=-8.05712838D-04 Sum=-8.05715908D-04.
 RFO step:  Lambda0=5.862483432D-04 Lambda=-8.05712838D-04.
 Linear search not attempted -- option 19 set.
 Iteration  1 RMS(Cart)=  0.02865348 RMS(Int)=  0.00000000
 SLEqS3 Cycle:    91 Max:0.623005E-12 RMS:0.359962E-12 Conv:0.199157E-14
 SLEqS3 Cycle:    91 Max:0.783658E-12 RMS:0.452785E-12 Conv:0.199157E-14
 Iteration  2 RMS(Cart)=  0.00000000 RMS(Int)=  0.00000000
 ITry= 1 IFail=0 DXMaxC= 4.65D-02 DCOld= 1.00D+10 DXMaxT= 1.00D-01 DXLimC= 3.00D+00 Rises=F
 ClnCor:  largest displacement from symmetrization is 3.24D-07 for atom     2.
 Variable       Old X    -DE/DX   Delta X   Delta X   Delta X     New X
                                 (Linear)    (Quad)   (Total)
    R1        3.05202  -0.01115   0.00000   0.07395   0.07395   3.12597
    R2        2.79746  -0.01590   0.00000  -0.06569  -0.06569   2.73177
    A1        3.14159   0.00000   0.00000   0.00000   0.00000   3.14159
    A2        3.14159  -0.00000   0.00000   0.00000   0.00000   3.14159
         Item               Value     Threshold  Converged?
 Maximum Force            0.015896     0.000450     NO 
 RMS     Force            0.009709     0.000300     NO 
 Maximum Displacement     0.046548     0.001800     NO 
 RMS     Displacement     0.028653     0.001200     NO 
 Predicted change in Energy=-1.082217D-04
 Lowest energy point so far.  Saving SCF results.
 Largest change from initial coordinates is atom    2       0.010 Angstoms.
 GradGradGradGradGradGradGradGradGradGradGradGradGradGradGradGradGradGrad

 Leave Link  103 at Wed Oct 28 14:20:58 2020, MaxMem=  2684354560 cpu:               0.4 elap:               0.1
 (Enter /udrive/faculty/rpeverati/g16/g16/l202.exe)
                          Input orientation:                          
 ---------------------------------------------------------------------
 Center     Atomic      Atomic             Coordinates (Angstroms)
 Number     Number       Type             X           Y           Z
 ---------------------------------------------------------------------
      1          1           0       -0.000000    0.000000   -2.245776
      2          9           0        0.000000    0.000000   -0.591584
      3          9           0       -0.000000    0.000000    0.854004
 ---------------------------------------------------------------------
                    Distance matrix (angstroms):
                    1          2          3
     1  H    0.000000
     2  F    1.654192   0.000000
     3  F    3.099780   1.445588   0.000000
 Stoichiometry    F2H(2)
 Framework group  C*V[C*(HFF)]
 Deg. of freedom     2
 Full point group                 C*V     NOp   4
 RotChk:  IX=0 Diff= 0.00D+00
 Largest Abelian subgroup         C2V     NOp   4
 Largest concise Abelian subgroup C1      NOp   1
                         Standard orientation:                         
 ---------------------------------------------------------------------
 Center     Atomic      Atomic             Coordinates (Angstroms)
 Number     Number       Type             X           Y           Z
 ---------------------------------------------------------------------
      1          1           0        0.000000    0.000000   -2.251881
      2          9           0        0.000000    0.000000   -0.597690
      3          9           0        0.000000    0.000000    0.847899
 ---------------------------------------------------------------------
 Rotational constants (GHZ):           0.0000000          19.8984800          19.8984800
 Leave Link  202 at Wed Oct 28 14:20:58 2020, MaxMem=  2684354560 cpu:               0.2 elap:               0.1
 (Enter /udrive/faculty/rpeverati/g16/g16/l301.exe)
 Standard basis: VSTO-6G (5D, 7F)
 Ernie: Thresh=  0.10000D-02 Tol=  0.10000D-05 Strict=F.
  NNHCO=     0 NNPyr=     0 NCTC=     0               EPep=         0.000000000
    EC=        18.519947420  ECS=         0.027323726   EG=         0.184625581
   EHC=         0.000000000  EAt=       -35.866516601  AtH=         0.143236084
 EPDDG=         0.000000000  ECC=        18.731896726 EAtT=        36.009752685
 There are     5 symmetry adapted cartesian basis functions of A1  symmetry.
 There are     0 symmetry adapted cartesian basis functions of A2  symmetry.
 There are     2 symmetry adapted cartesian basis functions of B1  symmetry.
 There are     2 symmetry adapted cartesian basis functions of B2  symmetry.
 There are     5 symmetry adapted basis functions of A1  symmetry.
 There are     0 symmetry adapted basis functions of A2  symmetry.
 There are     2 symmetry adapted basis functions of B1  symmetry.
 There are     2 symmetry adapted basis functions of B2  symmetry.
     9 basis functions,    54 primitive gaussians,     9 cartesian basis functions
     8 alpha electrons        7 beta electrons
       nuclear repulsion energy        54.7416494117 Hartrees.
 IExCor=    0 DFT=F Ex=HF Corr=None ExCW=0 ScaHFX=  1.000000
 ScaDFX=  1.000000  1.000000  1.000000  1.000000 ScalE2=  1.000000  1.000000
 IRadAn=      5 IRanWt=     -1 IRanGd=            0 ICorTp=0 IEmpDi=  4
 Integral buffers will be    131072 words long.
 Regular integral format.
 Two-electron integral symmetry is turned off.
 Leave Link  301 at Wed Oct 28 14:20:58 2020, MaxMem=  2684354560 cpu:               0.9 elap:               0.1
 (Enter /udrive/faculty/rpeverati/g16/g16/l302.exe)
 Do NDO integrals.
 NPDir=0 NMtPBC=     1 NCelOv=     1 NCel=       1 NClECP=     1 NCelD=      1
         NCelK=      1 NCelE2=     1 NClLst=     1 CellRange=     0.0.
 One-electron integrals computed using PRISM.
 NBasis=     9 RedAO= T EigKep=  1.00D+00  NBF=     5     0     2     2
 NBsUse=     9 1.00D-06 EigRej= -1.00D+00 NBFU=     5     0     2     2
 Leave Link  302 at Wed Oct 28 14:20:58 2020, MaxMem=  2684354560 cpu:               0.9 elap:               0.1
 (Enter /udrive/faculty/rpeverati/g16/g16/l303.exe)
 DipDrv:  MaxL=1.
 Leave Link  303 at Wed Oct 28 14:20:58 2020, MaxMem=  2684354560 cpu:               0.4 elap:               0.1
 (Enter /udrive/faculty/rpeverati/g16/g16/l401.exe)
 Initial guess from the checkpoint file:  "MN_52_hf2ts_BH76_AM1_SE.chk"
 SCF N**3 symmetry information disabled.
 B after Tr=     0.000000    0.000000    0.000000
         Rot=    1.000000    0.000000    0.000000    0.000000 Ang=   0.00 deg.
 Guess basis will be translated and rotated to current coordinates.
 JPrj=0 DoOrth=T DoCkMO=T.
 Initial guess orbital symmetries:
 Alpha Orbitals:
       Occupied  (SG) (SG) (SG) (PI) (PI) (PI) (PI) (SG)
       Virtual   (SG)
 Beta  Orbitals:
       Occupied  (SG) (SG) (SG) (PI) (PI) (PI) (PI)
       Virtual   (SG) (SG)
 The electronic state of the initial guess is 2-SG.
 Initial guess <Sx>= 0.0000 <Sy>= 0.0000 <Sz>= 0.5000 <S**2>= 0.7968 S= 0.5231
 Leave Link  401 at Wed Oct 28 14:20:58 2020, MaxMem=  2684354560 cpu:               1.1 elap:               0.1
 (Enter /udrive/faculty/rpeverati/g16/g16/l502.exe)
 Keep J ints in memory in canonical form, NReq=859290.
 FoFCou: FMM=F IPFlag=           0 FMFlag=           0 FMFlg1=           0
         NFxFlg=           0 DoJE=F BraDBF=F KetDBF=F FulRan=T
         wScrn=  0.000000 ICntrl=       600 IOpCl=  2 I1Cent=           0 NGrid=           0
         NMat0=    1 NMatS0=     21 NMatT0=    0 NMatD0=    1 NMtDS0=    0 NMtDT0=    0
 Symmetry not used in FoFCou.
 Two-electron integral symmetry not used.
 UHF open shell SCF:
 Using DIIS extrapolation, IDIIS=  1040.
 Overlap will be assumed to be unity.
 NGot=  2684354560 LenX=  2684293973 LenY=  2684293091
 Requested convergence on RMS density matrix=1.00D-08 within 120 cycles.
 Requested convergence on MAX density matrix=1.00D-06.
 Requested convergence on             energy=1.00D-06.
 No special actions if energy rises.

 Cycle   1  Pass 1  IDiag  1:
 E= 0.459391063066903E-01
 DIIS: error= 4.15D-03 at cycle   1 NSaved=   1.
 NSaved= 1 IEnMin= 1 EnMin= 0.459391063066903E-01 IErMin= 1 ErrMin= 4.15D-03
 ErrMax= 4.15D-03  0.00D+00 EMaxC= 1.00D-01 BMatC= 1.21D-03 BMatP= 1.21D-03
 IDIUse=3 WtCom= 9.58D-01 WtEn= 4.15D-02
 Coeff-Com:  0.100D+01
 Coeff-En:   0.100D+01
 Coeff:      0.100D+01
 GapD=    2.000 DampG=2.000 DampE=1.000 DampFc=2.0000 IDamp=-1.
 RMSDP=3.22D-03 MaxDP=1.54D-02              OVMax= 0.00D+00

 Cycle   2  Pass 1  IDiag  3:
 E= 0.451013559759730E-01 Delta-E=       -0.000837750331 Rises=F Damp=F
 DIIS: error= 2.33D-03 at cycle   2 NSaved=   2.
 NSaved= 2 IEnMin= 2 EnMin= 0.451013559759730E-01 IErMin= 2 ErrMin= 2.33D-03
 ErrMax= 2.33D-03  0.00D+00 EMaxC= 1.00D-01 BMatC= 1.70D-04 BMatP= 1.21D-03
 IDIUse=3 WtCom= 9.77D-01 WtEn= 2.33D-02
 Coeff-Com: -0.218D+00 0.122D+01
 Coeff-En:   0.000D+00 0.100D+01
 Coeff:     -0.213D+00 0.121D+01
 Gap=     0.439 Goal=   None    Shift=    0.000
 Gap=     0.495 Goal=   None    Shift=    0.000
 RMSDP=2.26D-03 MaxDP=1.14D-02 DE=-8.38D-04 OVMax= 1.70D-02

 Cycle   3  Pass 1  IDiag  3:
 E= 0.448116818569133E-01 Delta-E=       -0.000289674119 Rises=F Damp=F
 DIIS: error= 1.92D-03 at cycle   3 NSaved=   3.
 NSaved= 3 IEnMin= 3 EnMin= 0.448116818569133E-01 IErMin= 3 ErrMin= 1.92D-03
 ErrMax= 1.92D-03  0.00D+00 EMaxC= 1.00D-01 BMatC= 7.37D-05 BMatP= 1.70D-04
 IDIUse=3 WtCom= 9.81D-01 WtEn= 1.92D-02
 Coeff-Com:  0.279D+00-0.201D+01 0.273D+01
 Coeff-En:   0.000D+00 0.000D+00 0.100D+01
 Coeff:      0.274D+00-0.197D+01 0.269D+01
 Gap=     0.439 Goal=   None    Shift=    0.000
 Gap=     0.498 Goal=   None    Shift=    0.000
 RMSDP=3.30D-03 MaxDP=1.80D-02 DE=-2.90D-04 OVMax= 2.26D-02

 Cycle   4  Pass 1  IDiag  3:
 E= 0.445845117206929E-01 Delta-E=       -0.000227170136 Rises=F Damp=F
 DIIS: error= 1.03D-03 at cycle   4 NSaved=   4.
 NSaved= 4 IEnMin= 4 EnMin= 0.445845117206929E-01 IErMin= 4 ErrMin= 1.03D-03
 ErrMax= 1.03D-03  0.00D+00 EMaxC= 1.00D-01 BMatC= 1.74D-05 BMatP= 7.37D-05
 IDIUse=3 WtCom= 9.90D-01 WtEn= 1.03D-02
 Coeff-Com: -0.544D+00 0.406D+01-0.599D+01 0.347D+01
 Coeff-En:   0.000D+00 0.000D+00 0.000D+00 0.100D+01
 Coeff:     -0.538D+00 0.402D+01-0.593D+01 0.345D+01
 Gap=     0.437 Goal=   None    Shift=    0.000
 Gap=     0.497 Goal=   None    Shift=    0.000
 RMSDP=2.09D-03 MaxDP=1.30D-02 DE=-2.27D-04 OVMax= 1.17D-02

 Cycle   5  Pass 1  IDiag  3:
 E= 0.445297052298343E-01 Delta-E=       -0.000054806491 Rises=F Damp=F
 DIIS: error= 1.29D-04 at cycle   5 NSaved=   5.
 NSaved= 5 IEnMin= 5 EnMin= 0.445297052298343E-01 IErMin= 5 ErrMin= 1.29D-04
 ErrMax= 1.29D-04  0.00D+00 EMaxC= 1.00D-01 BMatC= 4.24D-07 BMatP= 1.74D-05
 IDIUse=3 WtCom= 9.99D-01 WtEn= 1.29D-03
 Coeff-Com:  0.331D+00-0.246D+01 0.360D+01-0.210D+01 0.163D+01
 Coeff-En:   0.000D+00 0.000D+00 0.000D+00 0.000D+00 0.100D+01
 Coeff:      0.331D+00-0.245D+01 0.360D+01-0.210D+01 0.163D+01
 Gap=     0.438 Goal=   None    Shift=    0.000
 Gap=     0.497 Goal=   None    Shift=    0.000
 RMSDP=1.45D-04 MaxDP=9.00D-04 DE=-5.48D-05 OVMax= 1.02D-03

 Cycle   6  Pass 1  IDiag  3:
 E= 0.445290466723947E-01 Delta-E=       -0.000000658557 Rises=F Damp=F
 DIIS: error= 3.21D-05 at cycle   6 NSaved=   6.
 NSaved= 6 IEnMin= 6 EnMin= 0.445290466723947E-01 IErMin= 6 ErrMin= 3.21D-05
 ErrMax= 3.21D-05  0.00D+00 EMaxC= 1.00D-01 BMatC= 2.51D-08 BMatP= 4.24D-07
 IDIUse=1 WtCom= 1.00D+00 WtEn= 0.00D+00
 Coeff-Com: -0.166D-01 0.120D+00-0.159D+00 0.424D-01-0.755D-01 0.109D+01
 Coeff:     -0.166D-01 0.120D+00-0.159D+00 0.424D-01-0.755D-01 0.109D+01
 Gap=     0.437 Goal=   None    Shift=    0.000
 Gap=     0.497 Goal=   None    Shift=    0.000
 RMSDP=5.74D-05 MaxDP=3.79D-04 DE=-6.59D-07 OVMax= 3.86D-04

 Cycle   7  Pass 1  IDiag  3:
 E= 0.445289958793182E-01 Delta-E=       -0.000000050793 Rises=F Damp=F
 DIIS: error= 2.38D-06 at cycle   7 NSaved=   7.
 NSaved= 7 IEnMin= 7 EnMin= 0.445289958793182E-01 IErMin= 7 ErrMin= 2.38D-06
 ErrMax= 2.38D-06  0.00D+00 EMaxC= 1.00D-01 BMatC= 1.90D-10 BMatP= 2.51D-08
 IDIUse=1 WtCom= 1.00D+00 WtEn= 0.00D+00
 Coeff-Com:  0.356D-02-0.252D-01 0.322D-01-0.573D-02 0.480D-02-0.204D+00
 Coeff-Com:  0.119D+01
 Coeff:      0.356D-02-0.252D-01 0.322D-01-0.573D-02 0.480D-02-0.204D+00
 Coeff:      0.119D+01
 Gap=     0.437 Goal=   None    Shift=    0.000
 Gap=     0.497 Goal=   None    Shift=    0.000
 RMSDP=2.47D-06 MaxDP=1.59D-05 DE=-5.08D-08 OVMax= 1.50D-05

 Cycle   8  Pass 1  IDiag  3:
 E= 0.445289957504045E-01 Delta-E=       -0.000000000129 Rises=F Damp=F
 DIIS: error= 4.50D-07 at cycle   8 NSaved=   8.
 NSaved= 8 IEnMin= 8 EnMin= 0.445289957504045E-01 IErMin= 8 ErrMin= 4.50D-07
 ErrMax= 4.50D-07  0.00D+00 EMaxC= 1.00D-01 BMatC= 8.55D-12 BMatP= 1.90D-10
 IDIUse=1 WtCom= 1.00D+00 WtEn= 0.00D+00
 Coeff-Com:  0.115D-03-0.113D-02 0.262D-02-0.441D-02 0.550D-02 0.208D-01
 Coeff-Com: -0.347D+00 0.132D+01
 Coeff:      0.115D-03-0.113D-02 0.262D-02-0.441D-02 0.550D-02 0.208D-01
 Coeff:     -0.347D+00 0.132D+01
 Gap=     0.437 Goal=   None    Shift=    0.000
 Gap=     0.497 Goal=   None    Shift=    0.000
 RMSDP=9.44D-07 MaxDP=5.73D-06 DE=-1.29D-10 OVMax= 5.21D-06

 Cycle   9  Pass 1  IDiag  3:
 E= 0.445289957380126E-01 Delta-E=       -0.000000000012 Rises=F Damp=F
 DIIS: error= 2.74D-08 at cycle   9 NSaved=   9.
 NSaved= 9 IEnMin= 9 EnMin= 0.445289957380126E-01 IErMin= 9 ErrMin= 2.74D-08
 ErrMax= 2.74D-08  0.00D+00 EMaxC= 1.00D-01 BMatC= 1.70D-14 BMatP= 8.55D-12
 IDIUse=1 WtCom= 1.00D+00 WtEn= 0.00D+00
 Coeff-Com: -0.554D-04 0.525D-03-0.112D-02 0.171D-02-0.226D-02-0.598D-02
 Coeff-Com:  0.132D+00-0.542D+00 0.142D+01
 Coeff:     -0.554D-04 0.525D-03-0.112D-02 0.171D-02-0.226D-02-0.598D-02
 Coeff:      0.132D+00-0.542D+00 0.142D+01
 Gap=     0.437 Goal=   None    Shift=    0.000
 Gap=     0.497 Goal=   None    Shift=    0.000
 RMSDP=2.61D-08 MaxDP=1.88D-07 DE=-1.24D-11 OVMax= 1.72D-07

 Cycle  10  Pass 1  IDiag  3:
 E= 0.445289957380055E-01 Delta-E=       -0.000000000000 Rises=F Damp=F
 DIIS: error= 2.94D-09 at cycle  10 NSaved=  10.
 NSaved=10 IEnMin=10 EnMin= 0.445289957380055E-01 IErMin=10 ErrMin= 2.94D-09
 ErrMax= 2.94D-09  0.00D+00 EMaxC= 1.00D-01 BMatC= 2.21D-16 BMatP= 1.70D-14
 IDIUse=1 WtCom= 1.00D+00 WtEn= 0.00D+00
 Coeff-Com:  0.889D-05-0.836D-04 0.175D-03-0.262D-03 0.339D-03 0.824D-03
 Coeff-Com: -0.198D-01 0.826D-01-0.263D+00 0.120D+01
 Coeff:      0.889D-05-0.836D-04 0.175D-03-0.262D-03 0.339D-03 0.824D-03
 Coeff:     -0.198D-01 0.826D-01-0.263D+00 0.120D+01
 Gap=     0.437 Goal=   None    Shift=    0.000
 Gap=     0.497 Goal=   None    Shift=    0.000
 RMSDP=6.89D-09 MaxDP=4.27D-08 DE=-7.11D-15 OVMax= 4.13D-08

 Cycle  11  Pass 2  IDiag  1:
 SCF Done:  E(UAM1) =  0.445289957380E-01 A.U. after   11 cycles
            NFock= 10  Conv=0.69D-08     -V/T= 1.0007
 <Sx>= 0.0000 <Sy>= 0.0000 <Sz>= 0.5000 <S**2>= 0.7726 S= 0.5112
 <L.S>= 0.000000000000E+00
 KE=-5.957473817854D+01 PE=-3.662015562137D+01 EE= 4.149777338393D+01
 Annihilation of the first spin contaminant:
 S**2 before annihilation     0.7726,   after     0.7500
 Leave Link  502 at Wed Oct 28 14:20:58 2020, MaxMem=  2684354560 cpu:               0.7 elap:               0.1
 (Enter /udrive/faculty/rpeverati/g16/g16/l508.exe)
 QCSCF skips out because SCF is already converged.
 Leave Link  508 at Wed Oct 28 14:20:59 2020, MaxMem=  2684354560 cpu:               0.1 elap:               0.1
 (Enter /udrive/faculty/rpeverati/g16/g16/l701.exe)
 ... and contract with generalized density number  0.
 Compute integral first derivatives.
 Leave Link  701 at Wed Oct 28 14:20:59 2020, MaxMem=  2684354560 cpu:               0.9 elap:               0.1
 (Enter /udrive/faculty/rpeverati/g16/g16/l702.exe)
 L702 exits ... SP integral derivatives will be done elsewhere.
 Leave Link  702 at Wed Oct 28 14:20:59 2020, MaxMem=  2684354560 cpu:               0.3 elap:               0.1
 (Enter /udrive/faculty/rpeverati/g16/g16/l703.exe)
 Integral derivatives from FoFJK, PRISM(SPDF).
 Compute integral first derivatives, UseDBF=F ICtDFT=           0.
 Calling FoFJK, ICntrl=      2127 FMM=F ISym2X=1 I1Cent= 0 IOpClX= 1 NMat=1 NMatS=1 NMatT=0.
 FoFJK:  IHMeth= 8 ICntrl=    2127 DoSepK=F KAlg= 0 I1Cent=           0 FoldK=F
 IRaf=         0 NMat=       1 IRICut=       1 DoRegI=T DoRafI=F ISym2E= 1 IDoP0=3 IntGTp=3.
 FoFCou: FMM=F IPFlag=           0 FMFlag=      100000 FMFlg1=         800
         NFxFlg=           0 DoJE=F BraDBF=F KetDBF=F FulRan=T
         wScrn=  0.000000 ICntrl=      2127 IOpCl=  1 I1Cent=           0 NGrid=           0
         NMat0=    1 NMatS0=      1 NMatT0=    0 NMatD0=    1 NMtDS0=    0 NMtDT0=    0
 Petite list used in FoFCou.
 Leave Link  703 at Wed Oct 28 14:20:59 2020, MaxMem=  2684354560 cpu:               0.4 elap:               0.1
 (Enter /udrive/faculty/rpeverati/g16/g16/l716.exe)
 Dipole        = 1.02345594D-16 7.95814220D-17-2.41836946D-01
 ***** Axes restored to original set *****
 -------------------------------------------------------------------
 Center     Atomic                   Forces (Hartrees/Bohr)
 Number     Number              X              Y              Z
 -------------------------------------------------------------------
      1        1           0.000000000   -0.000000000    0.002366866
      2        9          -0.000000000   -0.000000000   -0.008582671
      3        9           0.000000000    0.000000000    0.006215806
 -------------------------------------------------------------------
 Cartesian Forces:  Max     0.008582671 RMS     0.003619400
 Leave Link  716 at Wed Oct 28 14:20:59 2020, MaxMem=  2684354560 cpu:               0.3 elap:               0.1
 (Enter /udrive/faculty/rpeverati/g16/g16/l103.exe)

 GradGradGradGradGradGradGradGradGradGradGradGradGradGradGradGradGradGrad
 Berny optimization.
 Optmz: redundant internal coordinate code flag= 1
 Red2BG:  D1=  7.07D-01 OD1=  3.33D-16 B2RMS=  0.00D+00 IAprox=1
 Red2BG is reusing G-inverse.
 Internal  Forces:  Max     0.006215806 RMS     0.003325594
 Search for a saddle point.
 Step number   2 out of a maximum of   50
 All quantities printed in internal units (Hartrees-Bohrs-Radians)
 Swapping is turned off.
 Update second derivatives using D2CorX and points    1    2
 The second derivative matrix:
                          R1        R2        A1        A2
           R1          -0.03359
           R2           0.09594   0.44459
           A1          -0.00000  -0.00000   0.00230
           A2          -0.00000  -0.00000   0.00000   0.00230
 ITU=  0  0
 Eigenvectors of the second derivative matrix:
                           1         2         3         4
     Eigenvalues --    -0.05212   0.00230   0.00230   0.46312
   1         R1        -0.98185  -0.00000  -0.00000  -0.18965
   2         R2         0.18965   0.00000   0.00000  -0.98185
   3         A1        -0.00000   0.70716   0.70705   0.00000
   4         A2        -0.00000  -0.70705   0.70716   0.00000
 RLam0= 2.34D-04.
 Iter=   1 RLamda= 0.00000000D+00 Sum=-6.90305876D-05.
 Iter=   2 RLamda=-6.90305876D-05 Sum=-6.90202997D-05.
 Iter=   3 RLamda=-6.90202997D-05 Sum=-6.90203012D-05.
 RFO step:  Lambda0=2.343375298D-04 Lambda=-6.90202997D-05.
 Linear search not attempted -- option 19 set.
 Iteration  1 RMS(Cart)=  0.02761964 RMS(Int)=  0.00000000
 SLEqS3 Cycle:    91 Max:0.460064E-12 RMS:0.265888E-12 Conv:0.253319E-14
 SLEqS3 Cycle:    91 Max:0.296703E-11 RMS:0.171476E-11 Conv:0.253319E-14
 Iteration  2 RMS(Cart)=  0.00000000 RMS(Int)=  0.00000000
 ITry= 1 IFail=0 DXMaxC= 4.51D-02 DCOld= 1.00D+10 DXMaxT= 1.00D-01 DXLimC= 3.00D+00 Rises=F
 ClnCor:  largest displacement from symmetrization is 2.47D-07 for atom     2.
 Variable       Old X    -DE/DX   Delta X   Delta X   Delta X     New X
                                 (Linear)    (Quad)   (Total)
    R1        3.12597  -0.00237   0.00000   0.06800   0.06800   3.19397
    R2        2.73177   0.00622   0.00000  -0.00070  -0.00070   2.73106
    A1        3.14159   0.00000   0.00000   0.00000   0.00000   3.14159
    A2        3.14159  -0.00000   0.00000   0.00000   0.00000   3.14159
         Item               Value     Threshold  Converged?
 Maximum Force            0.006216     0.000450     NO 
 RMS     Force            0.003326     0.000300     NO 
 Maximum Displacement     0.045101     0.001800     NO 
 RMS     Displacement     0.027620     0.001200     NO 
[...]
     2   9    -0.00  -0.12  -0.00    -0.12   0.00   0.00    -0.00   0.00  -0.05
     3   9     0.00   0.07   0.00     0.07  -0.00  -0.00     0.00  -0.00  -0.01
                      4
                     SG
 Frequencies --   1311.8796
 Red. masses --     15.2545
 Frc consts  --     15.4681
 IR Inten    --     12.2343
  Atom  AN      X      Y      Z
     1   1     0.00  -0.00  -0.46
     2   9    -0.00   0.00  -0.62
     3   9     0.00  -0.00   0.64

 -------------------
 - Thermochemistry -
 -------------------
 Temperature   298.150 Kelvin.  Pressure   1.00000 Atm.
 Atom     1 has atomic number  1 and mass   1.00783
 Atom     2 has atomic number  9 and mass  18.99840
 Atom     3 has atomic number  9 and mass  18.99840
 Molecular mass:    39.00463 amu.
 Principal axes and moments of inertia in atomic units:
                           1         2         3
     Eigenvalues --     0.00000  93.07626  93.07626
           X            0.00000   0.00000   1.00000
           Y            0.00000   1.00000   0.00000
           Z            1.00000   0.00000   0.00000
 This molecule is a prolate symmetric top.
 Rotational symmetry number  1.
 Rotational temperature (Kelvin)      0.93057
 Rotational constant (GHZ):          19.389920
 Zero-point vibrational energy       9703.7 (Joules/Mol)
                                    2.31924 (Kcal/Mol)
 Warning -- explicit consideration of   3 degrees of freedom as
           vibrations may cause significant error
 Vibrational temperatures:     61.86    61.86   322.96  1887.50
          (Kelvin)
 
 Zero-point correction=                           0.003696 (Hartree/Particle)
 Thermal correction to Energy=                    0.008290
 Thermal correction to Enthalpy=                  0.009234
 Thermal correction to Gibbs Free Energy=        -0.021138
 Sum of electronic and zero-point Energies=              0.048537
 Sum of electronic and thermal Energies=                 0.053130
 Sum of electronic and thermal Enthalpies=               0.054074
 Sum of electronic and thermal Free Energies=            0.023703
 
                     E (Thermal)             CV                S
                      KCal/Mol        Cal/Mol-Kelvin    Cal/Mol-Kelvin
 Total                    5.202             10.874             63.923
 Electronic               0.000              0.000              1.377
 Translational            0.889              2.981             36.912
 Rotational               0.592              1.987             13.452
 Vibrational              3.721              5.906             12.181
 Vibration     1          0.595              1.980              5.116
 Vibration     2          0.595              1.980              5.116
 Vibration     3          0.649              1.804              1.923
                       Q            Log10(Q)             Ln(Q)
 Total Bot       0.528101D+10          9.722717         22.387383
 Total V=0       0.264689D+12         11.422735         26.301820
 Vib (Bot)       0.860742D+00         -0.065127         -0.149961
 Vib (Bot)    1  0.481140D+01          0.682272          1.570989
 Vib (Bot)    2  0.481140D+01          0.682272          1.570989
 Vib (Bot)    3  0.879533D+00         -0.055748         -0.128364
 Vib (V=0)       0.431411D+02          1.634891          3.764475
 Vib (V=0)    1  0.533731D+01          0.727323          1.674722
 Vib (V=0)    2  0.533731D+01          0.727323          1.674722
 Vib (V=0)    3  0.151172D+01          0.179472          0.413249
 Electronic      0.200000D+01          0.301030          0.693147
 Translational   0.957477D+07          6.981128         16.074642
 Rotational      0.320395D+03          2.505686          5.769555
 
                                                          TS search on BH76.
                                                             IR Spectrum
 
     1                                                                                                                               
     3                                                                                                         2                     
     1                                                                                                         2                4    
     2                                                                                                         4                3    
 
     X                                                                                                         X                X    
     X                                                                                                         X                     
     X                                                                                                         X                     
     X                                                                                                         X                     
     X                                                                                                         X                     
                                                                                                               X                     
                                                                                                               X                     
                                                                                                               X                     
                                                                                                               X                     
                                                                                                               X                     
                                                                                                               X                     
                                                                                                               X                     
                                                                                                               X                     
                                                                                                               X                     
                                                                                                               X                     
                                                                                                               X                     
                                                                                                               X                     
                                                                                                               X                     
                                                                                                               X                     
                                                                                                               X                     
 
 ***** Axes restored to original set *****
 -------------------------------------------------------------------
 Center     Atomic                   Forces (Hartrees/Bohr)
 Number     Number              X              Y              Z
 -------------------------------------------------------------------
      1        1          -0.000000000   -0.000000000    0.000388481
      2        9          -0.000000000   -0.000000000   -0.000827453
      3        9           0.000000000    0.000000000    0.000438972
 -------------------------------------------------------------------
 Cartesian Forces:  Max     0.000827453 RMS     0.000338016
 Force constants in Cartesian coordinates: 
                1             2             3             4             5 
      1  0.909400D-04
      2  0.000000D+00  0.909400D-04
      3  0.000000D+00  0.000000D+00  0.274813D-02
      4 -0.657590D-04  0.000000D+00  0.000000D+00 -0.154172D-03
      5  0.000000D+00 -0.657590D-04  0.000000D+00  0.000000D+00 -0.154172D-03
      6  0.000000D+00  0.000000D+00  0.214008D-01  0.000000D+00  0.000000D+00
      7 -0.251810D-04  0.000000D+00  0.000000D+00  0.219931D-03  0.000000D+00
      8  0.000000D+00 -0.251810D-04  0.000000D+00  0.000000D+00  0.219931D-03
      9  0.000000D+00  0.000000D+00 -0.241490D-01  0.000000D+00  0.000000D+00
                6             7             8             9 
      6  0.588117D+00
      7  0.000000D+00 -0.194749D-03
      8  0.000000D+00  0.000000D+00 -0.194749D-03
      9 -0.609518D+00  0.000000D+00  0.000000D+00  0.633667D+00
 FormGI is forming the generalized inverse of G from B-inverse, IUseBI=4.
 Force constants in internal coordinates: 
                1             2             3             4 
      1  0.274813D-02
      2  0.241490D-01  0.633666D+00
      3  0.000000D+00  0.000000D+00 -0.240262D-03
      4  0.000000D+00  0.000000D+00  0.000000D+00 -0.240262D-03
 Leave Link  716 at Wed Oct 28 14:21:13 2020, MaxMem=  2684354560 cpu:               0.4 elap:               0.1
 (Enter /udrive/faculty/rpeverati/g16/g16/l103.exe)

 GradGradGradGradGradGradGradGradGradGradGradGradGradGradGradGradGradGrad
 Berny optimization.
 Optmz: redundant internal coordinate code flag= 1
 Red2BG:  D1=  6.43D-01 OD1=  3.33D-16 B2RMS=  0.00D+00 IAprox=1
 Red2BG is reusing G-inverse.
 Internal  Forces:  Max     0.000438972 RMS     0.000293093
 Search for a local minimum.
 Step number   1 out of a maximum of    2
 All quantities printed in internal units (Hartrees-Bohrs-Radians)
 Second derivative matrix not updated -- analytic derivatives used.
 The second derivative matrix:
                          R1        R2        A1        A2
           R1           0.00275
           R2           0.02415   0.63367
           A1          -0.00000  -0.00000  -0.00024
           A2          -0.00000  -0.00000   0.00000  -0.00024
 ITU=  0
 Eigenvectors of the second derivative matrix:
                           1         2         3         4
     Eigenvalues --    -0.00024  -0.00024   0.00183   0.63459
   1         R1        -0.00000   0.00000  -0.99927  -0.03819
   2         R2         0.00000  -0.00000   0.03819  -0.99927
   3         A1         1.00000   0.00293  -0.00000  -0.00000
   4         A2        -0.00293   1.00000   0.00000   0.00000
 Eigenvalue     1 is  -2.40D-04 should be greater than     0.000000 Eigenvector:
                          A1        A2        R1        R2
   1                    1.00000  -0.00293  -0.00000   0.00000
 Eigenvalue     2 is  -2.40D-04 should be greater than     0.000000 Eigenvector:
                          A2        A1        R1        R2
   1                    1.00000   0.00293   0.00000  -0.00000
 Angle between quadratic step and forces=  46.13 degrees.
 Linear search not attempted -- first point.
 Iteration  1 RMS(Cart)=  0.07984912 RMS(Int)=  0.01084547
 Iteration  2 RMS(Cart)=  0.00885529 RMS(Int)=  0.00000000
 Iteration  3 RMS(Cart)=  0.00000000 RMS(Int)=  0.00000000
 ITry= 1 IFail=0 DXMaxC= 1.45D-01 DCOld= 1.00D+10 DXMaxT= 3.00D-01 DXLimC= 3.00D+00 Rises=F
 ClnCor:  largest displacement from symmetrization is 9.20D-12 for atom     2.
 Variable       Old X    -DE/DX   Delta X   Delta X   Delta X     New X
                                 (Linear)    (Quad)   (Total)
    R1        3.52162  -0.00039   0.00000  -0.22169  -0.22169   3.29993
    R2        2.70938   0.00044   0.00000   0.00914   0.00914   2.71852
    A1        3.14159   0.00000   0.00000   0.00000   0.00000   3.14159
    A2        3.14159  -0.00000   0.00000  -0.00000   0.00000   3.14159
         Item               Value     Threshold  Converged?
 Maximum Force            0.000439     0.000450     YES
 RMS     Force            0.000293     0.000300     YES
 Maximum Displacement     0.144747     0.001800     NO 
 RMS     Displacement     0.088698     0.001200     NO 
 Predicted change in Energy=-4.506777D-05
                           ----------------------------
                           ! Non-Optimized Parameters !
                           ! (Angstroms and Degrees)  !
 --------------------------                            --------------------------
 ! Name  Definition              Value          Derivative Info.                !
 --------------------------------------------------------------------------------
 ! R1    R(1,2)                  1.7462         -DE/DX =   -0.0004              !
 ! R2    R(2,3)                  1.4386         -DE/DX =    0.0004              !
 ! A1    L(1,2,3,-1,-1)        180.0            -DE/DX =    0.0                 !
 ! A2    L(1,2,3,-2,-2)        180.0            -DE/DX =    0.0                 !
 --------------------------------------------------------------------------------
 GradGradGradGradGradGradGradGradGradGradGradGradGradGradGradGradGradGrad

 Leave Link  103 at Wed Oct 28 14:21:13 2020, MaxMem=  2684354560 cpu:               0.3 elap:               0.1
 (Enter /udrive/faculty/rpeverati/g16/g16/l9999.exe)

 ----------------------------------------------------------------------

 Electric dipole moment (input orientation):
 (Debye = 10**-18 statcoulomb cm , SI units = C m)
                  (au)            (Debye)         (10**-30 SI)
   Tot        0.909142D-01      0.231081D+00      0.770803D+00
   x          0.000000D+00      0.000000D+00      0.000000D+00
   y          0.000000D+00      0.000000D+00      0.000000D+00
   z         -0.909142D-01     -0.231081D+00     -0.770803D+00

 Dipole polarizability, Alpha (input orientation).
 (esu units = cm**3 , SI units = C**2 m**2 J**-1)
 Alpha(0;0):
               (au)            (10**-24 esu)      (10**-40 SI)
   iso        0.574326D+01      0.851064D+00      0.946936D+00
   aniso      0.170566D+02      0.252753D+01      0.281226D+01
   xx         0.577244D-01      0.855388D-02      0.951747D-02
   yx         0.000000D+00      0.000000D+00      0.000000D+00
   yy         0.577244D-01      0.855388D-02      0.951747D-02
   zx         0.000000D+00      0.000000D+00      0.000000D+00
   zy         0.000000D+00      0.000000D+00      0.000000D+00
   zz         0.171143D+02      0.253608D+01      0.282177D+01

 First dipole hyperpolarizability, Beta (input orientation).
 ||, _|_  parallel and perpendicular components, (z) with respect to z axis,
 vector components x,y,z.  Values do not include the 1/n! factor of 1/2.
 (esu units = statvolt**-1 cm**4 , SI units = C**3 m**3 J**-2)
 Beta(0;0,0):
               (au)            (10**-30 esu)      (10**-50 SI)
   || (z)     0.165560D+03      0.143031D+01      0.530844D+00
   _|_(z)     0.551865D+02      0.476768D+00      0.176948D+00
   x          0.000000D+00      0.000000D+00      0.000000D+00
   y          0.000000D+00      0.000000D+00      0.000000D+00
   z          0.827798D+03      0.715153D+01      0.265422D+01
   ||         0.165560D+03      0.143031D+01      0.530844D+00
   xxx        0.000000D+00      0.000000D+00      0.000000D+00
   xxy        0.000000D+00      0.000000D+00      0.000000D+00
   yxy        0.000000D+00      0.000000D+00      0.000000D+00
   yyy        0.000000D+00      0.000000D+00      0.000000D+00
   xxz       -0.121481D+00     -0.104950D-02     -0.389513D-03
   yxz        0.000000D+00      0.000000D+00      0.000000D+00
   yyz       -0.121481D+00     -0.104950D-02     -0.389513D-03
   zxz        0.000000D+00      0.000000D+00      0.000000D+00
   zyz        0.000000D+00      0.000000D+00      0.000000D+00
   zzz        0.276175D+03      0.238594D+01      0.885518D+00

 ----------------------------------------------------------------------

 Dipole orientation:
     1         -0.00000000         -0.00000000          4.50020566
     9         -0.00000000         -0.00000000          0.97858565
     9          0.00000000          0.00000000         -1.73079131

 Electric dipole moment (dipole orientation):
 (Debye = 10**-18 statcoulomb cm , SI units = C m)
                  (au)            (Debye)         (10**-30 SI)
   Tot        0.909142D-01      0.231081D+00      0.770803D+00
   x          0.000000D+00      0.000000D+00      0.000000D+00
   y          0.000000D+00      0.000000D+00      0.000000D+00
   z          0.909142D-01      0.231081D+00      0.770803D+00

 Dipole polarizability, Alpha (dipole orientation).
 (esu units = cm**3 , SI units = C**2 m**2 J**-1)
 Alpha(0;0):
               (au)            (10**-24 esu)      (10**-40 SI)
   iso        0.574326D+01      0.851064D+00      0.946936D+00
   aniso      0.170566D+02      0.252753D+01      0.281226D+01
   xx         0.577244D-01      0.855388D-02      0.951747D-02
   yx         0.000000D+00      0.000000D+00      0.000000D+00
   yy         0.577244D-01      0.855388D-02      0.951747D-02
   zx         0.000000D+00      0.000000D+00      0.000000D+00
   zy         0.000000D+00      0.000000D+00      0.000000D+00
   zz         0.171143D+02      0.253608D+01      0.282177D+01

 First dipole hyperpolarizability, Beta (dipole orientation).
 ||, _|_  parallel and perpendicular components, (z) with respect to z axis,
 vector components x,y,z.  Values do not include the 1/n! factor of 1/2.
 (esu units = statvolt**-1 cm**4 , SI units = C**3 m**3 J**-2)
 Beta(0;0,0):
               (au)            (10**-30 esu)      (10**-50 SI)
   || (z)    -0.165560D+03     -0.143031D+01     -0.530844D+00
   _|_(z)    -0.551865D+02     -0.476768D+00     -0.176948D+00
   x          0.000000D+00      0.000000D+00      0.000000D+00
   y          0.000000D+00      0.000000D+00      0.000000D+00
   z         -0.827798D+03     -0.715153D+01     -0.265422D+01
   ||         0.165560D+03      0.143031D+01      0.530844D+00
   xxx        0.000000D+00      0.000000D+00      0.000000D+00
   xxy        0.000000D+00      0.000000D+00      0.000000D+00
   yxy        0.000000D+00      0.000000D+00      0.000000D+00
   yyy        0.000000D+00      0.000000D+00      0.000000D+00
   xxz        0.121481D+00      0.104950D-02      0.389513D-03
   yxz        0.000000D+00      0.000000D+00      0.000000D+00
   yyz        0.121481D+00      0.104950D-02      0.389513D-03
   zxz        0.000000D+00      0.000000D+00      0.000000D+00
   zyz        0.000000D+00      0.000000D+00      0.000000D+00
   zzz       -0.276175D+03     -0.238594D+01     -0.885518D+00

 ----------------------------------------------------------------------

 Test job not archived.
 1\1\GINC-NODE18\Freq\UAM1\ZDO\F2H1(2)\RPEVERATI\28-Oct-2020\0\\#P Freq
  AM1 5D 7F Integral=UltraFineGrid SCF=(NoSymm,XQC,MaxCyc=120) IOp(1/33
 =1) Geom=Check Guess=Read\\TS search on BH76.\\0,2\H,0.,0.,-2.38140627
 72\F,0.,0.,-0.5178452265\F,0.,0.,0.9158953178\\Version=ES64L-G16RevA.0
 3\State=2-SG\HF=0.0448405\S2=0.754394\S2-1=0.\S2A=0.75\RMSD=9.801e-11\
 RMSF=3.380e-04\ZeroPoint=0.003696\Thermal=0.0082897\Dipole=0.,0.,-0.09
 09142\DipoleDeriv=0.0172261,0.,0.,0.,0.0172261,0.,0.,0.,-0.203388,-0.0
 060605,0.,0.,0.,-0.0060605,0.,0.,0.,0.5251194,-0.0111656,0.,0.,0.,-0.0
 111656,0.,0.,0.,-0.3217315\Polar=0.0577244,0.,0.0577244,0.,0.,17.11433
 87\HyperPolar=0.,0.,0.,0.,-0.1214814,0.,-0.1214814,0.,0.,276.1754795\P
 G=C*V [C*(H1F1F1)]\NImag=0\\0.00009094,0.,0.00009094,0.,0.,0.00274813,
 -0.00006576,0.,0.,-0.00015417,0.,-0.00006576,0.,0.,-0.00015417,0.,0.,0
 .02140082,0.,0.,0.58811663,-0.00002518,0.,0.,0.00021993,0.,0.,-0.00019
 475,0.,-0.00002518,0.,0.,0.00021993,0.,0.,-0.00019475,0.,0.,-0.0241489
 5,0.,0.,-0.60951750,0.,0.,0.63366650\\0.,0.,-0.00038848,0.,0.,0.000827
 45,0.,0.,-0.00043897\\\@


 The theorems and results in mathematical physics are
 not theorems and results about Nature, but about our
 description of it.
                   --Gerard 't Hooft
 Job cpu time:       0 days  0 hours  0 minutes 23.2 seconds.
 Elapsed time:       0 days  0 hours  0 minutes  2.9 seconds.
 File lengths (MBytes):  RWF=      5 Int=      0 D2E=      0 Chk=      2 Scr=      1
 Normal termination of Gaussian 16 at Wed Oct 28 14:21:13 2020.
