 Entering Gaussian System, Link 0=g16
 Input=MN_78_RKT01_BH76_AM1_SE.in
 Output=MN_78_RKT01_BH76_AM1_SE.log
 Initial command:
 /udrive/faculty/rpeverati/g16/g16/l1.exe "/udrive/scratch-directories/gaussian09/rpeverati/Gau-33532.inp" -scrdir="/udrive/scratch-directories/gaussian09/rpeverati/"
 Entering Link 1 = /udrive/faculty/rpeverati/g16/g16/l1.exe PID=     33544.
  
 Copyright (c) 1988,1990,1992,1993,1995,1998,2003,2009,2016,
            Gaussian, Inc.  All Rights Reserved.
  
 This is part of the Gaussian(R) 16 program.  It is based on
 the Gaussian(R) 09 system (copyright 2009, Gaussian, Inc.),
 the Gaussian(R) 03 system (copyright 2003, Gaussian, Inc.),
 the Gaussian(R) 98 system (copyright 1998, Gaussian, Inc.),
 the Gaussian(R) 94 system (copyright 1995, Gaussian, Inc.),
 the Gaussian 92(TM) system (copyright 1992, Gaussian, Inc.),
 the Gaussian 90(TM) system (copyright 1990, Gaussian, Inc.),
 the Gaussian 88(TM) system (copyright 1988, Gaussian, Inc.),
 the Gaussian 86(TM) system (copyright 1986, Carnegie Mellon
 University), and the Gaussian 82(TM) system (copyright 1983,
 Carnegie Mellon University). Gaussian is a federally registered
 trademark of Gaussian, Inc.
  
 This software contains proprietary and confidential information,
 including trade secrets, belonging to Gaussian, Inc.
  
 This software is provided under written license and may be
 used, copied, transmitted, or stored only in accord with that
 written license.
  
 The following legend is applicable only to US Government
 contracts under FAR:
  
                    RESTRICTED RIGHTS LEGEND
  
 Use, reproduction and disclosure by the US Government is
 subject to restrictions as set forth in subparagraphs (a)
 and (c) of the Commercial Computer Software - Restricted
 Rights clause in FAR 52.227-19.
  
 Gaussian, Inc.
 340 Quinnipiac St., Bldg. 40, Wallingford CT 06492
  
  
 ---------------------------------------------------------------
 Warning -- This program may not be used in any manner that
 competes with the business of Gaussian, Inc. or will provide
 assistance to any competitor of Gaussian, Inc.  The licensee
 of this program is prohibited from giving any competitor of
 Gaussian, Inc. access to this program.  By using this program,
 the user acknowledges that Gaussian, Inc. is engaged in the
 business of creating and licensing software in the field of
 computational chemistry and represents and warrants to the
 licensee that it is not a competitor of Gaussian, Inc. and that
 it will not use this program in any manner prohibited above.
 ---------------------------------------------------------------
  

 Cite this work as:
 Gaussian 16, Revision A.03,
 M. J. Frisch, G. W. Trucks, H. B. Schlegel, G. E. Scuseria, 
 M. A. Robb, J. R. Cheeseman, G. Scalmani, V. Barone, 
 G. A. Petersson, H. Nakatsuji, X. Li, M. Caricato, A. V. Marenich, 
 J. Bloino, B. G. Janesko, R. Gomperts, B. Mennucci, H. P. Hratchian, 
 J. V. Ortiz, A. F. Izmaylov, J. L. Sonnenberg, D. Williams-Young, 
 F. Ding, F. Lipparini, F. Egidi, J. Goings, B. Peng, A. Petrone, 
 T. Henderson, D. Ranasinghe, V. G. Zakrzewski, J. Gao, N. Rega, 
 G. Zheng, W. Liang, M. Hada, M. Ehara, K. Toyota, R. Fukuda, 
 J. Hasegawa, M. Ishida, T. Nakajima, Y. Honda, O. Kitao, H. Nakai, 
 T. Vreven, K. Throssell, J. A. Montgomery, Jr., J. E. Peralta, 
 F. Ogliaro, M. J. Bearpark, J. J. Heyd, E. N. Brothers, K. N. Kudin, 
 V. N. Staroverov, T. A. Keith, R. Kobayashi, J. Normand, 
 K. Raghavachari, A. P. Rendell, J. C. Burant, S. S. Iyengar, 
 J. Tomasi, M. Cossi, J. M. Millam, M. Klene, C. Adamo, R. Cammi, 
 J. W. Ochterski, R. L. Martin, K. Morokuma, O. Farkas, 
 J. B. Foresman, and D. J. Fox, Gaussian, Inc., Wallingford CT, 2016.
 
 ******************************************
 Gaussian 16:  ES64L-G16RevA.03 25-Dec-2016
                21-Oct-2020 
 ******************************************
 %NoSave
 %nproc=12
 Will use up to   12 processors via shared memory.
 %mem=20GB
 %chk=MN_78_RKT01_BH76_AM1_SE
 ----------------------------------------------------------------------
 #P Opt(TS,MaxCyc=50,NoEigenTest,MaxStep=10,AddRedundant) AM1 5D 7F Int
 egral=UltraFineGrid SCF=(NoSymm,XQC,MaxCyc=120) IOp(1/33=1)
 ----------------------------------------------------------------------
 1/5=1,6=50,8=10,11=1,18=120,26=1,33=1,38=1/1,3;
 2/9=110,12=2,17=6,18=5,40=1/2;
 3/5=2,8=11,25=1,41=700000,71=1,75=-5/1,2,3;
 4/9=2,35=1/1;
 5/5=2,7=120,8=3,13=1,35=1,38=5/2,8;
 6/7=2,8=2,9=2,10=2,28=1/1;
 7//1,2,3,16;
 1/5=1,6=50,8=10,11=1,18=20,26=1,33=1/3(2);
 2/9=110/2;
 99//99;
 2/9=110/2;
 3/5=2,8=11,25=1,41=700000,71=1,75=-5,135=20/1,2,3;
 4/5=5,9=2,16=3,35=1/1;
 5/5=2,7=120,8=3,13=1,35=1,38=5/2,8;
 7//1,2,3,16;
 1/5=1,6=50,8=10,11=1,18=20,26=1,33=1/3(-5);
 2/9=110/2;
 6/7=2,8=2,9=2,10=2,19=2,28=1/1;
 99/9=1/99;
 Leave Link    1 at Wed Oct 21 14:17:25 2020, MaxMem=  2684354560 cpu:              10.8 elap:               1.1
 (Enter /udrive/faculty/rpeverati/g16/g16/l101.exe)
 ONIOM data not found on unit 2.
 ------------------
 TS search on BH76.
 ------------------
 TstMul:  ICh=     0
 TstMul:  Mul=     2
 TstMul:  ICh=     0
 TstMul:  Mul=     2
 Symbolic Z-matrix:
 Charge =  0 Multiplicity = 2
 H                     0.        0.       -1.34063 
 Cl                    0.        0.        0.20325 
 H                     0.        0.       -2.11466 
 
 RdStrC is calling ZToCFu for IStruc=1 NZ=     3.
 PrtBox:  NBox=     1 Levels=  1 BoxLen=    8.00 SMaxX=        4.38
          Shift=            0.000000            0.000000            3.996130
 Box      1 Number                   0 centers from      1 to      3:
 After GenITR:
 ITRead=  0  0  0
 MicOpt= -1 -1 -1
 Add virtual bond connecting atoms Cl2        and H1         Dist= 2.92D+00.
 The following ModRedundant input section has been read:
 
 ITRead=  0  0  0
 MicOpt= -1 -1 -1
 NAtoms=      3 NQM=        3 NQMF=       0 NMMI=      0 NMMIF=      0
                NMic=       0 NMicF=      0.
                    Isotopes and Nuclear Properties:
 (Nuclear quadrupole moments (NQMom) in fm**2, nuclear magnetic moments (NMagM)
  in nuclear magnetons)

  Atom         1           2           3
 IAtWgt=           1          35           1
 AtmWgt=   1.0078250  34.9688527   1.0078250
 NucSpn=           1           3           1
 AtZEff=   0.0000000   0.0000000   0.0000000
 NQMom=    0.0000000  -8.1650000   0.0000000
 NMagM=    2.7928460   0.8218740   2.7928460
 AtZNuc=   1.0000000  17.0000000   1.0000000
 No MM parameters found.
 Leave Link  101 at Wed Oct 21 14:17:27 2020, MaxMem=  2684354560 cpu:              13.2 elap:               1.5
 (Enter /udrive/faculty/rpeverati/g16/g16/l103.exe)

 GradGradGradGradGradGradGradGradGradGradGradGradGradGradGradGradGradGrad
 Berny optimization.
 Optmz: redundant internal coordinate code flag= 1
 Initialization pass.
                           ----------------------------
                           !    Initial Parameters    !
                           ! (Angstroms and Degrees)  !
 --------------------------                            --------------------------
 ! Name  Definition              Value          Derivative Info.                !
 --------------------------------------------------------------------------------
 ! R1    R(1,2)                  1.5439         estimate D2E/DX2                !
 ! R2    R(1,3)                  0.774          estimate D2E/DX2                !
 ! A1    L(2,1,3,-1,-1)        180.0            estimate D2E/DX2                !
 ! A2    L(2,1,3,-2,-2)        180.0            estimate D2E/DX2                !
 --------------------------------------------------------------------------------
 Maximum allowed force set to 1.00D+20.
 Trust Radius=1.00D-01 FncErr=1.00D-07 GrdErr=1.00D-07 EigMax=2.50D+02 EigMin=1.00D-04
 Number of steps in this run=     50 maximum allowed number of steps=    100.
 Search for a saddle point of order  1.
 GradGradGradGradGradGradGradGradGradGradGradGradGradGradGradGradGradGrad

 Leave Link  103 at Wed Oct 21 14:17:29 2020, MaxMem=  2684354560 cpu:               1.6 elap:               0.7
 (Enter /udrive/faculty/rpeverati/g16/g16/l202.exe)
                          Input orientation:                          
 ---------------------------------------------------------------------
 Center     Atomic      Atomic             Coordinates (Angstroms)
 Number     Number       Type             X           Y           Z
 ---------------------------------------------------------------------
      1          1           0        0.000000    0.000000   -1.340628
      2         17           0        0.000000    0.000000    0.203252
      3          1           0        0.000000    0.000000   -2.114661
 ---------------------------------------------------------------------
                    Distance matrix (angstroms):
                    1          2          3
     1  H    0.000000
     2  Cl   1.543880   0.000000
     3  H    0.774033   2.317913   0.000000
 Stoichiometry    ClH2(2)
 Framework group  C*V[C*(HHCl)]
 Deg. of freedom     2
 Full point group                 C*V     NOp   4
 Largest Abelian subgroup         C2V     NOp   4
 Largest concise Abelian subgroup C1      NOp   1
                         Standard orientation:                         
 ---------------------------------------------------------------------
 Center     Atomic      Atomic             Coordinates (Angstroms)
 Number     Number       Type             X           Y           Z
 ---------------------------------------------------------------------
      1          1           0        0.000000    0.000000   -1.340628
      2         17           0        0.000000    0.000000    0.203252
      3          1           0        0.000000    0.000000   -2.114661
 ---------------------------------------------------------------------
 Rotational constants (GHZ):           0.0000000          68.2261370          68.2261370
 Leave Link  202 at Wed Oct 21 14:17:30 2020, MaxMem=  2684354560 cpu:               2.1 elap:               0.7
 (Enter /udrive/faculty/rpeverati/g16/g16/l301.exe)
 Standard basis: VSTO-6G (5D, 7F)
 Ernie: Thresh=  0.10000D-02 Tol=  0.10000D-05 Strict=F.
  NNHCO=     0 NNPyr=     0 NCTC=     0               EPep=         0.000000000
    EC=         3.837034035  ECS=         0.132175287   EG=         0.029624654
   EHC=         0.000000000  EAt=       -14.515662636  AtH=         0.212258150
 EPDDG=         0.000000000  ECC=         3.998833976 EAtT=        14.727920786
 There are     4 symmetry adapted cartesian basis functions of A1  symmetry.
 There are     0 symmetry adapted cartesian basis functions of A2  symmetry.
 There are     1 symmetry adapted cartesian basis functions of B1  symmetry.
 There are     1 symmetry adapted cartesian basis functions of B2  symmetry.
 There are     4 symmetry adapted basis functions of A1  symmetry.
 There are     0 symmetry adapted basis functions of A2  symmetry.
 There are     1 symmetry adapted basis functions of B1  symmetry.
 There are     1 symmetry adapted basis functions of B2  symmetry.
     6 basis functions,    36 primitive gaussians,     6 cartesian basis functions
     5 alpha electrons        4 beta electrons
       nuclear repulsion energy        18.7267547619 Hartrees.
 IExCor=    0 DFT=F Ex=HF Corr=None ExCW=0 ScaHFX=  1.000000
 ScaDFX=  1.000000  1.000000  1.000000  1.000000 ScalE2=  1.000000  1.000000
 IRadAn=      5 IRanWt=     -1 IRanGd=            0 ICorTp=0 IEmpDi=  4
 Integral buffers will be    131072 words long.
 Regular integral format.
 Two-electron integral symmetry is turned off.
 Leave Link  301 at Wed Oct 21 14:17:31 2020, MaxMem=  2684354560 cpu:               2.7 elap:               0.7
 (Enter /udrive/faculty/rpeverati/g16/g16/l302.exe)
 Do NDO integrals.
 NPDir=0 NMtPBC=     1 NCelOv=     1 NCel=       1 NClECP=     1 NCelD=      1
         NCelK=      1 NCelE2=     1 NClLst=     1 CellRange=     0.0.
 One-electron integrals computed using PRISM.
 NBasis=     6 RedAO= T EigKep=  1.00D+00  NBF=     4     0     1     1
 NBsUse=     6 1.00D-06 EigRej= -1.00D+00 NBFU=     4     0     1     1
 Leave Link  302 at Wed Oct 21 14:17:32 2020, MaxMem=  2684354560 cpu:               4.3 elap:               0.8
 (Enter /udrive/faculty/rpeverati/g16/g16/l303.exe)
 DipDrv:  MaxL=1.
 Leave Link  303 at Wed Oct 21 14:17:33 2020, MaxMem=  2684354560 cpu:               2.3 elap:               0.8
 (Enter /udrive/faculty/rpeverati/g16/g16/l401.exe)
 SCF N**3 symmetry information disabled.
 Simple Huckel Guess.
 JPrj=0 DoOrth=F DoCkMO=F.
 Initial guess orbital symmetries:
 Alpha Orbitals:
       Occupied  (SG) (SG) (PI) (PI) (SG)
       Virtual   (SG)
 Beta  Orbitals:
       Occupied  (SG) (SG) (PI) (PI)
       Virtual   (SG) (SG)
 The electronic state of the initial guess is 2-SG.
 Initial guess <Sx>= 0.0000 <Sy>= 0.0000 <Sz>= 0.5000 <S**2>= 0.7500 S= 0.5000
 Leave Link  401 at Wed Oct 21 14:17:35 2020, MaxMem=  2684354560 cpu:               3.4 elap:               1.0
 (Enter /udrive/faculty/rpeverati/g16/g16/l502.exe)
 Keep J ints in memory in canonical form, NReq=859134.
 FoFCou: FMM=F IPFlag=           0 FMFlag=           0 FMFlg1=           0
         NFxFlg=           0 DoJE=F BraDBF=F KetDBF=F FulRan=T
         wScrn=  0.000000 ICntrl=       600 IOpCl=  2 I1Cent=           0 NGrid=           0
         NMat0=    1 NMatS0=     12 NMatT0=    0 NMatD0=    1 NMtDS0=    0 NMtDT0=    0
 Symmetry not used in FoFCou.
 Two-electron integral symmetry not used.
 UHF open shell SCF:
 Using DIIS extrapolation, IDIIS=  1040.
 Overlap will be assumed to be unity.
 NGot=  2684354560 LenX=  2684294129 LenY=  2684293247
 Requested convergence on RMS density matrix=1.00D-08 within 120 cycles.
 Requested convergence on MAX density matrix=1.00D-06.
 Requested convergence on             energy=1.00D-06.
 No special actions if energy rises.

 Cycle   1  Pass 1  IDiag  1:
 E= 0.114806056918042    
 DIIS: error= 7.71D-02 at cycle   1 NSaved=   1.
 NSaved= 1 IEnMin= 1 EnMin= 0.114806056918042     IErMin= 1 ErrMin= 7.71D-02
 ErrMax= 7.71D-02  0.00D+00 EMaxC= 1.00D-01 BMatC= 1.80D-01 BMatP= 1.80D-01
 IDIUse=3 WtCom= 2.29D-01 WtEn= 7.71D-01
 Coeff-Com:  0.100D+01
 Coeff-En:   0.100D+01
 Coeff:      0.100D+01
 GapD=    2.000 DampG=2.000 DampE=0.500 DampFc=1.0000 IDamp=-1.
 RMSDP=3.86D-02 MaxDP=1.13D-01              OVMax= 0.00D+00

 Cycle   2  Pass 1  IDiag  1:
 E= 0.332004006716815E-01 Delta-E=       -0.081605656246 Rises=F Damp=F
 DIIS: error= 1.97D-02 at cycle   2 NSaved=   2.
 NSaved= 2 IEnMin= 2 EnMin= 0.332004006716815E-01 IErMin= 2 ErrMin= 1.97D-02
 ErrMax= 1.97D-02  0.00D+00 EMaxC= 1.00D-01 BMatC= 7.31D-03 BMatP= 1.80D-01
 IDIUse=3 WtCom= 8.03D-01 WtEn= 1.97D-01
 Coeff-Com: -0.232D+00 0.123D+01
 Coeff-En:   0.000D+00 0.100D+01
 Coeff:     -0.186D+00 0.119D+01
 RMSDP=9.92D-03 MaxDP=3.54D-02 DE=-8.16D-02 OVMax= 0.00D+00

 Cycle   3  Pass 1  IDiag  3:
 E= 0.292787276050284E-01 Delta-E=       -0.003921673067 Rises=F Damp=F
 DIIS: error= 2.73D-03 at cycle   3 NSaved=   3.
 NSaved= 3 IEnMin= 3 EnMin= 0.292787276050284E-01 IErMin= 3 ErrMin= 2.73D-03
 ErrMax= 2.73D-03  0.00D+00 EMaxC= 1.00D-01 BMatC= 1.72D-04 BMatP= 7.31D-03
 IDIUse=3 WtCom= 9.73D-01 WtEn= 2.73D-02
 Coeff-Com:  0.946D-01-0.595D+00 0.150D+01
 Coeff-En:   0.000D+00 0.000D+00 0.100D+01
 Coeff:      0.921D-01-0.579D+00 0.149D+01
 Gap=     0.516 Goal=   None    Shift=    0.000
 Gap=     0.367 Goal=   None    Shift=    0.000
 RMSDP=2.70D-03 MaxDP=1.10D-02 DE=-3.92D-03 OVMax= 1.24D-02

 Cycle   4  Pass 1  IDiag  3:
 E= 0.290986078357349E-01 Delta-E=       -0.000180119769 Rises=F Damp=F
 DIIS: error= 9.78D-04 at cycle   4 NSaved=   4.
 NSaved= 4 IEnMin= 4 EnMin= 0.290986078357349E-01 IErMin= 4 ErrMin= 9.78D-04
 ErrMax= 9.78D-04  0.00D+00 EMaxC= 1.00D-01 BMatC= 1.49D-05 BMatP= 1.72D-04
 IDIUse=3 WtCom= 9.90D-01 WtEn= 9.78D-03
 Coeff-Com: -0.516D-01 0.339D+00-0.100D+01 0.171D+01
 Coeff-En:   0.000D+00 0.000D+00 0.000D+00 0.100D+01
 Coeff:     -0.511D-01 0.335D+00-0.991D+00 0.171D+01
 Gap=     0.517 Goal=   None    Shift=    0.000
 Gap=     0.367 Goal=   None    Shift=    0.000
 RMSDP=1.26D-03 MaxDP=5.57D-03 DE=-1.80D-04 OVMax= 4.75D-03

 Cycle   5  Pass 1  IDiag  3:
 E= 0.290709447907958E-01 Delta-E=       -0.000027663045 Rises=F Damp=F
 DIIS: error= 3.97D-04 at cycle   5 NSaved=   5.
 NSaved= 5 IEnMin= 5 EnMin= 0.290709447907958E-01 IErMin= 5 ErrMin= 3.97D-04
 ErrMax= 3.97D-04  0.00D+00 EMaxC= 1.00D-01 BMatC= 2.23D-06 BMatP= 1.49D-05
 IDIUse=3 WtCom= 9.96D-01 WtEn= 3.97D-03
 Coeff-Com:  0.643D-02-0.469D-01 0.161D+00-0.687D+00 0.157D+01
 Coeff-En:   0.000D+00 0.000D+00 0.000D+00 0.000D+00 0.100D+01
 Coeff:      0.641D-02-0.467D-01 0.160D+00-0.684D+00 0.156D+01
 Gap=     0.517 Goal=   None    Shift=    0.000
 Gap=     0.367 Goal=   None    Shift=    0.000
 RMSDP=6.87D-04 MaxDP=3.16D-03 DE=-2.77D-05 OVMax= 3.22D-03

 Cycle   6  Pass 1  IDiag  3:
 E= 0.290652006398275E-01 Delta-E=       -0.000005744151 Rises=F Damp=F
 DIIS: error= 1.09D-04 at cycle   6 NSaved=   6.
 NSaved= 6 IEnMin= 6 EnMin= 0.290652006398275E-01 IErMin= 6 ErrMin= 1.09D-04
 ErrMax= 1.09D-04  0.00D+00 EMaxC= 1.00D-01 BMatC= 3.72D-07 BMatP= 2.23D-06
 IDIUse=3 WtCom= 9.99D-01 WtEn= 1.09D-03
 Coeff-Com: -0.223D-02 0.223D-01-0.993D-01 0.706D+00-0.213D+01 0.250D+01
 Coeff-En:   0.000D+00 0.000D+00 0.000D+00 0.000D+00 0.000D+00 0.100D+01
 Coeff:     -0.223D-02 0.223D-01-0.992D-01 0.705D+00-0.213D+01 0.250D+01
 Gap=     0.517 Goal=   None    Shift=    0.000
 Gap=     0.367 Goal=   None    Shift=    0.000
 RMSDP=4.25D-04 MaxDP=1.70D-03 DE=-5.74D-06 OVMax= 2.13D-03

 Cycle   7  Pass 1  IDiag  3:
 E= 0.290641181376543E-01 Delta-E=       -0.000001082502 Rises=F Damp=F
 DIIS: error= 6.19D-06 at cycle   7 NSaved=   7.
 NSaved= 7 IEnMin= 7 EnMin= 0.290641181376543E-01 IErMin= 7 ErrMin= 6.19D-06
 ErrMax= 6.19D-06  0.00D+00 EMaxC= 1.00D-01 BMatC= 7.86D-10 BMatP= 3.72D-07
 IDIUse=1 WtCom= 1.00D+00 WtEn= 0.00D+00
 Coeff-Com:  0.409D-04-0.409D-02 0.297D-01-0.316D+00 0.102D+01-0.124D+01
 Coeff-Com:  0.151D+01
 Coeff:      0.409D-04-0.409D-02 0.297D-01-0.316D+00 0.102D+01-0.124D+01
 Coeff:      0.151D+01
 Gap=     0.517 Goal=   None    Shift=    0.000
 Gap=     0.367 Goal=   None    Shift=    0.000
 RMSDP=1.12D-05 MaxDP=4.71D-05 DE=-1.08D-06 OVMax= 6.37D-05

 Cycle   8  Pass 1  IDiag  3:
 E= 0.290641169495558E-01 Delta-E=       -0.000000001188 Rises=F Damp=F
 DIIS: error= 4.85D-07 at cycle   8 NSaved=   8.
 NSaved= 8 IEnMin= 8 EnMin= 0.290641169495558E-01 IErMin= 8 ErrMin= 4.85D-07
 ErrMax= 4.85D-07  0.00D+00 EMaxC= 1.00D-01 BMatC= 4.78D-12 BMatP= 7.86D-10
 IDIUse=1 WtCom= 1.00D+00 WtEn= 0.00D+00
 Coeff-Com: -0.404D-04 0.551D-03-0.295D-02 0.255D-01-0.788D-01 0.960D-01
 Coeff-Com: -0.135D+00 0.109D+01
 Coeff:     -0.404D-04 0.551D-03-0.295D-02 0.255D-01-0.788D-01 0.960D-01
 Coeff:     -0.135D+00 0.109D+01
 Gap=     0.517 Goal=   None    Shift=    0.000
 Gap=     0.367 Goal=   None    Shift=    0.000
 RMSDP=1.03D-06 MaxDP=5.15D-06 DE=-1.19D-09 OVMax= 5.84D-06

 Cycle   9  Pass 1  IDiag  3:
 E= 0.290641169407841E-01 Delta-E=       -0.000000000009 Rises=F Damp=F
 DIIS: error= 1.05D-07 at cycle   9 NSaved=   9.
 NSaved= 9 IEnMin= 9 EnMin= 0.290641169407841E-01 IErMin= 9 ErrMin= 1.05D-07
 ErrMax= 1.05D-07  0.00D+00 EMaxC= 1.00D-01 BMatC= 2.32D-13 BMatP= 4.78D-12
 IDIUse=1 WtCom= 1.00D+00 WtEn= 0.00D+00
 Coeff-Com:  0.597D-06-0.231D-05 0.595D-05 0.873D-04-0.858D-03 0.665D-03
 Coeff-Com:  0.252D-02-0.401D+00 0.140D+01
 Coeff:      0.597D-06-0.231D-05 0.595D-05 0.873D-04-0.858D-03 0.665D-03
 Coeff:      0.252D-02-0.401D+00 0.140D+01
 Gap=     0.517 Goal=   None    Shift=    0.000
 Gap=     0.367 Goal=   None    Shift=    0.000
 RMSDP=1.78D-07 MaxDP=8.07D-07 DE=-8.77D-12 OVMax= 1.04D-06

 Cycle  10  Pass 1  IDiag  3:
 E= 0.290641169404502E-01 Delta-E=       -0.000000000000 Rises=F Damp=F
 DIIS: error= 1.57D-09 at cycle  10 NSaved=  10.
 NSaved=10 IEnMin=10 EnMin= 0.290641169404502E-01 IErMin=10 ErrMin= 1.57D-09
 ErrMax= 1.57D-09  0.00D+00 EMaxC= 1.00D-01 BMatC= 6.62D-17 BMatP= 2.32D-13
 IDIUse=1 WtCom= 1.00D+00 WtEn= 0.00D+00
 Coeff-Com:  0.695D-08-0.126D-06-0.199D-06-0.226D-05 0.110D-03-0.637D-04
 Coeff-Com: -0.563D-03 0.777D-01-0.263D+00 0.119D+01
 Coeff:      0.695D-08-0.126D-06-0.199D-06-0.226D-05 0.110D-03-0.637D-04
 Coeff:     -0.563D-03 0.777D-01-0.263D+00 0.119D+01
 Gap=     0.517 Goal=   None    Shift=    0.000
 Gap=     0.367 Goal=   None    Shift=    0.000
 RMSDP=2.59D-09 MaxDP=8.82D-09 DE=-3.34D-13 OVMax= 1.03D-08

 Cycle  11  Pass 2  IDiag  1:
 SCF Done:  E(UAM1) =  0.290641169405E-01 A.U. after   11 cycles
            NFock= 10  Conv=0.26D-08     -V/T= 1.0012
 <Sx>= 0.0000 <Sy>= 0.0000 <Sz>= 0.5000 <S**2>= 0.7643 S= 0.5071
 <L.S>= 0.000000000000E+00
 KE=-2.398527564689D+01 PE=-7.308088575187D+00 EE= 1.259567357709D+01
 Annihilation of the first spin contaminant:
 S**2 before annihilation     0.7643,   after     0.7500
 Leave Link  502 at Wed Oct 21 14:17:38 2020, MaxMem=  2684354560 cpu:              17.7 elap:               2.4
 (Enter /udrive/faculty/rpeverati/g16/g16/l508.exe)
 QCSCF skips out because SCF is already converged.
 Leave Link  508 at Wed Oct 21 14:17:39 2020, MaxMem=  2684354560 cpu:               1.1 elap:               0.6
 (Enter /udrive/faculty/rpeverati/g16/g16/l601.exe)
 Copying SCF densities to generalized density rwf, IOpCl= 1 IROHF=0.

 **********************************************************************

            Population analysis using the SCF density.

 **********************************************************************

 Orbital symmetries:
 Alpha Orbitals:
       Occupied  (SG) (SG) (PI) (PI) (SG)
       Virtual   (SG)
 Beta  Orbitals:
       Occupied  (SG) (SG) (PI) (PI)
       Virtual   (SG) (SG)
 The electronic state is 2-SG.
 Alpha  occ. eigenvalues --   -1.35652  -0.67486  -0.44670  -0.44670  -0.40761
 Alpha virt. eigenvalues --    0.10921
  Beta  occ. eigenvalues --   -1.29772  -0.61217  -0.42987  -0.42987
  Beta virt. eigenvalues --   -0.06259   0.13696
          Condensed to atoms (all electrons):
               1          2          3
     1  H    0.900010   0.000000   0.000000
     2  Cl   0.000000   7.193565   0.000000
     3  H    0.000000   0.000000   0.906425
          Atomic-Atomic Spin Densities.
               1          2          3
     1  H   -0.082905   0.000000   0.000000
     2  Cl   0.000000   0.688064   0.000000
     3  H    0.000000   0.000000   0.394840
 Mulliken charges and spin densities:
               1          2
     1  H    0.099990  -0.082905
     2  Cl  -0.193565   0.688064
     3  H    0.093575   0.394840
 Sum of Mulliken charges =   0.00000   1.00000
 Mulliken charges and spin densities with hydrogens summed into heavy atoms:
               1          2
     2  Cl   0.000000   1.000000
 Charge=              0.0000 electrons
 Dipole moment (field-independent basis, Debye):
    X=             -0.0000    Y=             -0.0000    Z=             -1.9088  Tot=              1.9088
 N-N= 1.872675476193D+01 E-N=-7.308088564918D+00  KE=-2.398527564689D+01
 Leave Link  601 at Wed Oct 21 14:17:40 2020, MaxMem=  2684354560 cpu:               3.6 elap:               0.8
 (Enter /udrive/faculty/rpeverati/g16/g16/l701.exe)
 ... and contract with generalized density number  0.
 Compute integral first derivatives.
 Leave Link  701 at Wed Oct 21 14:17:42 2020, MaxMem=  2684354560 cpu:               4.5 elap:               1.0
 (Enter /udrive/faculty/rpeverati/g16/g16/l702.exe)
 L702 exits ... SP integral derivatives will be done elsewhere.
 Leave Link  702 at Wed Oct 21 14:17:43 2020, MaxMem=  2684354560 cpu:               1.9 elap:               0.8
 (Enter /udrive/faculty/rpeverati/g16/g16/l703.exe)
 Integral derivatives from FoFJK, PRISM(SPDF).
 Compute integral first derivatives, UseDBF=F ICtDFT=           0.
 Calling FoFJK, ICntrl=      2127 FMM=F ISym2X=1 I1Cent= 0 IOpClX= 1 NMat=1 NMatS=1 NMatT=0.
 FoFJK:  IHMeth= 8 ICntrl=    2127 DoSepK=F KAlg= 0 I1Cent=           0 FoldK=F
 IRaf=         0 NMat=       1 IRICut=       1 DoRegI=T DoRafI=F ISym2E= 1 IDoP0=3 IntGTp=3.
 FoFCou: FMM=F IPFlag=           0 FMFlag=      100000 FMFlg1=         800
         NFxFlg=           0 DoJE=F BraDBF=F KetDBF=F FulRan=T
         wScrn=  0.000000 ICntrl=      2127 IOpCl=  1 I1Cent=           0 NGrid=           0
         NMat0=    1 NMatS0=      1 NMatT0=    0 NMatD0=    1 NMtDS0=    0 NMtDT0=    0
 Petite list used in FoFCou.
 Leave Link  703 at Wed Oct 21 14:17:45 2020, MaxMem=  2684354560 cpu:               4.5 elap:               1.0
 (Enter /udrive/faculty/rpeverati/g16/g16/l716.exe)
 Dipole        =-2.65176230D-16-3.76543440D-16-7.50970786D-01
 ***** Axes restored to original set *****
 -------------------------------------------------------------------
 Center     Atomic                   Forces (Hartrees/Bohr)
 Number     Number              X              Y              Z
 -------------------------------------------------------------------
      1        1           0.000000000    0.000000000   -0.023884966
      2       17          -0.000000000   -0.000000000    0.011018535
      3        1           0.000000000    0.000000000    0.012866431
 -------------------------------------------------------------------
 Cartesian Forces:  Max     0.023884966 RMS     0.009760719
 Leave Link  716 at Wed Oct 21 14:17:46 2020, MaxMem=  2684354560 cpu:               2.5 elap:               0.8
 (Enter /udrive/faculty/rpeverati/g16/g16/l103.exe)

 GradGradGradGradGradGradGradGradGradGradGradGradGradGradGradGradGradGrad
 Berny optimization.
 Optmz: redundant internal coordinate code flag= 1
 FormGI is forming the generalized inverse of G from B-inverse, IUseBI=4.
 Internal  Forces:  Max     0.012866431 RMS     0.008469846
 Search for a saddle point.
 Step number   1 out of a maximum of   50
 All quantities printed in internal units (Hartrees-Bohrs-Radians)
 Swapping is turned off.
 Second derivative matrix not updated -- first step.
 The second derivative matrix:
                          R1        R2        A1        A2
           R1           0.15072
           R2           0.00000   0.34879
           A1           0.00000   0.00000   0.00230
           A2           0.00000   0.00000   0.00000   0.00230
 ITU=  0
 Eigenvectors of the second derivative matrix:
                           1         2         3         4
     Eigenvalues --     0.00230   0.00230   0.15072   0.34879
   1         R1         0.00000   0.00000  -1.00000  -0.00000
   2         R2         0.00000   0.00000  -0.00000   1.00000
   3         A1         0.00000  -1.00000   0.00000   0.00000
   4         A2         1.00000   0.00000   0.00000   0.00000
 Eigenvalue     1 is   2.30D-03 should be less than     0.000000 Eigenvector:
                          A2        R2        A1        R1
   1                    1.00000   0.00000   0.00000   0.00000
 RLam0= 2.30D-03.
 Iter=   1 RLamda= 0.00000000D+00 Sum=-1.28016239D-03.
 Iter=   2 RLamda=-1.28016239D-03 Sum=-1.27164225D-03.
 Iter=   3 RLamda=-1.27164225D-03 Sum=-1.27169853D-03.
 Iter=   4 RLamda=-1.27169853D-03 Sum=-1.27169816D-03.
 RFO step:  Lambda0=2.300010000D-03 Lambda=-1.27169853D-03.
 Linear search not attempted -- option 19 set.
 Maximum step size (   0.100) exceeded in Quadratic search.
    -- Step size scaled by   0.870
 Iteration  1 RMS(Cart)=  0.03540517 RMS(Int)=  0.00103589
 Iteration  2 RMS(Cart)=  0.00091490 RMS(Int)=  0.00000024
 Iteration  3 RMS(Cart)=  0.00000019 RMS(Int)=  0.00000000
 ITry= 1 IFail=0 DXMaxC= 4.39D-02 DCOld= 1.00D+10 DXMaxT= 1.00D-01 DXLimC= 3.00D+00 Rises=F
 ClnCor:  largest displacement from symmetrization is 4.39D-02 for atom     1.
 Variable       Old X    -DE/DX   Delta X   Delta X   Delta X     New X
                                 (Linear)    (Quad)   (Total)
    R1        2.91751   0.01102   0.00000   0.06307   0.06249   2.98001
    R2        1.46271  -0.01287   0.00000  -0.03197  -0.03384   1.42887
    A1        3.14159   0.00000   0.00000   0.00000   0.00000   3.14159
    A2        3.14159  -0.00000   0.00000  -0.07071   0.00000   3.14159
         Item               Value     Threshold  Converged?
 Maximum Force            0.012866     0.000450     NO 
 RMS     Force            0.008470     0.000300     NO 
 Maximum Displacement     0.032112     0.001800     NO 
 RMS     Displacement     0.022120     0.001200     NO 
 Predicted change in Energy=-6.299719D-04
 Lowest energy point so far.  Saving SCF results.
 Largest change from initial coordinates is atom    1       0.001 Angstoms.
 GradGradGradGradGradGradGradGradGradGradGradGradGradGradGradGradGradGrad

 Leave Link  103 at Wed Oct 21 14:17:48 2020, MaxMem=  2684354560 cpu:              10.4 elap:               1.7
 (Enter /udrive/faculty/rpeverati/g16/g16/l202.exe)
                          Input orientation:                          
 ---------------------------------------------------------------------
 Center     Atomic      Atomic             Coordinates (Angstroms)
 Number     Number       Type             X           Y           Z
 ---------------------------------------------------------------------
      1          1           0        0.000000    0.000000   -1.357621
      2         17           0        0.000000    0.000000    0.219330
      3          1           0        0.000000    0.000000   -2.113746
 ---------------------------------------------------------------------
                    Distance matrix (angstroms):
                    1          2          3
     1  H    0.000000
     2  Cl   1.576951   0.000000
     3  H    0.756125   2.333076   0.000000
 Stoichiometry    ClH2(2)
 Framework group  C*V[C*(HHCl)]
 Deg. of freedom     2
 Full point group                 C*V     NOp   4
 RotChk:  IX=0 Diff= 0.00D+00
 Largest Abelian subgroup         C2V     NOp   4
 Largest concise Abelian subgroup C1      NOp   1
                         Standard orientation:                         
 ---------------------------------------------------------------------
 Center     Atomic      Atomic             Coordinates (Angstroms)
 Number     Number       Type             X           Y           Z
 ---------------------------------------------------------------------
      1          1           0        0.000000    0.000000   -1.371160
      2         17           0        0.000000    0.000000    0.205791
      3          1           0        0.000000    0.000000   -2.127285
 ---------------------------------------------------------------------
 Rotational constants (GHZ):           0.0000000          66.7413323          66.7413323
 Leave Link  202 at Wed Oct 21 14:17:49 2020, MaxMem=  2684354560 cpu:               1.6 elap:               0.6
 (Enter /udrive/faculty/rpeverati/g16/g16/l301.exe)
 Standard basis: VSTO-6G (5D, 7F)
 Ernie: Thresh=  0.10000D-02 Tol=  0.10000D-05 Strict=F.
  NNHCO=     0 NNPyr=     0 NCTC=     0               EPep=         0.000000000
    EC=         3.803027615  ECS=         0.132351902   EG=         0.026867061
   EHC=         0.000000000  EAt=       -14.515662636  AtH=         0.212258150
 EPDDG=         0.000000000  ECC=         3.962246578 EAtT=        14.727920786
 There are     4 symmetry adapted cartesian basis functions of A1  symmetry.
 There are     0 symmetry adapted cartesian basis functions of A2  symmetry.
 There are     1 symmetry adapted cartesian basis functions of B1  symmetry.
 There are     1 symmetry adapted cartesian basis functions of B2  symmetry.
 There are     4 symmetry adapted basis functions of A1  symmetry.
 There are     0 symmetry adapted basis functions of A2  symmetry.
 There are     1 symmetry adapted basis functions of B1  symmetry.
 There are     1 symmetry adapted basis functions of B2  symmetry.
     6 basis functions,    36 primitive gaussians,     6 cartesian basis functions
     5 alpha electrons        4 beta electrons
       nuclear repulsion energy        18.6901673642 Hartrees.
 IExCor=    0 DFT=F Ex=HF Corr=None ExCW=0 ScaHFX=  1.000000
 ScaDFX=  1.000000  1.000000  1.000000  1.000000 ScalE2=  1.000000  1.000000
 IRadAn=      5 IRanWt=     -1 IRanGd=            0 ICorTp=0 IEmpDi=  4
 Integral buffers will be    131072 words long.
 Regular integral format.
 Two-electron integral symmetry is turned off.
 Leave Link  301 at Wed Oct 21 14:17:51 2020, MaxMem=  2684354560 cpu:               3.7 elap:               1.0
 (Enter /udrive/faculty/rpeverati/g16/g16/l302.exe)
 Do NDO integrals.
 NPDir=0 NMtPBC=     1 NCelOv=     1 NCel=       1 NClECP=     1 NCelD=      1
         NCelK=      1 NCelE2=     1 NClLst=     1 CellRange=     0.0.
 One-electron integrals computed using PRISM.
 NBasis=     6 RedAO= T EigKep=  1.00D+00  NBF=     4     0     1     1
 NBsUse=     6 1.00D-06 EigRej= -1.00D+00 NBFU=     4     0     1     1
 Leave Link  302 at Wed Oct 21 14:17:52 2020, MaxMem=  2684354560 cpu:               4.8 elap:               1.0
 (Enter /udrive/faculty/rpeverati/g16/g16/l303.exe)
 DipDrv:  MaxL=1.
 Leave Link  303 at Wed Oct 21 14:17:53 2020, MaxMem=  2684354560 cpu:               3.3 elap:               0.9
 (Enter /udrive/faculty/rpeverati/g16/g16/l401.exe)
 Initial guess from the checkpoint file:  "MN_78_RKT01_BH76_AM1_SE.chk"
 SCF N**3 symmetry information disabled.
 B after Tr=     0.000000    0.000000   -0.000000
         Rot=    1.000000    0.000000    0.000000    0.000000 Ang=   0.00 deg.
 Guess basis will be translated and rotated to current coordinates.
 JPrj=0 DoOrth=T DoCkMO=T.
 Initial guess orbital symmetries:
 Alpha Orbitals:
       Occupied  (SG) (SG) (PI) (PI) (SG)
       Virtual   (SG)
 Beta  Orbitals:
       Occupied  (SG) (SG) (PI) (PI)
       Virtual   (SG) (SG)
 The electronic state of the initial guess is 2-SG.
 Initial guess <Sx>= 0.0000 <Sy>= 0.0000 <Sz>= 0.5000 <S**2>= 0.7643 S= 0.5071
 Leave Link  401 at Wed Oct 21 14:17:55 2020, MaxMem=  2684354560 cpu:               6.8 elap:               1.2
 (Enter /udrive/faculty/rpeverati/g16/g16/l502.exe)
 Keep J ints in memory in canonical form, NReq=859134.
 FoFCou: FMM=F IPFlag=           0 FMFlag=           0 FMFlg1=           0
         NFxFlg=           0 DoJE=F BraDBF=F KetDBF=F FulRan=T
         wScrn=  0.000000 ICntrl=       600 IOpCl=  2 I1Cent=           0 NGrid=           0
         NMat0=    1 NMatS0=     12 NMatT0=    0 NMatD0=    1 NMtDS0=    0 NMtDT0=    0
 Symmetry not used in FoFCou.
 Two-electron integral symmetry not used.
 UHF open shell SCF:
 Using DIIS extrapolation, IDIIS=  1040.
 Overlap will be assumed to be unity.
 NGot=  2684354560 LenX=  2684294129 LenY=  2684293247
 Requested convergence on RMS density matrix=1.00D-08 within 120 cycles.
 Requested convergence on MAX density matrix=1.00D-06.
 Requested convergence on             energy=1.00D-06.
 No special actions if energy rises.

 Cycle   1  Pass 1  IDiag  1:
 E= 0.283546378123063E-01
 DIIS: error= 1.90D-03 at cycle   1 NSaved=   1.
 NSaved= 1 IEnMin= 1 EnMin= 0.283546378123063E-01 IErMin= 1 ErrMin= 1.90D-03
 ErrMax= 1.90D-03  0.00D+00 EMaxC= 1.00D-01 BMatC= 1.54D-04 BMatP= 1.54D-04
 IDIUse=3 WtCom= 9.81D-01 WtEn= 1.90D-02
 Coeff-Com:  0.100D+01
 Coeff-En:   0.100D+01
 Coeff:      0.100D+01
 GapD=    2.000 DampG=2.000 DampE=1.000 DampFc=2.0000 IDamp=-1.
 RMSDP=2.28D-03 MaxDP=7.74D-03              OVMax= 0.00D+00

 Cycle   2  Pass 1  IDiag  3:
 E= 0.281763811694482E-01 Delta-E=       -0.000178256643 Rises=F Damp=F
 DIIS: error= 1.20D-03 at cycle   2 NSaved=   2.
 NSaved= 2 IEnMin= 2 EnMin= 0.281763811694482E-01 IErMin= 2 ErrMin= 1.20D-03
 ErrMax= 1.20D-03  0.00D+00 EMaxC= 1.00D-01 BMatC= 4.76D-05 BMatP= 1.54D-04
 IDIUse=3 WtCom= 9.88D-01 WtEn= 1.20D-02
 Coeff-Com: -0.705D+00 0.171D+01
 Coeff-En:   0.000D+00 0.100D+01
 Coeff:     -0.697D+00 0.170D+01
 Gap=     0.525 Goal=   None    Shift=    0.000
 Gap=     0.364 Goal=   None    Shift=    0.000
 RMSDP=2.51D-03 MaxDP=7.96D-03 DE=-1.78D-04 OVMax= 1.07D-02

 Cycle   3  Pass 1  IDiag  3:
 E= 0.280723844749424E-01 Delta-E=       -0.000103996695 Rises=F Damp=F
 DIIS: error= 7.22D-04 at cycle   3 NSaved=   3.
 NSaved= 3 IEnMin= 3 EnMin= 0.280723844749424E-01 IErMin= 3 ErrMin= 7.22D-04
 ErrMax= 7.22D-04  0.00D+00 EMaxC= 1.00D-01 BMatC= 1.01D-05 BMatP= 4.76D-05
 IDIUse=3 WtCom= 9.93D-01 WtEn= 7.22D-03
 Coeff-Com:  0.495D+00-0.167D+01 0.217D+01
 Coeff-En:   0.000D+00 0.000D+00 0.100D+01
 Coeff:      0.491D+00-0.166D+01 0.216D+01
 Gap=     0.526 Goal=   None    Shift=    0.000
 Gap=     0.364 Goal=   None    Shift=    0.000
 RMSDP=1.93D-03 MaxDP=7.26D-03 DE=-1.04D-04 OVMax= 8.95D-03

 Cycle   4  Pass 1  IDiag  3:
 E= 0.280431222683042E-01 Delta-E=       -0.000029262207 Rises=F Damp=F
 DIIS: error= 2.65D-04 at cycle   4 NSaved=   4.
 NSaved= 4 IEnMin= 4 EnMin= 0.280431222683042E-01 IErMin= 4 ErrMin= 2.65D-04
 ErrMax= 2.65D-04  0.00D+00 EMaxC= 1.00D-01 BMatC= 7.15D-07 BMatP= 1.01D-05
 IDIUse=3 WtCom= 9.97D-01 WtEn= 2.65D-03
 Coeff-Com: -0.487D+00 0.169D+01-0.238D+01 0.217D+01
 Coeff-En:   0.000D+00 0.000D+00 0.000D+00 0.100D+01
 Coeff:     -0.485D+00 0.169D+01-0.237D+01 0.217D+01
 Gap=     0.526 Goal=   None    Shift=    0.000
 Gap=     0.364 Goal=   None    Shift=    0.000
 RMSDP=4.10D-04 MaxDP=2.19D-03 DE=-2.93D-05 OVMax= 1.83D-03

 Cycle   5  Pass 1  IDiag  3:
 E= 0.280417457399373E-01 Delta-E=       -0.000001376528 Rises=F Damp=F
 DIIS: error= 1.68D-05 at cycle   5 NSaved=   5.
 NSaved= 5 IEnMin= 5 EnMin= 0.280417457399373E-01 IErMin= 5 ErrMin= 1.68D-05
 ErrMax= 1.68D-05  0.00D+00 EMaxC= 1.00D-01 BMatC= 4.50D-09 BMatP= 7.15D-07
 IDIUse=1 WtCom= 1.00D+00 WtEn= 0.00D+00
 Coeff-Com:  0.285D+00-0.993D+00 0.139D+01-0.129D+01 0.160D+01
 Coeff:      0.285D+00-0.993D+00 0.139D+01-0.129D+01 0.160D+01
 Gap=     0.526 Goal=   None    Shift=    0.000
 Gap=     0.364 Goal=   None    Shift=    0.000
 RMSDP=1.88D-05 MaxDP=8.60D-05 DE=-1.38D-06 OVMax= 9.34D-05

 Cycle   6  Pass 1  IDiag  3:
 E= 0.280417406605267E-01 Delta-E=       -0.000000005079 Rises=F Damp=F
 DIIS: error= 2.13D-06 at cycle   6 NSaved=   6.
 NSaved= 6 IEnMin= 6 EnMin= 0.280417406605267E-01 IErMin= 6 ErrMin= 2.13D-06
 ErrMax= 2.13D-06  0.00D+00 EMaxC= 1.00D-01 BMatC= 1.00D-10 BMatP= 4.50D-09
 IDIUse=1 WtCom= 1.00D+00 WtEn= 0.00D+00
 Coeff-Com: -0.197D-01 0.689D-01-0.943D-01 0.797D-01-0.187D+00 0.115D+01
 Coeff:     -0.197D-01 0.689D-01-0.943D-01 0.797D-01-0.187D+00 0.115D+01
 Gap=     0.526 Goal=   None    Shift=    0.000
 Gap=     0.364 Goal=   None    Shift=    0.000
 RMSDP=3.49D-06 MaxDP=1.42D-05 DE=-5.08D-09 OVMax= 1.20D-05

 Cycle   7  Pass 1  IDiag  3:
 E= 0.280417405210898E-01 Delta-E=       -0.000000000139 Rises=F Damp=F
 DIIS: error= 3.25D-07 at cycle   7 NSaved=   7.
 NSaved= 7 IEnMin= 7 EnMin= 0.280417405210898E-01 IErMin= 7 ErrMin= 3.25D-07
 ErrMax= 3.25D-07  0.00D+00 EMaxC= 1.00D-01 BMatC= 2.70D-12 BMatP= 1.00D-10
 IDIUse=1 WtCom= 1.00D+00 WtEn= 0.00D+00
 Coeff-Com:  0.190D-02-0.681D-02 0.851D-02-0.414D-02 0.359D-01-0.432D+00
 Coeff-Com:  0.140D+01
 Coeff:      0.190D-02-0.681D-02 0.851D-02-0.414D-02 0.359D-01-0.432D+00
 Coeff:      0.140D+01
 Gap=     0.526 Goal=   None    Shift=    0.000
 Gap=     0.364 Goal=   None    Shift=    0.000
 RMSDP=4.37D-07 MaxDP=1.78D-06 DE=-1.39D-10 OVMax= 1.59D-06

 Cycle   8  Pass 1  IDiag  3:
 E= 0.280417405182369E-01 Delta-E=       -0.000000000003 Rises=F Damp=F
 DIIS: error= 1.99D-08 at cycle   8 NSaved=   8.
 NSaved= 8 IEnMin= 8 EnMin= 0.280417405182369E-01 IErMin= 8 ErrMin= 1.99D-08
 ErrMax= 1.99D-08  0.00D+00 EMaxC= 1.00D-01 BMatC= 8.96D-15 BMatP= 2.70D-12
 IDIUse=1 WtCom= 1.00D+00 WtEn= 0.00D+00
 Coeff-Com:  0.169D-05 0.359D-04 0.180D-03-0.976D-03-0.538D-02 0.827D-01
 Coeff-Com: -0.296D+00 0.122D+01
 Coeff:      0.169D-05 0.359D-04 0.180D-03-0.976D-03-0.538D-02 0.827D-01
 Coeff:     -0.296D+00 0.122D+01
 Gap=     0.526 Goal=   None    Shift=    0.000
 Gap=     0.364 Goal=   None    Shift=    0.000
 RMSDP=3.76D-08 MaxDP=1.24D-07 DE=-2.85D-12 OVMax= 1.54D-07

 Cycle   9  Pass 1  IDiag  3:
 E= 0.280417405182369E-01 Delta-E=        0.000000000000 Rises=F Damp=F
 DIIS: error= 2.62D-09 at cycle   9 NSaved=   9.
 NSaved= 9 IEnMin= 8 EnMin= 0.280417405182369E-01 IErMin= 9 ErrMin= 2.62D-09
 ErrMax= 2.62D-09  0.00D+00 EMaxC= 1.00D-01 BMatC= 8.22D-17 BMatP= 8.96D-15
 IDIUse=1 WtCom= 1.00D+00 WtEn= 0.00D+00
 Coeff-Com:  0.415D-05-0.350D-04-0.628D-04 0.453D-03 0.264D-02-0.394D-01
 Coeff-Com:  0.141D+00-0.569D+00 0.146D+01
 Coeff:      0.415D-05-0.350D-04-0.628D-04 0.453D-03 0.264D-02-0.394D-01
 Coeff:      0.141D+00-0.569D+00 0.146D+01
 Gap=     0.526 Goal=   None    Shift=    0.000
 Gap=     0.364 Goal=   None    Shift=    0.000
 RMSDP=4.65D-09 MaxDP=2.21D-08 DE= 0.00D+00 OVMax= 2.33D-08

 Cycle  10  Pass 2  IDiag  1:
 SCF Done:  E(UAM1) =  0.280417405182E-01 A.U. after   10 cycles
            NFock=  9  Conv=0.46D-08     -V/T= 1.0012
 <Sx>= 0.0000 <Sy>= 0.0000 <Sz>= 0.5000 <S**2>= 0.7623 S= 0.5061
 <L.S>= 0.000000000000E+00
 KE=-2.395927788970D+01 PE=-7.264290248366D+00 EE= 1.256144251435D+01
 Annihilation of the first spin contaminant:
 S**2 before annihilation     0.7623,   after     0.7500
 Leave Link  502 at Wed Oct 21 14:17:58 2020, MaxMem=  2684354560 cpu:              21.0 elap:               2.7
 (Enter /udrive/faculty/rpeverati/g16/g16/l508.exe)
 QCSCF skips out because SCF is already converged.
 Leave Link  508 at Wed Oct 21 14:17:59 2020, MaxMem=  2684354560 cpu:               0.6 elap:               0.5
 (Enter /udrive/faculty/rpeverati/g16/g16/l701.exe)
 ... and contract with generalized density number  0.
 Compute integral first derivatives.
 Leave Link  701 at Wed Oct 21 14:18:01 2020, MaxMem=  2684354560 cpu:               4.4 elap:               1.2
 (Enter /udrive/faculty/rpeverati/g16/g16/l702.exe)
 L702 exits ... SP integral derivatives will be done elsewhere.
 Leave Link  702 at Wed Oct 21 14:18:02 2020, MaxMem=  2684354560 cpu:               2.2 elap:               0.8
 (Enter /udrive/faculty/rpeverati/g16/g16/l703.exe)
 Integral derivatives from FoFJK, PRISM(SPDF).
 Compute integral first derivatives, UseDBF=F ICtDFT=           0.
 Calling FoFJK, ICntrl=      2127 FMM=F ISym2X=1 I1Cent= 0 IOpClX= 1 NMat=1 NMatS=1 NMatT=0.
 FoFJK:  IHMeth= 8 ICntrl=    2127 DoSepK=F KAlg= 0 I1Cent=           0 FoldK=F
 IRaf=         0 NMat=       1 IRICut=       1 DoRegI=T DoRafI=F ISym2E= 1 IDoP0=3 IntGTp=3.
 FoFCou: FMM=F IPFlag=           0 FMFlag=      100000 FMFlg1=         800
         NFxFlg=           0 DoJE=F BraDBF=F KetDBF=F FulRan=T
         wScrn=  0.000000 ICntrl=      2127 IOpCl=  1 I1Cent=           0 NGrid=           0
         NMat0=    1 NMatS0=      1 NMatT0=    0 NMatD0=    1 NMtDS0=    0 NMtDT0=    0
 Petite list used in FoFCou.
 Leave Link  703 at Wed Oct 21 14:18:04 2020, MaxMem=  2684354560 cpu:               4.4 elap:               1.0
 (Enter /udrive/faculty/rpeverati/g16/g16/l716.exe)
 Dipole        =-1.59938352D-16-2.45528341D-16-7.29605975D-01
 ***** Axes restored to original set *****
 -------------------------------------------------------------------
 Center     Atomic                   Forces (Hartrees/Bohr)
 Number     Number              X              Y              Z
 -------------------------------------------------------------------
      1        1           0.000000000    0.000000000   -0.019290298
      2       17          -0.000000000   -0.000000000    0.009077949
      3        1           0.000000000    0.000000000    0.010212349
 -------------------------------------------------------------------
 Cartesian Forces:  Max     0.019290298 RMS     0.007879769
 Leave Link  716 at Wed Oct 21 14:18:05 2020, MaxMem=  2684354560 cpu:               2.0 elap:               0.7
 (Enter /udrive/faculty/rpeverati/g16/g16/l103.exe)

 GradGradGradGradGradGradGradGradGradGradGradGradGradGradGradGradGradGrad
 Berny optimization.
 Optmz: redundant internal coordinate code flag= 1
 Red2BG:  D1=  1.00D+00 OD1=  3.33D-16 B2RMS=  0.00D+00 IAprox=1
 Red2BG is reusing G-inverse.
 Internal  Forces:  Max     0.010212349 RMS     0.006831933
 Search for a saddle point.
 Step number   2 out of a maximum of   50
 All quantities printed in internal units (Hartrees-Bohrs-Radians)
 Swapping is turned off.
 Update second derivatives using D2CorX and points    1    2
 The second derivative matrix:
                          R1        R2        A1        A2
           R1           0.07958
           R2           0.08962   0.24394
           A1           0.00000  -0.00000   0.00230
           A2           0.00000  -0.00000  -0.00000   0.00230
 ITU=  0  0
 Eigenvectors of the second derivative matrix:
                           1         2         3         4
     Eigenvalues --     0.00230   0.00230   0.04017   0.28336
   1         R1         0.00000   0.00000  -0.91538  -0.40260
   2         R2        -0.00000  -0.00000   0.40260  -0.91538
   3         A1        -0.97978  -0.20010  -0.00000   0.00000
   4         A2        -0.20010   0.97978   0.00000  -0.00000
 Eigenvalue     1 is   2.30D-03 should be less than     0.000000 Eigenvector:
                          A1        A2        R1        R2
   1                   -0.97978  -0.20010   0.00000  -0.00000
 RLam0= 2.30D-03.
 Iter=   1 RLamda= 0.00000000D+00 Sum=-3.95569084D-03.
 Iter=   2 RLamda=-3.95569084D-03 Sum=-3.60972248D-03.
 Iter=   3 RLamda=-3.60972248D-03 Sum=-3.63749566D-03.
 Iter=   4 RLamda=-3.63749566D-03 Sum=-3.63525000D-03.
 Iter=   5 RLamda=-3.63525000D-03 Sum=-3.63543147D-03.
 Iter=   6 RLamda=-3.63543147D-03 Sum=-3.63541681D-03.
 Iter=   7 RLamda=-3.63541681D-03 Sum=-3.63541799D-03.
 RFO step:  Lambda0=2.300010000D-03 Lambda=-3.63541681D-03.
 Linear search not attempted -- option 19 set.
 Maximum step size (   0.100) exceeded in Quadratic search.
    -- Step size scaled by   0.249
 Iteration  1 RMS(Cart)=  0.03505988 RMS(Int)=  0.00105648
 Iteration  2 RMS(Cart)=  0.00091955 RMS(Int)=  0.00000442
 Iteration  3 RMS(Cart)=  0.00000023 RMS(Int)=  0.00000441
 ITry= 1 IFail=0 DXMaxC= 4.23D-02 DCOld= 1.00D+10 DXMaxT= 1.00D-01 DXLimC= 3.00D+00 Rises=F
 ClnCor:  largest displacement from symmetrization is 4.32D-02 for atom     1.
 Variable       Old X    -DE/DX   Delta X   Delta X   Delta X     New X
                                 (Linear)    (Quad)   (Total)
    R1        2.98001   0.00908   0.00000   0.06258   0.06204   3.04205
    R2        1.42887  -0.01021   0.00000  -0.03292  -0.03479   1.39407
    A1        3.14159   0.00000   0.00000   0.06928   0.00000   3.14159
    A2        3.14159  -0.00000   0.00000   0.01415   0.00000   3.14159
         Item               Value     Threshold  Converged?
 Maximum Force            0.010212     0.000450     NO 
 RMS     Force            0.006832     0.000300     NO 
 Maximum Displacement     0.032280     0.001800     NO 
 RMS     Displacement     0.021990     0.001200     NO 
 Predicted change in Energy=-8.112071D-04
 Lowest energy point so far.  Saving SCF results.
 Largest change from initial coordinates is atom    1       0.011 Angstoms.
 GradGradGradGradGradGradGradGradGradGradGradGradGradGradGradGradGradGrad

 Leave Link  103 at Wed Oct 21 14:18:07 2020, MaxMem=  2684354560 cpu:               8.8 elap:               1.3
 (Enter /udrive/faculty/rpeverati/g16/g16/l202.exe)
                          Input orientation:                          
 ---------------------------------------------------------------------
 Center     Atomic      Atomic             Coordinates (Angstroms)
 Number     Number       Type             X           Y           Z
 ---------------------------------------------------------------------
      1          1           0       -0.000000    0.000000   -1.374702
      2         17           0        0.000000    0.000000    0.235081
      3          1           0        0.000000    0.000000   -2.112415
 ---------------------------------------------------------------------
                    Distance matrix (angstroms):
                    1          2          3
     1  H    0.000000
     2  Cl   1.609783   0.000000
     3  H    0.737713   2.347496   0.000000
 Stoichiometry    ClH2(2)
 Framework group  C*V[C*(HHCl)]
 Deg. of freedom     2
 Full point group                 C*V     NOp   4
 RotChk:  IX=0 Diff= 0.00D+00
 Largest Abelian subgroup         C2V     NOp   4
 Largest concise Abelian subgroup C1      NOp   1
                         Standard orientation:                         
 ---------------------------------------------------------------------
 Center     Atomic      Atomic             Coordinates (Angstroms)
 Number     Number       Type             X           Y           Z
 ---------------------------------------------------------------------
      1          1           0        0.000000    0.000000   -1.401505
      2         17           0        0.000000    0.000000    0.208278
      3          1           0        0.000000    0.000000   -2.139218
 ---------------------------------------------------------------------
 Rotational constants (GHZ):           0.0000000          65.3327508          65.3327508
 Leave Link  202 at Wed Oct 21 14:18:08 2020, MaxMem=  2684354560 cpu:               2.4 elap:               0.9
 (Enter /udrive/faculty/rpeverati/g16/g16/l301.exe)
 Standard basis: VSTO-6G (5D, 7F)
 Ernie: Thresh=  0.10000D-02 Tol=  0.10000D-05 Strict=F.
  NNHCO=     0 NNPyr=     0 NCTC=     0               EPep=         0.000000000
    EC=         3.770415317  ECS=         0.133532127   EG=         0.024244795
   EHC=         0.000000000  EAt=       -14.515662636  AtH=         0.212258150
 EPDDG=         0.000000000  ECC=         3.928192239 EAtT=        14.727920786
 There are     4 symmetry adapted cartesian basis functions of A1  symmetry.
 There are     0 symmetry adapted cartesian basis functions of A2  symmetry.
 There are     1 symmetry adapted cartesian basis functions of B1  symmetry.
 There are     1 symmetry adapted cartesian basis functions of B2  symmetry.
 There are     4 symmetry adapted basis functions of A1  symmetry.
 There are     0 symmetry adapted basis functions of A2  symmetry.
 There are     1 symmetry adapted basis functions of B1  symmetry.
 There are     1 symmetry adapted basis functions of B2  symmetry.
     6 basis functions,    36 primitive gaussians,     6 cartesian basis functions
     5 alpha electrons        4 beta electrons
       nuclear repulsion energy        18.6561130250 Hartrees.
 IExCor=    0 DFT=F Ex=HF Corr=None ExCW=0 ScaHFX=  1.000000
 ScaDFX=  1.000000  1.000000  1.000000  1.000000 ScalE2=  1.000000  1.000000
 IRadAn=      5 IRanWt=     -1 IRanGd=            0 ICorTp=0 IEmpDi=  4
 Integral buffers will be    131072 words long.
 Regular integral format.
 Two-electron integral symmetry is turned off.
 Leave Link  301 at Wed Oct 21 14:18:09 2020, MaxMem=  2684354560 cpu:               3.2 elap:               0.8
 (Enter /udrive/faculty/rpeverati/g16/g16/l302.exe)
 Do NDO integrals.
 NPDir=0 NMtPBC=     1 NCelOv=     1 NCel=       1 NClECP=     1 NCelD=      1
         NCelK=      1 NCelE2=     1 NClLst=     1 CellRange=     0.0.
 One-electron integrals computed using PRISM.
 NBasis=     6 RedAO= T EigKep=  1.00D+00  NBF=     4     0     1     1
 NBsUse=     6 1.00D-06 EigRej= -1.00D+00 NBFU=     4     0     1     1
 Leave Link  302 at Wed Oct 21 14:18:11 2020, MaxMem=  2684354560 cpu:               4.3 elap:               1.1
 (Enter /udrive/faculty/rpeverati/g16/g16/l303.exe)
 DipDrv:  MaxL=1.
 Leave Link  303 at Wed Oct 21 14:18:12 2020, MaxMem=  2684354560 cpu:               3.5 elap:               1.0
 (Enter /udrive/faculty/rpeverati/g16/g16/l401.exe)
 Initial guess from the checkpoint file:  "MN_78_RKT01_BH76_AM1_SE.chk"
 SCF N**3 symmetry information disabled.
 B after Tr=     0.000000    0.000000    0.000000
         Rot=    1.000000    0.000000    0.000000    0.000000 Ang=   0.00 deg.
 Guess basis will be translated and rotated to current coordinates.
 JPrj=0 DoOrth=T DoCkMO=T.
 Initial guess orbital symmetries:
 Alpha Orbitals:
       Occupied  (SG) (SG) (PI) (PI) (SG)
       Virtual   (SG)
 Beta  Orbitals:
       Occupied  (SG) (SG) (PI) (PI)
       Virtual   (SG) (SG)
 The electronic state of the initial guess is 2-SG.
 Initial guess <Sx>= 0.0000 <Sy>= 0.0000 <Sz>= 0.5000 <S**2>= 0.7623 S= 0.5061
 Leave Link  401 at Wed Oct 21 14:18:14 2020, MaxMem=  2684354560 cpu:               4.2 elap:               1.1
 (Enter /udrive/faculty/rpeverati/g16/g16/l502.exe)
 Keep J ints in memory in canonical form, NReq=859134.
 FoFCou: FMM=F IPFlag=           0 FMFlag=           0 FMFlg1=           0
         NFxFlg=           0 DoJE=F BraDBF=F KetDBF=F FulRan=T
         wScrn=  0.000000 ICntrl=       600 IOpCl=  2 I1Cent=           0 NGrid=           0
         NMat0=    1 NMatS0=     12 NMatT0=    0 NMatD0=    1 NMtDS0=    0 NMtDT0=    0
 Symmetry not used in FoFCou.
 Two-electron integral symmetry not used.
 UHF open shell SCF:
 Using DIIS extrapolation, IDIIS=  1040.
 Overlap will be assumed to be unity.
 NGot=  2684354560 LenX=  2684294129 LenY=  2684293247
 Requested convergence on RMS density matrix=1.00D-08 within 120 cycles.
 Requested convergence on MAX density matrix=1.00D-06.
 Requested convergence on             energy=1.00D-06.
 No special actions if energy rises.

 Cycle   1  Pass 1  IDiag  1:
 E= 0.275372417611734E-01
 DIIS: error= 1.92D-03 at cycle   1 NSaved=   1.
 NSaved= 1 IEnMin= 1 EnMin= 0.275372417611734E-01 IErMin= 1 ErrMin= 1.92D-03
 ErrMax= 1.92D-03  0.00D+00 EMaxC= 1.00D-01 BMatC= 1.45D-04 BMatP= 1.45D-04
 IDIUse=3 WtCom= 9.81D-01 WtEn= 1.92D-02
 Coeff-Com:  0.100D+01
 Coeff-En:   0.100D+01
 Coeff:      0.100D+01
 GapD=    2.000 DampG=2.000 DampE=1.000 DampFc=2.0000 IDamp=-1.
 RMSDP=2.24D-03 MaxDP=7.73D-03              OVMax= 0.00D+00

 Cycle   2  Pass 1  IDiag  3:
 E= 0.273681711545386E-01 Delta-E=       -0.000169070607 Rises=F Damp=F
 DIIS: error= 1.18D-03 at cycle   2 NSaved=   2.
 NSaved= 2 IEnMin= 2 EnMin= 0.273681711545386E-01 IErMin= 2 ErrMin= 1.18D-03
 ErrMax= 1.18D-03  0.00D+00 EMaxC= 1.00D-01 BMatC= 4.35D-05 BMatP= 1.45D-04
 IDIUse=3 WtCom= 9.88D-01 WtEn= 1.18D-02
 Coeff-Com: -0.721D+00 0.172D+01
 Coeff-En:   0.000D+00 0.100D+01
 Coeff:     -0.713D+00 0.171D+01
 Gap=     0.534 Goal=   None    Shift=    0.000
 Gap=     0.362 Goal=   None    Shift=    0.000
 RMSDP=2.41D-03 MaxDP=7.75D-03 DE=-1.69D-04 OVMax= 1.04D-02

 Cycle   3  Pass 1  IDiag  3:
 E= 0.272751055624667E-01 Delta-E=       -0.000093065592 Rises=F Damp=F
 DIIS: error= 6.76D-04 at cycle   3 NSaved=   3.
 NSaved= 3 IEnMin= 3 EnMin= 0.272751055624667E-01 IErMin= 3 ErrMin= 6.76D-04
 ErrMax= 6.76D-04  0.00D+00 EMaxC= 1.00D-01 BMatC= 8.20D-06 BMatP= 4.35D-05
 IDIUse=3 WtCom= 9.93D-01 WtEn= 6.76D-03
 Coeff-Com:  0.469D+00-0.152D+01 0.205D+01
 Coeff-En:   0.000D+00 0.000D+00 0.100D+01
 Coeff:      0.466D+00-0.151D+01 0.204D+01
 Gap=     0.536 Goal=   None    Shift=    0.000
 Gap=     0.362 Goal=   None    Shift=    0.000
 RMSDP=1.60D-03 MaxDP=6.06D-03 DE=-9.31D-05 OVMax= 7.25D-03

 Cycle   4  Pass 1  IDiag  3:
 E= 0.272530124262325E-01 Delta-E=       -0.000022093136 Rises=F Damp=F
 DIIS: error= 2.58D-04 at cycle   4 NSaved=   4.
 NSaved= 4 IEnMin= 4 EnMin= 0.272530124262325E-01 IErMin= 4 ErrMin= 2.58D-04
 ErrMax= 2.58D-04  0.00D+00 EMaxC= 1.00D-01 BMatC= 6.77D-07 BMatP= 8.20D-06
 IDIUse=3 WtCom= 9.97D-01 WtEn= 2.58D-03
 Coeff-Com: -0.423D+00 0.145D+01-0.218D+01 0.216D+01
 Coeff-En:   0.000D+00 0.000D+00 0.000D+00 0.100D+01
 Coeff:     -0.422D+00 0.144D+01-0.218D+01 0.216D+01
 Gap=     0.536 Goal=   None    Shift=    0.000
 Gap=     0.362 Goal=   None    Shift=    0.000
 RMSDP=3.95D-04 MaxDP=2.11D-03 DE=-2.21D-05 OVMax= 1.71D-03

 Cycle   5  Pass 1  IDiag  3:
 E= 0.272517157863241E-01 Delta-E=       -0.000001296640 Rises=F Damp=F
 DIIS: error= 1.44D-05 at cycle   5 NSaved=   5.
 NSaved= 5 IEnMin= 5 EnMin= 0.272517157863241E-01 IErMin= 5 ErrMin= 1.44D-05
 ErrMax= 1.44D-05  0.00D+00 EMaxC= 1.00D-01 BMatC= 3.03D-09 BMatP= 6.77D-07
 IDIUse=1 WtCom= 1.00D+00 WtEn= 0.00D+00
 Coeff-Com:  0.260D+00-0.896D+00 0.136D+01-0.136D+01 0.164D+01
 Coeff:      0.260D+00-0.896D+00 0.136D+01-0.136D+01 0.164D+01
 Gap=     0.536 Goal=   None    Shift=    0.000
 Gap=     0.362 Goal=   None    Shift=    0.000
 RMSDP=1.48D-05 MaxDP=7.90D-05 DE=-1.30D-06 OVMax= 8.27D-05

 Cycle   6  Pass 1  IDiag  3:
 E= 0.272517123147118E-01 Delta-E=       -0.000000003472 Rises=F Damp=F
 DIIS: error= 1.28D-06 at cycle   6 NSaved=   6.
 NSaved= 6 IEnMin= 6 EnMin= 0.272517123147118E-01 IErMin= 6 ErrMin= 1.28D-06
 ErrMax= 1.28D-06  0.00D+00 EMaxC= 1.00D-01 BMatC= 3.76D-11 BMatP= 3.03D-09
 IDIUse=1 WtCom= 1.00D+00 WtEn= 0.00D+00
 Coeff-Com: -0.213D-01 0.738D-01-0.111D+00 0.107D+00-0.185D+00 0.114D+01
 Coeff:     -0.213D-01 0.738D-01-0.111D+00 0.107D+00-0.185D+00 0.114D+01
 Gap=     0.536 Goal=   None    Shift=    0.000
 Gap=     0.362 Goal=   None    Shift=    0.000
 RMSDP=1.87D-06 MaxDP=8.27D-06 DE=-3.47D-09 OVMax= 7.44D-06

 Cycle   7  Pass 1  IDiag  3:
 E= 0.272517122681606E-01 Delta-E=       -0.000000000047 Rises=F Damp=F
 DIIS: error= 2.11D-07 at cycle   7 NSaved=   7.
 NSaved= 7 IEnMin= 7 EnMin= 0.272517122681606E-01 IErMin= 7 ErrMin= 2.11D-07
 ErrMax= 2.11D-07  0.00D+00 EMaxC= 1.00D-01 BMatC= 1.36D-12 BMatP= 3.76D-11
 IDIUse=1 WtCom= 1.00D+00 WtEn= 0.00D+00
 Coeff-Com:  0.103D-02-0.364D-02 0.497D-02-0.302D-02 0.196D-01-0.372D+00
 Coeff-Com:  0.135D+01
 Coeff:      0.103D-02-0.364D-02 0.497D-02-0.302D-02 0.196D-01-0.372D+00
 Coeff:      0.135D+01
 Gap=     0.536 Goal=   None    Shift=    0.000
 Gap=     0.362 Goal=   None    Shift=    0.000
 RMSDP=2.98D-07 MaxDP=1.17D-06 DE=-4.66D-11 OVMax= 1.03D-06

 Cycle   8  Pass 1  IDiag  3:
 E= 0.272517122667431E-01 Delta-E=       -0.000000000001 Rises=F Damp=F
 DIIS: error= 1.29D-08 at cycle   8 NSaved=   8.
 NSaved= 8 IEnMin= 8 EnMin= 0.272517122667431E-01 IErMin= 8 ErrMin= 1.29D-08
 ErrMax= 1.29D-08  0.00D+00 EMaxC= 1.00D-01 BMatC= 5.11D-15 BMatP= 1.36D-12
 IDIUse=1 WtCom= 1.00D+00 WtEn= 0.00D+00
 Coeff-Com:  0.383D-04-0.108D-03 0.312D-03-0.825D-03-0.327D-02 0.906D-01
 Coeff-Com: -0.359D+00 0.127D+01
 Coeff:      0.383D-04-0.108D-03 0.312D-03-0.825D-03-0.327D-02 0.906D-01
 Coeff:     -0.359D+00 0.127D+01
 Gap=     0.536 Goal=   None    Shift=    0.000
 Gap=     0.362 Goal=   None    Shift=    0.000
 RMSDP=2.02D-08 MaxDP=7.72D-08 DE=-1.42D-12 OVMax= 1.08D-07

 Cycle   9  Pass 1  IDiag  3:
 E= 0.272517122667395E-01 Delta-E=       -0.000000000000 Rises=F Damp=F
 DIIS: error= 1.91D-09 at cycle   9 NSaved=   9.
 NSaved= 9 IEnMin= 9 EnMin= 0.272517122667395E-01 IErMin= 9 ErrMin= 1.91D-09
 ErrMax= 1.91D-09  0.00D+00 EMaxC= 1.00D-01 BMatC= 7.00D-17 BMatP= 5.11D-15
 IDIUse=1 WtCom= 1.00D+00 WtEn= 0.00D+00
 Coeff-Com:  0.182D-05-0.159D-04-0.349D-04 0.239D-03 0.142D-02-0.353D-01
 Coeff-Com:  0.140D+00-0.540D+00 0.143D+01
 Coeff:      0.182D-05-0.159D-04-0.349D-04 0.239D-03 0.142D-02-0.353D-01
 Coeff:      0.140D+00-0.540D+00 0.143D+01
 Gap=     0.536 Goal=   None    Shift=    0.000
 Gap=     0.362 Goal=   None    Shift=    0.000
 RMSDP=3.03D-09 MaxDP=1.40D-08 DE=-3.55D-15 OVMax= 1.61D-08

 Cycle  10  Pass 2  IDiag  1:
 SCF Done:  E(UAM1) =  0.272517122667E-01 A.U. after   10 cycles
            NFock=  9  Conv=0.30D-08     -V/T= 1.0011
 <Sx>= 0.0000 <Sy>= 0.0000 <Sz>= 0.5000 <S**2>= 0.7604 S= 0.5052
 <L.S>= 0.000000000000E+00
 KE=-2.393185525824D+01 PE=-7.223081786283D+00 EE= 1.252607573178D+01
 Annihilation of the first spin contaminant:
 S**2 before annihilation     0.7604,   after     0.7500
 Leave Link  502 at Wed Oct 21 14:18:15 2020, MaxMem=  2684354560 cpu:               8.3 elap:               1.3
 (Enter /udrive/faculty/rpeverati/g16/g16/l508.exe)
 QCSCF skips out because SCF is already converged.
 Leave Link  508 at Wed Oct 21 14:18:17 2020, MaxMem=  2684354560 cpu:               0.7 elap:               0.8
 (Enter /udrive/faculty/rpeverati/g16/g16/l701.exe)
 ... and contract with generalized density number  0.
 Compute integral first derivatives.
 Leave Link  701 at Wed Oct 21 14:18:18 2020, MaxMem=  2684354560 cpu:               5.9 elap:               1.2
 (Enter /udrive/faculty/rpeverati/g16/g16/l702.exe)
 L702 exits ... SP integral derivatives will be done elsewhere.
 Leave Link  702 at Wed Oct 21 14:18:20 2020, MaxMem=  2684354560 cpu:               2.1 elap:               0.9
 (Enter /udrive/faculty/rpeverati/g16/g16/l703.exe)
 Integral derivatives from FoFJK, PRISM(SPDF).
 Compute integral first derivatives, UseDBF=F ICtDFT=           0.
 Calling FoFJK, ICntrl=      2127 FMM=F ISym2X=1 I1Cent= 0 IOpClX= 1 NMat=1 NMatS=1 NMatT=0.
 FoFJK:  IHMeth= 8 ICntrl=    2127 DoSepK=F KAlg= 0 I1Cent=           0 FoldK=F
 IRaf=         0 NMat=       1 IRICut=       1 DoRegI=T DoRafI=F ISym2E= 1 IDoP0=3 IntGTp=3.
 FoFCou: FMM=F IPFlag=           0 FMFlag=      100000 FMFlg1=         800
         NFxFlg=           0 DoJE=F BraDBF=F KetDBF=F FulRan=T
         wScrn=  0.000000 ICntrl=      2127 IOpCl=  1 I1Cent=           0 NGrid=           0
         NMat0=    1 NMatS0=      1 NMatT0=    0 NMatD0=    1 NMtDS0=    0 NMtDT0=    0
 Petite list used in FoFCou.
 Leave Link  703 at Wed Oct 21 14:18:21 2020, MaxMem=  2684354560 cpu:               2.9 elap:               1.1
 (Enter /udrive/faculty/rpeverati/g16/g16/l716.exe)
 Dipole        = 4.83150077D-16-2.80621079D-17-7.02066713D-01
 ***** Axes restored to original set *****
 -------------------------------------------------------------------
 Center     Atomic                   Forces (Hartrees/Bohr)
 Number     Number              X              Y              Z
 -------------------------------------------------------------------
      1        1          -0.000000000   -0.000000000   -0.013103974
      2       17           0.000000000    0.000000000    0.007226669
      3        1          -0.000000000   -0.000000000    0.005877304
 -------------------------------------------------------------------
 Cartesian Forces:  Max     0.013103974 RMS     0.005359121
 Leave Link  716 at Wed Oct 21 14:18:22 2020, MaxMem=  2684354560 cpu:               2.3 elap:               1.0
 (Enter /udrive/faculty/rpeverati/g16/g16/l103.exe)

 GradGradGradGradGradGradGradGradGradGradGradGradGradGradGradGradGradGrad
 Berny optimization.
 Optmz: redundant internal coordinate code flag= 1
 Red2BG:  D1=  1.00D+00 OD1=  3.33D-16 B2RMS=  0.00D+00 IAprox=1
 Red2BG is reusing G-inverse.
 Internal  Forces:  Max     0.007226669 RMS     0.004657453
 Search for a saddle point.
 Step number   3 out of a maximum of   50
 All quantities printed in internal units (Hartrees-Bohrs-Radians)
 Swapping is turned off.
 Update second derivatives using D2CorX and points    1    2    3
 The second derivative matrix:
                          R1        R2        A1        A2
           R1           0.07445
           R2           0.07955   0.26644
           A1           0.00000  -0.00000   0.00230
           A2          -0.00000   0.00000  -0.00000   0.00230
 ITU=  0  0  0
 Eigenvectors of the second derivative matrix:
                           1         2         3         4
     Eigenvalues --     0.00230   0.00230   0.04577   0.29512
   1         R1        -0.00000   0.00000  -0.94074  -0.33914
   2         R2         0.00000  -0.00000   0.33914  -0.94074
   3         A1         0.50794  -0.86139  -0.00000   0.00000
   4         A2         0.86139   0.50794  -0.00000   0.00000
 Eigenvalue     1 is   2.30D-03 should be less than     0.000000 Eigenvector:
                          A2        A1        R1        R2
   1                    0.86139   0.50794  -0.00000   0.00000
 RLam0= 2.30D-03.
 Iter=   1 RLamda= 0.00000000D+00 Sum=-1.72072222D-03.
 Iter=   2 RLamda=-1.72072222D-03 Sum=-1.65935618D-03.
 Iter=   3 RLamda=-1.65935618D-03 Sum=-1.66146831D-03.
 Iter=   4 RLamda=-1.66146831D-03 Sum=-1.66139552D-03.
 Iter=   5 RLamda=-1.66139552D-03 Sum=-1.66139803D-03.
 RFO step:  Lambda0=2.300010000D-03 Lambda=-1.66139552D-03.
 Linear search not attempted -- option 19 set.
 Maximum step size (   0.100) exceeded in Quadratic search.
    -- Step size scaled by   0.381
 Iteration  1 RMS(Cart)=  0.03541282 RMS(Int)=  0.00103389
 Iteration  2 RMS(Cart)=  0.00089763 RMS(Int)=  0.00000537
 Iteration  3 RMS(Cart)=  0.00000018 RMS(Int)=  0.00000536
 ITry= 1 IFail=0 DXMaxC= 3.67D-02 DCOld= 1.00D+10 DXMaxT= 1.00D-01 DXLimC= 3.00D+00 Rises=F
 ClnCor:  largest displacement from symmetrization is 4.27D-02 for atom     1.
 Variable       Old X    -DE/DX   Delta X   Delta X   Delta X     New X
                                 (Linear)    (Quad)   (Total)
    R1        3.04205   0.00723   0.00000   0.06508   0.06457   3.10662
    R2        1.39407  -0.00588   0.00000  -0.02766  -0.02955   1.36452
    A1        3.14159  -0.00000   0.00000  -0.03592   0.00000   3.14159
    A2        3.14159   0.00000   0.00000  -0.06091   0.00000   3.14159
         Item               Value     Threshold  Converged?
 Maximum Force            0.007227     0.000450     NO 
 RMS     Force            0.004657     0.000300     NO 
 Maximum Displacement     0.033196     0.001800     NO 
 RMS     Displacement     0.022856     0.001200     NO 
 Predicted change in Energy=-5.205653D-04
 Lowest energy point so far.  Saving SCF results.
 Largest change from initial coordinates is atom    1       0.026 Angstoms.
 GradGradGradGradGradGradGradGradGradGradGradGradGradGradGradGradGradGrad

 Leave Link  103 at Wed Oct 21 14:18:24 2020, MaxMem=  2684354560 cpu:               5.9 elap:               1.3
 (Enter /udrive/faculty/rpeverati/g16/g16/l202.exe)
                          Input orientation:                          
 ---------------------------------------------------------------------
 Center     Atomic      Atomic             Coordinates (Angstroms)
 Number     Number       Type             X           Y           Z
 ---------------------------------------------------------------------
      1          1           0        0.000000    0.000000   -1.391305
      2         17           0        0.000000    0.000000    0.252647
      3          1           0       -0.000000    0.000000   -2.113379
 ---------------------------------------------------------------------
                    Distance matrix (angstroms):
                    1          2          3
     1  H    0.000000
     2  Cl   1.643952   0.000000
     3  H    0.722074   2.366026   0.000000
 Stoichiometry    ClH2(2)
 Framework group  C*V[C*(HHCl)]
 Deg. of freedom     2
 Full point group                 C*V     NOp   4
 RotChk:  IX=0 Diff= 0.00D+00
 Largest Abelian subgroup         C2V     NOp   4
 Largest concise Abelian subgroup C1      NOp   1
                         Standard orientation:                         
 ---------------------------------------------------------------------
 Center     Atomic      Atomic             Coordinates (Angstroms)
 Number     Number       Type             X           Y           Z
 ---------------------------------------------------------------------
      1          1           0        0.000000    0.000000   -1.432901
      2         17           0        0.000000    0.000000    0.211051
      3          1           0        0.000000    0.000000   -2.154975
 ---------------------------------------------------------------------
 Rotational constants (GHZ):           0.0000000          63.7782262          63.7782262
 Leave Link  202 at Wed Oct 21 14:18:26 2020, MaxMem=  2684354560 cpu:               2.3 elap:               1.0
 (Enter /udrive/faculty/rpeverati/g16/g16/l301.exe)
 Standard basis: VSTO-6G (5D, 7F)
 Ernie: Thresh=  0.10000D-02 Tol=  0.10000D-05 Strict=F.
  NNHCO=     0 NNPyr=     0 NCTC=     0               EPep=         0.000000000
    EC=         3.734854380  ECS=         0.134406188   EG=         0.021701485
   EHC=         0.000000000  EAt=       -14.515662636  AtH=         0.212258150
 EPDDG=         0.000000000  ECC=         3.890962052 EAtT=        14.727920786
 There are     4 symmetry adapted cartesian basis functions of A1  symmetry.
 There are     0 symmetry adapted cartesian basis functions of A2  symmetry.
 There are     1 symmetry adapted cartesian basis functions of B1  symmetry.
 There are     1 symmetry adapted cartesian basis functions of B2  symmetry.
 There are     4 symmetry adapted basis functions of A1  symmetry.
 There are     0 symmetry adapted basis functions of A2  symmetry.
 There are     1 symmetry adapted basis functions of B1  symmetry.
 There are     1 symmetry adapted basis functions of B2  symmetry.
     6 basis functions,    36 primitive gaussians,     6 cartesian basis functions
     5 alpha electrons        4 beta electrons
       nuclear repulsion energy        18.6188828386 Hartrees.
 IExCor=    0 DFT=F Ex=HF Corr=None ExCW=0 ScaHFX=  1.000000
 ScaDFX=  1.000000  1.000000  1.000000  1.000000 ScalE2=  1.000000  1.000000
 IRadAn=      5 IRanWt=     -1 IRanGd=            0 ICorTp=0 IEmpDi=  4
 Integral buffers will be    131072 words long.
 Regular integral format.
 Two-electron integral symmetry is turned off.
 Leave Link  301 at Wed Oct 21 14:18:27 2020, MaxMem=  2684354560 cpu:               3.2 elap:               0.9
 (Enter /udrive/faculty/rpeverati/g16/g16/l302.exe)
 Do NDO integrals.
 NPDir=0 NMtPBC=     1 NCelOv=     1 NCel=       1 NClECP=     1 NCelD=      1
         NCelK=      1 NCelE2=     1 NClLst=     1 CellRange=     0.0.
 One-electron integrals computed using PRISM.
 NBasis=     6 RedAO= T EigKep=  1.00D+00  NBF=     4     0     1     1
 NBsUse=     6 1.00D-06 EigRej= -1.00D+00 NBFU=     4     0     1     1
 Leave Link  302 at Wed Oct 21 14:18:29 2020, MaxMem=  2684354560 cpu:               7.3 elap:               1.3
 (Enter /udrive/faculty/rpeverati/g16/g16/l303.exe)
 DipDrv:  MaxL=1.
 Leave Link  303 at Wed Oct 21 14:18:30 2020, MaxMem=  2684354560 cpu:               3.6 elap:               0.9
 (Enter /udrive/faculty/rpeverati/g16/g16/l401.exe)
 Initial guess from the checkpoint file:  "MN_78_RKT01_BH76_AM1_SE.chk"
 SCF N**3 symmetry information disabled.
 B after Tr=     0.000000    0.000000   -0.000000
         Rot=    1.000000    0.000000    0.000000    0.000000 Ang=   0.00 deg.
 Guess basis will be translated and rotated to current coordinates.
 JPrj=0 DoOrth=T DoCkMO=T.
 Initial guess orbital symmetries:
 Alpha Orbitals:
       Occupied  (SG) (SG) (PI) (PI) (SG)
       Virtual   (SG)
 Beta  Orbitals:
       Occupied  (SG) (SG) (PI) (PI)
       Virtual   (SG) (SG)
 The electronic state of the initial guess is 2-SG.
 Initial guess <Sx>= 0.0000 <Sy>= 0.0000 <Sz>= 0.5000 <S**2>= 0.7604 S= 0.5052
 Leave Link  401 at Wed Oct 21 14:18:31 2020, MaxMem=  2684354560 cpu:               3.0 elap:               0.9
 (Enter /udrive/faculty/rpeverati/g16/g16/l502.exe)
 Keep J ints in memory in canonical form, NReq=859134.
 FoFCou: FMM=F IPFlag=           0 FMFlag=           0 FMFlg1=           0
         NFxFlg=           0 DoJE=F BraDBF=F KetDBF=F FulRan=T
         wScrn=  0.000000 ICntrl=       600 IOpCl=  2 I1Cent=           0 NGrid=           0
         NMat0=    1 NMatS0=     12 NMatT0=    0 NMatD0=    1 NMtDS0=    0 NMtDT0=    0
 Symmetry not used in FoFCou.
 Two-electron integral symmetry not used.
 UHF open shell SCF:
 Using DIIS extrapolation, IDIIS=  1040.
 Overlap will be assumed to be unity.
 NGot=  2684354560 LenX=  2684294129 LenY=  2684293247
 Requested convergence on RMS density matrix=1.00D-08 within 120 cycles.
 Requested convergence on MAX density matrix=1.00D-06.
 Requested convergence on             energy=1.00D-06.
 No special actions if energy rises.

 Cycle   1  Pass 1  IDiag  1:
 E= 0.269942966167811E-01
 DIIS: error= 1.89D-03 at cycle   1 NSaved=   1.
 NSaved= 1 IEnMin= 1 EnMin= 0.269942966167811E-01 IErMin= 1 ErrMin= 1.89D-03
 ErrMax= 1.89D-03  0.00D+00 EMaxC= 1.00D-01 BMatC= 1.33D-04 BMatP= 1.33D-04
 IDIUse=3 WtCom= 9.81D-01 WtEn= 1.89D-02
 Coeff-Com:  0.100D+01
 Coeff-En:   0.100D+01
 Coeff:      0.100D+01
 GapD=    2.000 DampG=2.000 DampE=1.000 DampFc=2.0000 IDamp=-1.
 RMSDP=2.15D-03 MaxDP=7.65D-03              OVMax= 0.00D+00

 Cycle   2  Pass 1  IDiag  3:
 E= 0.268396595976590E-01 Delta-E=       -0.000154637019 Rises=F Damp=F
 DIIS: error= 1.13D-03 at cycle   2 NSaved=   2.
 NSaved= 2 IEnMin= 2 EnMin= 0.268396595976590E-01 IErMin= 2 ErrMin= 1.13D-03
 ErrMax= 1.13D-03  0.00D+00 EMaxC= 1.00D-01 BMatC= 3.77D-05 BMatP= 1.33D-04
 IDIUse=3 WtCom= 9.89D-01 WtEn= 1.13D-02
 Coeff-Com: -0.709D+00 0.171D+01
 Coeff-En:   0.000D+00 0.100D+01
 Coeff:     -0.701D+00 0.170D+01
 Gap=     0.544 Goal=   None    Shift=    0.000
 Gap=     0.359 Goal=   None    Shift=    0.000
 RMSDP=2.22D-03 MaxDP=7.33D-03 DE=-1.55D-04 OVMax= 9.96D-03

 Cycle   3  Pass 1  IDiag  3:
 E= 0.267616219298326E-01 Delta-E=       -0.000078037668 Rises=F Damp=F
 DIIS: error= 6.05D-04 at cycle   3 NSaved=   3.
 NSaved= 3 IEnMin= 3 EnMin= 0.267616219298326E-01 IErMin= 3 ErrMin= 6.05D-04
 ErrMax= 6.05D-04  0.00D+00 EMaxC= 1.00D-01 BMatC= 6.36D-06 BMatP= 3.77D-05
 IDIUse=3 WtCom= 9.94D-01 WtEn= 6.05D-03
 Coeff-Com:  0.435D+00-0.139D+01 0.196D+01
 Coeff-En:   0.000D+00 0.000D+00 0.100D+01
 Coeff:      0.433D+00-0.139D+01 0.195D+01
 Gap=     0.545 Goal=   None    Shift=    0.000
 Gap=     0.359 Goal=   None    Shift=    0.000
 RMSDP=1.30D-03 MaxDP=4.89D-03 DE=-7.80D-05 OVMax= 5.73D-03

 Cycle   4  Pass 1  IDiag  3:
 E= 0.267455624013202E-01 Delta-E=       -0.000016059529 Rises=F Damp=F
 DIIS: error= 2.43D-04 at cycle   4 NSaved=   4.
 NSaved= 4 IEnMin= 4 EnMin= 0.267455624013202E-01 IErMin= 4 ErrMin= 2.43D-04
 ErrMax= 2.43D-04  0.00D+00 EMaxC= 1.00D-01 BMatC= 6.09D-07 BMatP= 6.36D-06
 IDIUse=3 WtCom= 9.98D-01 WtEn= 2.43D-03
 Coeff-Com: -0.380D+00 0.130D+01-0.209D+01 0.218D+01
 Coeff-En:   0.000D+00 0.000D+00 0.000D+00 0.100D+01
 Coeff:     -0.379D+00 0.129D+01-0.209D+01 0.217D+01
 Gap=     0.545 Goal=   None    Shift=    0.000
 Gap=     0.359 Goal=   None    Shift=    0.000
 RMSDP=3.72D-04 MaxDP=1.97D-03 DE=-1.61D-05 OVMax= 1.57D-03

 Cycle   5  Pass 1  IDiag  3:
 E= 0.267443941850338E-01 Delta-E=       -0.000001168216 Rises=F Damp=F
 DIIS: error= 1.18D-05 at cycle   5 NSaved=   5.
 NSaved= 5 IEnMin= 5 EnMin= 0.267443941850338E-01 IErMin= 5 ErrMin= 1.18D-05
 ErrMax= 1.18D-05  0.00D+00 EMaxC= 1.00D-01 BMatC= 2.04D-09 BMatP= 6.09D-07
 IDIUse=1 WtCom= 1.00D+00 WtEn= 0.00D+00
 Coeff-Com:  0.241D+00-0.831D+00 0.135D+01-0.143D+01 0.167D+01
 Coeff:      0.241D+00-0.831D+00 0.135D+01-0.143D+01 0.167D+01
 Gap=     0.545 Goal=   None    Shift=    0.000
 Gap=     0.359 Goal=   None    Shift=    0.000
 RMSDP=1.20D-05 MaxDP=6.87D-05 DE=-1.17D-06 OVMax= 6.94D-05

 Cycle   6  Pass 1  IDiag  3:
 E= 0.267443918497605E-01 Delta-E=       -0.000000002335 Rises=F Damp=F
 DIIS: error= 8.88D-07 at cycle   6 NSaved=   6.
 NSaved= 6 IEnMin= 6 EnMin= 0.267443918497605E-01 IErMin= 6 ErrMin= 8.88D-07
 ErrMax= 8.88D-07  0.00D+00 EMaxC= 1.00D-01 BMatC= 1.34D-11 BMatP= 2.04D-09
 IDIUse=1 WtCom= 1.00D+00 WtEn= 0.00D+00
 Coeff-Com: -0.159D-01 0.548D-01-0.886D-01 0.918D-01-0.138D+00 0.110D+01
 Coeff:     -0.159D-01 0.548D-01-0.886D-01 0.918D-01-0.138D+00 0.110D+01
 Gap=     0.545 Goal=   None    Shift=    0.000
 Gap=     0.359 Goal=   None    Shift=    0.000
 RMSDP=8.11D-07 MaxDP=4.25D-06 DE=-2.34D-09 OVMax= 4.31D-06

 Cycle   7  Pass 1  IDiag  3:
 E= 0.267443918361643E-01 Delta-E=       -0.000000000014 Rises=F Damp=F
 DIIS: error= 1.79D-07 at cycle   7 NSaved=   7.
 NSaved= 7 IEnMin= 7 EnMin= 0.267443918361643E-01 IErMin= 7 ErrMin= 1.79D-07
 ErrMax= 1.79D-07  0.00D+00 EMaxC= 1.00D-01 BMatC= 8.68D-13 BMatP= 1.34D-11
 IDIUse=1 WtCom= 1.00D+00 WtEn= 0.00D+00
 Coeff-Com: -0.113D-03 0.417D-03-0.947D-03 0.206D-02 0.455D-02-0.410D+00
 Coeff-Com:  0.140D+01
 Coeff:     -0.113D-03 0.417D-03-0.947D-03 0.206D-02 0.455D-02-0.410D+00
 Coeff:      0.140D+01
 Gap=     0.545 Goal=   None    Shift=    0.000
 Gap=     0.359 Goal=   None    Shift=    0.000
 RMSDP=2.55D-07 MaxDP=9.74D-07 DE=-1.36D-11 OVMax= 1.05D-06

 Cycle   8  Pass 1  IDiag  3:
 E= 0.267443918351908E-01 Delta-E=       -0.000000000001 Rises=F Damp=F
 DIIS: error= 9.66D-09 at cycle   8 NSaved=   8.
 NSaved= 8 IEnMin= 8 EnMin= 0.267443918351908E-01 IErMin= 8 ErrMin= 9.66D-09
 ErrMax= 9.66D-09  0.00D+00 EMaxC= 1.00D-01 BMatC= 2.70D-15 BMatP= 8.68D-13
 IDIUse=1 WtCom= 1.00D+00 WtEn= 0.00D+00
 Coeff-Com:  0.414D-04-0.156D-03 0.384D-03-0.913D-03-0.241D-02 0.200D+00
 Coeff-Com: -0.691D+00 0.149D+01
 Coeff:      0.414D-04-0.156D-03 0.384D-03-0.913D-03-0.241D-02 0.200D+00
 Coeff:     -0.691D+00 0.149D+01
 Gap=     0.545 Goal=   None    Shift=    0.000
 Gap=     0.359 Goal=   None    Shift=    0.000
 RMSDP=1.56D-08 MaxDP=5.25D-08 DE=-9.73D-13 OVMax= 7.27D-08

 Cycle   9  Pass 1  IDiag  3:
 E= 0.267443918351873E-01 Delta-E=       -0.000000000000 Rises=F Damp=F
 DIIS: error= 3.91D-10 at cycle   9 NSaved=   9.
 NSaved= 9 IEnMin= 9 EnMin= 0.267443918351873E-01 IErMin= 9 ErrMin= 3.91D-10
 ErrMax= 3.91D-10  0.00D+00 EMaxC= 1.00D-01 BMatC= 4.57D-18 BMatP= 2.70D-15
 IDIUse=1 WtCom= 1.00D+00 WtEn= 0.00D+00
 Coeff-Com: -0.211D-05 0.101D-04-0.446D-04 0.156D-03 0.582D-03-0.430D-01
 Coeff-Com:  0.148D+00-0.338D+00 0.123D+01
 Coeff:     -0.211D-05 0.101D-04-0.446D-04 0.156D-03 0.582D-03-0.430D-01
 Coeff:      0.148D+00-0.338D+00 0.123D+01
 Gap=     0.545 Goal=   None    Shift=    0.000
 Gap=     0.359 Goal=   None    Shift=    0.000
 RMSDP=6.04D-10 MaxDP=2.26D-09 DE=-3.55D-15 OVMax= 2.58D-09

 Cycle  10  Pass 2  IDiag  1:
 SCF Done:  E(UAM1) =  0.267443918352E-01 A.U. after   10 cycles
            NFock=  9  Conv=0.60D-09     -V/T= 1.0011
 <Sx>= 0.0000 <Sy>= 0.0000 <Sz>= 0.5000 <S**2>= 0.7587 S= 0.5043
 <L.S>= 0.000000000000E+00
 KE=-2.390259468748D+01 PE=-7.175977384950D+00 EE= 1.248643362571D+01
 Annihilation of the first spin contaminant:
 S**2 before annihilation     0.7587,   after     0.7500
 Leave Link  502 at Wed Oct 21 14:18:34 2020, MaxMem=  2684354560 cpu:              13.1 elap:               2.1
 (Enter /udrive/faculty/rpeverati/g16/g16/l508.exe)
 QCSCF skips out because SCF is already converged.
 Leave Link  508 at Wed Oct 21 14:18:35 2020, MaxMem=  2684354560 cpu:               1.4 elap:               0.7
 (Enter /udrive/faculty/rpeverati/g16/g16/l701.exe)
 ... and contract with generalized density number  0.
 Compute integral first derivatives.
 Leave Link  701 at Wed Oct 21 14:18:37 2020, MaxMem=  2684354560 cpu:               4.3 elap:               1.0
 (Enter /udrive/faculty/rpeverati/g16/g16/l702.exe)
 L702 exits ... SP integral derivatives will be done elsewhere.
 Leave Link  702 at Wed Oct 21 14:18:38 2020, MaxMem=  2684354560 cpu:               2.1 elap:               0.7
 (Enter /udrive/faculty/rpeverati/g16/g16/l703.exe)
 Integral derivatives from FoFJK, PRISM(SPDF).
 Compute integral first derivatives, UseDBF=F ICtDFT=           0.
 Calling FoFJK, ICntrl=      2127 FMM=F ISym2X=1 I1Cent= 0 IOpClX= 1 NMat=1 NMatS=1 NMatT=0.
 FoFJK:  IHMeth= 8 ICntrl=    2127 DoSepK=F KAlg= 0 I1Cent=           0 FoldK=F
 IRaf=         0 NMat=       1 IRICut=       1 DoRegI=T DoRafI=F ISym2E= 1 IDoP0=3 IntGTp=3.
 FoFCou: FMM=F IPFlag=           0 FMFlag=      100000 FMFlg1=         800
         NFxFlg=           0 DoJE=F BraDBF=F KetDBF=F FulRan=T
         wScrn=  0.000000 ICntrl=      2127 IOpCl=  1 I1Cent=           0 NGrid=           0
         NMat0=    1 NMatS0=      1 NMatT0=    0 NMatD0=    1 NMtDS0=    0 NMtDT0=    0
 Petite list used in FoFCou.
 Leave Link  703 at Wed Oct 21 14:18:39 2020, MaxMem=  2684354560 cpu:               4.1 elap:               1.0
 (Enter /udrive/faculty/rpeverati/g16/g16/l716.exe)
 Dipole        = 1.68344979D-16-5.03428529D-17-6.70587528D-01
 ***** Axes restored to original set *****
 -------------------------------------------------------------------
 Center     Atomic                   Forces (Hartrees/Bohr)
 Number     Number              X              Y              Z
 -------------------------------------------------------------------
      1        1          -0.000000000    0.000000000   -0.006615646
      2       17           0.000000000   -0.000000000    0.004971094
      3        1          -0.000000000    0.000000000    0.001644552
 -------------------------------------------------------------------
[...]
 incident light, reduced masses (AMU), force constants (mDyne/A),
 and normal coordinates:
                      1                      2                      3
                     PI                     PI                     SG
 Frequencies --   -459.3047              -459.3047               785.5354
 Red. masses --      1.0094                 1.0094                 1.0641
 Frc consts  --      0.1255                 0.1255                 0.3869
 IR Inten    --      0.0293                 0.0293               122.0713
  Atom  AN      X      Y      Z        X      Y      Z        X      Y      Z
     1   1    -0.16   0.80   0.00     0.80   0.16   0.00    -0.00  -0.00   0.73
     2  17     0.00  -0.01  -0.00    -0.01  -0.00  -0.00     0.00   0.00  -0.04
     3   1     0.11  -0.57   0.00    -0.57  -0.11   0.00     0.00   0.00   0.68
                      4
                     SG
 Frequencies --   3729.3597
 Red. masses --      1.0079
 Frc consts  --      8.2590
 IR Inten    --    502.2373
  Atom  AN      X      Y      Z
     1   1     0.00   0.00  -0.68
     2  17    -0.00  -0.00  -0.00
     3   1    -0.00  -0.00   0.73

 -------------------
 - Thermochemistry -
 -------------------
 Temperature   298.150 Kelvin.  Pressure   1.00000 Atm.
 Atom     1 has atomic number  1 and mass   1.00783
 Atom     2 has atomic number 17 and mass  34.96885
 Atom     3 has atomic number  1 and mass   1.00783
 Molecular mass:    36.98450 amu.
 Principal axes and moments of inertia in atomic units:
                           1         2         3
     Eigenvalues --     0.00000  29.81409  29.81409
           X            0.00000   0.00000   1.00000
           Y            0.00000   1.00000   0.00000
           Z            1.00000   0.00000   0.00000
 This molecule is a prolate symmetric top.
 Rotational symmetry number  1.
 Rotational temperature (Kelvin)      2.90513
 Rotational constant (GHZ):          60.533165
    2 imaginary frequencies ignored.
 Zero-point vibrational energy      27005.1 (Joules/Mol)
                                    6.45437 (Kcal/Mol)
 Vibrational temperatures:   1130.21  5365.72
          (Kelvin)
 
 Zero-point correction=                           0.010286 (Hartree/Particle)
 Thermal correction to Energy=                    0.012729
 Thermal correction to Enthalpy=                  0.013673
 Thermal correction to Gibbs Free Energy=        -0.009865
 Sum of electronic and zero-point Energies=              0.036723
 Sum of electronic and thermal Energies=                 0.039166
 Sum of electronic and thermal Enthalpies=               0.040110
 Sum of electronic and thermal Free Energies=            0.016572
 
                     E (Thermal)             CV                S
                      KCal/Mol        Cal/Mol-Kelvin    Cal/Mol-Kelvin
 Total                    7.987              5.643             49.540
 Electronic               0.000              0.000              1.377
 Translational            0.889              2.981             36.753
 Rotational               0.592              1.987             11.190
 Vibrational              6.506              0.675              0.219
                       Q            Log10(Q)             Ln(Q)
 Total Bot       0.344839D+05          4.537617         10.448249
 Total V=0       0.185652D+10          9.268700         21.341972
 Vib (Bot)       0.190035D-04         -4.721165        -10.870885
 Vib (V=0)       0.102310D+01          0.009918          0.022838
 Electronic      0.200000D+01          0.301030          0.693147
 Translational   0.884064D+07          6.946484         15.994869
 Rotational      0.102629D+03          2.011269          4.631117
 
                                                          TS search on BH76.
                                                             IR Spectrum
 
     3                                                                                                                               
     7                                                                                                    7                          
     2                                                                                                    8                          
     9                                                                                                    6                          
 
     X                                                                                                    X                          
     X                                                                                                    X                          
     X                                                                                                    X                          
     X                                                                                                    X                          
     X                                                                                                    X                          
     X                                                                                                                               
     X                                                                                                                               
     X                                                                                                                               
     X                                                                                                                               
     X                                                                                                                               
     X                                                                                                                               
     X                                                                                                                               
     X                                                                                                                               
     X                                                                                                                               
     X                                                                                                                               
     X                                                                                                                               
     X                                                                                                                               
     X                                                                                                                               
     X                                                                                                                               
     X                                                                                                                               
 
 ***** Axes restored to original set *****
 -------------------------------------------------------------------
 Center     Atomic                   Forces (Hartrees/Bohr)
 Number     Number              X              Y              Z
 -------------------------------------------------------------------
      1        1          -0.000000000    0.000000000    0.000003563
      2       17           0.000000000   -0.000000000    0.000018628
      3        1          -0.000000000    0.000000000   -0.000022191
 -------------------------------------------------------------------
 Cartesian Forces:  Max     0.000022191 RMS     0.000009731
 Force constants in Cartesian coordinates: 
                1             2             3             4             5 
      1 -0.535698D-02
      2  0.000000D+00 -0.535698D-02
      3  0.000000D+00  0.000000D+00  0.259856D+00
      4  0.157199D-02  0.000000D+00  0.000000D+00 -0.465606D-03
      5  0.000000D+00  0.157199D-02  0.000000D+00  0.000000D+00 -0.465606D-03
      6  0.000000D+00  0.000000D+00 -0.630842D-02  0.000000D+00  0.000000D+00
      7  0.378499D-02  0.000000D+00  0.000000D+00 -0.110638D-02  0.000000D+00
      8  0.000000D+00  0.378499D-02  0.000000D+00  0.000000D+00 -0.110638D-02
      9  0.000000D+00  0.000000D+00 -0.253548D+00  0.000000D+00  0.000000D+00
                6             7             8             9 
      6  0.455768D-01
      7  0.000000D+00 -0.267861D-02
      8  0.000000D+00  0.000000D+00 -0.267861D-02
      9 -0.392684D-01  0.000000D+00  0.000000D+00  0.292816D+00
 FormGI is forming the generalized inverse of G from B-inverse, IUseBI=4.
 Force constants in internal coordinates: 
                1             2             3             4 
      1  0.455768D-01
      2  0.392684D-01  0.292816D+00
      3  0.000000D+00  0.000000D+00 -0.478143D-02
      4  0.000000D+00  0.000000D+00  0.000000D+00 -0.478143D-02
 Leave Link  716 at Wed Oct 21 14:20:16 2020, MaxMem=  2684354560 cpu:               4.7 elap:               1.0
 (Enter /udrive/faculty/rpeverati/g16/g16/l103.exe)

 GradGradGradGradGradGradGradGradGradGradGradGradGradGradGradGradGradGrad
 Berny optimization.
 Optmz: redundant internal coordinate code flag= 1
 Red2BG:  D1=  1.00D+00 OD1=  3.33D-16 B2RMS=  0.00D+00 IAprox=1
 Red2BG is reusing G-inverse.
 Internal  Forces:  Max     0.000022191 RMS     0.000014487
 Search for a local minimum.
 Step number   1 out of a maximum of    2
 All quantities printed in internal units (Hartrees-Bohrs-Radians)
 Second derivative matrix not updated -- analytic derivatives used.
 The second derivative matrix:
                          R1        R2        A1        A2
           R1           0.04558
           R2           0.03927   0.29282
           A1           0.00000  -0.00000  -0.00478
           A2          -0.00000  -0.00000  -0.00000  -0.00478
 ITU=  0
 Eigenvectors of the second derivative matrix:
                           1         2         3         4
     Eigenvalues --    -0.00478  -0.00478   0.03949   0.29890
   1         R1        -0.00000  -0.00000  -0.98820  -0.15318
   2         R2         0.00000   0.00000   0.15318  -0.98820
   3         A1        -0.46962   0.88287  -0.00000   0.00000
   4         A2        -0.88287  -0.46962   0.00000  -0.00000
 Eigenvalue     1 is  -4.78D-03 should be greater than     0.000000 Eigenvector:
                          A2        A1        R1        R2
   1                   -0.88287  -0.46962  -0.00000   0.00000
 Eigenvalue     2 is  -4.78D-03 should be greater than     0.000000 Eigenvector:
                          A1        A2        R1        R2
   1                    0.88287  -0.46962  -0.00000   0.00000
 Angle between quadratic step and forces=  46.49 degrees.
 Linear search not attempted -- first point.
 Iteration  1 RMS(Cart)=  0.00016357 RMS(Int)=  0.00000000
 Iteration  2 RMS(Cart)=  0.00000000 RMS(Int)=  0.00000000
 ITry= 1 IFail=0 DXMaxC= 2.67D-04 DCOld= 1.00D+10 DXMaxT= 3.00D-01 DXLimC= 3.00D+00 Rises=F
 ClnCor:  largest displacement from symmetrization is 4.67D-14 for atom     1.
 Variable       Old X    -DE/DX   Delta X   Delta X   Delta X     New X
                                 (Linear)    (Quad)   (Total)
    R1        3.22463   0.00002   0.00000   0.00039   0.00039   3.22502
    R2        1.34020   0.00002   0.00000   0.00002   0.00002   1.34023
    A1        3.14159   0.00000   0.00000   0.00000   0.00000   3.14159
    A2        3.14159   0.00000   0.00000   0.00000   0.00000   3.14159
         Item               Value     Threshold  Converged?
 Maximum Force            0.000022     0.000450     YES
 RMS     Force            0.000014     0.000300     YES
 Maximum Displacement     0.000267     0.001800     YES
 RMS     Displacement     0.000164     0.001200     YES
 Predicted change in Energy=-3.879563D-09
 Optimization completed.
    -- Stationary point found.
                           ----------------------------
                           !   Optimized Parameters   !
                           ! (Angstroms and Degrees)  !
 --------------------------                            --------------------------
 ! Name  Definition              Value          Derivative Info.                !
 --------------------------------------------------------------------------------
 ! R1    R(1,2)                  1.7064         -DE/DX =    0.0                 !
 ! R2    R(1,3)                  0.7092         -DE/DX =    0.0                 !
 ! A1    L(2,1,3,-1,-1)        180.0            -DE/DX =    0.0                 !
 ! A2    L(2,1,3,-2,-2)        180.0            -DE/DX =    0.0                 !
 --------------------------------------------------------------------------------
 GradGradGradGradGradGradGradGradGradGradGradGradGradGradGradGradGradGrad

 Leave Link  103 at Wed Oct 21 14:20:17 2020, MaxMem=  2684354560 cpu:               3.7 elap:               1.1
 (Enter /udrive/faculty/rpeverati/g16/g16/l9999.exe)

 ----------------------------------------------------------------------

 Electric dipole moment (input orientation):
 (Debye = 10**-18 statcoulomb cm , SI units = C m)
                  (au)            (Debye)         (10**-30 SI)
   Tot        0.613598D+00      0.155961D+01      0.520230D+01
   x          0.000000D+00      0.000000D+00      0.000000D+00
   y          0.000000D+00      0.000000D+00      0.000000D+00
   z         -0.613598D+00     -0.155961D+01     -0.520230D+01

 Dipole polarizability, Alpha (input orientation).
 (esu units = cm**3 , SI units = C**2 m**2 J**-1)
 Alpha(0;0):
               (au)            (10**-24 esu)      (10**-40 SI)
   iso        0.697223D+01      0.103318D+01      0.114957D+01
   aniso      0.208924D+02      0.309593D+01      0.344469D+01
   xx         0.810320D-02      0.120077D-02      0.133604D-02
   yx         0.000000D+00      0.000000D+00      0.000000D+00
   yy         0.810320D-02      0.120077D-02      0.133604D-02
   zx         0.000000D+00      0.000000D+00      0.000000D+00
   zy         0.000000D+00      0.000000D+00      0.000000D+00
   zz         0.209005D+02      0.309713D+01      0.344603D+01

 First dipole hyperpolarizability, Beta (input orientation).
 ||, _|_  parallel and perpendicular components, (z) with respect to z axis,
 vector components x,y,z.  Values do not include the 1/n! factor of 1/2.
 (esu units = statvolt**-1 cm**4 , SI units = C**3 m**3 J**-2)
 Beta(0;0,0):
               (au)            (10**-30 esu)      (10**-50 SI)
   || (z)     0.151991D+03      0.131309D+01      0.487339D+00
   _|_(z)     0.506637D+02      0.437695D+00      0.162446D+00
   x          0.000000D+00      0.000000D+00      0.000000D+00
   y          0.000000D+00      0.000000D+00      0.000000D+00
   z          0.759956D+03      0.656543D+01      0.243669D+01
   ||         0.151991D+03      0.131309D+01      0.487339D+00
   xxx        0.000000D+00      0.000000D+00      0.000000D+00
   xxy        0.000000D+00      0.000000D+00      0.000000D+00
   yxy        0.000000D+00      0.000000D+00      0.000000D+00
   yyy        0.000000D+00      0.000000D+00      0.000000D+00
   xxz        0.404125D+00      0.349132D-02      0.129577D-02
   yxz        0.000000D+00      0.000000D+00      0.000000D+00
   yyz        0.404125D+00      0.349132D-02      0.129577D-02
   zxz        0.000000D+00      0.000000D+00      0.000000D+00
   zyz        0.000000D+00      0.000000D+00      0.000000D+00
   zzz        0.252510D+03      0.218149D+01      0.809640D+00

 ----------------------------------------------------------------------

 Dipole orientation:
     1         -0.00000000         -0.00000000          2.67662983
    17          0.00000000          0.00000000         -0.54800466
     1         -0.00000000         -0.00000000          4.01683384

 Electric dipole moment (dipole orientation):
 (Debye = 10**-18 statcoulomb cm , SI units = C m)
                  (au)            (Debye)         (10**-30 SI)
   Tot        0.613598D+00      0.155961D+01      0.520230D+01
   x          0.000000D+00      0.000000D+00      0.000000D+00
   y          0.000000D+00      0.000000D+00      0.000000D+00
   z          0.613598D+00      0.155961D+01      0.520230D+01

 Dipole polarizability, Alpha (dipole orientation).
 (esu units = cm**3 , SI units = C**2 m**2 J**-1)
 Alpha(0;0):
               (au)            (10**-24 esu)      (10**-40 SI)
   iso        0.697223D+01      0.103318D+01      0.114957D+01
   aniso      0.208924D+02      0.309593D+01      0.344469D+01
   xx         0.810320D-02      0.120077D-02      0.133604D-02
   yx         0.000000D+00      0.000000D+00      0.000000D+00
   yy         0.810320D-02      0.120077D-02      0.133604D-02
   zx         0.000000D+00      0.000000D+00      0.000000D+00
   zy         0.000000D+00      0.000000D+00      0.000000D+00
   zz         0.209005D+02      0.309713D+01      0.344603D+01

 First dipole hyperpolarizability, Beta (dipole orientation).
 ||, _|_  parallel and perpendicular components, (z) with respect to z axis,
 vector components x,y,z.  Values do not include the 1/n! factor of 1/2.
 (esu units = statvolt**-1 cm**4 , SI units = C**3 m**3 J**-2)
 Beta(0;0,0):
               (au)            (10**-30 esu)      (10**-50 SI)
   || (z)    -0.151991D+03     -0.131309D+01     -0.487339D+00
   _|_(z)    -0.506637D+02     -0.437695D+00     -0.162446D+00
   x          0.000000D+00      0.000000D+00      0.000000D+00
   y          0.000000D+00      0.000000D+00      0.000000D+00
   z         -0.759956D+03     -0.656543D+01     -0.243669D+01
   ||         0.151991D+03      0.131309D+01      0.487339D+00
   xxx        0.000000D+00      0.000000D+00      0.000000D+00
   xxy        0.000000D+00      0.000000D+00      0.000000D+00
   yxy        0.000000D+00      0.000000D+00      0.000000D+00
   yyy        0.000000D+00      0.000000D+00      0.000000D+00
   xxz       -0.404125D+00     -0.349132D-02     -0.129577D-02
   yxz        0.000000D+00      0.000000D+00      0.000000D+00
   yyz       -0.404125D+00     -0.349132D-02     -0.129577D-02
   zxz        0.000000D+00      0.000000D+00      0.000000D+00
   zyz        0.000000D+00      0.000000D+00      0.000000D+00
   zzz       -0.252510D+03     -0.218149D+01     -0.809640D+00

 ----------------------------------------------------------------------

 Test job not archived.
 1\1\GINC-NODE60\Freq\UAM1\ZDO\Cl1H2(2)\RPEVERATI\21-Oct-2020\0\\#P Fre
 q AM1 5D 7F Integral=UltraFineGrid SCF=(NoSymm,XQC,MaxCyc=120) IOp(1/3
 3=1) Geom=Check Guess=Read\\TS search on BH76.\\0,2\H,0.,0.,-1.4164115
 058\Cl,0.,0.,0.2899915789\H,0.,0.,-2.1256169259\\Version=ES64L-G16RevA
 .03\State=2-SG\HF=0.0264371\S2=0.756651\S2-1=0.\S2A=0.75\RMSD=3.503e-1
 0\RMSF=9.731e-06\ZeroPoint=0.0102857\Thermal=0.0127288\Dipole=0.,0.,-0
 .6135977\DipoleDeriv=0.0579896,0.,0.,0.,0.0579896,0.,0.,0.,-0.7451747,
 -0.1514436,0.,0.,0.,-0.1514436,0.,0.,0.,0.4550842,0.093454,0.,0.,0.,0.
 093454,0.,0.,0.,0.2900899\Polar=0.0081032,0.,0.0081032,0.,0.,20.900492
 4\HyperPolar=0.,0.,0.,0.,0.4041249,0.,0.4041249,0.,0.,252.5104719\PG=C
 *V [C*(H1H1Cl1)]\NImag=2\\-0.00535698,0.,-0.00535698,0.,0.,0.25985600,
 0.00157199,0.,0.,-0.00046561,0.,0.00157199,0.,0.,-0.00046561,0.,0.,-0.
 00630842,0.,0.,0.04557681,0.00378499,0.,0.,-0.00110638,0.,0.,-0.002678
 61,0.,0.00378499,0.,0.,-0.00110638,0.,0.,-0.00267861,0.,0.,-0.25354757
 ,0.,0.,-0.03926839,0.,0.,0.29281594\\0.,0.,-0.00000356,0.,0.,-0.000018
 63,0.,0.,0.00002219\\\@


 THE WORLD OF CHEMICAL REACTIONS IS LIKE A STAGE,
 ON WHICH SCENE AFTER SCENE IS CEASELESSLY PLAYED.
 THE ACTORS ON IT ARE THE ELEMENTS.
   -- CLEMENS WINKLER   BER. 30,13(1897)
 (DISCOVERER OF GERMANIUM, FEB 6, 1886)
 Job cpu time:       0 days  0 hours  2 minutes 11.8 seconds.
 Elapsed time:       0 days  0 hours  0 minutes 26.8 seconds.
 File lengths (MBytes):  RWF=      5 Int=      0 D2E=      0 Chk=      2 Scr=      1
 Normal termination of Gaussian 16 at Wed Oct 21 14:20:20 2020.
