 Entering Gaussian System, Link 0=g16
 Input=MN_87_RKT11_BH76_AM1_SE.in
 Output=MN_87_RKT11_BH76_AM1_SE.log
 Initial command:
 /udrive/faculty/rpeverati/g16/g16/l1.exe "/udrive/scratch-directories/gaussian09/rpeverati/Gau-18775.inp" -scrdir="/udrive/scratch-directories/gaussian09/rpeverati/"
 Entering Link 1 = /udrive/faculty/rpeverati/g16/g16/l1.exe PID=     18776.
  
 Copyright (c) 1988,1990,1992,1993,1995,1998,2003,2009,2016,
            Gaussian, Inc.  All Rights Reserved.
  
 This is part of the Gaussian(R) 16 program.  It is based on
 the Gaussian(R) 09 system (copyright 2009, Gaussian, Inc.),
 the Gaussian(R) 03 system (copyright 2003, Gaussian, Inc.),
 the Gaussian(R) 98 system (copyright 1998, Gaussian, Inc.),
 the Gaussian(R) 94 system (copyright 1995, Gaussian, Inc.),
 the Gaussian 92(TM) system (copyright 1992, Gaussian, Inc.),
 the Gaussian 90(TM) system (copyright 1990, Gaussian, Inc.),
 the Gaussian 88(TM) system (copyright 1988, Gaussian, Inc.),
 the Gaussian 86(TM) system (copyright 1986, Carnegie Mellon
 University), and the Gaussian 82(TM) system (copyright 1983,
 Carnegie Mellon University). Gaussian is a federally registered
 trademark of Gaussian, Inc.
  
 This software contains proprietary and confidential information,
 including trade secrets, belonging to Gaussian, Inc.
  
 This software is provided under written license and may be
 used, copied, transmitted, or stored only in accord with that
 written license.
  
 The following legend is applicable only to US Government
 contracts under FAR:
  
                    RESTRICTED RIGHTS LEGEND
  
 Use, reproduction and disclosure by the US Government is
 subject to restrictions as set forth in subparagraphs (a)
 and (c) of the Commercial Computer Software - Restricted
 Rights clause in FAR 52.227-19.
  
 Gaussian, Inc.
 340 Quinnipiac St., Bldg. 40, Wallingford CT 06492
  
  
 ---------------------------------------------------------------
 Warning -- This program may not be used in any manner that
 competes with the business of Gaussian, Inc. or will provide
 assistance to any competitor of Gaussian, Inc.  The licensee
 of this program is prohibited from giving any competitor of
 Gaussian, Inc. access to this program.  By using this program,
 the user acknowledges that Gaussian, Inc. is engaged in the
 business of creating and licensing software in the field of
 computational chemistry and represents and warrants to the
 licensee that it is not a competitor of Gaussian, Inc. and that
 it will not use this program in any manner prohibited above.
 ---------------------------------------------------------------
  

 Cite this work as:
 Gaussian 16, Revision A.03,
 M. J. Frisch, G. W. Trucks, H. B. Schlegel, G. E. Scuseria, 
 M. A. Robb, J. R. Cheeseman, G. Scalmani, V. Barone, 
 G. A. Petersson, H. Nakatsuji, X. Li, M. Caricato, A. V. Marenich, 
 J. Bloino, B. G. Janesko, R. Gomperts, B. Mennucci, H. P. Hratchian, 
 J. V. Ortiz, A. F. Izmaylov, J. L. Sonnenberg, D. Williams-Young, 
 F. Ding, F. Lipparini, F. Egidi, J. Goings, B. Peng, A. Petrone, 
 T. Henderson, D. Ranasinghe, V. G. Zakrzewski, J. Gao, N. Rega, 
 G. Zheng, W. Liang, M. Hada, M. Ehara, K. Toyota, R. Fukuda, 
 J. Hasegawa, M. Ishida, T. Nakajima, Y. Honda, O. Kitao, H. Nakai, 
 T. Vreven, K. Throssell, J. A. Montgomery, Jr., J. E. Peralta, 
 F. Ogliaro, M. J. Bearpark, J. J. Heyd, E. N. Brothers, K. N. Kudin, 
 V. N. Staroverov, T. A. Keith, R. Kobayashi, J. Normand, 
 K. Raghavachari, A. P. Rendell, J. C. Burant, S. S. Iyengar, 
 J. Tomasi, M. Cossi, J. M. Millam, M. Klene, C. Adamo, R. Cammi, 
 J. W. Ochterski, R. L. Martin, K. Morokuma, O. Farkas, 
 J. B. Foresman, and D. J. Fox, Gaussian, Inc., Wallingford CT, 2016.
 
 ******************************************
 Gaussian 16:  ES64L-G16RevA.03 25-Dec-2016
                21-Oct-2020 
 ******************************************
 %NoSave
 %nproc=12
 Will use up to   12 processors via shared memory.
 %mem=20GB
 %chk=MN_87_RKT11_BH76_AM1_SE
 ----------------------------------------------------------------------
 #P Opt(TS,MaxCyc=50,NoEigenTest,MaxStep=10,AddRedundant) AM1 5D 7F Int
 egral=UltraFineGrid SCF=(NoSymm,XQC,MaxCyc=120) IOp(1/33=1)
 ----------------------------------------------------------------------
 1/5=1,6=50,8=10,11=1,18=120,26=1,33=1,38=1/1,3;
 2/9=110,12=2,17=6,18=5,40=1/2;
 3/5=2,8=11,25=1,41=700000,71=1,75=-5/1,2,3;
 4/9=2,35=1/1;
 5/5=2,7=120,8=3,13=1,35=1,38=5/2,8;
 6/7=2,8=2,9=2,10=2,28=1/1;
 7//1,2,3,16;
 1/5=1,6=50,8=10,11=1,18=20,26=1,33=1/3(2);
 2/9=110/2;
 99//99;
 2/9=110/2;
 3/5=2,8=11,25=1,41=700000,71=1,75=-5,135=20/1,2,3;
 4/5=5,9=2,16=3,35=1/1;
 5/5=2,7=120,8=3,13=1,35=1,38=5/2,8;
 7//1,2,3,16;
 1/5=1,6=50,8=10,11=1,18=20,26=1,33=1/3(-5);
 2/9=110/2;
 6/7=2,8=2,9=2,10=2,19=2,28=1/1;
 99/9=1/99;
 Leave Link    1 at Wed Oct 21 14:17:54 2020, MaxMem=  2684354560 cpu:              11.9 elap:               1.2
 (Enter /udrive/faculty/rpeverati/g16/g16/l101.exe)
 ONIOM data not found on unit 2.
 ------------------
 TS search on BH76.
 ------------------
 TstMul:  ICh=     0
 TstMul:  Mul=     3
 TstMul:  ICh=     0
 TstMul:  Mul=     3
 Symbolic Z-matrix:
 Charge =  0 Multiplicity = 3
 C                     0.00029  -1.14229   0. 
 H                    -1.05596  -1.38474   0. 
 H                     0.52017  -1.40739   0.91245 
 H                     0.52017  -1.40739  -0.91245 
 H                     0.01156   0.1601    0. 
 O                     0.00029   1.36164   0. 
 
 RdStrC is calling ZToCFu for IStruc=1 NZ=     6.
 PrtBox:  NBox=     1 Levels=  1 BoxLen=    8.00 SMaxX=        5.23
          Shift=            1.995470            2.659580            1.724280
 Box      1 Number                   0 centers from      1 to      6:
 After GenITR:
 ITRead=  0  0  0  0  0  0
 MicOpt= -1 -1 -1 -1 -1 -1
 Add virtual bond connecting atoms O6         and H5         Dist= 2.27D+00.
 Add virtual bond connecting atoms H5         and C1         Dist= 2.46D+00.
 The following ModRedundant input section has been read:
 
 ITRead=  0  0  0  0  0  0
 MicOpt= -1 -1 -1 -1 -1 -1
 NAtoms=      6 NQM=        6 NQMF=       0 NMMI=      0 NMMIF=      0
                NMic=       0 NMicF=      0.
                    Isotopes and Nuclear Properties:
 (Nuclear quadrupole moments (NQMom) in fm**2, nuclear magnetic moments (NMagM)
  in nuclear magnetons)

  Atom         1           2           3           4           5           6
 IAtWgt=          12           1           1           1           1          16
 AtmWgt=  12.0000000   1.0078250   1.0078250   1.0078250   1.0078250  15.9949146
 NucSpn=           0           1           1           1           1           0
 AtZEff=   0.0000000   0.0000000   0.0000000   0.0000000   0.0000000   0.0000000
 NQMom=    0.0000000   0.0000000   0.0000000   0.0000000   0.0000000   0.0000000
 NMagM=    0.0000000   2.7928460   2.7928460   2.7928460   2.7928460   0.0000000
 AtZNuc=   6.0000000   1.0000000   1.0000000   1.0000000   1.0000000   8.0000000
 No MM parameters found.
 Leave Link  101 at Wed Oct 21 14:17:56 2020, MaxMem=  2684354560 cpu:              13.6 elap:               1.6
 (Enter /udrive/faculty/rpeverati/g16/g16/l103.exe)

 GradGradGradGradGradGradGradGradGradGradGradGradGradGradGradGradGradGrad
 Berny optimization.
 Optmz: redundant internal coordinate code flag= 1
 Initialization pass.
                           ----------------------------
                           !    Initial Parameters    !
                           ! (Angstroms and Degrees)  !
 --------------------------                            --------------------------
 ! Name  Definition              Value          Derivative Info.                !
 --------------------------------------------------------------------------------
 ! R1    R(1,2)                  1.0837         estimate D2E/DX2                !
 ! R2    R(1,3)                  1.0831         estimate D2E/DX2                !
 ! R3    R(1,4)                  1.0831         estimate D2E/DX2                !
 ! R4    R(1,5)                  1.3024         estimate D2E/DX2                !
 ! R5    R(5,6)                  1.2016         estimate D2E/DX2                !
 ! A1    A(2,1,3)              114.3975         estimate D2E/DX2                !
 ! A2    A(2,1,4)              114.3975         estimate D2E/DX2                !
 ! A3    A(2,1,5)              103.4234         estimate D2E/DX2                !
 ! A4    A(3,1,4)              114.7971         estimate D2E/DX2                !
 ! A5    A(3,1,5)              103.9219         estimate D2E/DX2                !
 ! A6    A(4,1,5)              103.9219         estimate D2E/DX2                !
 ! A7    L(1,5,6,2,-1)         178.9668         estimate D2E/DX2                !
 ! A8    L(1,5,6,2,-2)         180.0            estimate D2E/DX2                !
 ! D1    D(2,1,4,3)           -135.1686         estimate D2E/DX2                !
 ! D2    D(2,1,5,3)            119.7805         estimate D2E/DX2                !
 ! D3    D(2,1,5,4)           -119.7805         estimate D2E/DX2                !
 ! D4    D(3,1,5,4)            120.4391         estimate D2E/DX2                !
 --------------------------------------------------------------------------------
 Maximum allowed force set to 1.00D+20.
 Trust Radius=1.00D-01 FncErr=1.00D-07 GrdErr=1.00D-07 EigMax=2.50D+02 EigMin=1.00D-04
 Number of steps in this run=     50 maximum allowed number of steps=    100.
 Search for a saddle point of order  1.
 GradGradGradGradGradGradGradGradGradGradGradGradGradGradGradGradGradGrad

 Leave Link  103 at Wed Oct 21 14:17:57 2020, MaxMem=  2684354560 cpu:               2.8 elap:               0.7
 (Enter /udrive/faculty/rpeverati/g16/g16/l202.exe)
                          Input orientation:                          
 ---------------------------------------------------------------------
 Center     Atomic      Atomic             Coordinates (Angstroms)
 Number     Number       Type             X           Y           Z
 ---------------------------------------------------------------------
      1          6           0        0.000290   -1.142287    0.000000
      2          1           0       -1.055957   -1.384735    0.000000
      3          1           0        0.520167   -1.407389    0.912450
      4          1           0        0.520167   -1.407389   -0.912450
      5          1           0        0.011560    0.160099    0.000000
      6          8           0        0.000290    1.361642    0.000000
 ---------------------------------------------------------------------
                    Distance matrix (angstroms):
                    1          2          3          4          5
     1  C    0.000000
     2  H    1.083715   0.000000
     3  H    1.083105   1.821331   0.000000
     4  H    1.083105   1.821331   1.824899   0.000000
     5  H    1.302435   1.877793   1.883684   1.883684   0.000000
     6  O    2.503929   2.942489   2.961481   2.961481   1.201596
                    6
     6  O    0.000000
 Stoichiometry    CH4O(3)
 Framework group  CS[SG(CH2O),X(H2)]
 Deg. of freedom     8
 Full point group                 CS      NOp   2
 Largest Abelian subgroup         CS      NOp   2
 Largest concise Abelian subgroup CS      NOp   2
                         Standard orientation:                         
 ---------------------------------------------------------------------
 Center     Atomic      Atomic             Coordinates (Angstroms)
 Number     Number       Type             X           Y           Z
 ---------------------------------------------------------------------
      1          6           0        0.000290   -1.142287    0.000000
      2          1           0       -1.055957   -1.384735    0.000000
      3          1           0        0.520168   -1.407389    0.912450
      4          1           0        0.520168   -1.407389   -0.912450
      5          1           0        0.011560    0.160099   -0.000000
      6          8           0        0.000290    1.361642   -0.000000
 ---------------------------------------------------------------------
 Rotational constants (GHZ):         150.9743796           9.6384202           9.6367904
 Leave Link  202 at Wed Oct 21 14:17:59 2020, MaxMem=  2684354560 cpu:               2.7 elap:               0.8
 (Enter /udrive/faculty/rpeverati/g16/g16/l301.exe)
 Standard basis: VSTO-6G (5D, 7F)
 Ernie: Thresh=  0.10000D-02 Tol=  0.10000D-05 Strict=F.
  NNHCO=     0 NNPyr=     0 NCTC=     0               EPep=         0.000000000
    EC=        16.433537818  ECS=         0.567984747   EG=         0.121092342
   EHC=         0.000000000  EAt=       -17.731586298  AtH=         0.699363146
 EPDDG=         0.000000000  ECC=        17.122614906 EAtT=        18.430949444
 There are     9 symmetry adapted cartesian basis functions of A'  symmetry.
 There are     3 symmetry adapted cartesian basis functions of A"  symmetry.
 There are     9 symmetry adapted basis functions of A'  symmetry.
 There are     3 symmetry adapted basis functions of A"  symmetry.
    12 basis functions,    72 primitive gaussians,    12 cartesian basis functions
     8 alpha electrons        6 beta electrons
       nuclear repulsion energy        35.5535643508 Hartrees.
 IExCor=    0 DFT=F Ex=HF Corr=None ExCW=0 ScaHFX=  1.000000
 ScaDFX=  1.000000  1.000000  1.000000  1.000000 ScalE2=  1.000000  1.000000
 IRadAn=      5 IRanWt=     -1 IRanGd=            0 ICorTp=0 IEmpDi=  4
 Integral buffers will be    131072 words long.
 Regular integral format.
 Two-electron integral symmetry is turned off.
 Leave Link  301 at Wed Oct 21 14:18:00 2020, MaxMem=  2684354560 cpu:               3.1 elap:               0.8
 (Enter /udrive/faculty/rpeverati/g16/g16/l302.exe)
 Do NDO integrals.
 NPDir=0 NMtPBC=     1 NCelOv=     1 NCel=       1 NClECP=     1 NCelD=      1
         NCelK=      1 NCelE2=     1 NClLst=     1 CellRange=     0.0.
 One-electron integrals computed using PRISM.
 NBasis=    12 RedAO= T EigKep=  1.00D+00  NBF=     9     3
 NBsUse=    12 1.00D-06 EigRej= -1.00D+00 NBFU=     9     3
 Leave Link  302 at Wed Oct 21 14:18:01 2020, MaxMem=  2684354560 cpu:               3.3 elap:               0.8
 (Enter /udrive/faculty/rpeverati/g16/g16/l303.exe)
 DipDrv:  MaxL=1.
 Leave Link  303 at Wed Oct 21 14:18:03 2020, MaxMem=  2684354560 cpu:               2.4 elap:               0.9
 (Enter /udrive/faculty/rpeverati/g16/g16/l401.exe)
 SCF N**3 symmetry information disabled.
 Simple Huckel Guess.
 JPrj=0 DoOrth=F DoCkMO=F.
 Initial guess orbital symmetries:
 Alpha Orbitals:
       Occupied  (A') (A') (A") (A') (A') (A") (A') (A')
       Virtual   (A') (A") (A') (A')
 Beta  Orbitals:
       Occupied  (A') (A') (A") (A') (A') (A")
       Virtual   (A') (A') (A') (A") (A') (A')
 The electronic state of the initial guess is 3-A'.
 Initial guess <Sx>= 0.0000 <Sy>= 0.0000 <Sz>= 1.0000 <S**2>= 2.0000 S= 1.0000
 Leave Link  401 at Wed Oct 21 14:18:04 2020, MaxMem=  2684354560 cpu:               1.8 elap:               0.7
 (Enter /udrive/faculty/rpeverati/g16/g16/l502.exe)
 Keep J ints in memory in canonical form, NReq=859461.
 FoFCou: FMM=F IPFlag=           0 FMFlag=           0 FMFlg1=           0
         NFxFlg=           0 DoJE=F BraDBF=F KetDBF=F FulRan=T
         wScrn=  0.000000 ICntrl=       600 IOpCl=  2 I1Cent=           0 NGrid=           0
         NMat0=    1 NMatS0=     24 NMatT0=    0 NMatD0=    1 NMtDS0=    0 NMtDT0=    0
 Symmetry not used in FoFCou.
 Two-electron integral symmetry not used.
 UHF open shell SCF:
 Using DIIS extrapolation, IDIIS=  1040.
 Overlap will be assumed to be unity.
 NGot=  2684354560 LenX=  2684293796 LenY=  2684292914
 Requested convergence on RMS density matrix=1.00D-08 within 120 cycles.
 Requested convergence on MAX density matrix=1.00D-06.
 Requested convergence on             energy=1.00D-06.
 No special actions if energy rises.

 Cycle   1  Pass 1  IDiag  1:
 E= 0.228072423808783    
 DIIS: error= 7.13D-02 at cycle   1 NSaved=   1.
 NSaved= 1 IEnMin= 1 EnMin= 0.228072423808783     IErMin= 1 ErrMin= 7.13D-02
 ErrMax= 7.13D-02  0.00D+00 EMaxC= 1.00D-01 BMatC= 2.23D-01 BMatP= 2.23D-01
 IDIUse=3 WtCom= 2.87D-01 WtEn= 7.13D-01
 Coeff-Com:  0.100D+01
 Coeff-En:   0.100D+01
 Coeff:      0.100D+01
 GapD=    2.000 DampG=2.000 DampE=0.500 DampFc=1.0000 IDamp=-1.
 RMSDP=2.54D-02 MaxDP=1.45D-01              OVMax= 0.00D+00

 Cycle   2  Pass 1  IDiag  1:
 E= 0.102958043724108     Delta-E=       -0.125114380085 Rises=F Damp=F
 DIIS: error= 1.69D-02 at cycle   2 NSaved=   2.
 NSaved= 2 IEnMin= 2 EnMin= 0.102958043724108     IErMin= 2 ErrMin= 1.69D-02
 ErrMax= 1.69D-02  0.00D+00 EMaxC= 1.00D-01 BMatC= 1.41D-02 BMatP= 2.23D-01
 IDIUse=3 WtCom= 8.31D-01 WtEn= 1.69D-01
 Coeff-Com: -0.308D+00 0.131D+01
 Coeff-En:   0.000D+00 0.100D+01
 Coeff:     -0.256D+00 0.126D+01
 RMSDP=9.03D-03 MaxDP=4.59D-02 DE=-1.25D-01 OVMax= 0.00D+00

 Cycle   3  Pass 1  IDiag  3:
 E= 0.931622380064709E-01 Delta-E=       -0.009795805718 Rises=F Damp=F
 DIIS: error= 3.24D-03 at cycle   3 NSaved=   3.
 NSaved= 3 IEnMin= 3 EnMin= 0.931622380064709E-01 IErMin= 3 ErrMin= 3.24D-03
 ErrMax= 3.24D-03  0.00D+00 EMaxC= 1.00D-01 BMatC= 4.56D-04 BMatP= 1.41D-02
 IDIUse=3 WtCom= 9.68D-01 WtEn= 3.24D-02
 Coeff-Com:  0.180D+00-0.829D+00 0.165D+01
 Coeff-En:   0.000D+00 0.000D+00 0.100D+01
 Coeff:      0.174D+00-0.802D+00 0.163D+01
 Gap=     0.525 Goal=   None    Shift=    0.000
 Gap=     0.413 Goal=   None    Shift=    0.000
 RMSDP=2.88D-03 MaxDP=1.91D-02 DE=-9.80D-03 OVMax= 2.09D-02

 Cycle   4  Pass 1  IDiag  3:
 E= 0.925116662881749E-01 Delta-E=       -0.000650571718 Rises=F Damp=F
 DIIS: error= 1.36D-03 at cycle   4 NSaved=   4.
 NSaved= 4 IEnMin= 4 EnMin= 0.925116662881749E-01 IErMin= 4 ErrMin= 1.36D-03
 ErrMax= 1.36D-03  0.00D+00 EMaxC= 1.00D-01 BMatC= 4.59D-05 BMatP= 4.56D-04
 IDIUse=3 WtCom= 9.86D-01 WtEn= 1.36D-02
 Coeff-Com: -0.501D-01 0.227D+00-0.695D+00 0.152D+01
 Coeff-En:   0.000D+00 0.000D+00 0.000D+00 0.100D+01
 Coeff:     -0.494D-01 0.224D+00-0.686D+00 0.151D+01
 Gap=     0.529 Goal=   None    Shift=    0.000
 Gap=     0.414 Goal=   None    Shift=    0.000
 RMSDP=1.16D-03 MaxDP=6.12D-03 DE=-6.51D-04 OVMax= 7.27D-03

 Cycle   5  Pass 1  IDiag  3:
 E= 0.924277571023495E-01 Delta-E=       -0.000083909186 Rises=F Damp=F
 DIIS: error= 4.44D-04 at cycle   5 NSaved=   5.
 NSaved= 5 IEnMin= 5 EnMin= 0.924277571023495E-01 IErMin= 5 ErrMin= 4.44D-04
 ErrMax= 4.44D-04  0.00D+00 EMaxC= 1.00D-01 BMatC= 7.22D-06 BMatP= 4.59D-05
 IDIUse=3 WtCom= 9.96D-01 WtEn= 4.44D-03
 Coeff-Com:  0.462D-02-0.167D-01 0.182D+00-0.860D+00 0.169D+01
 Coeff-En:   0.000D+00 0.000D+00 0.000D+00 0.000D+00 0.100D+01
 Coeff:      0.460D-02-0.166D-01 0.181D+00-0.856D+00 0.169D+01
 Gap=     0.529 Goal=   None    Shift=    0.000
 Gap=     0.414 Goal=   None    Shift=    0.000
 RMSDP=5.46D-04 MaxDP=2.96D-03 DE=-8.39D-05 OVMax= 3.82D-03

 Cycle   6  Pass 1  IDiag  3:
 E= 0.924110606008881E-01 Delta-E=       -0.000016696501 Rises=F Damp=F
 DIIS: error= 2.11D-04 at cycle   6 NSaved=   6.
 NSaved= 6 IEnMin= 6 EnMin= 0.924110606008881E-01 IErMin= 6 ErrMin= 2.11D-04
 ErrMax= 2.11D-04  0.00D+00 EMaxC= 1.00D-01 BMatC= 1.53D-06 BMatP= 7.22D-06
 IDIUse=3 WtCom= 9.98D-01 WtEn= 2.11D-03
 Coeff-Com:  0.829D-03-0.965D-02-0.134D+00 0.868D+00-0.222D+01 0.250D+01
 Coeff-En:   0.000D+00 0.000D+00 0.000D+00 0.000D+00 0.000D+00 0.100D+01
 Coeff:      0.827D-03-0.963D-02-0.133D+00 0.866D+00-0.222D+01 0.250D+01
 Gap=     0.529 Goal=   None    Shift=    0.000
 Gap=     0.414 Goal=   None    Shift=    0.000
 RMSDP=3.93D-04 MaxDP=2.58D-03 DE=-1.67D-05 OVMax= 2.85D-03

 Cycle   7  Pass 1  IDiag  3:
 E= 0.924066568669986E-01 Delta-E=       -0.000004403734 Rises=F Damp=F
 DIIS: error= 3.69D-05 at cycle   7 NSaved=   7.
 NSaved= 7 IEnMin= 7 EnMin= 0.924066568669986E-01 IErMin= 7 ErrMin= 3.69D-05
 ErrMax= 3.69D-05  0.00D+00 EMaxC= 1.00D-01 BMatC= 5.42D-08 BMatP= 1.53D-06
 IDIUse=1 WtCom= 1.00D+00 WtEn= 0.00D+00
 Coeff-Com: -0.678D-03 0.590D-02 0.525D-01-0.361D+00 0.972D+00-0.123D+01
 Coeff-Com:  0.156D+01
 Coeff:     -0.678D-03 0.590D-02 0.525D-01-0.361D+00 0.972D+00-0.123D+01
 Coeff:      0.156D+01
 Gap=     0.529 Goal=   None    Shift=    0.000
 Gap=     0.414 Goal=   None    Shift=    0.000
 RMSDP=5.35D-05 MaxDP=4.07D-04 DE=-4.40D-06 OVMax= 4.37D-04

 Cycle   8  Pass 1  IDiag  3:
 E= 0.924065448984379E-01 Delta-E=       -0.000000111969 Rises=F Damp=F
 DIIS: error= 9.28D-06 at cycle   8 NSaved=   8.
 NSaved= 8 IEnMin= 8 EnMin= 0.924065448984379E-01 IErMin= 8 ErrMin= 9.28D-06
 ErrMax= 9.28D-06  0.00D+00 EMaxC= 1.00D-01 BMatC= 4.48D-09 BMatP= 5.42D-08
 IDIUse=1 WtCom= 1.00D+00 WtEn= 0.00D+00
 Coeff-Com:  0.959D-04-0.212D-02-0.337D-01 0.216D+00-0.584D+00 0.746D+00
 Coeff-Com: -0.110D+01 0.176D+01
 Coeff:      0.959D-04-0.212D-02-0.337D-01 0.216D+00-0.584D+00 0.746D+00
 Coeff:     -0.110D+01 0.176D+01
 Gap=     0.529 Goal=   None    Shift=    0.000
 Gap=     0.414 Goal=   None    Shift=    0.000
 RMSDP=1.56D-05 MaxDP=1.10D-04 DE=-1.12D-07 OVMax= 1.38D-04

 Cycle   9  Pass 1  IDiag  3:
 E= 0.924065349339003E-01 Delta-E=       -0.000000009965 Rises=F Damp=F
 DIIS: error= 2.61D-06 at cycle   9 NSaved=   9.
 NSaved= 9 IEnMin= 9 EnMin= 0.924065349339003E-01 IErMin= 9 ErrMin= 2.61D-06
 ErrMax= 2.61D-06  0.00D+00 EMaxC= 1.00D-01 BMatC= 5.16D-10 BMatP= 4.48D-09
 IDIUse=1 WtCom= 1.00D+00 WtEn= 0.00D+00
 Coeff-Com: -0.664D-04 0.109D-02 0.156D-01-0.101D+00 0.276D+00-0.351D+00
 Coeff-Com:  0.530D+00-0.113D+01 0.176D+01
 Coeff:     -0.664D-04 0.109D-02 0.156D-01-0.101D+00 0.276D+00-0.351D+00
 Coeff:      0.530D+00-0.113D+01 0.176D+01
 Gap=     0.529 Goal=   None    Shift=    0.000
 Gap=     0.414 Goal=   None    Shift=    0.000
 RMSDP=4.92D-06 MaxDP=2.30D-05 DE=-9.96D-09 OVMax= 2.76D-05

 Cycle  10  Pass 1  IDiag  3:
 E= 0.924065338823539E-01 Delta-E=       -0.000000001052 Rises=F Damp=F
 DIIS: error= 8.16D-07 at cycle  10 NSaved=  10.
 NSaved=10 IEnMin=10 EnMin= 0.924065338823539E-01 IErMin=10 ErrMin= 8.16D-07
 ErrMax= 8.16D-07  0.00D+00 EMaxC= 1.00D-01 BMatC= 3.04D-11 BMatP= 5.16D-10
 IDIUse=1 WtCom= 1.00D+00 WtEn= 0.00D+00
 Coeff-Com:  0.451D-04-0.565D-03-0.702D-02 0.459D-01-0.127D+00 0.161D+00
 Coeff-Com: -0.243D+00 0.528D+00-0.994D+00 0.164D+01
 Coeff:      0.451D-04-0.565D-03-0.702D-02 0.459D-01-0.127D+00 0.161D+00
 Coeff:     -0.243D+00 0.528D+00-0.994D+00 0.164D+01
 Gap=     0.529 Goal=   None    Shift=    0.000
 Gap=     0.414 Goal=   None    Shift=    0.000
 RMSDP=1.51D-06 MaxDP=8.88D-06 DE=-1.05D-09 OVMax= 1.21D-05

 Cycle  11  Pass 1  IDiag  3:
 E= 0.924065338233930E-01 Delta-E=       -0.000000000059 Rises=F Damp=F
 DIIS: error= 2.02D-07 at cycle  11 NSaved=  11.
 NSaved=11 IEnMin=11 EnMin= 0.924065338233930E-01 IErMin=11 ErrMin= 2.02D-07
 ErrMax= 2.02D-07  0.00D+00 EMaxC= 1.00D-01 BMatC= 2.53D-12 BMatP= 3.04D-11
 IDIUse=1 WtCom= 1.00D+00 WtEn= 0.00D+00
 Coeff-Com: -0.103D-04 0.815D-04 0.634D-03-0.431D-02 0.128D-01-0.157D-01
 Coeff-Com:  0.240D-01-0.561D-01 0.187D+00-0.633D+00 0.148D+01
 Coeff:     -0.103D-04 0.815D-04 0.634D-03-0.431D-02 0.128D-01-0.157D-01
 Coeff:      0.240D-01-0.561D-01 0.187D+00-0.633D+00 0.148D+01
 Gap=     0.529 Goal=   None    Shift=    0.000
 Gap=     0.414 Goal=   None    Shift=    0.000
 RMSDP=4.21D-07 MaxDP=2.53D-06 DE=-5.90D-11 OVMax= 3.29D-06

 Cycle  12  Pass 1  IDiag  3:
 E= 0.924065338184832E-01 Delta-E=       -0.000000000005 Rises=F Damp=F
 DIIS: error= 3.32D-08 at cycle  12 NSaved=  12.
 NSaved=12 IEnMin=12 EnMin= 0.924065338184832E-01 IErMin=12 ErrMin= 3.32D-08
 ErrMax= 3.32D-08  0.00D+00 EMaxC= 1.00D-01 BMatC= 8.99D-14 BMatP= 2.53D-12
 IDIUse=1 WtCom= 1.00D+00 WtEn= 0.00D+00
 Coeff-Com:  0.248D-06 0.299D-05 0.806D-04-0.558D-03 0.114D-02-0.174D-02
 Coeff-Com:  0.280D-02-0.581D-02-0.267D-01 0.193D+00-0.627D+00 0.146D+01
 Coeff:      0.248D-06 0.299D-05 0.806D-04-0.558D-03 0.114D-02-0.174D-02
 Coeff:      0.280D-02-0.581D-02-0.267D-01 0.193D+00-0.627D+00 0.146D+01
 Gap=     0.529 Goal=   None    Shift=    0.000
 Gap=     0.414 Goal=   None    Shift=    0.000
 RMSDP=5.64D-08 MaxDP=3.64D-07 DE=-4.91D-12 OVMax= 4.33D-07

 Cycle  13  Pass 1  IDiag  3:
 E= 0.924065338183411E-01 Delta-E=       -0.000000000000 Rises=F Damp=F
 DIIS: error= 8.94D-09 at cycle  13 NSaved=  13.
 NSaved=13 IEnMin=13 EnMin= 0.924065338183411E-01 IErMin=13 ErrMin= 8.94D-09
 ErrMax= 8.94D-09  0.00D+00 EMaxC= 1.00D-01 BMatC= 4.70D-15 BMatP= 8.99D-14
 IDIUse=1 WtCom= 1.00D+00 WtEn= 0.00D+00
 Coeff-Com: -0.200D-06 0.211D-05 0.284D-04-0.147D-03 0.603D-03-0.593D-03
 Coeff-Com:  0.696D-03-0.125D-02 0.224D-01-0.118D+00 0.349D+00-0.930D+00
 Coeff-Com:  0.168D+01
 Coeff:     -0.200D-06 0.211D-05 0.284D-04-0.147D-03 0.603D-03-0.593D-03
 Coeff:      0.696D-03-0.125D-02 0.224D-01-0.118D+00 0.349D+00-0.930D+00
 Coeff:      0.168D+01
 Gap=     0.529 Goal=   None    Shift=    0.000
 Gap=     0.414 Goal=   None    Shift=    0.000
 RMSDP=1.35D-08 MaxDP=8.53D-08 DE=-1.42D-13 OVMax= 9.71D-08

 Cycle  14  Pass 1  IDiag  3:
 E= 0.924065338183340E-01 Delta-E=       -0.000000000000 Rises=F Damp=F
 DIIS: error= 1.38D-09 at cycle  14 NSaved=  14.
 NSaved=14 IEnMin=14 EnMin= 0.924065338183340E-01 IErMin=14 ErrMin= 1.38D-09
 ErrMax= 1.38D-09  0.00D+00 EMaxC= 1.00D-01 BMatC= 8.92D-17 BMatP= 4.70D-15
 IDIUse=1 WtCom= 1.00D+00 WtEn= 0.00D+00
 Coeff-Com: -0.424D-07 0.346D-06 0.293D-06-0.209D-04-0.235D-04-0.390D-04
 Coeff-Com:  0.137D-03-0.417D-03-0.743D-02 0.451D-01-0.137D+00 0.378D+00
 Coeff-Com: -0.729D+00 0.145D+01
 Coeff:     -0.424D-07 0.346D-06 0.293D-06-0.209D-04-0.235D-04-0.390D-04
 Coeff:      0.137D-03-0.417D-03-0.743D-02 0.451D-01-0.137D+00 0.378D+00
 Coeff:     -0.729D+00 0.145D+01
 Gap=     0.529 Goal=   None    Shift=    0.000
 Gap=     0.414 Goal=   None    Shift=    0.000
 RMSDP=2.47D-09 MaxDP=1.35D-08 DE=-7.11D-15 OVMax= 2.14D-08

 Cycle  15  Pass 2  IDiag  1:
 SCF Done:  E(UAM1) =  0.924065338183E-01 A.U. after   15 cycles
            NFock= 14  Conv=0.25D-08     -V/T= 1.0032
 <Sx>= 0.0000 <Sy>= 0.0000 <Sz>= 1.0000 <S**2>= 2.0357 S= 1.0119
 <L.S>= 0.000000000000E+00
 KE=-2.925213673849D+01 PE=-3.204827705927D+01 EE= 2.583925598080D+01
 Annihilation of the first spin contaminant:
 S**2 before annihilation     2.0357,   after     2.0002
 Leave Link  502 at Wed Oct 21 14:18:06 2020, MaxMem=  2684354560 cpu:              10.5 elap:               1.7
 (Enter /udrive/faculty/rpeverati/g16/g16/l508.exe)
 QCSCF skips out because SCF is already converged.
 Leave Link  508 at Wed Oct 21 14:18:07 2020, MaxMem=  2684354560 cpu:               0.4 elap:               0.6
 (Enter /udrive/faculty/rpeverati/g16/g16/l601.exe)
 Copying SCF densities to generalized density rwf, IOpCl= 1 IROHF=0.

 **********************************************************************

            Population analysis using the SCF density.

 **********************************************************************

 Orbital symmetries:
 Alpha Orbitals:
       Occupied  (A') (A') (A') (A') (A") (A') (A") (A')
       Virtual   (A') (A') (A") (A')
 Beta  Orbitals:
       Occupied  (A') (A') (A') (A") (A') (A")
       Virtual   (A') (A') (A') (A') (A") (A')
 The electronic state is 3-A'.
 Alpha  occ. eigenvalues --   -1.30177  -1.08739  -0.61525  -0.53729  -0.53289
 Alpha  occ. eigenvalues --   -0.52713  -0.47554  -0.39337
 Alpha virt. eigenvalues --    0.13550   0.14850   0.14917   0.15850
  Beta  occ. eigenvalues --   -1.13243  -1.01311  -0.52546  -0.52358  -0.52265
  Beta  occ. eigenvalues --   -0.43402
  Beta virt. eigenvalues --   -0.02018   0.01440   0.15771   0.16022   0.16091
  Beta virt. eigenvalues --    0.19474
          Condensed to atoms (all electrons):
               1          2          3          4          5          6
     1  C    4.256338   0.000000   0.000000   0.000000   0.000000   0.000000
     2  H    0.000000   0.904485   0.000000   0.000000   0.000000   0.000000
     3  H    0.000000   0.000000   0.903351   0.000000   0.000000   0.000000
     4  H    0.000000   0.000000   0.000000   0.903351   0.000000   0.000000
     5  H    0.000000   0.000000   0.000000   0.000000   0.811027   0.000000
     6  O    0.000000   0.000000   0.000000   0.000000   0.000000   6.221449
          Atomic-Atomic Spin Densities.
               1          2          3          4          5          6
     1  C    0.777104   0.000000   0.000000   0.000000   0.000000   0.000000
     2  H    0.000000  -0.028877   0.000000   0.000000   0.000000   0.000000
     3  H    0.000000   0.000000  -0.028637   0.000000   0.000000   0.000000
     4  H    0.000000   0.000000   0.000000  -0.028637   0.000000   0.000000
     5  H    0.000000   0.000000   0.000000   0.000000  -0.155932   0.000000
     6  O    0.000000   0.000000   0.000000   0.000000   0.000000   1.464980
 Mulliken charges and spin densities:
               1          2
     1  C   -0.256338   0.777104
     2  H    0.095515  -0.028877
     3  H    0.096649  -0.028637
     4  H    0.096649  -0.028637
     5  H    0.188973  -0.155932
     6  O   -0.221449   1.464980
 Sum of Mulliken charges =   0.00000   2.00000
 Mulliken charges and spin densities with hydrogens summed into heavy atoms:
               1          2
     1  C    0.032476   0.690952
     6  O   -0.032476   1.309048
 Charge=             -0.0000 electrons
 Dipole moment (field-independent basis, Debye):
    X=              0.0060    Y=             -2.2315    Z=             -0.0000  Tot=              2.2315
 N-N= 3.555356435078D+01 E-N=-3.204827706268D+01  KE=-2.925213673849D+01
 Leave Link  601 at Wed Oct 21 14:18:08 2020, MaxMem=  2684354560 cpu:               1.9 elap:               0.6
 (Enter /udrive/faculty/rpeverati/g16/g16/l701.exe)
 ... and contract with generalized density number  0.
 Compute integral first derivatives.
 Leave Link  701 at Wed Oct 21 14:18:09 2020, MaxMem=  2684354560 cpu:               2.8 elap:               0.8
 (Enter /udrive/faculty/rpeverati/g16/g16/l702.exe)
 L702 exits ... SP integral derivatives will be done elsewhere.
 Leave Link  702 at Wed Oct 21 14:18:11 2020, MaxMem=  2684354560 cpu:               1.7 elap:               0.7
 (Enter /udrive/faculty/rpeverati/g16/g16/l703.exe)
 Integral derivatives from FoFJK, PRISM(SPDF).
 Compute integral first derivatives, UseDBF=F ICtDFT=           0.
 Calling FoFJK, ICntrl=      2127 FMM=F ISym2X=1 I1Cent= 0 IOpClX= 1 NMat=1 NMatS=1 NMatT=0.
 FoFJK:  IHMeth= 8 ICntrl=    2127 DoSepK=F KAlg= 0 I1Cent=           0 FoldK=F
 IRaf=         0 NMat=       1 IRICut=       1 DoRegI=T DoRafI=F ISym2E= 1 IDoP0=3 IntGTp=3.
 FoFCou: FMM=F IPFlag=           0 FMFlag=      100000 FMFlg1=         800
         NFxFlg=           0 DoJE=F BraDBF=F KetDBF=F FulRan=T
         wScrn=  0.000000 ICntrl=      2127 IOpCl=  1 I1Cent=           0 NGrid=           0
         NMat0=    1 NMatS0=      1 NMatT0=    0 NMatD0=    1 NMtDS0=    0 NMtDT0=    0
 Petite list used in FoFCou.
 Leave Link  703 at Wed Oct 21 14:18:12 2020, MaxMem=  2684354560 cpu:               3.8 elap:               0.9
 (Enter /udrive/faculty/rpeverati/g16/g16/l716.exe)
 Dipole        = 2.37353123D-03-8.77935296D-01-2.66474860D-15
 ***** Axes restored to original set *****
 -------------------------------------------------------------------
 Center     Atomic                   Forces (Hartrees/Bohr)
 Number     Number              X              Y              Z
 -------------------------------------------------------------------
      1        6          -0.000974473   -0.013334166    0.000000000
      2        1          -0.014004917   -0.001394392    0.000000000
      3        1           0.007292472   -0.001494898    0.012109469
      4        1           0.007292472   -0.001494898   -0.012109469
      5        1          -0.000036322    0.056945966   -0.000000000
      6        8           0.000430769   -0.039227611    0.000000000
 -------------------------------------------------------------------
 Cartesian Forces:  Max     0.056945966 RMS     0.017579621
 Leave Link  716 at Wed Oct 21 14:18:13 2020, MaxMem=  2684354560 cpu:               2.4 elap:               1.0
 (Enter /udrive/faculty/rpeverati/g16/g16/l103.exe)

 GradGradGradGradGradGradGradGradGradGradGradGradGradGradGradGradGradGrad
 Berny optimization.
 Optmz: redundant internal coordinate code flag= 1
 FormGI is forming the generalized inverse of G from B-inverse, IUseBI=4.
 Internal  Forces:  Max     0.039229926 RMS     0.012017767
 Search for a saddle point.
 Step number   1 out of a maximum of   50
 All quantities printed in internal units (Hartrees-Bohrs-Radians)
 Swapping is turned off.
 Second derivative matrix not updated -- first step.
 The second derivative matrix:
                          R1        R2        R3        R4        R5
           R1           0.35549
           R2           0.00000   0.35622
           R3           0.00000   0.00000   0.35622
           R4           0.00000   0.00000   0.00000   0.18479
           R5           0.00000   0.00000   0.00000   0.00000   0.24549
           A1           0.00000   0.00000   0.00000   0.00000   0.00000
           A2           0.00000   0.00000   0.00000   0.00000   0.00000
           A3           0.00000   0.00000   0.00000   0.00000   0.00000
           A4           0.00000   0.00000   0.00000   0.00000   0.00000
           A5           0.00000   0.00000   0.00000   0.00000   0.00000
           A6           0.00000   0.00000   0.00000   0.00000   0.00000
           A7           0.00000   0.00000   0.00000   0.00000   0.00000
           A8           0.00000   0.00000   0.00000   0.00000   0.00000
           D1           0.00000   0.00000   0.00000   0.00000   0.00000
           D2           0.00000   0.00000   0.00000   0.00000   0.00000
           D3           0.00000   0.00000   0.00000   0.00000   0.00000
           D4           0.00000   0.00000   0.00000   0.00000   0.00000
                          A1        A2        A3        A4        A5
           A1           0.16000
           A2           0.00000   0.16000
           A3           0.00000   0.00000   0.16000
           A4           0.00000   0.00000   0.00000   0.16000
           A5           0.00000   0.00000   0.00000   0.00000   0.16000
           A6           0.00000   0.00000   0.00000   0.00000   0.00000
           A7           0.00000   0.00000   0.00000   0.00000   0.00000
           A8           0.00000   0.00000   0.00000   0.00000   0.00000
           D1           0.00000   0.00000   0.00000   0.00000   0.00000
           D2           0.00000   0.00000   0.00000   0.00000   0.00000
           D3           0.00000   0.00000   0.00000   0.00000   0.00000
           D4           0.00000   0.00000   0.00000   0.00000   0.00000
                          A6        A7        A8        D1        D2
           A6           0.16000
           A7           0.00000   0.00230
           A8           0.00000   0.00000   0.00230
           D1           0.00000   0.00000   0.00000   0.00326
           D2           0.00000   0.00000   0.00000   0.00000   0.00230
           D3           0.00000   0.00000   0.00000   0.00000   0.00000
           D4           0.00000   0.00000   0.00000   0.00000   0.00000
                          D3        D4
           D3           0.00230
           D4           0.00000   0.00230
 ITU=  0
 Eigenvectors of the second derivative matrix:
                           1         2         3         4         5
     Eigenvalues --     0.00230   0.00230   0.05311   0.06734   0.07512
   1         R1         0.00000  -0.00000   0.00000   0.00000  -0.00000
   2         R2        -0.00000  -0.00000   0.00000   0.00000   0.00000
   3         R3        -0.00000   0.00000   0.00000   0.00000   0.00000
   4         R4         0.00000  -0.00000   0.00000   0.00000  -0.00000
   5         R5         0.00000  -0.00000  -0.00000  -0.00000   0.00000
   6         A1         0.00000   0.00000   0.43611  -0.01564   0.24622
   7         A2        -0.00000   0.00000   0.02262   0.42622  -0.34222
   8         A3         0.00000  -0.00000  -0.16116   0.16834   0.28880
   9         A4         0.00000   0.00000   0.00145  -0.42140  -0.34524
  10         A5        -0.00000  -0.00000  -0.17119  -0.15682   0.28371
  11         A6         0.00000   0.00000  -0.27043   0.00684   0.00886
  12         A7        -0.99437   0.10601  -0.00000  -0.00000   0.00000
  13         A8        -0.10601  -0.99437   0.00000   0.00000  -0.00000
  14         D1         0.00000  -0.00000  -0.70815   0.01761   0.37823
  15         D2         0.00000  -0.00000   0.34529  -0.01168   0.51383
  16         D3         0.00000  -0.00000   0.15562  -0.54761   0.25472
  17         D4         0.00000  -0.00000  -0.18967  -0.53593  -0.25911
                           6         7         8         9        10
     Eigenvalues --     0.16000   0.16000   0.18479   0.24549   0.35549
   1         R1         0.00000   0.00000  -0.00000   0.00000  -1.00000
   2         R2        -0.00000   0.00000  -0.00000  -0.00000   0.00000
   3         R3         0.00000  -0.00000   0.00000  -0.00000   0.00000
   4         R4         0.00000   0.00000   1.00000   0.00000  -0.00000
   5         R5        -0.00000   0.00000  -0.00000   1.00000  -0.00000
   6         A1         0.15112  -0.20307  -0.00000   0.00000   0.00000
   7         A2        -0.30569  -0.01279   0.00000  -0.00000  -0.00000
   8         A3         0.32262   0.66519  -0.00000  -0.00000   0.00000
   9         A4         0.09356   0.29917  -0.00000  -0.00000   0.00000
  10         A5        -0.72969  -0.13227   0.00000  -0.00000  -0.00000
  11         A6         0.48830  -0.63963  -0.00000   0.00000   0.00000
  12         A7         0.00000   0.00000   0.00000   0.00000   0.00000
  13         A8         0.00000  -0.00000  -0.00000  -0.00000   0.00000
  14         D1         0.00000  -0.00000   0.00000  -0.00000  -0.00000
  15         D2         0.00000  -0.00000   0.00000  -0.00000  -0.00000
  16         D3         0.00000  -0.00000   0.00000   0.00000   0.00000
  17         D4        -0.00000  -0.00000  -0.00000   0.00000   0.00000
                          11        12
     Eigenvalues --     0.35622   0.35622
   1         R1         0.00000   0.00000
   2         R2         0.71014   0.70406
   3         R3         0.70406  -0.71014
   4         R4        -0.00000   0.00000
   5         R5         0.00000   0.00000
   6         A1        -0.00000   0.00000
   7         A2        -0.00000  -0.00000
   8         A3         0.00000   0.00000
   9         A4         0.00000  -0.00000
  10         A5        -0.00000  -0.00000
  11         A6         0.00000   0.00000
  12         A7        -0.00000  -0.00000
  13         A8         0.00000  -0.00000
  14         D1         0.00000  -0.00000
  15         D2        -0.00000   0.00000
  16         D3         0.00000   0.00000
  17         D4         0.00000  -0.00000
 Eigenvalue     1 is   2.30D-03 should be less than     0.000000 Eigenvector:
                          A7        A8        A3        A5        A6
   1                   -0.99437  -0.10601   0.00000  -0.00000   0.00000
                          D1        A2        R4        R1        R2
   1                    0.00000  -0.00000   0.00000   0.00000  -0.00000
 RLam0= 2.31D-03.
 Iter=   1 RLamda= 0.00000000D+00 Sum=-9.81190439D-03.
 Iter=   2 RLamda=-9.81190439D-03 Sum=-9.41478588D-03.
 Iter=   3 RLamda=-9.41478588D-03 Sum=-9.43013505D-03.
 Iter=   4 RLamda=-9.43013505D-03 Sum=-9.42954072D-03.
 Iter=   5 RLamda=-9.42954072D-03 Sum=-9.42956373D-03.
 Iter=   6 RLamda=-9.42956373D-03 Sum=-9.42956284D-03.
 RFO step:  Lambda0=2.308716355D-03 Lambda=-9.42956373D-03.
 Linear search not attempted -- option 19 set.
 Maximum step size (   0.100) exceeded in Quadratic search.
    -- Step size scaled by   0.363
 Iteration  1 RMS(Cart)=  0.02570815 RMS(Int)=  0.00079238
 Iteration  2 RMS(Cart)=  0.00085525 RMS(Int)=  0.00001631
 Iteration  3 RMS(Cart)=  0.00000046 RMS(Int)=  0.00001630
 ITry= 1 IFail=0 DXMaxC= 5.69D-02 DCOld= 1.00D+10 DXMaxT= 1.00D-01 DXLimC= 3.00D+00 Rises=F
 ClnCor:  largest displacement from symmetrization is 4.92D-03 for atom     4.
 Variable       Old X    -DE/DX   Delta X   Delta X   Delta X     New X
                                 (Linear)    (Quad)   (Total)
    R1        2.04793   0.01396   0.00000   0.01388   0.01388   2.06180
    R2        2.04677   0.01407   0.00000   0.01396   0.01345   2.06022
    R3        2.04677   0.01407   0.00000   0.01396   0.01345   2.06022
    R4        2.46125   0.01772   0.00000   0.03310   0.03310   2.49434
    R5        2.27069  -0.03923   0.00000  -0.05582  -0.05584   2.21485
    A1        1.99661   0.00040   0.00000   0.00377   0.00427   2.00088
    A2        1.99661   0.00097   0.00000   0.00420   0.00427   2.00088
    A3        1.80508  -0.00050   0.00000  -0.00370  -0.00370   1.80138
    A4        2.00359   0.00079   0.00000   0.00286   0.00394   2.00753
    A5        1.81378  -0.00105   0.00000  -0.00525  -0.00641   1.80736
    A6        1.81378  -0.00127   0.00000  -0.00526  -0.00641   1.80736
    A7        3.12356   0.00014   0.00000  -0.07093  -0.07091   3.05265
    A8        3.14159  -0.00000   0.00000  -0.00803   0.00000   3.14159
    D1       -2.35914  -0.00257   0.00000  -0.01374  -0.01599  -2.37513
    D2        2.09056  -0.00020   0.00000   0.00044   0.00054   2.09111
    D3       -2.09056  -0.00033   0.00000  -0.00091  -0.00054  -2.09111
    D4        2.10206  -0.00013   0.00000  -0.00135  -0.00109   2.10097
         Item               Value     Threshold  Converged?
 Maximum Force            0.039230     0.000450     NO 
 RMS     Force            0.012018     0.000300     NO 
 Maximum Displacement     0.056877     0.001800     NO 
 RMS     Displacement     0.025343     0.001200     NO 
 Predicted change in Energy=-2.805585D-03
 Lowest energy point so far.  Saving SCF results.
 Largest change from initial coordinates is atom    5       0.033 Angstoms.
 GradGradGradGradGradGradGradGradGradGradGradGradGradGradGradGradGradGrad

 Leave Link  103 at Wed Oct 21 14:18:15 2020, MaxMem=  2684354560 cpu:               4.3 elap:               1.0
 (Enter /udrive/faculty/rpeverati/g16/g16/l202.exe)
                          Input orientation:                          
 ---------------------------------------------------------------------
 Center     Atomic      Atomic             Coordinates (Angstroms)
 Number     Number       Type             X           Y           Z
 ---------------------------------------------------------------------
      1          6           0        0.003428   -1.144396   -0.000000
      2          1           0       -1.065531   -1.362884   -0.000000
      3          1           0        0.522715   -1.415063    0.919602
      4          1           0        0.522715   -1.415063   -0.919602
      5          1           0        0.041658    0.174999    0.000000
      6          8           0       -0.028592    1.344939    0.000000
 ---------------------------------------------------------------------
                    Distance matrix (angstroms):
                    1          2          3          4          5
     1  C    0.000000
     2  H    1.091060   0.000000
     3  H    1.090223   1.836006   0.000000
     4  H    1.090223   1.836006   1.839203   0.000000
     5  H    1.319949   1.894982   1.898784   1.898784   0.000000
     6  O    2.489541   2.899578   2.960949   2.960949   1.172047
                    6
     6  O    0.000000
 Stoichiometry    CH4O(3)
 Framework group  CS[SG(CH2O),X(H2)]
 Deg. of freedom     8
 Full point group                 CS      NOp   2
 RotChk:  IX=0 Diff= 1.82D-02
 Largest Abelian subgroup         CS      NOp   2
 Largest concise Abelian subgroup CS      NOp   2
                         Standard orientation:                         
 ---------------------------------------------------------------------
 Center     Atomic      Atomic             Coordinates (Angstroms)
 Number     Number       Type             X           Y           Z
 ---------------------------------------------------------------------
      1          6           0       -0.000836   -1.137542   -0.000000
      2          1           0       -1.072517   -1.342264   -0.000000
      3          1           0        0.514927   -1.414865    0.919602
      4          1           0        0.514927   -1.414865   -0.919602
      5          1           0        0.054361    0.181252    0.000000
      6          8           0       -0.000836    1.351999    0.000000
 ---------------------------------------------------------------------
 Rotational constants (GHZ):         148.5839783           9.7454494           9.7439770
 Leave Link  202 at Wed Oct 21 14:18:16 2020, MaxMem=  2684354560 cpu:               2.4 elap:               0.8
 (Enter /udrive/faculty/rpeverati/g16/g16/l301.exe)
 Standard basis: VSTO-6G (5D, 7F)
 Ernie: Thresh=  0.10000D-02 Tol=  0.10000D-05 Strict=F.
  NNHCO=     0 NNPyr=     0 NCTC=     0               EPep=         0.000000000
    EC=        16.468497213  ECS=         0.562827534   EG=         0.123885408
   EHC=         0.000000000  EAt=       -17.731586298  AtH=         0.699363146
 EPDDG=         0.000000000  ECC=        17.155210155 EAtT=        18.430949444
 There are     9 symmetry adapted cartesian basis functions of A'  symmetry.
 There are     3 symmetry adapted cartesian basis functions of A"  symmetry.
 There are     9 symmetry adapted basis functions of A'  symmetry.
 There are     3 symmetry adapted basis functions of A"  symmetry.
    12 basis functions,    72 primitive gaussians,    12 cartesian basis functions
     8 alpha electrons        6 beta electrons
       nuclear repulsion energy        35.5861595994 Hartrees.
 IExCor=    0 DFT=F Ex=HF Corr=None ExCW=0 ScaHFX=  1.000000
 ScaDFX=  1.000000  1.000000  1.000000  1.000000 ScalE2=  1.000000  1.000000
 IRadAn=      5 IRanWt=     -1 IRanGd=            0 ICorTp=0 IEmpDi=  4
 Integral buffers will be    131072 words long.
 Regular integral format.
 Two-electron integral symmetry is turned off.
 Leave Link  301 at Wed Oct 21 14:18:18 2020, MaxMem=  2684354560 cpu:               3.2 elap:               0.8
 (Enter /udrive/faculty/rpeverati/g16/g16/l302.exe)
 Do NDO integrals.
 NPDir=0 NMtPBC=     1 NCelOv=     1 NCel=       1 NClECP=     1 NCelD=      1
         NCelK=      1 NCelE2=     1 NClLst=     1 CellRange=     0.0.
 One-electron integrals computed using PRISM.
 NBasis=    12 RedAO= T EigKep=  1.00D+00  NBF=     9     3
 NBsUse=    12 1.00D-06 EigRej= -1.00D+00 NBFU=     9     3
 Leave Link  302 at Wed Oct 21 14:18:19 2020, MaxMem=  2684354560 cpu:               3.7 elap:               0.8
 (Enter /udrive/faculty/rpeverati/g16/g16/l303.exe)
 DipDrv:  MaxL=1.
 Leave Link  303 at Wed Oct 21 14:18:20 2020, MaxMem=  2684354560 cpu:               3.1 elap:               0.9
 (Enter /udrive/faculty/rpeverati/g16/g16/l401.exe)
 Initial guess from the checkpoint file:  "MN_87_RKT11_BH76_AM1_SE.chk"
 SCF N**3 symmetry information disabled.
 B after Tr=    -0.000000    0.000000    0.000000
         Rot=    0.999999   -0.000000    0.000000    0.001536 Ang=   0.18 deg.
 Guess basis will be translated and rotated to current coordinates.
 JPrj=0 DoOrth=T DoCkMO=T.
 Initial guess orbital symmetries:
 Alpha Orbitals:
       Occupied  (A') (A') (A') (A') (A") (A') (A") (A')
       Virtual   (A') (A') (A") (A')
 Beta  Orbitals:
       Occupied  (A') (A') (A') (A") (A') (A")
       Virtual   (A') (A') (A') (A') (A") (A')
 The electronic state of the initial guess is 3-A'.
 Initial guess <Sx>= 0.0000 <Sy>= 0.0000 <Sz>= 1.0000 <S**2>= 2.0357 S= 1.0119
 Leave Link  401 at Wed Oct 21 14:18:22 2020, MaxMem=  2684354560 cpu:               3.8 elap:               0.8
 (Enter /udrive/faculty/rpeverati/g16/g16/l502.exe)
 Keep J ints in memory in canonical form, NReq=859461.
 FoFCou: FMM=F IPFlag=           0 FMFlag=           0 FMFlg1=           0
         NFxFlg=           0 DoJE=F BraDBF=F KetDBF=F FulRan=T
         wScrn=  0.000000 ICntrl=       600 IOpCl=  2 I1Cent=           0 NGrid=           0
         NMat0=    1 NMatS0=     24 NMatT0=    0 NMatD0=    1 NMtDS0=    0 NMtDT0=    0
 Symmetry not used in FoFCou.
 Two-electron integral symmetry not used.
 UHF open shell SCF:
 Using DIIS extrapolation, IDIIS=  1040.
 Overlap will be assumed to be unity.
 NGot=  2684354560 LenX=  2684293796 LenY=  2684292914
 Requested convergence on RMS density matrix=1.00D-08 within 120 cycles.
 Requested convergence on MAX density matrix=1.00D-06.
 Requested convergence on             energy=1.00D-06.
 No special actions if energy rises.

 Cycle   1  Pass 1  IDiag  1:
 E= 0.899937712452967E-01
 DIIS: error= 2.75D-03 at cycle   1 NSaved=   1.
 NSaved= 1 IEnMin= 1 EnMin= 0.899937712452967E-01 IErMin= 1 ErrMin= 2.75D-03
 ErrMax= 2.75D-03  0.00D+00 EMaxC= 1.00D-01 BMatC= 6.12D-04 BMatP= 6.12D-04
 IDIUse=3 WtCom= 9.73D-01 WtEn= 2.75D-02
 Coeff-Com:  0.100D+01
 Coeff-En:   0.100D+01
 Coeff:      0.100D+01
 GapD=    2.000 DampG=2.000 DampE=1.000 DampFc=2.0000 IDamp=-1.
 RMSDP=2.04D-03 MaxDP=7.74D-03              OVMax= 0.00D+00

 Cycle   2  Pass 1  IDiag  3:
 E= 0.893771865501876E-01 Delta-E=       -0.000616584695 Rises=F Damp=F
 DIIS: error= 1.33D-03 at cycle   2 NSaved=   2.
 NSaved= 2 IEnMin= 2 EnMin= 0.893771865501876E-01 IErMin= 2 ErrMin= 1.33D-03
 ErrMax= 1.33D-03  0.00D+00 EMaxC= 1.00D-01 BMatC= 1.56D-04 BMatP= 6.12D-04
 IDIUse=3 WtCom= 9.87D-01 WtEn= 1.33D-02
 Coeff-Com: -0.645D+00 0.164D+01
 Coeff-En:   0.000D+00 0.100D+01
 Coeff:     -0.636D+00 0.164D+01
 Gap=     0.527 Goal=   None    Shift=    0.000
 Gap=     0.418 Goal=   None    Shift=    0.000
 RMSDP=2.02D-03 MaxDP=9.85D-03 DE=-6.17D-04 OVMax= 1.20D-02

 Cycle   3  Pass 1  IDiag  3:
 E= 0.890828246068764E-01 Delta-E=       -0.000294361943 Rises=F Damp=F
 DIIS: error= 7.39D-04 at cycle   3 NSaved=   3.
 NSaved= 3 IEnMin= 3 EnMin= 0.890828246068764E-01 IErMin= 3 ErrMin= 7.39D-04
 ErrMax= 7.39D-04  0.00D+00 EMaxC= 1.00D-01 BMatC= 3.02D-05 BMatP= 1.56D-04
 IDIUse=3 WtCom= 9.93D-01 WtEn= 7.39D-03
 Coeff-Com:  0.532D+00-0.174D+01 0.221D+01
 Coeff-En:   0.000D+00 0.000D+00 0.100D+01
 Coeff:      0.528D+00-0.173D+01 0.220D+01
 Gap=     0.527 Goal=   None    Shift=    0.000
 Gap=     0.418 Goal=   None    Shift=    0.000
 RMSDP=1.56D-03 MaxDP=8.94D-03 DE=-2.94D-04 OVMax= 1.06D-02

 Cycle   4  Pass 1  IDiag  3:
 E= 0.889963613084248E-01 Delta-E=       -0.000086463298 Rises=F Damp=F
 DIIS: error= 2.48D-04 at cycle   4 NSaved=   4.
 NSaved= 4 IEnMin= 4 EnMin= 0.889963613084248E-01 IErMin= 4 ErrMin= 2.48D-04
 ErrMax= 2.48D-04  0.00D+00 EMaxC= 1.00D-01 BMatC= 2.88D-06 BMatP= 3.02D-05
 IDIUse=3 WtCom= 9.98D-01 WtEn= 2.48D-03
 Coeff-Com: -0.494D+00 0.166D+01-0.233D+01 0.217D+01
 Coeff-En:   0.000D+00 0.000D+00 0.000D+00 0.100D+01
 Coeff:     -0.493D+00 0.166D+01-0.233D+01 0.216D+01
 Gap=     0.527 Goal=   None    Shift=    0.000
 Gap=     0.418 Goal=   None    Shift=    0.000
 RMSDP=4.94D-04 MaxDP=3.05D-03 DE=-8.65D-05 OVMax= 3.31D-03

 Cycle   5  Pass 1  IDiag  3:
 E= 0.889888868139082E-01 Delta-E=       -0.000007474495 Rises=F Damp=F
 DIIS: error= 4.62D-05 at cycle   5 NSaved=   5.
 NSaved= 5 IEnMin= 5 EnMin= 0.889888868139082E-01 IErMin= 5 ErrMin= 4.62D-05
 ErrMax= 4.62D-05  0.00D+00 EMaxC= 1.00D-01 BMatC= 1.64D-07 BMatP= 2.88D-06
 IDIUse=1 WtCom= 1.00D+00 WtEn= 0.00D+00
 Coeff-Com:  0.403D+00-0.135D+01 0.192D+01-0.191D+01 0.195D+01
 Coeff:      0.403D+00-0.135D+01 0.192D+01-0.191D+01 0.195D+01
 Gap=     0.527 Goal=   None    Shift=    0.000
 Gap=     0.418 Goal=   None    Shift=    0.000
 RMSDP=9.79D-05 MaxDP=5.62D-04 DE=-7.47D-06 OVMax= 5.69D-04

 Cycle   6  Pass 1  IDiag  3:
 E= 0.889885080274837E-01 Delta-E=       -0.000000378786 Rises=F Damp=F
 DIIS: error= 1.28D-05 at cycle   6 NSaved=   6.
 NSaved= 6 IEnMin= 6 EnMin= 0.889885080274837E-01 IErMin= 6 ErrMin= 1.28D-05
 ErrMax= 1.28D-05  0.00D+00 EMaxC= 1.00D-01 BMatC= 1.16D-08 BMatP= 1.64D-07
 IDIUse=1 WtCom= 1.00D+00 WtEn= 0.00D+00
 Coeff-Com: -0.178D+00 0.600D+00-0.851D+00 0.858D+00-0.105D+01 0.162D+01
 Coeff:     -0.178D+00 0.600D+00-0.851D+00 0.858D+00-0.105D+01 0.162D+01
 Gap=     0.527 Goal=   None    Shift=    0.000
 Gap=     0.418 Goal=   None    Shift=    0.000
 RMSDP=2.43D-05 MaxDP=1.10D-04 DE=-3.79D-07 OVMax= 1.39D-04

 Cycle   7  Pass 1  IDiag  3:
 E= 0.889884830489436E-01 Delta-E=       -0.000000024979 Rises=F Damp=F
 DIIS: error= 4.55D-06 at cycle   7 NSaved=   7.
 NSaved= 7 IEnMin= 7 EnMin= 0.889884830489436E-01 IErMin= 7 ErrMin= 4.55D-06
 ErrMax= 4.55D-06  0.00D+00 EMaxC= 1.00D-01 BMatC= 1.01D-09 BMatP= 1.16D-08
 IDIUse=1 WtCom= 1.00D+00 WtEn= 0.00D+00
 Coeff-Com:  0.331D-01-0.111D+00 0.158D+00-0.161D+00 0.247D+00-0.709D+00
 Coeff-Com:  0.154D+01
 Coeff:      0.331D-01-0.111D+00 0.158D+00-0.161D+00 0.247D+00-0.709D+00
 Coeff:      0.154D+01
 Gap=     0.527 Goal=   None    Shift=    0.000
 Gap=     0.418 Goal=   None    Shift=    0.000
 RMSDP=6.62D-06 MaxDP=3.57D-05 DE=-2.50D-08 OVMax= 5.60D-05

 Cycle   8  Pass 1  IDiag  3:
 E= 0.889884810738764E-01 Delta-E=       -0.000000001975 Rises=F Damp=F
 DIIS: error= 1.18D-06 at cycle   8 NSaved=   8.
 NSaved= 8 IEnMin= 8 EnMin= 0.889884810738764E-01 IErMin= 8 ErrMin= 1.18D-06
 ErrMax= 1.18D-06  0.00D+00 EMaxC= 1.00D-01 BMatC= 6.88D-11 BMatP= 1.01D-09
 IDIUse=1 WtCom= 1.00D+00 WtEn= 0.00D+00
 Coeff-Com: -0.748D-02 0.252D-01-0.362D-01 0.374D-01-0.719D-01 0.283D+00
 Coeff-Com: -0.826D+00 0.160D+01
 Coeff:     -0.748D-02 0.252D-01-0.362D-01 0.374D-01-0.719D-01 0.283D+00
 Coeff:     -0.826D+00 0.160D+01
 Gap=     0.527 Goal=   None    Shift=    0.000
 Gap=     0.418 Goal=   None    Shift=    0.000
 RMSDP=1.59D-06 MaxDP=8.87D-06 DE=-1.98D-09 OVMax= 1.38D-05

 Cycle   9  Pass 1  IDiag  3:
 E= 0.889884809440247E-01 Delta-E=       -0.000000000130 Rises=F Damp=F
 DIIS: error= 3.28D-07 at cycle   9 NSaved=   9.
 NSaved= 9 IEnMin= 9 EnMin= 0.889884809440247E-01 IErMin= 9 ErrMin= 3.28D-07
 ErrMax= 3.28D-07  0.00D+00 EMaxC= 1.00D-01 BMatC= 6.16D-12 BMatP= 6.88D-11
 IDIUse=1 WtCom= 1.00D+00 WtEn= 0.00D+00
 Coeff-Com:  0.960D-03-0.326D-02 0.490D-02-0.555D-02 0.244D-01-0.153D+00
 Coeff-Com:  0.526D+00-0.129D+01 0.189D+01
 Coeff:      0.960D-03-0.326D-02 0.490D-02-0.555D-02 0.244D-01-0.153D+00
 Coeff:      0.526D+00-0.129D+01 0.189D+01
 Gap=     0.527 Goal=   None    Shift=    0.000
 Gap=     0.418 Goal=   None    Shift=    0.000
 RMSDP=5.83D-07 MaxDP=3.13D-06 DE=-1.30D-10 OVMax= 4.91D-06

 Cycle  10  Pass 1  IDiag  3:
 E= 0.889884809306380E-01 Delta-E=       -0.000000000013 Rises=F Damp=F
 DIIS: error= 6.95D-08 at cycle  10 NSaved=  10.
 NSaved=10 IEnMin=10 EnMin= 0.889884809306380E-01 IErMin=10 ErrMin= 6.95D-08
 ErrMax= 6.95D-08  0.00D+00 EMaxC= 1.00D-01 BMatC= 2.43D-13 BMatP= 6.16D-12
 IDIUse=1 WtCom= 1.00D+00 WtEn= 0.00D+00
 Coeff-Com: -0.569D-04 0.208D-03-0.458D-03 0.820D-03-0.112D-01 0.840D-01
 Coeff-Com: -0.298D+00 0.754D+00-0.123D+01 0.170D+01
 Coeff:     -0.569D-04 0.208D-03-0.458D-03 0.820D-03-0.112D-01 0.840D-01
 Coeff:     -0.298D+00 0.754D+00-0.123D+01 0.170D+01
 Gap=     0.527 Goal=   None    Shift=    0.000
 Gap=     0.418 Goal=   None    Shift=    0.000
 RMSDP=1.07D-07 MaxDP=5.85D-07 DE=-1.34D-11 OVMax= 9.00D-07

 Cycle  11  Pass 1  IDiag  3:
 E= 0.889884809301833E-01 Delta-E=       -0.000000000000 Rises=F Damp=F
 DIIS: error= 8.39D-09 at cycle  11 NSaved=  11.
 NSaved=11 IEnMin=11 EnMin= 0.889884809301833E-01 IErMin=11 ErrMin= 8.39D-09
 ErrMax= 8.39D-09  0.00D+00 EMaxC= 1.00D-01 BMatC= 3.99D-15 BMatP= 2.43D-13
 IDIUse=1 WtCom= 1.00D+00 WtEn= 0.00D+00
 Coeff-Com:  0.228D-04-0.835D-04 0.182D-03-0.321D-03 0.427D-02-0.320D-01
 Coeff-Com:  0.113D+00-0.287D+00 0.473D+00-0.713D+00 0.144D+01
 Coeff:      0.228D-04-0.835D-04 0.182D-03-0.321D-03 0.427D-02-0.320D-01
 Coeff:      0.113D+00-0.287D+00 0.473D+00-0.713D+00 0.144D+01
 Gap=     0.527 Goal=   None    Shift=    0.000
 Gap=     0.418 Goal=   None    Shift=    0.000
 RMSDP=1.10D-08 MaxDP=6.47D-08 DE=-4.55D-13 OVMax= 9.48D-08

 Cycle  12  Pass 1  IDiag  3:
 E= 0.889884809301691E-01 Delta-E=       -0.000000000000 Rises=F Damp=F
 DIIS: error= 1.92D-09 at cycle  12 NSaved=  12.
 NSaved=12 IEnMin=12 EnMin= 0.889884809301691E-01 IErMin=12 ErrMin= 1.92D-09
 ErrMax= 1.92D-09  0.00D+00 EMaxC= 1.00D-01 BMatC= 2.05D-16 BMatP= 3.99D-15
 IDIUse=1 WtCom= 1.00D+00 WtEn= 0.00D+00
 Coeff-Com: -0.135D-05 0.762D-05-0.406D-04 0.106D-03-0.195D-02 0.149D-01
 Coeff-Com: -0.531D-01 0.135D+00-0.223D+00 0.339D+00-0.800D+00 0.159D+01
 Coeff:     -0.135D-05 0.762D-05-0.406D-04 0.106D-03-0.195D-02 0.149D-01
 Coeff:     -0.531D-01 0.135D+00-0.223D+00 0.339D+00-0.800D+00 0.159D+01
 Gap=     0.527 Goal=   None    Shift=    0.000
 Gap=     0.418 Goal=   None    Shift=    0.000
 RMSDP=2.61D-09 MaxDP=1.39D-08 DE=-1.42D-14 OVMax= 2.08D-08

 Cycle  13  Pass 2  IDiag  1:
 SCF Done:  E(UAM1) =  0.889884809302E-01 A.U. after   13 cycles
            NFock= 12  Conv=0.26D-08     -V/T= 1.0030
 <Sx>= 0.0000 <Sy>= 0.0000 <Sz>= 1.0000 <S**2>= 2.0324 S= 1.0108
 <L.S>= 0.000000000000E+00
 KE=-2.927942955697D+01 PE=-3.209584337803D+01 EE= 2.587810181653D+01
 Annihilation of the first spin contaminant:
 S**2 before annihilation     2.0324,   after     2.0002
 Leave Link  502 at Wed Oct 21 14:18:24 2020, MaxMem=  2684354560 cpu:              10.1 elap:               1.6
 (Enter /udrive/faculty/rpeverati/g16/g16/l508.exe)
 QCSCF skips out because SCF is already converged.
 Leave Link  508 at Wed Oct 21 14:18:25 2020, MaxMem=  2684354560 cpu:               0.9 elap:               0.4
 (Enter /udrive/faculty/rpeverati/g16/g16/l701.exe)
 ... and contract with generalized density number  0.
 Compute integral first derivatives.
 Leave Link  701 at Wed Oct 21 14:18:26 2020, MaxMem=  2684354560 cpu:               3.5 elap:               0.9
 (Enter /udrive/faculty/rpeverati/g16/g16/l702.exe)
 L702 exits ... SP integral derivatives will be done elsewhere.
 Leave Link  702 at Wed Oct 21 14:18:27 2020, MaxMem=  2684354560 cpu:               1.4 elap:               0.7
 (Enter /udrive/faculty/rpeverati/g16/g16/l703.exe)
 Integral derivatives from FoFJK, PRISM(SPDF).
 Compute integral first derivatives, UseDBF=F ICtDFT=           0.
 Calling FoFJK, ICntrl=      2127 FMM=F ISym2X=1 I1Cent= 0 IOpClX= 1 NMat=1 NMatS=1 NMatT=0.
 FoFJK:  IHMeth= 8 ICntrl=    2127 DoSepK=F KAlg= 0 I1Cent=           0 FoldK=F
 IRaf=         0 NMat=       1 IRICut=       1 DoRegI=T DoRafI=F ISym2E= 1 IDoP0=3 IntGTp=3.
 FoFCou: FMM=F IPFlag=           0 FMFlag=      100000 FMFlg1=         800
         NFxFlg=           0 DoJE=F BraDBF=F KetDBF=F FulRan=T
         wScrn=  0.000000 ICntrl=      2127 IOpCl=  1 I1Cent=           0 NGrid=           0
         NMat0=    1 NMatS0=      1 NMatT0=    0 NMatD0=    1 NMtDS0=    0 NMtDT0=    0
 Petite list used in FoFCou.
 Leave Link  703 at Wed Oct 21 14:18:29 2020, MaxMem=  2684354560 cpu:               3.4 elap:               0.9
 (Enter /udrive/faculty/rpeverati/g16/g16/l716.exe)
 Dipole        = 1.71236940D-02-8.90803094D-01-6.18819597D-16
 ***** Axes restored to original set *****
 -------------------------------------------------------------------
 Center     Atomic                   Forces (Hartrees/Bohr)
 Number     Number              X              Y              Z
 -------------------------------------------------------------------
      1        6          -0.001430652   -0.023639092    0.000000000
      2        1          -0.007913806    0.000449399    0.000000000
      3        1           0.004356842    0.000235020    0.007064137
      4        1           0.004356842    0.000235020   -0.007064137
      5        1          -0.002214454    0.063990255   -0.000000000
      6        8           0.002845226   -0.041270603    0.000000000
 -------------------------------------------------------------------
 Cartesian Forces:  Max     0.063990255 RMS     0.019108720
 Leave Link  716 at Wed Oct 21 14:18:30 2020, MaxMem=  2684354560 cpu:               2.8 elap:               0.8
 (Enter /udrive/faculty/rpeverati/g16/g16/l103.exe)

 GradGradGradGradGradGradGradGradGradGradGradGradGradGradGradGradGradGrad
 Berny optimization.
 Optmz: redundant internal coordinate code flag= 1
 Red2BG:  D1=  2.70D-01 OD1=  1.40D-01 B2RMS=  0.00D+00 IAprox=0
 FormGI is forming the generalized inverse of G from B-inverse, IUseBI=4.
 Internal  Forces:  Max     0.041366940 RMS     0.011954306
 Search for a saddle point.
 Step number   2 out of a maximum of   50
 All quantities printed in internal units (Hartrees-Bohrs-Radians)
 Swapping is turned off.
 Update second derivatives using D2CorX and points    1    2
 The second derivative matrix:
                          R1        R2        R3        R4        R5
           R1           0.35869
           R2           0.00309   0.35921
           R3           0.00309   0.00299   0.35921
           R4           0.00118   0.00102   0.00102   0.10926
           R5          -0.00330  -0.00301  -0.00301   0.11151   0.08161
           A1           0.00048   0.00046   0.00046  -0.00574   0.00829
           A2           0.00045   0.00042   0.00042  -0.00614   0.00889
           A3          -0.00038  -0.00036  -0.00036   0.00545  -0.00790
           A4           0.00038   0.00036   0.00036  -0.00605   0.00880
           A5          -0.00067  -0.00063  -0.00063   0.00925  -0.01341
           A6          -0.00066  -0.00062  -0.00062   0.00938  -0.01361
           A7          -0.01345  -0.01294  -0.01294   0.02922  -0.03685
           A8          -0.00000  -0.00000  -0.00000  -0.00000   0.00000
           D1          -0.00278  -0.00267  -0.00267   0.00961  -0.01291
           D2           0.00013   0.00013   0.00013   0.00012  -0.00024
           D3          -0.00010  -0.00010  -0.00010   0.00026  -0.00034
           D4          -0.00023  -0.00022  -0.00022   0.00014  -0.00009
                          A1        A2        A3        A4        A5
           A1           0.15961
           A2          -0.00042   0.15954
           A3           0.00038   0.00041   0.15963
           A4          -0.00043  -0.00046   0.00041   0.15954
           A5           0.00064   0.00069  -0.00062   0.00069   0.15895
           A6           0.00065   0.00071  -0.00063   0.00071  -0.00107
           A7           0.00064   0.00095  -0.00092   0.00118  -0.00145
           A8          -0.00000  -0.00000   0.00000  -0.00000   0.00000
           D1           0.00041   0.00049  -0.00045   0.00053  -0.00075
           D2           0.00003   0.00002  -0.00002   0.00002  -0.00004
           D3           0.00001   0.00001  -0.00001   0.00001  -0.00002
           D4          -0.00002  -0.00001   0.00001  -0.00001   0.00002
                          A6        A7        A8        D1        D2
           A6           0.15892
           A7          -0.00155   0.04345
           A8           0.00000   0.00000   0.00230
           D1          -0.00077   0.00692   0.00000   0.00419
           D2          -0.00004  -0.00059  -0.00000  -0.00012   0.00231
           D3          -0.00002   0.00029   0.00000   0.00005  -0.00000
           D4           0.00002   0.00087   0.00000   0.00017  -0.00001
                          D3        D4
           D3           0.00230
           D4           0.00001   0.00232
 ITU=  0  0
 Eigenvectors of the second derivative matrix:
                           1         2         3         4         5
     Eigenvalues --    -0.04951   0.00230   0.04514   0.06773   0.06917
   1         R1        -0.02275   0.00000  -0.01717   0.00633  -0.01685
   2         R2        -0.02141   0.00000  -0.01659   0.00613  -0.01632
   3         R3        -0.02141   0.00000  -0.01659   0.00613  -0.01632
   4         R4         0.56790  -0.00000  -0.06752   0.05935  -0.13819
   5         R5        -0.65420   0.00000   0.08273  -0.06296   0.14773
   6         A1         0.04548  -0.00000  -0.30130  -0.15422   0.36896
   7         A2         0.04967  -0.00000  -0.06762   0.47460  -0.07840
   8         A3        -0.04680   0.00000   0.15796   0.12605   0.17162
   9         A4         0.05246  -0.00000  -0.04285  -0.31994  -0.38754
  10         A5        -0.07525   0.00000   0.17529  -0.17652   0.06538
  11         A6        -0.07548   0.00000   0.21736   0.05233  -0.10449
  12         A7        -0.43732   0.00000  -0.60111   0.16006  -0.39882
  13         A8         0.00000   1.00000  -0.00000  -0.00000   0.00000
  14         D1        -0.18958   0.00000   0.60624   0.06656  -0.05274
  15         D2         0.00028  -0.00000  -0.19672  -0.19087   0.50588
  16         D3        -0.00483  -0.00000  -0.07913  -0.59869   0.05872
  17         D4        -0.00511  -0.00000   0.11759  -0.40782  -0.44716
                           6         7         8         9        10
     Eigenvalues --     0.08546   0.16000   0.16008   0.20792   0.35573
   1         R1         0.02606  -0.00011   0.00149   0.00633   0.82461
   2         R2         0.02527  -0.00010   0.00144   0.00590  -0.40001
   3         R3         0.02527  -0.00010   0.00144   0.00590  -0.40001
   4         R4         0.30862   0.00095   0.04379   0.74370  -0.00004
   5         R5        -0.30556  -0.00029  -0.02045   0.66745  -0.00079
   6         A1         0.01752   0.15600   0.19534  -0.00015   0.00013
   7         A2        -0.24865  -0.29982   0.02019   0.00590   0.00012
   8         A3         0.25601   0.30326  -0.67558   0.00503  -0.00011
   9         A4        -0.20225   0.08419  -0.29498   0.01078   0.00010
  10         A5         0.24495  -0.72845   0.15321  -0.01017  -0.00018
  11         A6         0.07992   0.50604   0.62615  -0.01694  -0.00017
  12         A7         0.50737  -0.00046   0.01055  -0.01930  -0.00228
  13         A8        -0.00000  -0.00000   0.00000   0.00000  -0.00000
  14         D1         0.48975  -0.00009   0.00408  -0.01889  -0.00045
  15         D2         0.22507   0.00001   0.00025  -0.00225   0.00003
  16         D3         0.13699  -0.00000   0.00033  -0.00168  -0.00002
  17         D4        -0.08809  -0.00001   0.00008   0.00057  -0.00004
                          11        12
     Eigenvalues --     0.35622   0.36687
   1         R1         0.00000  -0.56406
   2         R2        -0.70711  -0.58162
   3         R3         0.70711  -0.58162
   4         R4         0.00000   0.00661
   5         R5        -0.00000   0.01090
   6         A1         0.00000  -0.00393
   7         A2         0.00000  -0.00342
   8         A3        -0.00000   0.00325
   9         A4        -0.00000  -0.00270
  10         A5        -0.00000   0.00525
  11         A6         0.00000   0.00495
  12         A7        -0.00000   0.06957
  13         A8         0.00000   0.00000
  14         D1        -0.00000   0.01328
  15         D2         0.00000  -0.00087
  16         D3        -0.00000   0.00042
  17         D4        -0.00000   0.00129
 RLam0= 2.23D-02.
 Iter=   1 RLamda= 0.00000000D+00 Sum=-8.29147513D-03.
 Iter=   2 RLamda=-8.29147513D-03 Sum=-7.48058085D-03.
 Iter=   3 RLamda=-7.48058085D-03 Sum=-7.55186054D-03.
 Iter=   4 RLamda=-7.55186054D-03 Sum=-7.54553286D-03.
 Iter=   5 RLamda=-7.54553286D-03 Sum=-7.54609410D-03.
 Iter=   6 RLamda=-7.54609410D-03 Sum=-7.54604432D-03.
 Iter=   7 RLamda=-7.54604432D-03 Sum=-7.54604873D-03.
 RFO step:  Lambda0=2.229258965D-02 Lambda=-7.54604432D-03.
 Linear search not attempted -- option 19 set.
 Maximum step size (   0.100) exceeded in Quadratic search.
    -- Step size scaled by   0.161
 Iteration  1 RMS(Cart)=  0.02631424 RMS(Int)=  0.00091863
 Iteration  2 RMS(Cart)=  0.00108219 RMS(Int)=  0.00002936
 Iteration  3 RMS(Cart)=  0.00000066 RMS(Int)=  0.00002936
 ITry= 1 IFail=0 DXMaxC= 6.48D-02 DCOld= 1.00D+10 DXMaxT= 1.00D-01 DXLimC= 3.00D+00 Rises=F
 ClnCor:  largest displacement from symmetrization is 6.11D-04 for atom     4.
 Variable       Old X    -DE/DX   Delta X   Delta X   Delta X     New X
                                 (Linear)    (Quad)   (Total)
    R1        2.06180   0.00766   0.00000   0.00704   0.00704   2.06884
    R2        2.06022   0.00798   0.00000   0.00699   0.00684   2.06706
    R3        2.06022   0.00798   0.00000   0.00699   0.00684   2.06706
    R4        2.49434   0.02273   0.00000  -0.04180  -0.04180   2.45255
    R5        2.21485  -0.04137   0.00000   0.03788   0.03788   2.25272
    A1        2.00088   0.00042   0.00000  -0.00502  -0.00480   1.99609
    A2        2.00088   0.00106   0.00000  -0.00420  -0.00480   1.99609
    A3        1.80138  -0.00060   0.00000   0.00490   0.00492   1.80630
    A4        2.00753   0.00094   0.00000  -0.00505  -0.00500   2.00253
    A5        1.80736  -0.00119   0.00000   0.00714   0.00719   1.81456
    A6        1.80736  -0.00144   0.00000   0.00707   0.00719   1.81456
    A7        3.05265   0.00081   0.00000   0.08046   0.08046   3.13312
    A8        3.14159  -0.00000   0.00000  -0.00000   0.00000   3.14159
    D1       -2.37513  -0.00296   0.00000   0.01861   0.01857  -2.35656
    D2        2.09111  -0.00027   0.00000  -0.00062  -0.00029   2.09082
    D3       -2.09111  -0.00033   0.00000  -0.00026   0.00029  -2.09082
    D4        2.10097  -0.00006   0.00000   0.00036   0.00058   2.10155
         Item               Value     Threshold  Converged?
 Maximum Force            0.041367     0.000450     NO 
 RMS     Force            0.011954     0.000300     NO 
 Maximum Displacement     0.064773     0.001800     NO 
 RMS     Displacement     0.026704     0.001200     NO 
 Predicted change in Energy= 2.266624D-03
 Lowest energy point so far.  Saving SCF results.
 Largest change from initial coordinates is atom    6       0.032 Angstoms.
 GradGradGradGradGradGradGradGradGradGradGradGradGradGradGradGradGradGrad

 Leave Link  103 at Wed Oct 21 14:18:31 2020, MaxMem=  2684354560 cpu:               4.7 elap:               1.0
 (Enter /udrive/faculty/rpeverati/g16/g16/l202.exe)
                          Input orientation:                          
 ---------------------------------------------------------------------
 Center     Atomic      Atomic             Coordinates (Angstroms)
 Number     Number       Type             X           Y           Z
 ---------------------------------------------------------------------
      1          6           0       -0.000335   -1.136988   -0.000000
      2          1           0       -1.066399   -1.386099    0.000000
      3          1           0        0.525547   -1.404122    0.921185
      4          1           0        0.525547   -1.404122   -0.921185
      5          1           0        0.007382    0.160820   -0.000000
      6          8           0        0.004364    1.352907    0.000000
 ---------------------------------------------------------------------
                    Distance matrix (angstroms):
                    1          2          3          4          5
     1  C    0.000000
     2  H    1.094783   0.000000
     3  H    1.093844   1.839348   0.000000
     4  H    1.093844   1.839348   1.842370   0.000000
     5  H    1.297832   1.883073   1.888418   1.888418   0.000000
     6  O    2.489900   2.940865   2.953205   2.953205   1.192090
                    6
     6  O    0.000000
 Stoichiometry    CH4O(3)
 Framework group  CS[SG(CH2O),X(H2)]
 Deg. of freedom     8
 Full point group                 CS      NOp   2
 RotChk:  IX=0 Diff= 2.09D-02
 Largest Abelian subgroup         CS      NOp   2
 Largest concise Abelian subgroup CS      NOp   2
                         Standard orientation:                         
 ---------------------------------------------------------------------
 Center     Atomic      Atomic             Coordinates (Angstroms)
 Number     Number       Type             X           Y           Z
 ---------------------------------------------------------------------
      1          6           0        0.000420   -1.135201   -0.000000
      2          1           0       -1.065173   -1.386323   -0.000000
      3          1           0        0.526805   -1.401342    0.921185
      4          1           0        0.526805   -1.401342   -0.921185
      5          1           0        0.005687    0.162620    0.000000
      6          8           0        0.000420    1.354699    0.000000
 ---------------------------------------------------------------------
 Rotational constants (GHZ):         148.0598743           9.7288713           9.7274581
 Leave Link  202 at Wed Oct 21 14:18:33 2020, MaxMem=  2684354560 cpu:               2.6 elap:               0.9
 (Enter /udrive/faculty/rpeverati/g16/g16/l301.exe)
 Standard basis: VSTO-6G (5D, 7F)
 Ernie: Thresh=  0.10000D-02 Tol=  0.10000D-05 Strict=F.
  NNHCO=     0 NNPyr=     0 NCTC=     0               EPep=         0.000000000
    EC=        16.447522421  ECS=         0.557444391   EG=         0.122150871
   EHC=         0.000000000  EAt=       -17.731586298  AtH=         0.699363146
 EPDDG=         0.000000000  ECC=        17.127117684 EAtT=        18.430949444
 There are     9 symmetry adapted cartesian basis functions of A'  symmetry.
 There are     3 symmetry adapted cartesian basis functions of A"  symmetry.
 There are     9 symmetry adapted basis functions of A'  symmetry.
 There are     3 symmetry adapted basis functions of A"  symmetry.
    12 basis functions,    72 primitive gaussians,    12 cartesian basis functions
     8 alpha electrons        6 beta electrons
       nuclear repulsion energy        35.5580671278 Hartrees.
 IExCor=    0 DFT=F Ex=HF Corr=None ExCW=0 ScaHFX=  1.000000
 ScaDFX=  1.000000  1.000000  1.000000  1.000000 ScalE2=  1.000000  1.000000
 IRadAn=      5 IRanWt=     -1 IRanGd=            0 ICorTp=0 IEmpDi=  4
 Integral buffers will be    131072 words long.
 Regular integral format.
 Two-electron integral symmetry is turned off.
 Leave Link  301 at Wed Oct 21 14:18:34 2020, MaxMem=  2684354560 cpu:               4.3 elap:               1.0
 (Enter /udrive/faculty/rpeverati/g16/g16/l302.exe)
 Do NDO integrals.
 NPDir=0 NMtPBC=     1 NCelOv=     1 NCel=       1 NClECP=     1 NCelD=      1
         NCelK=      1 NCelE2=     1 NClLst=     1 CellRange=     0.0.
 One-electron integrals computed using PRISM.
 NBasis=    12 RedAO= T EigKep=  1.00D+00  NBF=     9     3
 NBsUse=    12 1.00D-06 EigRej= -1.00D+00 NBFU=     9     3
 Leave Link  302 at Wed Oct 21 14:18:36 2020, MaxMem=  2684354560 cpu:               3.3 elap:               1.0
 (Enter /udrive/faculty/rpeverati/g16/g16/l303.exe)
 DipDrv:  MaxL=1.
 Leave Link  303 at Wed Oct 21 14:18:37 2020, MaxMem=  2684354560 cpu:               2.6 elap:               1.1
 (Enter /udrive/faculty/rpeverati/g16/g16/l401.exe)
 Initial guess from the checkpoint file:  "MN_87_RKT11_BH76_AM1_SE.chk"
 SCF N**3 symmetry information disabled.
 B after Tr=     0.000000   -0.000000   -0.000000
         Rot=    0.999998   -0.000000   -0.000000   -0.001794 Ang=  -0.21 deg.
 Guess basis will be translated and rotated to current coordinates.
 JPrj=0 DoOrth=T DoCkMO=T.
 Initial guess orbital symmetries:
 Alpha Orbitals:
       Occupied  (A') (A') (A') (A') (A") (A') (A") (A')
       Virtual   (A') (A') (A") (A')
 Beta  Orbitals:
       Occupied  (A') (A') (A') (A") (A') (A")
       Virtual   (A') (A') (A') (A') (A") (A')
 The electronic state of the initial guess is 3-A'.
 Initial guess <Sx>= 0.0000 <Sy>= 0.0000 <Sz>= 1.0000 <S**2>= 2.0324 S= 1.0108
 Leave Link  401 at Wed Oct 21 14:18:39 2020, MaxMem=  2684354560 cpu:               2.9 elap:               0.9
 (Enter /udrive/faculty/rpeverati/g16/g16/l502.exe)
 Keep J ints in memory in canonical form, NReq=859461.
 FoFCou: FMM=F IPFlag=           0 FMFlag=           0 FMFlg1=           0
         NFxFlg=           0 DoJE=F BraDBF=F KetDBF=F FulRan=T
         wScrn=  0.000000 ICntrl=       600 IOpCl=  2 I1Cent=           0 NGrid=           0
         NMat0=    1 NMatS0=     24 NMatT0=    0 NMatD0=    1 NMtDS0=    0 NMtDT0=    0
 Symmetry not used in FoFCou.
 Two-electron integral symmetry not used.
 UHF open shell SCF:
 Using DIIS extrapolation, IDIIS=  1040.
 Overlap will be assumed to be unity.
 NGot=  2684354560 LenX=  2684293796 LenY=  2684292914
 Requested convergence on RMS density matrix=1.00D-08 within 120 cycles.
 Requested convergence on MAX density matrix=1.00D-06.
 Requested convergence on             energy=1.00D-06.
 No special actions if energy rises.

 Cycle   1  Pass 1  IDiag  1:
 E= 0.922922477633747E-01
 DIIS: error= 2.75D-03 at cycle   1 NSaved=   1.
 NSaved= 1 IEnMin= 1 EnMin= 0.922922477633747E-01 IErMin= 1 ErrMin= 2.75D-03
 ErrMax= 2.75D-03  0.00D+00 EMaxC= 1.00D-01 BMatC= 5.98D-04 BMatP= 5.98D-04
 IDIUse=3 WtCom= 9.72D-01 WtEn= 2.75D-02
 Coeff-Com:  0.100D+01
 Coeff-En:   0.100D+01
 Coeff:      0.100D+01
 GapD=    2.000 DampG=2.000 DampE=1.000 DampFc=2.0000 IDamp=-1.
 RMSDP=2.09D-03 MaxDP=8.10D-03              OVMax= 0.00D+00

 Cycle   2  Pass 1  IDiag  3:
 E= 0.916589377111592E-01 Delta-E=       -0.000633310052 Rises=F Damp=F
 DIIS: error= 1.41D-03 at cycle   2 NSaved=   2.
 NSaved= 2 IEnMin= 2 EnMin= 0.916589377111592E-01 IErMin= 2 ErrMin= 1.41D-03
 ErrMax= 1.41D-03  0.00D+00 EMaxC= 1.00D-01 BMatC= 1.56D-04 BMatP= 5.98D-04
 IDIUse=3 WtCom= 9.86D-01 WtEn= 1.41D-02
 Coeff-Com: -0.712D+00 0.171D+01
 Coeff-En:   0.000D+00 0.100D+01
 Coeff:     -0.702D+00 0.170D+01
 Gap=     0.528 Goal=   None    Shift=    0.000
 Gap=     0.415 Goal=   None    Shift=    0.000
 RMSDP=2.11D-03 MaxDP=8.41D-03 DE=-6.33D-04 OVMax= 1.14D-02

 Cycle   3  Pass 1  IDiag  3:
 E= 0.913619405777411E-01 Delta-E=       -0.000296997133 Rises=F Damp=F
 DIIS: error= 6.23D-04 at cycle   3 NSaved=   3.
 NSaved= 3 IEnMin= 3 EnMin= 0.913619405777411E-01 IErMin= 3 ErrMin= 6.23D-04
 ErrMax= 6.23D-04  0.00D+00 EMaxC= 1.00D-01 BMatC= 2.43D-05 BMatP= 1.56D-04
 IDIUse=3 WtCom= 9.94D-01 WtEn= 6.23D-03
 Coeff-Com:  0.521D+00-0.155D+01 0.203D+01
 Coeff-En:   0.000D+00 0.000D+00 0.100D+01
 Coeff:      0.518D+00-0.154D+01 0.203D+01
 Gap=     0.528 Goal=   None    Shift=    0.000
 Gap=     0.415 Goal=   None    Shift=    0.000
 RMSDP=1.32D-03 MaxDP=7.08D-03 DE=-2.97D-04 OVMax= 8.55D-03

 Cycle   4  Pass 1  IDiag  3:
 E= 0.912949328094896E-01 Delta-E=       -0.000067007768 Rises=F Damp=F
 DIIS: error= 2.50D-04 at cycle   4 NSaved=   4.
 NSaved= 4 IEnMin= 4 EnMin= 0.912949328094896E-01 IErMin= 4 ErrMin= 2.50D-04
 ErrMax= 2.50D-04  0.00D+00 EMaxC= 1.00D-01 BMatC= 2.93D-06 BMatP= 2.43D-05
 IDIUse=3 WtCom= 9.97D-01 WtEn= 2.50D-03
 Coeff-Com: -0.522D+00 0.159D+01-0.230D+01 0.224D+01
 Coeff-En:   0.000D+00 0.000D+00 0.000D+00 0.100D+01
 Coeff:     -0.521D+00 0.159D+01-0.230D+01 0.223D+01
 Gap=     0.528 Goal=   None    Shift=    0.000
 Gap=     0.415 Goal=   None    Shift=    0.000
 RMSDP=4.95D-04 MaxDP=3.17D-03 DE=-6.70D-05 OVMax= 3.42D-03

 Cycle   5  Pass 1  IDiag  3:
 E= 0.912870847519045E-01 Delta-E=       -0.000007848058 Rises=F Damp=F
 DIIS: error= 4.98D-05 at cycle   5 NSaved=   5.
 NSaved= 5 IEnMin= 5 EnMin= 0.912870847519045E-01 IErMin= 5 ErrMin= 4.98D-05
 ErrMax= 4.98D-05  0.00D+00 EMaxC= 1.00D-01 BMatC= 2.15D-07 BMatP= 2.93D-06
 IDIUse=1 WtCom= 1.00D+00 WtEn= 0.00D+00
 Coeff-Com:  0.455D+00-0.139D+01 0.205D+01-0.217D+01 0.206D+01
 Coeff:      0.455D+00-0.139D+01 0.205D+01-0.217D+01 0.206D+01
 Gap=     0.528 Goal=   None    Shift=    0.000
 Gap=     0.416 Goal=   None    Shift=    0.000
 RMSDP=1.24D-04 MaxDP=7.40D-04 DE=-7.85D-06 OVMax= 8.40D-04

 Cycle   6  Pass 1  IDiag  3:
 E= 0.912865353549890E-01 Delta-E=       -0.000000549397 Rises=F Damp=F
 DIIS: error= 1.83D-05 at cycle   6 NSaved=   6.
 NSaved= 6 IEnMin= 6 EnMin= 0.912865353549890E-01 IErMin= 6 ErrMin= 1.83D-05
 ErrMax= 1.83D-05  0.00D+00 EMaxC= 1.00D-01 BMatC= 1.72D-08 BMatP= 2.15D-07
 IDIUse=1 WtCom= 1.00D+00 WtEn= 0.00D+00
 Coeff-Com: -0.237D+00 0.727D+00-0.107D+01 0.115D+01-0.128D+01 0.171D+01
 Coeff:     -0.237D+00 0.727D+00-0.107D+01 0.115D+01-0.128D+01 0.171D+01
 Gap=     0.528 Goal=   None    Shift=    0.000
 Gap=     0.415 Goal=   None    Shift=    0.000
 RMSDP=3.10D-05 MaxDP=1.31D-04 DE=-5.49D-07 OVMax= 2.24D-04

 Cycle   7  Pass 1  IDiag  3:
 E= 0.912864950879424E-01 Delta-E=       -0.000000040267 Rises=F Damp=F
 DIIS: error= 6.09D-06 at cycle   7 NSaved=   7.
[...]
 Second derivative matrix not updated -- analytic derivatives used.
 The second derivative matrix:
                          R1        R2        R3        R4        R5
           R1           0.35403
           R2           0.01404   0.35396
           R3           0.01404   0.01403   0.35396
           R4           0.01288   0.01289   0.01289   0.20557
           R5          -0.00013  -0.00011  -0.00011   0.10113  -0.05170
           A1           0.00320   0.00321  -0.00371  -0.00437   0.00178
           A2           0.00458  -0.00339   0.00520  -0.01036   0.00421
           A3           0.00872  -0.00654  -0.00748   0.00854  -0.00355
           A4          -0.00339   0.00456   0.00518  -0.01036   0.00421
           A5          -0.00654   0.00873  -0.00747   0.00862  -0.00347
           A6          -0.00718  -0.00718   0.00735   0.01143  -0.00461
           A7          -0.00008   0.00004   0.00004  -0.00002   0.00002
           A8          -0.00000  -0.00003   0.00003   0.00000  -0.00000
           D1          -0.00540  -0.00539  -0.00367   0.02347  -0.00954
           D2           0.00482   0.00483  -0.01191   0.00366  -0.00151
           D3          -0.00609   0.01091  -0.00596   0.00186  -0.00074
           D4          -0.01092   0.00608   0.00595  -0.00180   0.00077
                          A1        A2        A3        A4        A5
           A1           0.01595
           A2          -0.00739   0.02740
           A3          -0.00861  -0.01537   0.06161
           A4          -0.00740  -0.00228   0.01416   0.02740
           A5          -0.00860   0.01415  -0.02771  -0.01537   0.06160
           A6           0.01588  -0.01897  -0.02270  -0.01898  -0.02270
           A7          -0.00032  -0.00034   0.00217   0.00076  -0.00115
           A8          -0.00037   0.00046  -0.00005   0.00003   0.00123
           D1          -0.00940  -0.01104   0.01283  -0.01104   0.01282
           D2           0.00975  -0.00920   0.00727  -0.00919   0.00727
           D3           0.00487  -0.01430  -0.00197   0.00510   0.00924
           D4          -0.00487  -0.00510  -0.00924   0.01429   0.00197
                          A6        A7        A8        D1        D2
           A6           0.07054
           A7          -0.00114   0.00229
           A8          -0.00132   0.00000   0.00041
           D1           0.01022   0.00008   0.00009   0.03151
           D2          -0.00468   0.00015   0.00018   0.00215   0.01870
           D3          -0.00234  -0.00013   0.00017   0.00108   0.00935
           D4           0.00234  -0.00029  -0.00001  -0.00107  -0.00935
                          D3        D4
           D3           0.01878
           D4           0.00943   0.01878
 ITU=  0
 Eigenvectors of the second derivative matrix:
                           1         2         3         4         5
     Eigenvalues --    -0.09053   0.00038   0.00220   0.03862   0.04410
   1         R1         0.01135  -0.00000  -0.00143  -0.03084  -0.05051
   2         R2         0.01132   0.00077   0.00071  -0.03077   0.05052
   3         R3         0.01219  -0.00077   0.00071   0.03955  -0.00009
   4         R4        -0.33597   0.00000   0.00004   0.02235   0.00025
   5         R5         0.92861   0.00000  -0.00026   0.07403  -0.00004
   6         A1        -0.02762   0.00307  -0.00263   0.50098  -0.00042
   7         A2        -0.04554  -0.00306  -0.00261  -0.12374   0.41179
   8         A3         0.04358  -0.00000   0.02315  -0.04159   0.14849
   9         A4        -0.04554   0.00000   0.00529  -0.12430  -0.41154
  10         A5         0.04332  -0.01314  -0.01160  -0.04193  -0.14845
  11         A6         0.04835   0.01314  -0.01160  -0.20464   0.00027
  12         A7        -0.00015   0.00000  -0.99955   0.00192   0.00673
  13         A8         0.00012   0.99981   0.00000   0.00203  -0.00247
  14         D1         0.11468  -0.00162   0.00135  -0.47788   0.00028
  15         D2         0.01219  -0.00313   0.00283   0.53856  -0.00047
  16         D3         0.00604  -0.00313  -0.00285   0.26882  -0.55332
  17         D4        -0.00614  -0.00000  -0.00568  -0.26975  -0.55286
                           6         7         8         9        10
     Eigenvalues --     0.06180   0.10109   0.10171   0.24196   0.34201
   1         R1        -0.00352   0.03321   0.02820  -0.07863  -0.07696
   2         R2        -0.00345  -0.03527   0.02560  -0.07907  -0.66372
   3         R3        -0.05836   0.00107  -0.02960  -0.07475   0.73899
   4         R4         0.08229   0.00104  -0.03913   0.92719  -0.00233
   5         R5         0.17701   0.00196  -0.04843   0.31226  -0.00032
   6         A1         0.02789  -0.00921   0.24542  -0.01461  -0.01471
   7         A2         0.32080   0.27663  -0.21246  -0.05247   0.01730
   8         A3        -0.35377  -0.64143  -0.31695   0.03631  -0.00710
   9         A4         0.32128  -0.25947  -0.23273  -0.05253   0.00357
  10         A5        -0.35459   0.66312  -0.26782   0.03694  -0.04243
  11         A6        -0.05508  -0.03089   0.81231   0.06304   0.04252
  12         A7        -0.00491  -0.02452  -0.01503  -0.00023  -0.00002
  13         A8        -0.00557   0.01009  -0.01564  -0.00018  -0.00018
  14         D1        -0.57973  -0.00191   0.03885   0.10859   0.00258
  15         D2        -0.32811   0.00032  -0.01291   0.02032  -0.04227
  16         D3        -0.16403   0.02128  -0.00563   0.01031  -0.03809
  17         D4         0.16409   0.02095   0.00729  -0.01002   0.00418
                          11        12
     Eigenvalues --     0.34205   0.38540
   1         R1        -0.80972   0.57158
   2         R2         0.47122   0.57065
   3         R3         0.33890   0.57224
   4         R4        -0.00070   0.13651
   5         R5         0.00000   0.03183
   6         A1        -0.00673   0.00260
   7         A2        -0.01021   0.00765
   8         A3        -0.04991  -0.00587
   9         A4         0.01972   0.00756
  10         A5         0.02723  -0.00581
  11         A6         0.01950  -0.00862
  12         A7        -0.00021   0.00000
  13         A8         0.00002   0.00001
  14         D1         0.00122  -0.01640
  15         D2        -0.01935  -0.00292
  16         D3         0.02732  -0.00150
  17         D4         0.04667   0.00143
 Eigenvalue     1 is  -9.05D-02 should be greater than     0.000000 Eigenvector:
                          R5        R4        D1        A6        A2
   1                    0.92861  -0.33597   0.11468   0.04835  -0.04554
                          A4        A3        A5        A1        R3
   1                   -0.04554   0.04358   0.04332  -0.02762   0.01219
 Angle between quadratic step and forces=  71.96 degrees.
 Linear search not attempted -- first point.
 Iteration  1 RMS(Cart)=  0.00069414 RMS(Int)=  0.00000057
 Iteration  2 RMS(Cart)=  0.00000062 RMS(Int)=  0.00000000
 ITry= 1 IFail=0 DXMaxC= 1.74D-03 DCOld= 1.00D+10 DXMaxT= 3.00D-01 DXLimC= 3.00D+00 Rises=F
 ClnCor:  largest displacement from symmetrization is 4.13D-06 for atom     4.
 Variable       Old X    -DE/DX   Delta X   Delta X   Delta X     New X
                                 (Linear)    (Quad)   (Total)
    R1        2.09136   0.00001   0.00000   0.00005   0.00005   2.09141
    R2        2.09143  -0.00000   0.00000  -0.00002  -0.00002   2.09141
    R3        2.09143  -0.00000   0.00000  -0.00002  -0.00002   2.09141
    R4        2.25670   0.00001   0.00000   0.00006   0.00006   2.25676
    R5        2.56436  -0.00001   0.00000  -0.00012  -0.00012   2.56424
    A1        1.96129  -0.00000   0.00000  -0.00008  -0.00008   1.96121
    A2        1.96129  -0.00000   0.00000  -0.00007  -0.00008   1.96121
    A3        1.85657  -0.00000   0.00000   0.00001   0.00001   1.85658
    A4        1.96168   0.00001   0.00000   0.00014   0.00014   1.96182
    A5        1.85663   0.00000   0.00000   0.00001   0.00001   1.85664
    A6        1.85663   0.00000   0.00000   0.00000   0.00001   1.85664
    A7        3.13807  -0.00000   0.00000  -0.00194  -0.00194   3.13613
    A8        3.14159   0.00000   0.00000  -0.00000   0.00000   3.14159
    D1       -2.23298   0.00000   0.00000   0.00005   0.00005  -2.23292
    D2        2.09423  -0.00000   0.00000  -0.00008  -0.00008   2.09415
    D3       -2.09423   0.00000   0.00000   0.00008   0.00008  -2.09415
    D4        2.09472   0.00001   0.00000   0.00016   0.00016   2.09489
         Item               Value     Threshold  Converged?
 Maximum Force            0.000013     0.000450     YES
 RMS     Force            0.000006     0.000300     YES
 Maximum Displacement     0.001740     0.001800     YES
 RMS     Displacement     0.000694     0.001200     YES
 Predicted change in Energy=-8.421102D-09
 Optimization completed.
    -- Stationary point found.
                           ----------------------------
                           !   Optimized Parameters   !
                           ! (Angstroms and Degrees)  !
 --------------------------                            --------------------------
 ! Name  Definition              Value          Derivative Info.                !
 --------------------------------------------------------------------------------
 ! R1    R(1,2)                  1.1067         -DE/DX =    0.0                 !
 ! R2    R(1,3)                  1.1067         -DE/DX =    0.0                 !
 ! R3    R(1,4)                  1.1067         -DE/DX =    0.0                 !
 ! R4    R(1,5)                  1.1942         -DE/DX =    0.0                 !
 ! R5    R(5,6)                  1.357          -DE/DX =    0.0                 !
 ! A1    A(2,1,3)              112.3734         -DE/DX =    0.0                 !
 ! A2    A(2,1,4)              112.3734         -DE/DX =    0.0                 !
 ! A3    A(2,1,5)              106.3738         -DE/DX =    0.0                 !
 ! A4    A(3,1,4)              112.3962         -DE/DX =    0.0                 !
 ! A5    A(3,1,5)              106.3772         -DE/DX =    0.0                 !
 ! A6    A(4,1,5)              106.3772         -DE/DX =    0.0                 !
 ! A7    L(1,5,6,2,-1)         179.7983         -DE/DX =    0.0                 !
 ! A8    L(1,5,6,2,-2)         180.0            -DE/DX =    0.0                 !
 ! D1    D(2,1,4,3)           -127.9401         -DE/DX =    0.0                 !
 ! D2    D(2,1,5,3)            119.9906         -DE/DX =    0.0                 !
 ! D3    D(2,1,5,4)           -119.9906         -DE/DX =    0.0                 !
 ! D4    D(3,1,5,4)            120.0188         -DE/DX =    0.0                 !
 --------------------------------------------------------------------------------
 GradGradGradGradGradGradGradGradGradGradGradGradGradGradGradGradGradGrad

 Leave Link  103 at Wed Oct 21 14:24:32 2020, MaxMem=  2684354560 cpu:               5.0 elap:               2.0
 (Enter /udrive/faculty/rpeverati/g16/g16/l9999.exe)

 ----------------------------------------------------------------------

 Electric dipole moment (input orientation):
 (Debye = 10**-18 statcoulomb cm , SI units = C m)
                  (au)            (Debye)         (10**-30 SI)
   Tot        0.635324D+00      0.161483D+01      0.538650D+01
   x         -0.470150D-02     -0.119500D-01     -0.398610D-01
   y         -0.635306D+00     -0.161479D+01     -0.538635D+01
   z          0.000000D+00      0.000000D+00      0.000000D+00

 Dipole polarizability, Alpha (input orientation).
 (esu units = cm**3 , SI units = C**2 m**2 J**-1)
 Alpha(0;0):
               (au)            (10**-24 esu)      (10**-40 SI)
   iso        0.163804D+02      0.242733D+01      0.270077D+01
   aniso      0.216456D+02      0.320755D+01      0.356888D+01
   xx         0.952692D+01      0.141174D+01      0.157078D+01
   yx         0.173614D+00      0.257269D-01      0.286250D-01
   yy         0.308035D+02      0.456461D+01      0.507881D+01
   zx         0.000000D+00      0.000000D+00      0.000000D+00
   zy         0.000000D+00      0.000000D+00      0.000000D+00
   zz         0.881085D+01      0.130563D+01      0.145271D+01

 First dipole hyperpolarizability, Beta (input orientation).
 ||, _|_  parallel and perpendicular components, (z) with respect to z axis,
 vector components x,y,z.  Values do not include the 1/n! factor of 1/2.
 (esu units = statvolt**-1 cm**4 , SI units = C**3 m**3 J**-2)
 Beta(0;0,0):
               (au)            (10**-30 esu)      (10**-50 SI)
   || (z)     0.000000D+00      0.000000D+00      0.000000D+00
   _|_(z)     0.000000D+00      0.000000D+00      0.000000D+00
   x          0.104348D+02      0.901485D-01      0.334577D-01
   y          0.766831D+03      0.662482D+01      0.245874D+01
   z          0.000000D+00      0.000000D+00      0.000000D+00
   ||         0.153380D+03      0.132509D+01      0.491793D+00
   xxx       -0.195013D+02     -0.168476D+00     -0.625283D-01
   xxy       -0.125917D+02     -0.108782D+00     -0.403734D-01
   yxy        0.244255D+01      0.211017D-01      0.783169D-02
   yyy        0.280833D+03      0.242618D+01      0.900452D+00
   xxz        0.000000D+00      0.000000D+00      0.000000D+00
   yxz        0.000000D+00      0.000000D+00      0.000000D+00
   yyz        0.000000D+00      0.000000D+00      0.000000D+00
   zxz        0.205371D+02      0.177424D+00      0.658492D-01
   zyz       -0.126310D+02     -0.109122D+00     -0.404996D-01
   zzz        0.000000D+00      0.000000D+00      0.000000D+00

 ----------------------------------------------------------------------

 Dipole orientation:
     6          0.00585822         -0.00004335          2.08769297
     1         -2.00234892          0.01481812          2.67135360
     1          1.01995675          1.73040916          2.68033938
     1          0.99423512         -1.74531492          2.68033938
     1          0.01248961         -0.00009243         -0.16899512
     8          0.01099953         -0.00008140         -2.73335048

 Electric dipole moment (dipole orientation):
 (Debye = 10**-18 statcoulomb cm , SI units = C m)
                  (au)            (Debye)         (10**-30 SI)
   Tot        0.635324D+00      0.161483D+01      0.538650D+01
   x          0.000000D+00      0.000000D+00      0.000000D+00
   y          0.000000D+00      0.000000D+00      0.000000D+00
   z          0.635324D+00      0.161483D+01      0.538650D+01

 Dipole polarizability, Alpha (dipole orientation).
 (esu units = cm**3 , SI units = C**2 m**2 J**-1)
 Alpha(0;0):
               (au)            (10**-24 esu)      (10**-40 SI)
   iso        0.163804D+02      0.242733D+01      0.270077D+01
   aniso      0.216456D+02      0.320755D+01      0.356888D+01
   xx         0.952548D+01      0.141153D+01      0.157054D+01
   yx        -0.528855D-02     -0.783682D-03     -0.871963D-03
   yy         0.881089D+01      0.130564D+01      0.145272D+01
   zx        -0.161484D-01     -0.239294D-02     -0.266250D-02
   zy         0.119504D-03      0.177086D-04      0.197035D-04
   zz         0.308049D+02      0.456482D+01      0.507904D+01

 First dipole hyperpolarizability, Beta (dipole orientation).
 ||, _|_  parallel and perpendicular components, (z) with respect to z axis,
 vector components x,y,z.  Values do not include the 1/n! factor of 1/2.
 (esu units = statvolt**-1 cm**4 , SI units = C**3 m**3 J**-2)
 Beta(0;0,0):
               (au)            (10**-30 esu)      (10**-50 SI)
   || (z)    -0.153377D+03     -0.132506D+01     -0.491784D+00
   _|_(z)    -0.511258D+02     -0.441687D+00     -0.163928D+00
   x          0.475971D+01      0.411202D-01      0.152613D-01
   y         -0.352236D-01     -0.304304D-03     -0.112940D-03
   z         -0.766887D+03     -0.662531D+01     -0.245892D+01
   ||         0.153380D+03      0.132509D+01      0.491793D+00
   xxx       -0.192150D+02     -0.166002D+00     -0.616101D-01
   xxy        0.447528D+00      0.386629D-02      0.143494D-02
   yxy        0.206250D+02      0.178184D+00      0.661311D-01
   yyy       -0.457963D+00     -0.395644D-02     -0.146839D-02
   xxz        0.127543D+02      0.110187D+00      0.408949D-01
   yxz       -0.203972D-02     -0.176216D-04     -0.654009D-05
   yyz        0.124787D+02      0.107806D+00      0.400112D-01
   zxz        0.176563D+00      0.152537D-02      0.566126D-03
   zyz       -0.130663D-02     -0.112883D-04     -0.418954D-05
   zzz       -0.280862D+03     -0.242643D+01     -0.900546D+00

 ----------------------------------------------------------------------

 Test job not archived.
 1\1\GINC-NODE54\Freq\UAM1\ZDO\C1H4O1(3)\RPEVERATI\21-Oct-2020\0\\#P Fr
 eq AM1 5D 7F Integral=UltraFineGrid SCF=(NoSymm,XQC,MaxCyc=120) IOp(1/
 33=1) Geom=Check Guess=Read\\TS search on BH76.\\0,3\C,-0.0050753639,-
 1.1047522358,0.\H,-1.0700584358,-1.4057393285,0.\H,0.5224360117,-1.422
 2795727,0.9196621713\H,0.5224360117,-1.4222795727,-0.9196621713\H,0.00
 72710017,0.0893770083,0.\O,0.0165244991,1.4463441007,0.\\Version=ES64L
 -G16RevA.03\State=3-A'\HF=0.098994\S2=2.024492\S2-1=0.\S2A=2.000043\RM
 SD=2.930e-10\RMSF=1.029e-05\ZeroPoint=0.0391652\Thermal=0.0435162\Dipo
 le=-0.0047015,-0.6353063,0.\DipoleDeriv=-0.0979821,0.0076269,0.,0.0049
 672,0.6200121,0.,0.,0.,-0.1012392,0.0540938,0.0592305,0.,-0.0083936,-0
 .0508512,0.,0.,0.,0.0409521,0.0439088,-0.0312238,0.0058909,0.0034286,-
 0.0501979,0.008133,0.0058599,-0.0529447,0.051478,0.0439088,-0.0312238,
 -0.0058909,0.0034286,-0.0501979,-0.008133,-0.0058599,0.0529447,0.05147
 8,0.1236051,-0.0107529,0.,-0.0102122,-1.1737413,0.,0.,0.,0.1232817,-0.
 1674129,0.0060221,0.,0.0067831,0.7049668,0.,0.,0.,-0.166658\Polar=9.52
 69224,0.1736137,30.8035095,0.,0.,8.8108461\HyperPolar=-19.5013355,-12.
 5916665,2.4425467,280.8330637,0.,0.,0.,20.5370551,-12.6310111,0.\PG=CS
  [SG(C1H2O1),X(H2)]\NImag=1\\0.51915634,-0.00228177,0.30339636,0.,0.,0
 .51883469,-0.28570576,-0.06950685,0.,0.33053794,-0.07091850,-0.0521490
 6,0.,0.08308978,0.06012557,0.,0.,-0.04207531,0.,0.,0.04157211,-0.10180
 634,0.03648869,-0.10410705,-0.02017487,0.00577691,-0.02489289,0.112453
 62,0.03714204,-0.05435331,0.06463236,-0.00306980,0.00633689,-0.0041778
 7,-0.04345679,0.06277516,-0.10415965,0.06337087,-0.22369277,-0.0075742
 1,0.00076136,-0.00146726,0.12353138,-0.07565798,0.25696264,-0.10180634
 ,0.03648869,0.10410705,-0.02017487,0.00577691,0.02489289,0.00784018,-0
 .00216448,-0.00857493,0.11245362,0.03714204,-0.05435331,-0.06463236,-0
 .00306980,0.00633689,0.00417787,-0.00216448,0.00641862,0.00518546,-0.0
 4345679,0.06277516,0.10415965,-0.06337087,-0.22369277,0.00757421,-0.00
 076136,-0.00146726,0.00857493,-0.00518546,-0.02952946,-0.12353138,0.07
 565798,0.25696264,-0.02950256,-0.00028990,0.,-0.00463077,-0.02332116,0
 .,0.00171859,0.01126298,-0.00335509,0.00171859,0.01126298,0.00335509,0
 .03078744,0.00010383,-0.02013850,0.,-0.00557618,-0.02779115,0.,0.00229
 716,-0.02824639,0.00463287,0.00229716,-0.02824639,-0.00463287,-0.00026
 360,-0.04839129,0.,0.,-0.02881699,0.,0.,0.00360769,-0.00322367,0.01990
 862,-0.00237991,0.00322367,-0.01990862,-0.00237991,0.,0.,0.02965391,-0
 .00028970,-0.00082562,0.,0.00014553,-0.00039880,0.,-0.00003760,0.00027
 259,0.00013218,-0.00003760,0.00027259,-0.00013218,-0.00012554,0.001029
 39,0.,0.00034914,-0.00118752,-0.12240222,0.,-0.00186684,0.00713927,0.,
 0.00105851,0.00706856,0.00170691,0.00105851,0.00706856,-0.00170691,0.0
 0134774,0.15281976,0.,-0.00034962,-0.05169737,0.,0.,-0.00055589,0.,0.,
 -0.00015273,0.00011981,0.00044372,0.00010638,-0.00011981,-0.00044372,0
 .00010638,0.,0.,0.00030075,0.,0.,0.00019214\\-0.00003253,0.00000679,0.
 ,0.00001239,0.00000464,0.,0.00000946,-0.00000087,-0.00000124,0.0000094
 6,-0.00000087,0.00000124,-0.00000054,-0.00001885,0.,0.00000176,0.00000
 916,0.\\\@


 QED = W**5 (WHICH WAS WHAT WE WANTED)
 Job cpu time:       0 days  0 hours  2 minutes 25.4 seconds.
 Elapsed time:       0 days  0 hours  0 minutes 33.8 seconds.
 File lengths (MBytes):  RWF=      5 Int=      0 D2E=      0 Chk=      2 Scr=      1
 Normal termination of Gaussian 16 at Wed Oct 21 14:24:35 2020.
