 Entering Gaussian System, Link 0=g16
 Input=MN_80_RKT03_BH76_AM1_SE.in
 Output=MN_80_RKT03_BH76_AM1_SE.log
 Initial command:
 /udrive/faculty/rpeverati/g16/g16/l1.exe "/udrive/scratch-directories/gaussian09/rpeverati/Gau-30263.inp" -scrdir="/udrive/scratch-directories/gaussian09/rpeverati/"
 Entering Link 1 = /udrive/faculty/rpeverati/g16/g16/l1.exe PID=     30280.
  
 Copyright (c) 1988,1990,1992,1993,1995,1998,2003,2009,2016,
            Gaussian, Inc.  All Rights Reserved.
  
 This is part of the Gaussian(R) 16 program.  It is based on
 the Gaussian(R) 09 system (copyright 2009, Gaussian, Inc.),
 the Gaussian(R) 03 system (copyright 2003, Gaussian, Inc.),
 the Gaussian(R) 98 system (copyright 1998, Gaussian, Inc.),
 the Gaussian(R) 94 system (copyright 1995, Gaussian, Inc.),
 the Gaussian 92(TM) system (copyright 1992, Gaussian, Inc.),
 the Gaussian 90(TM) system (copyright 1990, Gaussian, Inc.),
 the Gaussian 88(TM) system (copyright 1988, Gaussian, Inc.),
 the Gaussian 86(TM) system (copyright 1986, Carnegie Mellon
 University), and the Gaussian 82(TM) system (copyright 1983,
 Carnegie Mellon University). Gaussian is a federally registered
 trademark of Gaussian, Inc.
  
 This software contains proprietary and confidential information,
 including trade secrets, belonging to Gaussian, Inc.
  
 This software is provided under written license and may be
 used, copied, transmitted, or stored only in accord with that
 written license.
  
 The following legend is applicable only to US Government
 contracts under FAR:
  
                    RESTRICTED RIGHTS LEGEND
  
 Use, reproduction and disclosure by the US Government is
 subject to restrictions as set forth in subparagraphs (a)
 and (c) of the Commercial Computer Software - Restricted
 Rights clause in FAR 52.227-19.
  
 Gaussian, Inc.
 340 Quinnipiac St., Bldg. 40, Wallingford CT 06492
  
  
 ---------------------------------------------------------------
 Warning -- This program may not be used in any manner that
 competes with the business of Gaussian, Inc. or will provide
 assistance to any competitor of Gaussian, Inc.  The licensee
 of this program is prohibited from giving any competitor of
 Gaussian, Inc. access to this program.  By using this program,
 the user acknowledges that Gaussian, Inc. is engaged in the
 business of creating and licensing software in the field of
 computational chemistry and represents and warrants to the
 licensee that it is not a competitor of Gaussian, Inc. and that
 it will not use this program in any manner prohibited above.
 ---------------------------------------------------------------
  

 Cite this work as:
 Gaussian 16, Revision A.03,
 M. J. Frisch, G. W. Trucks, H. B. Schlegel, G. E. Scuseria, 
 M. A. Robb, J. R. Cheeseman, G. Scalmani, V. Barone, 
 G. A. Petersson, H. Nakatsuji, X. Li, M. Caricato, A. V. Marenich, 
 J. Bloino, B. G. Janesko, R. Gomperts, B. Mennucci, H. P. Hratchian, 
 J. V. Ortiz, A. F. Izmaylov, J. L. Sonnenberg, D. Williams-Young, 
 F. Ding, F. Lipparini, F. Egidi, J. Goings, B. Peng, A. Petrone, 
 T. Henderson, D. Ranasinghe, V. G. Zakrzewski, J. Gao, N. Rega, 
 G. Zheng, W. Liang, M. Hada, M. Ehara, K. Toyota, R. Fukuda, 
 J. Hasegawa, M. Ishida, T. Nakajima, Y. Honda, O. Kitao, H. Nakai, 
 T. Vreven, K. Throssell, J. A. Montgomery, Jr., J. E. Peralta, 
 F. Ogliaro, M. J. Bearpark, J. J. Heyd, E. N. Brothers, K. N. Kudin, 
 V. N. Staroverov, T. A. Keith, R. Kobayashi, J. Normand, 
 K. Raghavachari, A. P. Rendell, J. C. Burant, S. S. Iyengar, 
 J. Tomasi, M. Cossi, J. M. Millam, M. Klene, C. Adamo, R. Cammi, 
 J. W. Ochterski, R. L. Martin, K. Morokuma, O. Farkas, 
 J. B. Foresman, and D. J. Fox, Gaussian, Inc., Wallingford CT, 2016.
 
 ******************************************
 Gaussian 16:  ES64L-G16RevA.03 25-Dec-2016
                28-Oct-2020 
 ******************************************
 %NoSave
 %nproc=12
 Will use up to   12 processors via shared memory.
 %mem=20GB
 %chk=MN_80_RKT03_BH76_AM1_SE
 ----------------------------------------------------------------------
 #P Opt(TS,MaxCyc=50,NoEigenTest,MaxStep=10,AddRedundant) AM1 5D 7F Int
 egral=UltraFineGrid SCF=(NoSymm,XQC,MaxCyc=120) IOp(1/33=1)
 ----------------------------------------------------------------------
 1/5=1,6=50,8=10,11=1,18=120,26=1,33=1,38=1/1,3;
 2/9=110,12=2,17=6,18=5,40=1/2;
 3/5=2,8=11,25=1,41=700000,71=1,75=-5/1,2,3;
 4/9=2,35=1/1;
 5/5=2,7=120,8=3,13=1,35=1,38=5/2,8;
 6/7=2,8=2,9=2,10=2,28=1/1;
 7//1,2,3,16;
 1/5=1,6=50,8=10,11=1,18=20,26=1,33=1/3(2);
 2/9=110/2;
 99//99;
 2/9=110/2;
 3/5=2,8=11,25=1,41=700000,71=1,75=-5,135=20/1,2,3;
 4/5=5,9=2,16=3,35=1/1;
 5/5=2,7=120,8=3,13=1,35=1,38=5/2,8;
 7//1,2,3,16;
 1/5=1,6=50,8=10,11=1,18=20,26=1,33=1/3(-5);
 2/9=110/2;
 6/7=2,8=2,9=2,10=2,19=2,28=1/1;
 99/9=1/99;
 Leave Link    1 at Wed Oct 28 14:26:32 2020, MaxMem=  2684354560 cpu:               2.8 elap:               0.3
 (Enter /udrive/faculty/rpeverati/g16/g16/l101.exe)
 ONIOM results not found on unit 2.
 ------------------
 TS search on BH76.
 ------------------
 TstMul:  ICh=     0
 TstMul:  Mul=     2
 TstMul:  ICh=     0
 TstMul:  Mul=     2
 Symbolic Z-matrix:
 Charge =  0 Multiplicity = 2
 C                     0.        0.26481   0. 
 H                     1.05343   0.51667   0. 
 H                    -0.52663   0.51703   0.91225 
 H                    -0.52663   0.51703  -0.91225 
 H                    -0.00026  -1.11777   0. 
 H                     0.00009  -2.02183   0. 
 
 RdStrC is calling ZToCFu for IStruc=1 NZ=     6.
 PrtBox:  NBox=     1 Levels=  1 BoxLen=    8.00 SMaxX=        4.80
          Shift=            0.995181            3.820700            1.723900
 Box      1 Number                   0 centers from      1 to      6:
 After GenITR:
 ITRead=  0  0  0  0  0  0
 MicOpt= -1 -1 -1 -1 -1 -1
 Add virtual bond connecting atoms H6         and H5         Dist= 1.71D+00.
 Add virtual bond connecting atoms H5         and C1         Dist= 2.61D+00.
 The following ModRedundant input section has been read:
 B       1       5 D                                                           
 B       5       6 D                                                           
 
 ITRead=  0  0  0  0  0  0
 MicOpt= -1 -1 -1 -1 -1 -1
 NAtoms=      6 NQM=        6 NQMF=       0 NMMI=      0 NMMIF=      0
                NMic=       0 NMicF=      0.
                    Isotopes and Nuclear Properties:
 (Nuclear quadrupole moments (NQMom) in fm**2, nuclear magnetic moments (NMagM)
  in nuclear magnetons)

  Atom         1           2           3           4           5           6
 IAtWgt=          12           1           1           1           1           1
 AtmWgt=  12.0000000   1.0078250   1.0078250   1.0078250   1.0078250   1.0078250
 NucSpn=           0           1           1           1           1           1
 AtZEff=   0.0000000   0.0000000   0.0000000   0.0000000   0.0000000   0.0000000
 NQMom=    0.0000000   0.0000000   0.0000000   0.0000000   0.0000000   0.0000000
 NMagM=    0.0000000   2.7928460   2.7928460   2.7928460   2.7928460   2.7928460
 AtZNuc=   6.0000000   1.0000000   1.0000000   1.0000000   1.0000000   1.0000000
 No MM parameters found.
 Leave Link  101 at Wed Oct 28 14:26:33 2020, MaxMem=  2684354560 cpu:               6.3 elap:               0.6
 (Enter /udrive/faculty/rpeverati/g16/g16/l103.exe)

 GradGradGradGradGradGradGradGradGradGradGradGradGradGradGradGradGradGrad
 Berny optimization.
 Optmz: redundant internal coordinate code flag= 1
 Initialization pass.
                           ----------------------------
                           !    Initial Parameters    !
                           ! (Angstroms and Degrees)  !
 --------------------------                            --------------------------
 ! Name  Definition              Value          Derivative Info.                !
 --------------------------------------------------------------------------------
 ! R1    R(1,2)                  1.0831         estimate D2E/DX2                !
 ! R2    R(1,3)                  1.0831         estimate D2E/DX2                !
 ! R3    R(1,4)                  1.0831         estimate D2E/DX2                !
 ! R4    R(1,5)                  1.3826         calc D2E/DXDY, step=    0.0026  !
 ! R5    R(5,6)                  0.9041         calc D2E/DXDY, step=    0.0026  !
 ! A1    A(2,1,3)              114.7551         estimate D2E/DX2                !
 ! A2    A(2,1,4)              114.7551         estimate D2E/DX2                !
 ! A3    A(2,1,5)              103.4567         estimate D2E/DX2                !
 ! A4    A(3,1,4)              114.7555         estimate D2E/DX2                !
 ! A5    A(3,1,5)              103.46           estimate D2E/DX2                !
 ! A6    A(4,1,5)              103.46           estimate D2E/DX2                !
 ! A7    L(1,5,6,2,-1)         179.9674         estimate D2E/DX2                !
 ! A8    L(1,5,6,2,-2)         180.0            estimate D2E/DX2                !
 ! D1    D(2,1,4,3)           -136.0882         estimate D2E/DX2                !
 ! D2    D(2,1,5,3)            119.9994         estimate D2E/DX2                !
 ! D3    D(2,1,5,4)           -119.9994         estimate D2E/DX2                !
 ! D4    D(3,1,5,4)            120.0012         estimate D2E/DX2                !
 --------------------------------------------------------------------------------
 Maximum allowed force set to 1.00D+20.
 Trust Radius=1.00D-01 FncErr=1.00D-07 GrdErr=1.00D-07 EigMax=2.50D+02 EigMin=1.00D-04
 Number of steps in this run=     50 maximum allowed number of steps=    100.
 Search for a saddle point of order  1.
 GradGradGradGradGradGradGradGradGradGradGradGradGradGradGradGradGradGrad

 Leave Link  103 at Wed Oct 28 14:26:33 2020, MaxMem=  2684354560 cpu:               0.2 elap:               0.1
 (Enter /udrive/faculty/rpeverati/g16/g16/l202.exe)
                          Input orientation:                          
 ---------------------------------------------------------------------
 Center     Atomic      Atomic             Coordinates (Angstroms)
 Number     Number       Type             X           Y           Z
 ---------------------------------------------------------------------
      1          6           0        0.000000    0.264813    0.000000
      2          1           0        1.053428    0.516668    0.000000
      3          1           0       -0.526627    0.517025    0.912249
      4          1           0       -0.526627    0.517025   -0.912249
      5          1           0       -0.000260   -1.117770    0.000000
      6          1           0        0.000085   -2.021827    0.000000
 ---------------------------------------------------------------------
                    Distance matrix (angstroms):
                    1          2          3          4          5
     1  C    0.000000
     2  H    1.083116   0.000000
     3  H    1.083118   1.824492   0.000000
     4  H    1.083118   1.824492   1.824497   0.000000
     5  H    1.382583   1.944646   1.944689   1.944689   0.000000
     6  H    2.286640   2.748361   2.748708   2.748708   0.904057
                    6
     6  H    0.000000
 This structure is nearly, but not quite of a higher symmetry.
 Consider Symm=Loose if the higher symmetry is desired.
 Stoichiometry    CH5(2)
 Framework group  CS[SG(CH3),X(H2)]
 Deg. of freedom     8
 Full point group                 CS      NOp   2
 Largest Abelian subgroup         CS      NOp   2
 Largest concise Abelian subgroup CS      NOp   2
                         Standard orientation:                         
 ---------------------------------------------------------------------
 Center     Atomic      Atomic             Coordinates (Angstroms)
 Number     Number       Type             X           Y           Z
 ---------------------------------------------------------------------
      1          6           0       -0.000000    0.264813    0.000000
      2          1           0        1.053428    0.516669    0.000000
      3          1           0       -0.526627    0.517025    0.912249
      4          1           0       -0.526627    0.517025   -0.912249
      5          1           0       -0.000259   -1.117770   -0.000000
      6          1           0        0.000086   -2.021827   -0.000000
 ---------------------------------------------------------------------
 Rotational constants (GHZ):         150.6424277          59.0404668          59.0403791
 Leave Link  202 at Wed Oct 28 14:26:33 2020, MaxMem=  2684354560 cpu:               0.2 elap:               0.1
 (Enter /udrive/faculty/rpeverati/g16/g16/l301.exe)
 Standard basis: VSTO-6G (5D, 7F)
 Ernie: Thresh=  0.10000D-02 Tol=  0.10000D-05 Strict=F.
  NNHCO=     0 NNPyr=     0 NCTC=     0               EPep=         0.000000000
    EC=         8.377105873  ECS=         0.528423175   EG=         0.066157774
   EHC=         0.000000000  EAt=        -6.533953666  AtH=         0.687479660
 EPDDG=         0.000000000  ECC=         8.971686822 EAtT=         7.221433326
 There are     7 symmetry adapted cartesian basis functions of A'  symmetry.
 There are     2 symmetry adapted cartesian basis functions of A"  symmetry.
 There are     7 symmetry adapted basis functions of A'  symmetry.
 There are     2 symmetry adapted basis functions of A"  symmetry.
     9 basis functions,    54 primitive gaussians,     9 cartesian basis functions
     5 alpha electrons        4 beta electrons
       nuclear repulsion energy        16.1931201484 Hartrees.
 IExCor=    0 DFT=F Ex=HF Corr=None ExCW=0 ScaHFX=  1.000000
 ScaDFX=  1.000000  1.000000  1.000000  1.000000 ScalE2=  1.000000  1.000000
 IRadAn=      5 IRanWt=     -1 IRanGd=            0 ICorTp=0 IEmpDi=  4
 Integral buffers will be    131072 words long.
 Regular integral format.
 Two-electron integral symmetry is turned off.
 Leave Link  301 at Wed Oct 28 14:26:33 2020, MaxMem=  2684354560 cpu:               0.8 elap:               0.1
 (Enter /udrive/faculty/rpeverati/g16/g16/l302.exe)
 Do NDO integrals.
 NPDir=0 NMtPBC=     1 NCelOv=     1 NCel=       1 NClECP=     1 NCelD=      1
         NCelK=      1 NCelE2=     1 NClLst=     1 CellRange=     0.0.
 One-electron integrals computed using PRISM.
 NBasis=     9 RedAO= T EigKep=  1.00D+00  NBF=     7     2
 NBsUse=     9 1.00D-06 EigRej= -1.00D+00 NBFU=     7     2
 Leave Link  302 at Wed Oct 28 14:26:33 2020, MaxMem=  2684354560 cpu:               0.9 elap:               0.1
 (Enter /udrive/faculty/rpeverati/g16/g16/l303.exe)
 DipDrv:  MaxL=1.
 Leave Link  303 at Wed Oct 28 14:26:33 2020, MaxMem=  2684354560 cpu:               0.4 elap:               0.1
 (Enter /udrive/faculty/rpeverati/g16/g16/l401.exe)
 SCF N**3 symmetry information disabled.
 Simple Huckel Guess.
 JPrj=0 DoOrth=F DoCkMO=F.
 Initial guess orbital symmetries:
 Alpha Orbitals:
       Occupied  (A') (A') (A") (A') (A')
       Virtual   (A') (A") (A') (A')
 Beta  Orbitals:
       Occupied  (A') (A') (A") (A')
       Virtual   (A') (A') (A") (A') (A')
 The electronic state of the initial guess is 2-A'.
 Initial guess <Sx>= 0.0000 <Sy>= 0.0000 <Sz>= 0.5000 <S**2>= 0.7500 S= 0.5000
 Leave Link  401 at Wed Oct 28 14:26:34 2020, MaxMem=  2684354560 cpu:               0.5 elap:               0.1
 (Enter /udrive/faculty/rpeverati/g16/g16/l502.exe)
 Keep J ints in memory in canonical form, NReq=859278.
 FoFCou: FMM=F IPFlag=           0 FMFlag=           0 FMFlg1=           0
         NFxFlg=           0 DoJE=F BraDBF=F KetDBF=F FulRan=T
         wScrn=  0.000000 ICntrl=       600 IOpCl=  2 I1Cent=           0 NGrid=           0
         NMat0=    1 NMatS0=     15 NMatT0=    0 NMatD0=    1 NMtDS0=    0 NMtDT0=    0
 Symmetry not used in FoFCou.
 Two-electron integral symmetry not used.
 UHF open shell SCF:
 Using DIIS extrapolation, IDIIS=  1040.
 Overlap will be assumed to be unity.
 NGot=  2684354560 LenX=  2684293979 LenY=  2684293097
 Requested convergence on RMS density matrix=1.00D-08 within 120 cycles.
 Requested convergence on MAX density matrix=1.00D-06.
 Requested convergence on             energy=1.00D-06.
 No special actions if energy rises.

 Cycle   1  Pass 1  IDiag  1:
 E= 0.128073737232569    
 DIIS: error= 4.50D-02 at cycle   1 NSaved=   1.
 NSaved= 1 IEnMin= 1 EnMin= 0.128073737232569     IErMin= 1 ErrMin= 4.50D-02
 ErrMax= 4.50D-02  0.00D+00 EMaxC= 1.00D-01 BMatC= 1.00D-01 BMatP= 1.00D-01
 IDIUse=3 WtCom= 5.50D-01 WtEn= 4.50D-01
 Coeff-Com:  0.100D+01
 Coeff-En:   0.100D+01
 Coeff:      0.100D+01
 GapD=    2.000 DampG=2.000 DampE=0.500 DampFc=1.0000 IDamp=-1.
 RMSDP=2.23D-02 MaxDP=1.44D-01              OVMax= 0.00D+00

 Cycle   2  Pass 1  IDiag  1:
 E= 0.728889562731680E-01 Delta-E=       -0.055184780959 Rises=F Damp=F
 DIIS: error= 1.10D-02 at cycle   2 NSaved=   2.
 NSaved= 2 IEnMin= 2 EnMin= 0.728889562731680E-01 IErMin= 2 ErrMin= 1.10D-02
 ErrMax= 1.10D-02  0.00D+00 EMaxC= 1.00D-01 BMatC= 6.40D-03 BMatP= 1.00D-01
 IDIUse=3 WtCom= 8.90D-01 WtEn= 1.10D-01
 Coeff-Com: -0.305D+00 0.131D+01
 Coeff-En:   0.000D+00 0.100D+01
 Coeff:     -0.271D+00 0.127D+01
 RMSDP=8.31D-03 MaxDP=4.49D-02 DE=-5.52D-02 OVMax= 0.00D+00

 Cycle   3  Pass 1  IDiag  3:
 E= 0.681639037002633E-01 Delta-E=       -0.004725052573 Rises=F Damp=F
 DIIS: error= 3.55D-03 at cycle   3 NSaved=   3.
 NSaved= 3 IEnMin= 3 EnMin= 0.681639037002633E-01 IErMin= 3 ErrMin= 3.55D-03
 ErrMax= 3.55D-03  0.00D+00 EMaxC= 1.00D-01 BMatC= 3.40D-04 BMatP= 6.40D-03
 IDIUse=3 WtCom= 9.65D-01 WtEn= 3.55D-02
 Coeff-Com:  0.306D+00-0.141D+01 0.211D+01
 Coeff-En:   0.000D+00 0.000D+00 0.100D+01
 Coeff:      0.295D+00-0.136D+01 0.207D+01
 Gap=     0.475 Goal=   None    Shift=    0.000
 Gap=     0.520 Goal=   None    Shift=    0.000
 RMSDP=4.67D-03 MaxDP=2.13D-02 DE=-4.73D-03 OVMax= 2.07D-02

 Cycle   4  Pass 1  IDiag  3:
 E= 0.675229480292074E-01 Delta-E=       -0.000640955671 Rises=F Damp=F
 DIIS: error= 9.43D-04 at cycle   4 NSaved=   4.
 NSaved= 4 IEnMin= 4 EnMin= 0.675229480292074E-01 IErMin= 4 ErrMin= 9.43D-04
 ErrMax= 9.43D-04  0.00D+00 EMaxC= 1.00D-01 BMatC= 2.37D-05 BMatP= 3.40D-04
 IDIUse=3 WtCom= 9.91D-01 WtEn= 9.43D-03
 Coeff-Com: -0.119D+00 0.569D+00-0.104D+01 0.159D+01
 Coeff-En:   0.000D+00 0.000D+00 0.000D+00 0.100D+01
 Coeff:     -0.118D+00 0.564D+00-0.103D+01 0.158D+01
 Gap=     0.477 Goal=   None    Shift=    0.000
 Gap=     0.523 Goal=   None    Shift=    0.000
 RMSDP=1.34D-03 MaxDP=6.71D-03 DE=-6.41D-04 OVMax= 7.11D-03

 Cycle   5  Pass 1  IDiag  3:
 E= 0.674680244658568E-01 Delta-E=       -0.000054923563 Rises=F Damp=F
 DIIS: error= 3.42D-04 at cycle   5 NSaved=   5.
 NSaved= 5 IEnMin= 5 EnMin= 0.674680244658568E-01 IErMin= 5 ErrMin= 3.42D-04
 ErrMax= 3.42D-04  0.00D+00 EMaxC= 1.00D-01 BMatC= 5.23D-06 BMatP= 2.37D-05
 IDIUse=3 WtCom= 9.97D-01 WtEn= 3.42D-03
 Coeff-Com:  0.550D-01-0.270D+00 0.548D+00-0.119D+01 0.186D+01
 Coeff-En:   0.000D+00 0.000D+00 0.000D+00 0.000D+00 0.100D+01
 Coeff:      0.548D-01-0.270D+00 0.546D+00-0.119D+01 0.186D+01
 Gap=     0.476 Goal=   None    Shift=    0.000
 Gap=     0.523 Goal=   None    Shift=    0.000
 RMSDP=7.60D-04 MaxDP=3.51D-03 DE=-5.49D-05 OVMax= 4.67D-03

 Cycle   6  Pass 1  IDiag  3:
 E= 0.674517501996448E-01 Delta-E=       -0.000016274266 Rises=F Damp=F
 DIIS: error= 1.89D-04 at cycle   6 NSaved=   6.
 NSaved= 6 IEnMin= 6 EnMin= 0.674517501996448E-01 IErMin= 6 ErrMin= 1.89D-04
 ErrMax= 1.89D-04  0.00D+00 EMaxC= 1.00D-01 BMatC= 1.46D-06 BMatP= 5.23D-06
 IDIUse=3 WtCom= 9.98D-01 WtEn= 1.89D-03
 Coeff-Com: -0.944D-02 0.548D-01-0.158D+00 0.573D+00-0.178D+01 0.232D+01
 Coeff-En:   0.000D+00 0.000D+00 0.000D+00 0.000D+00 0.000D+00 0.100D+01
 Coeff:     -0.942D-02 0.547D-01-0.157D+00 0.572D+00-0.178D+01 0.232D+01
 Gap=     0.476 Goal=   None    Shift=    0.000
 Gap=     0.523 Goal=   None    Shift=    0.000
 RMSDP=6.97D-04 MaxDP=3.36D-03 DE=-1.63D-05 OVMax= 4.71D-03

 Cycle   7  Pass 1  IDiag  3:
 E= 0.674457766330860E-01 Delta-E=       -0.000005973567 Rises=F Damp=F
 DIIS: error= 4.64D-05 at cycle   7 NSaved=   7.
 NSaved= 7 IEnMin= 7 EnMin= 0.674457766330860E-01 IErMin= 7 ErrMin= 4.64D-05
 ErrMax= 4.64D-05  0.00D+00 EMaxC= 1.00D-01 BMatC= 9.89D-08 BMatP= 1.46D-06
 IDIUse=1 WtCom= 1.00D+00 WtEn= 0.00D+00
 Coeff-Com:  0.278D-02-0.209D-01 0.802D-01-0.345D+00 0.121D+01-0.179D+01
 Coeff-Com:  0.186D+01
 Coeff:      0.278D-02-0.209D-01 0.802D-01-0.345D+00 0.121D+01-0.179D+01
 Coeff:      0.186D+01
 Gap=     0.476 Goal=   None    Shift=    0.000
 Gap=     0.522 Goal=   None    Shift=    0.000
 RMSDP=1.28D-04 MaxDP=6.44D-04 DE=-5.97D-06 OVMax= 9.35D-04

 Cycle   8  Pass 1  IDiag  3:
 E= 0.674455129987912E-01 Delta-E=       -0.000000263634 Rises=F Damp=F
 DIIS: error= 1.16D-05 at cycle   8 NSaved=   8.
 NSaved= 8 IEnMin= 8 EnMin= 0.674455129987912E-01 IErMin= 8 ErrMin= 1.16D-05
 ErrMax= 1.16D-05  0.00D+00 EMaxC= 1.00D-01 BMatC= 1.26D-08 BMatP= 9.89D-08
 IDIUse=1 WtCom= 1.00D+00 WtEn= 0.00D+00
 Coeff-Com: -0.180D-02 0.158D-01-0.674D-01 0.303D+00-0.110D+01 0.167D+01
 Coeff-Com: -0.204D+01 0.221D+01
 Coeff:     -0.180D-02 0.158D-01-0.674D-01 0.303D+00-0.110D+01 0.167D+01
 Coeff:     -0.204D+01 0.221D+01
 Gap=     0.476 Goal=   None    Shift=    0.000
 Gap=     0.522 Goal=   None    Shift=    0.000
 RMSDP=3.80D-05 MaxDP=1.34D-04 DE=-2.64D-07 OVMax= 1.87D-04

 Cycle   9  Pass 1  IDiag  3:
 E= 0.674454870710974E-01 Delta-E=       -0.000000025928 Rises=F Damp=F
 DIIS: error= 2.42D-06 at cycle   9 NSaved=   9.
 NSaved= 9 IEnMin= 9 EnMin= 0.674454870710974E-01 IErMin= 9 ErrMin= 2.42D-06
 ErrMax= 2.42D-06  0.00D+00 EMaxC= 1.00D-01 BMatC= 3.37D-10 BMatP= 1.26D-08
 IDIUse=1 WtCom= 1.00D+00 WtEn= 0.00D+00
 Coeff-Com:  0.776D-03-0.820D-02 0.394D-01-0.184D+00 0.678D+00-0.104D+01
 Coeff-Com:  0.129D+01-0.150D+01 0.172D+01
 Coeff:      0.776D-03-0.820D-02 0.394D-01-0.184D+00 0.678D+00-0.104D+01
 Coeff:      0.129D+01-0.150D+01 0.172D+01
 Gap=     0.476 Goal=   None    Shift=    0.000
 Gap=     0.522 Goal=   None    Shift=    0.000
 RMSDP=5.30D-06 MaxDP=2.25D-05 DE=-2.59D-08 OVMax= 2.00D-05

 Cycle  10  Pass 1  IDiag  3:
 E= 0.674454864624572E-01 Delta-E=       -0.000000000609 Rises=F Damp=F
 DIIS: error= 5.08D-07 at cycle  10 NSaved=  10.
 NSaved=10 IEnMin=10 EnMin= 0.674454864624572E-01 IErMin=10 ErrMin= 5.08D-07
 ErrMax= 5.08D-07  0.00D+00 EMaxC= 1.00D-01 BMatC= 1.60D-11 BMatP= 3.37D-10
 IDIUse=1 WtCom= 1.00D+00 WtEn= 0.00D+00
 Coeff-Com: -0.221D-03 0.240D-02-0.118D-01 0.543D-01-0.202D+00 0.310D+00
 Coeff-Com: -0.386D+00 0.444D+00-0.609D+00 0.140D+01
 Coeff:     -0.221D-03 0.240D-02-0.118D-01 0.543D-01-0.202D+00 0.310D+00
 Coeff:     -0.386D+00 0.444D+00-0.609D+00 0.140D+01
 Gap=     0.476 Goal=   None    Shift=    0.000
 Gap=     0.522 Goal=   None    Shift=    0.000
 RMSDP=1.92D-06 MaxDP=8.74D-06 DE=-6.09D-10 OVMax= 1.08D-05

 Cycle  11  Pass 1  IDiag  3:
 E= 0.674454864251359E-01 Delta-E=       -0.000000000037 Rises=F Damp=F
 DIIS: error= 2.90D-07 at cycle  11 NSaved=  11.
 NSaved=11 IEnMin=11 EnMin= 0.674454864251359E-01 IErMin=11 ErrMin= 2.90D-07
 ErrMax= 2.90D-07  0.00D+00 EMaxC= 1.00D-01 BMatC= 1.79D-12 BMatP= 1.60D-11
 IDIUse=1 WtCom= 1.00D+00 WtEn= 0.00D+00
 Coeff-Com: -0.326D-05 0.796D-04-0.376D-03 0.295D-02-0.105D-01 0.162D-01
 Coeff-Com: -0.195D-01 0.248D-01 0.458D-01-0.687D+00 0.163D+01
 Coeff:     -0.326D-05 0.796D-04-0.376D-03 0.295D-02-0.105D-01 0.162D-01
 Coeff:     -0.195D-01 0.248D-01 0.458D-01-0.687D+00 0.163D+01
 Gap=     0.476 Goal=   None    Shift=    0.000
 Gap=     0.522 Goal=   None    Shift=    0.000
 RMSDP=4.46D-07 MaxDP=2.36D-06 DE=-3.73D-11 OVMax= 2.01D-06

 Cycle  12  Pass 1  IDiag  3:
 E= 0.674454864217537E-01 Delta-E=       -0.000000000003 Rises=F Damp=F
 DIIS: error= 1.74D-08 at cycle  12 NSaved=  12.
 NSaved=12 IEnMin=12 EnMin= 0.674454864217537E-01 IErMin=12 ErrMin= 1.74D-08
 ErrMax= 1.74D-08  0.00D+00 EMaxC= 1.00D-01 BMatC= 2.45D-14 BMatP= 1.79D-12
 IDIUse=1 WtCom= 1.00D+00 WtEn= 0.00D+00
 Coeff-Com:  0.106D-05-0.106D-04-0.970D-05-0.453D-03 0.130D-02-0.203D-02
 Coeff-Com:  0.210D-02-0.346D-02-0.334D-01 0.340D+00-0.821D+00 0.152D+01
 Coeff:      0.106D-05-0.106D-04-0.970D-05-0.453D-03 0.130D-02-0.203D-02
 Coeff:      0.210D-02-0.346D-02-0.334D-01 0.340D+00-0.821D+00 0.152D+01
 Gap=     0.476 Goal=   None    Shift=    0.000
 Gap=     0.522 Goal=   None    Shift=    0.000
 RMSDP=5.71D-08 MaxDP=2.91D-07 DE=-3.38D-12 OVMax= 4.18D-07

 Cycle  13  Pass 1  IDiag  3:
 E= 0.674454864217182E-01 Delta-E=       -0.000000000000 Rises=F Damp=F
 DIIS: error= 7.72D-09 at cycle  13 NSaved=  13.
 NSaved=13 IEnMin=13 EnMin= 0.674454864217182E-01 IErMin=13 ErrMin= 7.72D-09
 ErrMax= 7.72D-09  0.00D+00 EMaxC= 1.00D-01 BMatC= 1.65D-15 BMatP= 2.45D-14
 IDIUse=1 WtCom= 1.00D+00 WtEn= 0.00D+00
 Coeff-Com: -0.956D-06 0.101D-04-0.172D-04 0.344D-03-0.107D-02 0.166D-02
 Coeff-Com: -0.181D-02 0.261D-02 0.167D-01-0.172D+00 0.414D+00-0.873D+00
 Coeff-Com:  0.161D+01
 Coeff:     -0.956D-06 0.101D-04-0.172D-04 0.344D-03-0.107D-02 0.166D-02
 Coeff:     -0.181D-02 0.261D-02 0.167D-01-0.172D+00 0.414D+00-0.873D+00
 Coeff:      0.161D+01
 Gap=     0.476 Goal=   None    Shift=    0.000
 Gap=     0.522 Goal=   None    Shift=    0.000
 RMSDP=2.28D-08 MaxDP=1.26D-07 DE=-3.55D-14 OVMax= 1.28D-07

 Cycle  14  Pass 1  IDiag  3:
 E= 0.674454864217040E-01 Delta-E=       -0.000000000000 Rises=F Damp=F
 DIIS: error= 2.66D-09 at cycle  14 NSaved=  14.
 NSaved=14 IEnMin=14 EnMin= 0.674454864217040E-01 IErMin=14 ErrMin= 2.66D-09
 ErrMax= 2.66D-09  0.00D+00 EMaxC= 1.00D-01 BMatC= 1.91D-16 BMatP= 1.65D-15
 IDIUse=1 WtCom= 1.00D+00 WtEn= 0.00D+00
 Coeff-Com:  0.130D-06-0.154D-05 0.711D-05-0.389D-04 0.138D-03-0.215D-03
 Coeff-Com:  0.250D-03-0.291D-03-0.128D-03 0.125D-02-0.314D-03 0.547D-02
 Coeff-Com: -0.130D+00 0.112D+01
 Coeff:      0.130D-06-0.154D-05 0.711D-05-0.389D-04 0.138D-03-0.215D-03
 Coeff:      0.250D-03-0.291D-03-0.128D-03 0.125D-02-0.314D-03 0.547D-02
 Coeff:     -0.130D+00 0.112D+01
 Gap=     0.476 Goal=   None    Shift=    0.000
 Gap=     0.522 Goal=   None    Shift=    0.000
 RMSDP=7.52D-09 MaxDP=3.78D-08 DE=-1.42D-14 OVMax= 4.83D-08

 Cycle  15  Pass 2  IDiag  1:
 SCF Done:  E(UAM1) =  0.674454864217E-01 A.U. after   15 cycles
            NFock= 14  Conv=0.75D-08     -V/T= 1.0065
 <Sx>= 0.0000 <Sy>= 0.0000 <Sz>= 0.5000 <S**2>= 0.7861 S= 0.5179
 <L.S>= 0.000000000000E+00
 KE=-1.038531818895D+01 PE=-1.640275848609D+01 EE= 1.066240201311D+01
 Annihilation of the first spin contaminant:
 S**2 before annihilation     0.7861,   after     0.7503
 Leave Link  502 at Wed Oct 28 14:26:34 2020, MaxMem=  2684354560 cpu:               0.8 elap:               0.1
 (Enter /udrive/faculty/rpeverati/g16/g16/l508.exe)
 QCSCF skips out because SCF is already converged.
 Leave Link  508 at Wed Oct 28 14:26:34 2020, MaxMem=  2684354560 cpu:               0.1 elap:               0.1
 (Enter /udrive/faculty/rpeverati/g16/g16/l601.exe)
 Copying SCF densities to generalized density rwf, IOpCl= 1 IROHF=0.

 **********************************************************************

            Population analysis using the SCF density.

 **********************************************************************

 Orbital symmetries:
 Alpha Orbitals:
       Occupied  (A') (A') (A") (A') (A')
       Virtual   (A') (A") (A') (A')
 Beta  Orbitals:
       Occupied  (A') (A") (A') (A')
       Virtual   (A') (A') (A') (A") (A')
 The electronic state is 2-A'.
 Alpha  occ. eigenvalues --   -1.06560  -0.53935  -0.50756  -0.50755  -0.32947
 Alpha virt. eigenvalues --    0.14682   0.17410   0.17410   0.17663
  Beta  occ. eigenvalues --   -1.02563  -0.49846  -0.49846  -0.49120
  Beta virt. eigenvalues --    0.03119   0.17492   0.18600   0.18600   0.19792
          Condensed to atoms (all electrons):
               1          2          3          4          5          6
     1  C    4.295824   0.000000   0.000000   0.000000   0.000000   0.000000
     2  H    0.000000   0.918875   0.000000   0.000000   0.000000   0.000000
     3  H    0.000000   0.000000   0.918872   0.000000   0.000000   0.000000
     4  H    0.000000   0.000000   0.000000   0.918872   0.000000   0.000000
     5  H    0.000000   0.000000   0.000000   0.000000   0.898457   0.000000
     6  H    0.000000   0.000000   0.000000   0.000000   0.000000   1.049100
          Atomic-Atomic Spin Densities.
               1          2          3          4          5          6
     1  C    0.779977   0.000000   0.000000   0.000000   0.000000   0.000000
     2  H    0.000000  -0.033731   0.000000   0.000000   0.000000   0.000000
     3  H    0.000000   0.000000  -0.033726   0.000000   0.000000   0.000000
     4  H    0.000000   0.000000   0.000000  -0.033726   0.000000   0.000000
     5  H    0.000000   0.000000   0.000000   0.000000  -0.172766   0.000000
     6  H    0.000000   0.000000   0.000000   0.000000   0.000000   0.493971
 Mulliken charges and spin densities:
               1          2
     1  C   -0.295824   0.779977
     2  H    0.081125  -0.033731
     3  H    0.081128  -0.033726
     4  H    0.081128  -0.033726
     5  H    0.101543  -0.172766
     6  H   -0.049100   0.493971
 Sum of Mulliken charges =  -0.00000   1.00000
 Mulliken charges and spin densities with hydrogens summed into heavy atoms:
               1          2
     1  C   -0.000000   1.000000
 Charge=              0.0000 electrons
 Dipole moment (field-independent basis, Debye):
    X=             -0.0001    Y=              0.3005    Z=             -0.0000  Tot=              0.3005
 N-N= 1.619312014836D+01 E-N=-1.640275848541D+01  KE=-1.038531818895D+01
 Leave Link  601 at Wed Oct 28 14:26:34 2020, MaxMem=  2684354560 cpu:               0.3 elap:               0.1
 (Enter /udrive/faculty/rpeverati/g16/g16/l701.exe)
 ... and contract with generalized density number  0.
 Compute integral first derivatives.
 Leave Link  701 at Wed Oct 28 14:26:34 2020, MaxMem=  2684354560 cpu:               0.9 elap:               0.1
 (Enter /udrive/faculty/rpeverati/g16/g16/l702.exe)
 L702 exits ... SP integral derivatives will be done elsewhere.
 Leave Link  702 at Wed Oct 28 14:26:34 2020, MaxMem=  2684354560 cpu:               0.3 elap:               0.1
 (Enter /udrive/faculty/rpeverati/g16/g16/l703.exe)
 Integral derivatives from FoFJK, PRISM(SPDF).
 Compute integral first derivatives, UseDBF=F ICtDFT=           0.
 Calling FoFJK, ICntrl=      2127 FMM=F ISym2X=1 I1Cent= 0 IOpClX= 1 NMat=1 NMatS=1 NMatT=0.
 FoFJK:  IHMeth= 8 ICntrl=    2127 DoSepK=F KAlg= 0 I1Cent=           0 FoldK=F
 IRaf=         0 NMat=       1 IRICut=       1 DoRegI=T DoRafI=F ISym2E= 1 IDoP0=3 IntGTp=3.
 FoFCou: FMM=F IPFlag=           0 FMFlag=      100000 FMFlg1=         800
         NFxFlg=           0 DoJE=F BraDBF=F KetDBF=F FulRan=T
         wScrn=  0.000000 ICntrl=      2127 IOpCl=  1 I1Cent=           0 NGrid=           0
         NMat0=    1 NMatS0=      1 NMatT0=    0 NMatD0=    1 NMtDS0=    0 NMtDT0=    0
 Petite list used in FoFCou.
 Leave Link  703 at Wed Oct 28 14:26:34 2020, MaxMem=  2684354560 cpu:               0.4 elap:               0.1
 (Enter /udrive/faculty/rpeverati/g16/g16/l716.exe)
 Dipole        =-2.08967020D-05 1.18241836D-01-4.44169615D-16
 ***** Axes restored to original set *****
 -------------------------------------------------------------------
 Center     Atomic                   Forces (Hartrees/Bohr)
 Number     Number              X              Y              Z
 -------------------------------------------------------------------
      1        6          -0.000001463   -0.012838308   -0.000000000
      2        1           0.011486857    0.002522168    0.000000000
      3        1          -0.005742223    0.002522052    0.009945893
      4        1          -0.005742223    0.002522052   -0.009945893
      5        1           0.000017145   -0.038162569    0.000000000
      6        1          -0.000018094    0.043434605   -0.000000000
 -------------------------------------------------------------------
 Cartesian Forces:  Max     0.043434605 RMS     0.014762166
 Leave Link  716 at Wed Oct 28 14:26:34 2020, MaxMem=  2684354560 cpu:               0.4 elap:               0.1
 (Enter /udrive/faculty/rpeverati/g16/g16/l103.exe)

 GradGradGradGradGradGradGradGradGradGradGradGradGradGradGradGradGradGrad
 Berny optimization.
 Optmz: redundant internal coordinate code flag= 1
 FormGI is forming the generalized inverse of G from B-inverse, IUseBI=4.
 Internal  Forces:  Max     0.043434608 RMS     0.011705148
 Numerically estimating second derivatives.
 Iteration  1 RMS(Cart)=  0.00140028 RMS(Int)=  0.00000000
 Iteration  2 RMS(Cart)=  0.00000000 RMS(Int)=  0.00000000
 Largest change from initial coordinates is atom    5       0.002 Angstoms.
 GradGradGradGradGradGradGradGradGradGradGradGradGradGradGradGradGradGrad

 Leave Link  103 at Wed Oct 28 14:26:34 2020, MaxMem=  2684354560 cpu:               0.3 elap:               0.1
 (Enter /udrive/faculty/rpeverati/g16/g16/l202.exe)
                          Input orientation:                          
 ---------------------------------------------------------------------
 Center     Atomic      Atomic             Coordinates (Angstroms)
 Number     Number       Type             X           Y           Z
 ---------------------------------------------------------------------
      1          6           0       -0.000000    0.263931    0.000000
      2          1           0        1.053428    0.515786   -0.000000
      3          1           0       -0.526627    0.516143    0.912249
      4          1           0       -0.526627    0.516143   -0.912249
      5          1           0       -0.000260   -1.116007    0.000000
      6          1           0        0.000085   -2.020063   -0.000000
 ---------------------------------------------------------------------
                    Distance matrix (angstroms):
                    1          2          3          4          5
     1  C    0.000000
     2  H    1.083116   0.000000
     3  H    1.083118   1.824492   0.000000
     4  H    1.083118   1.824492   1.824497   0.000000
     5  H    1.379938   1.942422   1.942466   1.942466   0.000000
     6  H    2.283994   2.745917   2.746264   2.746264   0.904057
                    6
     6  H    0.000000
 Stoichiometry    CH5(2)
 Framework group  CS[SG(CH3),X(H2)]
 Deg. of freedom     8
 Full point group                 CS      NOp   2
 RotChk:  IX=0 Diff= 3.18D-07
 Largest Abelian subgroup         CS      NOp   2
 Largest concise Abelian subgroup CS      NOp   2
                         Standard orientation:                         
 ---------------------------------------------------------------------
 Center     Atomic      Atomic             Coordinates (Angstroms)
 Number     Number       Type             X           Y           Z
 ---------------------------------------------------------------------
      1          6           0        0.000000    0.264332   -0.000000
      2          1           0        1.053428    0.516187   -0.000000
      3          1           0       -0.526627    0.516544    0.912249
      4          1           0       -0.526627    0.516544   -0.912249
      5          1           0       -0.000259   -1.115605    0.000000
      6          1           0        0.000086   -2.019662    0.000000
 ---------------------------------------------------------------------
 Rotational constants (GHZ):         150.6424277          59.1629307          59.1628426
 Leave Link  202 at Wed Oct 28 14:26:35 2020, MaxMem=  2684354560 cpu:               0.2 elap:               0.1
 (Enter /udrive/faculty/rpeverati/g16/g16/l301.exe)
 Standard basis: VSTO-6G (5D, 7F)
 Ernie: Thresh=  0.10000D-02 Tol=  0.10000D-05 Strict=F.
  NNHCO=     0 NNPyr=     0 NCTC=     0               EPep=         0.000000000
    EC=         8.380219928  ECS=         0.528929182   EG=         0.066238324
   EHC=         0.000000000  EAt=        -6.533953666  AtH=         0.687479660
 EPDDG=         0.000000000  ECC=         8.975387434 EAtT=         7.221433326
 There are     7 symmetry adapted cartesian basis functions of A'  symmetry.
 There are     2 symmetry adapted cartesian basis functions of A"  symmetry.
 There are     7 symmetry adapted basis functions of A'  symmetry.
 There are     2 symmetry adapted basis functions of A"  symmetry.
     9 basis functions,    54 primitive gaussians,     9 cartesian basis functions
     5 alpha electrons        4 beta electrons
       nuclear repulsion energy        16.1968207603 Hartrees.
 IExCor=    0 DFT=F Ex=HF Corr=None ExCW=0 ScaHFX=  1.000000
 ScaDFX=  1.000000  1.000000  1.000000  1.000000 ScalE2=  1.000000  1.000000
 IRadAn=      5 IRanWt=     -1 IRanGd=            0 ICorTp=0 IEmpDi=  4
 Integral buffers will be    131072 words long.
 Regular integral format.
 Two-electron integral symmetry is turned off.
 Leave Link  301 at Wed Oct 28 14:26:35 2020, MaxMem=  2684354560 cpu:               0.9 elap:               0.1
 (Enter /udrive/faculty/rpeverati/g16/g16/l302.exe)
 Do NDO integrals.
 NPDir=0 NMtPBC=     1 NCelOv=     1 NCel=       1 NClECP=     1 NCelD=      1
         NCelK=      1 NCelE2=     1 NClLst=     1 CellRange=     0.0.
 One-electron integrals computed using PRISM.
 NBasis=     9 RedAO= T EigKep=  1.00D+00  NBF=     7     2
 NBsUse=     9 1.00D-06 EigRej= -1.00D+00 NBFU=     7     2
 Leave Link  302 at Wed Oct 28 14:26:35 2020, MaxMem=  2684354560 cpu:               0.9 elap:               0.1
 (Enter /udrive/faculty/rpeverati/g16/g16/l303.exe)
 DipDrv:  MaxL=1.
 Leave Link  303 at Wed Oct 28 14:26:35 2020, MaxMem=  2684354560 cpu:               0.4 elap:               0.1
 (Enter /udrive/faculty/rpeverati/g16/g16/l401.exe)
 Initial guess from the checkpoint file:  "MN_80_RKT03_BH76_AM1_SE.chk"
 SCF N**3 symmetry information disabled.
 B after Tr=    -0.000000    0.000000    0.000000
         Rot=    1.000000    0.000000    0.000000    0.000000 Ang=   0.00 deg.
 Guess basis will be translated and rotated to current coordinates.
 JPrj=0 DoOrth=T DoCkMO=T.
 Initial guess orbital symmetries:
 Alpha Orbitals:
       Occupied  (A') (A') (A") (A') (A')
       Virtual   (A') (A") (A') (A')
 Beta  Orbitals:
       Occupied  (A') (A") (A') (A')
       Virtual   (A') (A') (A') (A") (A')
 The electronic state of the initial guess is 2-A'.
 Initial guess <Sx>= 0.0000 <Sy>= 0.0000 <Sz>= 0.5000 <S**2>= 0.7861 S= 0.5179
 Leave Link  401 at Wed Oct 28 14:26:35 2020, MaxMem=  2684354560 cpu:               1.1 elap:               0.1
 (Enter /udrive/faculty/rpeverati/g16/g16/l502.exe)
 Keep J ints in memory in canonical form, NReq=859278.
 FoFCou: FMM=F IPFlag=           0 FMFlag=           0 FMFlg1=           0
         NFxFlg=           0 DoJE=F BraDBF=F KetDBF=F FulRan=T
         wScrn=  0.000000 ICntrl=       600 IOpCl=  2 I1Cent=           0 NGrid=           0
         NMat0=    1 NMatS0=     15 NMatT0=    0 NMatD0=    1 NMtDS0=    0 NMtDT0=    0
 Symmetry not used in FoFCou.
 Two-electron integral symmetry not used.
 UHF open shell SCF:
 Using DIIS extrapolation, IDIIS=  1040.
 Overlap will be assumed to be unity.
 NGot=  2684354560 LenX=  2684293979 LenY=  2684293097
 Requested convergence on RMS density matrix=1.00D-08 within 120 cycles.
 Requested convergence on MAX density matrix=1.00D-06.
 Requested convergence on             energy=1.00D-06.
 No special actions if energy rises.

 Cycle   1  Pass 1  IDiag  1:
 E= 0.674210002460214E-01
 DIIS: error= 1.25D-04 at cycle   1 NSaved=   1.
 NSaved= 1 IEnMin= 1 EnMin= 0.674210002460214E-01 IErMin= 1 ErrMin= 1.25D-04
 ErrMax= 1.25D-04  0.00D+00 EMaxC= 1.00D-01 BMatC= 7.24D-07 BMatP= 7.24D-07
 IDIUse=3 WtCom= 9.99D-01 WtEn= 1.25D-03
 Coeff-Com:  0.100D+01
 Coeff-En:   0.100D+01
 Coeff:      0.100D+01
 RMSDP=1.02D-04 MaxDP=4.76D-04              OVMax= 0.00D+00

 Cycle   2  Pass 1  IDiag  3:
 E= 0.674201786068451E-01 Delta-E=       -0.000000821639 Rises=F Damp=F
 DIIS: error= 7.63D-05 at cycle   2 NSaved=   2.
 NSaved= 2 IEnMin= 2 EnMin= 0.674201786068451E-01 IErMin= 2 ErrMin= 7.63D-05
 ErrMax= 7.63D-05  0.00D+00 EMaxC= 1.00D-01 BMatC= 2.31D-07 BMatP= 7.24D-07
 IDIUse=1 WtCom= 1.00D+00 WtEn= 0.00D+00
 Coeff-Com: -0.608D+00 0.161D+01
 Coeff:     -0.608D+00 0.161D+01
 Gap=     0.476 Goal=   None    Shift=    0.000
 Gap=     0.523 Goal=   None    Shift=    0.000
 RMSDP=1.14D-04 MaxDP=4.92D-04 DE=-8.22D-07 OVMax= 7.08D-04

 Cycle   3  Pass 1  IDiag  3:
 E= 0.674196403349328E-01 Delta-E=       -0.000000538272 Rises=F Damp=F
 DIIS: error= 4.43D-05 at cycle   3 NSaved=   3.
 NSaved= 3 IEnMin= 3 EnMin= 0.674196403349328E-01 IErMin= 3 ErrMin= 4.43D-05
 ErrMax= 4.43D-05  0.00D+00 EMaxC= 1.00D-01 BMatC= 7.92D-08 BMatP= 2.31D-07
 IDIUse=1 WtCom= 1.00D+00 WtEn= 0.00D+00
 Coeff-Com:  0.731D+00-0.262D+01 0.289D+01
 Coeff:      0.731D+00-0.262D+01 0.289D+01
 Gap=     0.476 Goal=   None    Shift=    0.000
 Gap=     0.523 Goal=   None    Shift=    0.000
 RMSDP=1.56D-04 MaxDP=6.96D-04 DE=-5.38D-07 OVMax= 1.07D-03

 Cycle   4  Pass 1  IDiag  3:
 E= 0.674193089373070E-01 Delta-E=       -0.000000331398 Rises=F Damp=F
 DIIS: error= 1.77D-05 at cycle   4 NSaved=   4.
 NSaved= 4 IEnMin= 4 EnMin= 0.674193089373070E-01 IErMin= 4 ErrMin= 1.77D-05
 ErrMax= 1.77D-05  0.00D+00 EMaxC= 1.00D-01 BMatC= 7.89D-09 BMatP= 7.92D-08
 IDIUse=1 WtCom= 1.00D+00 WtEn= 0.00D+00
 Coeff-Com: -0.958D+00 0.350D+01-0.409D+01 0.254D+01
 Coeff:     -0.958D+00 0.350D+01-0.409D+01 0.254D+01
 Gap=     0.476 Goal=   None    Shift=    0.000
 Gap=     0.523 Goal=   None    Shift=    0.000
 RMSDP=4.72D-05 MaxDP=2.53D-04 DE=-3.31D-07 OVMax= 3.35D-04

 Cycle   5  Pass 1  IDiag  3:
 E= 0.674192839994809E-01 Delta-E=       -0.000000024938 Rises=F Damp=F
 DIIS: error= 2.07D-06 at cycle   5 NSaved=   5.
 NSaved= 5 IEnMin= 5 EnMin= 0.674192839994809E-01 IErMin= 5 ErrMin= 2.07D-06
 ErrMax= 2.07D-06  0.00D+00 EMaxC= 1.00D-01 BMatC= 1.60D-10 BMatP= 7.89D-09
 IDIUse=1 WtCom= 1.00D+00 WtEn= 0.00D+00
 Coeff-Com:  0.657D+00-0.240D+01 0.281D+01-0.181D+01 0.175D+01
 Coeff:      0.657D+00-0.240D+01 0.281D+01-0.181D+01 0.175D+01
 Gap=     0.476 Goal=   None    Shift=    0.000
 Gap=     0.523 Goal=   None    Shift=    0.000
 RMSDP=3.32D-06 MaxDP=1.66D-05 DE=-2.49D-08 OVMax= 1.57D-05

 Cycle   6  Pass 1  IDiag  3:
 E= 0.674192837312191E-01 Delta-E=       -0.000000000268 Rises=F Damp=F
 DIIS: error= 3.55D-07 at cycle   6 NSaved=   6.
 NSaved= 6 IEnMin= 6 EnMin= 0.674192837312191E-01 IErMin= 6 ErrMin= 3.55D-07
 ErrMax= 3.55D-07  0.00D+00 EMaxC= 1.00D-01 BMatC= 4.73D-12 BMatP= 1.60D-10
 IDIUse=1 WtCom= 1.00D+00 WtEn= 0.00D+00
 Coeff-Com: -0.270D+00 0.988D+00-0.116D+01 0.751D+00-0.804D+00 0.149D+01
 Coeff:     -0.270D+00 0.988D+00-0.116D+01 0.751D+00-0.804D+00 0.149D+01
 Gap=     0.476 Goal=   None    Shift=    0.000
 Gap=     0.523 Goal=   None    Shift=    0.000
 RMSDP=4.25D-07 MaxDP=1.62D-06 DE=-2.68D-10 OVMax= 1.83D-06

 Cycle   7  Pass 1  IDiag  3:
 E= 0.674192837249876E-01 Delta-E=       -0.000000000006 Rises=F Damp=F
 DIIS: error= 6.61D-08 at cycle   7 NSaved=   7.
 NSaved= 7 IEnMin= 7 EnMin= 0.674192837249876E-01 IErMin= 7 ErrMin= 6.61D-08
 ErrMax= 6.61D-08  0.00D+00 EMaxC= 1.00D-01 BMatC= 2.70D-13 BMatP= 4.73D-12
 IDIUse=1 WtCom= 1.00D+00 WtEn= 0.00D+00
 Coeff-Com:  0.239D+00-0.876D+00 0.103D+01-0.667D+00 0.711D+00-0.140D+01
 Coeff-Com:  0.197D+01
 Coeff:      0.239D+00-0.876D+00 0.103D+01-0.667D+00 0.711D+00-0.140D+01
 Coeff:      0.197D+01
 Gap=     0.476 Goal=   None    Shift=    0.000
 Gap=     0.523 Goal=   None    Shift=    0.000
 RMSDP=1.36D-07 MaxDP=5.16D-07 DE=-6.23D-12 OVMax= 5.35D-07

 Cycle   8  Pass 1  IDiag  3:
 E= 0.674192837245329E-01 Delta-E=       -0.000000000000 Rises=F Damp=F
 DIIS: error= 2.67D-08 at cycle   8 NSaved=   8.
 NSaved= 8 IEnMin= 8 EnMin= 0.674192837245329E-01 IErMin= 8 ErrMin= 2.67D-08
 ErrMax= 2.67D-08  0.00D+00 EMaxC= 1.00D-01 BMatC= 2.73D-14 BMatP= 2.70D-13
 IDIUse=1 WtCom= 1.00D+00 WtEn= 0.00D+00
 Coeff-Com: -0.176D+00 0.644D+00-0.755D+00 0.491D+00-0.518D+00 0.105D+01
 Coeff-Com: -0.179D+01 0.205D+01
 Coeff:     -0.176D+00 0.644D+00-0.755D+00 0.491D+00-0.518D+00 0.105D+01
 Coeff:     -0.179D+01 0.205D+01
 Gap=     0.476 Goal=   None    Shift=    0.000
 Gap=     0.523 Goal=   None    Shift=    0.000
 RMSDP=6.10D-08 MaxDP=2.86D-07 DE=-4.55D-13 OVMax= 2.80D-07

 Cycle   9  Pass 1  IDiag  3:
 E= 0.674192837244618E-01 Delta-E=       -0.000000000000 Rises=F Damp=F
 DIIS: error= 1.00D-08 at cycle   9 NSaved=   9.
 NSaved= 9 IEnMin= 9 EnMin= 0.674192837244618E-01 IErMin= 9 ErrMin= 1.00D-08
 ErrMax= 1.00D-08  0.00D+00 EMaxC= 1.00D-01 BMatC= 2.25D-15 BMatP= 2.73D-14
 IDIUse=1 WtCom= 1.00D+00 WtEn= 0.00D+00
 Coeff-Com:  0.950D-02-0.348D-01 0.409D-01-0.270D-01 0.258D-01-0.587D-01
 Coeff-Com:  0.142D+00-0.197D+00 0.110D+01
 Coeff:      0.950D-02-0.348D-01 0.409D-01-0.270D-01 0.258D-01-0.587D-01
 Coeff:      0.142D+00-0.197D+00 0.110D+01
 Gap=     0.476 Goal=   None    Shift=    0.000
 Gap=     0.523 Goal=   None    Shift=    0.000
 RMSDP=1.71D-08 MaxDP=7.65D-08 DE=-7.11D-14 OVMax= 1.01D-07

 Cycle  10  Pass 1  IDiag  3:
 E= 0.674192837244760E-01 Delta-E=        0.000000000000 Rises=F Damp=F
 DIIS: error= 9.81D-10 at cycle  10 NSaved=  10.
 NSaved=10 IEnMin= 9 EnMin= 0.674192837244618E-01 IErMin=10 ErrMin= 9.81D-10
 ErrMax= 9.81D-10  0.00D+00 EMaxC= 1.00D-01 BMatC= 5.42D-17 BMatP= 2.25D-15
 IDIUse=1 WtCom= 1.00D+00 WtEn= 0.00D+00
 Coeff-Com: -0.270D-02 0.988D-02-0.117D-01 0.783D-02-0.651D-02 0.175D-01
 Coeff-Com: -0.558D-01 0.684D-01-0.682D+00 0.165D+01
 Coeff:     -0.270D-02 0.988D-02-0.117D-01 0.783D-02-0.651D-02 0.175D-01
 Coeff:     -0.558D-01 0.684D-01-0.682D+00 0.165D+01
 Gap=     0.476 Goal=   None    Shift=    0.000
 Gap=     0.523 Goal=   None    Shift=    0.000
 RMSDP=2.09D-09 MaxDP=9.37D-09 DE= 1.42D-14 OVMax= 1.04D-08

 Cycle  11  Pass 2  IDiag  1:
 SCF Done:  E(UAM1) =  0.674192837245E-01 A.U. after   11 cycles
            NFock= 10  Conv=0.21D-08     -V/T= 1.0065
 <Sx>= 0.0000 <Sy>= 0.0000 <Sz>= 0.5000 <S**2>= 0.7861 S= 0.5179
 <L.S>= 0.000000000000E+00
 KE=-1.038594044964D+01 PE=-1.640853065206D+01 EE= 1.066506962508D+01
 Annihilation of the first spin contaminant:
 S**2 before annihilation     0.7861,   after     0.7503
 Leave Link  502 at Wed Oct 28 14:26:35 2020, MaxMem=  2684354560 cpu:               0.7 elap:               0.1
 (Enter /udrive/faculty/rpeverati/g16/g16/l508.exe)
 QCSCF skips out because SCF is already converged.
 Leave Link  508 at Wed Oct 28 14:26:35 2020, MaxMem=  2684354560 cpu:               0.1 elap:               0.0
 (Enter /udrive/faculty/rpeverati/g16/g16/l701.exe)
 ... and contract with generalized density number  0.
 Compute integral first derivatives.
 Leave Link  701 at Wed Oct 28 14:26:35 2020, MaxMem=  2684354560 cpu:               0.9 elap:               0.1
 (Enter /udrive/faculty/rpeverati/g16/g16/l702.exe)
 L702 exits ... SP integral derivatives will be done elsewhere.
 Leave Link  702 at Wed Oct 28 14:26:35 2020, MaxMem=  2684354560 cpu:               0.3 elap:               0.1
 (Enter /udrive/faculty/rpeverati/g16/g16/l703.exe)
 Integral derivatives from FoFJK, PRISM(SPDF).
 Compute integral first derivatives, UseDBF=F ICtDFT=           0.
 Calling FoFJK, ICntrl=      2127 FMM=F ISym2X=1 I1Cent= 0 IOpClX= 1 NMat=1 NMatS=1 NMatT=0.
 FoFJK:  IHMeth= 8 ICntrl=    2127 DoSepK=F KAlg= 0 I1Cent=           0 FoldK=F
 IRaf=         0 NMat=       1 IRICut=       1 DoRegI=T DoRafI=F ISym2E= 1 IDoP0=3 IntGTp=3.
 FoFCou: FMM=F IPFlag=           0 FMFlag=      100000 FMFlg1=         800
         NFxFlg=           0 DoJE=F BraDBF=F KetDBF=F FulRan=T
         wScrn=  0.000000 ICntrl=      2127 IOpCl=  1 I1Cent=           0 NGrid=           0
         NMat0=    1 NMatS0=      1 NMatT0=    0 NMatD0=    1 NMtDS0=    0 NMtDT0=    0
 Petite list used in FoFCou.
 Leave Link  703 at Wed Oct 28 14:26:36 2020, MaxMem=  2684354560 cpu:               0.4 elap:               0.1
 (Enter /udrive/faculty/rpeverati/g16/g16/l716.exe)
 Dipole        =-2.12390611D-05 1.18148050D-01-4.44052755D-16
 ***** Axes restored to original set *****
 -------------------------------------------------------------------
 Center     Atomic                   Forces (Hartrees/Bohr)
 Number     Number              X              Y              Z
 -------------------------------------------------------------------
      1        6          -0.000001519   -0.013103377   -0.000000000
      2        1           0.011511752    0.002631816   -0.000000000
      3        1          -0.005754632    0.002631687    0.009967426
      4        1          -0.005754632    0.002631687   -0.009967426
      5        1           0.000016924   -0.037662740   -0.000000000
      6        1          -0.000017893    0.042870926    0.000000000
 -------------------------------------------------------------------
 Cartesian Forces:  Max     0.042870926 RMS     0.014617962
 Leave Link  716 at Wed Oct 28 14:26:36 2020, MaxMem=  2684354560 cpu:               0.3 elap:               0.1
 (Enter /udrive/faculty/rpeverati/g16/g16/l103.exe)

 GradGradGradGradGradGradGradGradGradGradGradGradGradGradGradGradGradGrad
 Berny optimization.
 Optmz: redundant internal coordinate code flag= 1
 Red2BG:  D1=  3.14D-01 OD1=  3.25D-03 B2RMS=  0.00D+00 IAprox=0
 FormGI is forming the generalized inverse of G from B-inverse, IUseBI=4.
 Internal  Forces:  Max     0.042870930 RMS     0.011589222
 Numerically estimating second derivatives.
 Iteration  1 RMS(Cart)=  0.00110702 RMS(Int)=  0.00000000
 Iteration  2 RMS(Cart)=  0.00000000 RMS(Int)=  0.00000000
 Largest change from initial coordinates is atom    6       0.003 Angstoms.
 GradGradGradGradGradGradGradGradGradGradGradGradGradGradGradGradGradGrad

 Leave Link  103 at Wed Oct 28 14:26:36 2020, MaxMem=  2684354560 cpu:               0.3 elap:               0.1
 (Enter /udrive/faculty/rpeverati/g16/g16/l202.exe)
                          Input orientation:                          
 ---------------------------------------------------------------------
 Center     Atomic      Atomic             Coordinates (Angstroms)
 Number     Number       Type             X           Y           Z
 ---------------------------------------------------------------------
      1          6           0        0.000000    0.264372   -0.000000
      2          1           0        1.053428    0.516227    0.000000
      3          1           0       -0.526627    0.516584    0.912249
      4          1           0       -0.526627    0.516584   -0.912249
      5          1           0       -0.000260   -1.118211   -0.000000
      6          1           0        0.000085   -2.019622    0.000000
 ---------------------------------------------------------------------
                    Distance matrix (angstroms):
                    1          2          3          4          5
     1  C    0.000000
     2  H    1.083116   0.000000
     3  H    1.083118   1.824492   0.000000
     4  H    1.083118   1.824492   1.824497   0.000000
     5  H    1.382583   1.944646   1.944689   1.944689   0.000000
     6  H    2.283994   2.745918   2.746264   2.746264   0.901411
                    6
     6  H    0.000000
 Stoichiometry    CH5(2)
 Framework group  CS[SG(CH3),X(H2)]
 Deg. of freedom     8
 Full point group                 CS      NOp   2
 RotChk:  IX=0 Diff= 5.12D-07
 Largest Abelian subgroup         CS      NOp   2
 Largest concise Abelian subgroup CS      NOp   2
                         Standard orientation:                         
 ---------------------------------------------------------------------
 Center     Atomic      Atomic             Coordinates (Angstroms)
 Number     Number       Type             X           Y           Z
 ---------------------------------------------------------------------
      1          6           0        0.000000    0.264573    0.000000
      2          1           0        1.053428    0.516428    0.000000
      3          1           0       -0.526627    0.516784    0.912249
      4          1           0       -0.526627    0.516784   -0.912249
      5          1           0       -0.000259   -1.118011   -0.000000
      6          1           0        0.000086   -2.019422   -0.000000
 ---------------------------------------------------------------------
 Rotational constants (GHZ):         150.6424277          59.1182994          59.1182115
 Leave Link  202 at Wed Oct 28 14:26:36 2020, MaxMem=  2684354560 cpu:               0.2 elap:               0.1
 (Enter /udrive/faculty/rpeverati/g16/g16/l301.exe)
 Standard basis: VSTO-6G (5D, 7F)
 Ernie: Thresh=  0.10000D-02 Tol=  0.10000D-05 Strict=F.
  NNHCO=     0 NNPyr=     0 NCTC=     0               EPep=         0.000000000
    EC=         8.378702740  ECS=         0.528930044   EG=         0.066129876
   EHC=         0.000000000  EAt=        -6.533953666  AtH=         0.687479660
 EPDDG=         0.000000000  ECC=         8.973762661 EAtT=         7.221433326
 There are     7 symmetry adapted cartesian basis functions of A'  symmetry.
 There are     2 symmetry adapted cartesian basis functions of A"  symmetry.
 There are     7 symmetry adapted basis functions of A'  symmetry.
 There are     2 symmetry adapted basis functions of A"  symmetry.
     9 basis functions,    54 primitive gaussians,     9 cartesian basis functions
     5 alpha electrons        4 beta electrons
       nuclear repulsion energy        16.1951959871 Hartrees.
 IExCor=    0 DFT=F Ex=HF Corr=None ExCW=0 ScaHFX=  1.000000
 ScaDFX=  1.000000  1.000000  1.000000  1.000000 ScalE2=  1.000000  1.000000
 IRadAn=      5 IRanWt=     -1 IRanGd=            0 ICorTp=0 IEmpDi=  4
 Integral buffers will be    131072 words long.
 Regular integral format.
 Two-electron integral symmetry is turned off.
 Leave Link  301 at Wed Oct 28 14:26:36 2020, MaxMem=  2684354560 cpu:               0.9 elap:               0.1
 (Enter /udrive/faculty/rpeverati/g16/g16/l302.exe)
 Do NDO integrals.
 NPDir=0 NMtPBC=     1 NCelOv=     1 NCel=       1 NClECP=     1 NCelD=      1
         NCelK=      1 NCelE2=     1 NClLst=     1 CellRange=     0.0.
 One-electron integrals computed using PRISM.
 NBasis=     9 RedAO= T EigKep=  1.00D+00  NBF=     7     2
 NBsUse=     9 1.00D-06 EigRej= -1.00D+00 NBFU=     7     2
 Leave Link  302 at Wed Oct 28 14:26:36 2020, MaxMem=  2684354560 cpu:               0.9 elap:               0.1
 (Enter /udrive/faculty/rpeverati/g16/g16/l303.exe)
 DipDrv:  MaxL=1.
 Leave Link  303 at Wed Oct 28 14:26:36 2020, MaxMem=  2684354560 cpu:               0.4 elap:               0.1
 (Enter /udrive/faculty/rpeverati/g16/g16/l401.exe)
 Initial guess from the checkpoint file:  "MN_80_RKT03_BH76_AM1_SE.chk"
 SCF N**3 symmetry information disabled.
 B after Tr=    -0.000000   -0.000000   -0.000000
         Rot=    1.000000   -0.000000    0.000000   -0.000000 Ang=  -0.00 deg.
 Guess basis will be translated and rotated to current coordinates.
 JPrj=0 DoOrth=T DoCkMO=T.
 Initial guess orbital symmetries:
 Alpha Orbitals:
       Occupied  (A') (A') (A") (A') (A')
       Virtual   (A') (A") (A') (A')
 Beta  Orbitals:
       Occupied  (A') (A") (A') (A')
       Virtual   (A') (A') (A') (A") (A')
 The electronic state of the initial guess is 2-A'.
 Initial guess <Sx>= 0.0000 <Sy>= 0.0000 <Sz>= 0.5000 <S**2>= 0.7861 S= 0.5179
 Leave Link  401 at Wed Oct 28 14:26:36 2020, MaxMem=  2684354560 cpu:               1.1 elap:               0.1
 (Enter /udrive/faculty/rpeverati/g16/g16/l502.exe)
 Keep J ints in memory in canonical form, NReq=859278.
 FoFCou: FMM=F IPFlag=           0 FMFlag=           0 FMFlg1=           0
         NFxFlg=           0 DoJE=F BraDBF=F KetDBF=F FulRan=T
         wScrn=  0.000000 ICntrl=       600 IOpCl=  2 I1Cent=           0 NGrid=           0
         NMat0=    1 NMatS0=     15 NMatT0=    0 NMatD0=    1 NMtDS0=    0 NMtDT0=    0
 Symmetry not used in FoFCou.
 Two-electron integral symmetry not used.
 UHF open shell SCF:
 Using DIIS extrapolation, IDIIS=  1040.
 Overlap will be assumed to be unity.
 NGot=  2684354560 LenX=  2684293979 LenY=  2684293097
 Requested convergence on RMS density matrix=1.00D-08 within 120 cycles.
 Requested convergence on MAX density matrix=1.00D-06.
 Requested convergence on             energy=1.00D-06.
 No special actions if energy rises.

 Cycle   1  Pass 1  IDiag  1:
 E= 0.672342828253711E-01
 DIIS: error= 1.70D-04 at cycle   1 NSaved=   1.
 NSaved= 1 IEnMin= 1 EnMin= 0.672342828253711E-01 IErMin= 1 ErrMin= 1.70D-04
 ErrMax= 1.70D-04  0.00D+00 EMaxC= 1.00D-01 BMatC= 1.73D-06 BMatP= 1.73D-06
 IDIUse=3 WtCom= 9.98D-01 WtEn= 1.70D-03
 Coeff-Com:  0.100D+01
 Coeff-En:   0.100D+01
 Coeff:      0.100D+01
 RMSDP=1.70D-04 MaxDP=7.01D-04              OVMax= 0.00D+00

 Cycle   2  Pass 1  IDiag  3:
 E= 0.672320379604727E-01 Delta-E=       -0.000002244865 Rises=F Damp=F
 DIIS: error= 1.25D-04 at cycle   2 NSaved=   2.
 NSaved= 2 IEnMin= 2 EnMin= 0.672320379604727E-01 IErMin= 2 ErrMin= 1.25D-04
 ErrMax= 1.25D-04  0.00D+00 EMaxC= 1.00D-01 BMatC= 7.15D-07 BMatP= 1.73D-06
 IDIUse=3 WtCom= 9.99D-01 WtEn= 1.25D-03
 Coeff-Com: -0.786D+00 0.179D+01
 Coeff-En:   0.000D+00 0.100D+01
 Coeff:     -0.785D+00 0.178D+01
 Gap=     0.477 Goal=   None    Shift=    0.000
 Gap=     0.523 Goal=   None    Shift=    0.000
 RMSDP=2.28D-04 MaxDP=1.03D-03 DE=-2.24D-06 OVMax= 1.50D-03

 Cycle   3  Pass 1  IDiag  3:
 E= 0.672301264250059E-01 Delta-E=       -0.000001911535 Rises=F Damp=F
 DIIS: error= 8.87D-05 at cycle   3 NSaved=   3.
 NSaved= 3 IEnMin= 3 EnMin= 0.672301264250059E-01 IErMin= 3 ErrMin= 8.87D-05
 ErrMax= 8.87D-05  0.00D+00 EMaxC= 1.00D-01 BMatC= 2.48D-07 BMatP= 7.15D-07
 IDIUse=1 WtCom= 1.00D+00 WtEn= 0.00D+00
 Coeff-Com:  0.855D+00-0.289D+01 0.303D+01
 Coeff:      0.855D+00-0.289D+01 0.303D+01
 Gap=     0.477 Goal=   None    Shift=    0.000
 Gap=     0.523 Goal=   None    Shift=    0.000
 RMSDP=3.28D-04 MaxDP=1.57D-03 DE=-1.91D-06 OVMax= 2.26D-03

 Cycle   4  Pass 1  IDiag  3:
 E= 0.672290217694318E-01 Delta-E=       -0.000001104656 Rises=F Damp=F
 DIIS: error= 1.63D-05 at cycle   4 NSaved=   4.
 NSaved= 4 IEnMin= 4 EnMin= 0.672290217694318E-01 IErMin= 4 ErrMin= 1.63D-05
 ErrMax= 1.63D-05  0.00D+00 EMaxC= 1.00D-01 BMatC= 8.35D-09 BMatP= 2.48D-07
 IDIUse=1 WtCom= 1.00D+00 WtEn= 0.00D+00
 Coeff-Com: -0.959D+00 0.328D+01-0.354D+01 0.222D+01
 Coeff:     -0.959D+00 0.328D+01-0.354D+01 0.222D+01
 Gap=     0.477 Goal=   None    Shift=    0.000
 Gap=     0.523 Goal=   None    Shift=    0.000
 RMSDP=3.50D-05 MaxDP=1.94D-04 DE=-1.10D-06 OVMax= 2.35D-04

 Cycle   5  Pass 1  IDiag  3:
 E= 0.672290032576548E-01 Delta-E=       -0.000000018512 Rises=F Damp=F
 DIIS: error= 1.90D-06 at cycle   5 NSaved=   5.
 NSaved= 5 IEnMin= 5 EnMin= 0.672290032576548E-01 IErMin= 5 ErrMin= 1.90D-06
 ErrMax= 1.90D-06  0.00D+00 EMaxC= 1.00D-01 BMatC= 2.27D-10 BMatP= 8.35D-09
 IDIUse=1 WtCom= 1.00D+00 WtEn= 0.00D+00
 Coeff-Com:  0.547D+00-0.187D+01 0.202D+01-0.133D+01 0.163D+01
 Coeff:      0.547D+00-0.187D+01 0.202D+01-0.133D+01 0.163D+01
 Gap=     0.477 Goal=   None    Shift=    0.000
 Gap=     0.523 Goal=   None    Shift=    0.000
 RMSDP=3.27D-06 MaxDP=1.21D-05 DE=-1.85D-08 OVMax= 1.22D-05

 Cycle   6  Pass 1  IDiag  3:
 E= 0.672290028766049E-01 Delta-E=       -0.000000000381 Rises=F Damp=F
 DIIS: error= 5.64D-07 at cycle   6 NSaved=   6.
 NSaved= 6 IEnMin= 6 EnMin= 0.672290028766049E-01 IErMin= 6 ErrMin= 5.64D-07
 ErrMax= 5.64D-07  0.00D+00 EMaxC= 1.00D-01 BMatC= 2.35D-11 BMatP= 2.27D-10
 IDIUse=1 WtCom= 1.00D+00 WtEn= 0.00D+00
 Coeff-Com: -0.363D+00 0.124D+01-0.134D+01 0.875D+00-0.129D+01 0.188D+01
 Coeff:     -0.363D+00 0.124D+01-0.134D+01 0.875D+00-0.129D+01 0.188D+01
 Gap=     0.477 Goal=   None    Shift=    0.000
 Gap=     0.523 Goal=   None    Shift=    0.000
 RMSDP=1.30D-06 MaxDP=4.94D-06 DE=-3.81D-10 OVMax= 4.95D-06

 Cycle   7  Pass 1  IDiag  3:
 E= 0.672290028357345E-01 Delta-E=       -0.000000000041 Rises=F Damp=F
 DIIS: error= 2.09D-07 at cycle   7 NSaved=   7.
 NSaved= 7 IEnMin= 7 EnMin= 0.672290028357345E-01 IErMin= 7 ErrMin= 2.09D-07
 ErrMax= 2.09D-07  0.00D+00 EMaxC= 1.00D-01 BMatC= 1.67D-12 BMatP= 2.35D-11
 IDIUse=1 WtCom= 1.00D+00 WtEn= 0.00D+00
 Coeff-Com:  0.373D+00-0.128D+01 0.138D+01-0.894D+00 0.139D+01-0.222D+01
 Coeff-Com:  0.224D+01
 Coeff:      0.373D+00-0.128D+01 0.138D+01-0.894D+00 0.139D+01-0.222D+01
 Coeff:      0.224D+01
 Gap=     0.477 Goal=   None    Shift=    0.000
 Gap=     0.523 Goal=   None    Shift=    0.000
 RMSDP=3.92D-07 MaxDP=2.05D-06 DE=-4.09D-11 OVMax= 1.89D-06

 Cycle   8  Pass 1  IDiag  3:
 E= 0.672290028329776E-01 Delta-E=       -0.000000000003 Rises=F Damp=F
 DIIS: error= 6.64D-08 at cycle   8 NSaved=   8.
 NSaved= 8 IEnMin= 8 EnMin= 0.672290028329776E-01 IErMin= 8 ErrMin= 6.64D-08
 ErrMax= 6.64D-08  0.00D+00 EMaxC= 1.00D-01 BMatC= 1.35D-13 BMatP= 1.67D-12
 IDIUse=1 WtCom= 1.00D+00 WtEn= 0.00D+00
 Coeff-Com: -0.533D-01 0.183D+00-0.197D+00 0.124D+00-0.212D+00 0.345D+00
 Coeff-Com: -0.307D+00 0.112D+01
 Coeff:     -0.533D-01 0.183D+00-0.197D+00 0.124D+00-0.212D+00 0.345D+00
 Coeff:     -0.307D+00 0.112D+01
 Gap=     0.477 Goal=   None    Shift=    0.000
 Gap=     0.523 Goal=   None    Shift=    0.000
 RMSDP=1.17D-07 MaxDP=5.10D-07 DE=-2.76D-12 OVMax= 5.52D-07

 Cycle   9  Pass 1  IDiag  3:
 E= 0.672290028327573E-01 Delta-E=       -0.000000000000 Rises=F Damp=F
 DIIS: error= 1.52D-08 at cycle   9 NSaved=   9.
 NSaved= 9 IEnMin= 9 EnMin= 0.672290028327573E-01 IErMin= 9 ErrMin= 1.52D-08
 ErrMax= 1.52D-08  0.00D+00 EMaxC= 1.00D-01 BMatC= 6.71D-15 BMatP= 1.35D-13
 IDIUse=1 WtCom= 1.00D+00 WtEn= 0.00D+00
 Coeff-Com:  0.102D-01-0.350D-01 0.375D-01-0.221D-01 0.460D-01-0.801D-01
 Coeff-Com:  0.122D-01-0.531D+00 0.156D+01
 Coeff:      0.102D-01-0.350D-01 0.375D-01-0.221D-01 0.460D-01-0.801D-01
 Coeff:      0.122D-01-0.531D+00 0.156D+01
 Gap=     0.477 Goal=   None    Shift=    0.000
 Gap=     0.523 Goal=   None    Shift=    0.000
 RMSDP=2.73D-08 MaxDP=1.35D-07 DE=-2.20D-13 OVMax= 1.40D-07

 Cycle  10  Pass 1  IDiag  3:
 E= 0.672290028327502E-01 Delta-E=       -0.000000000000 Rises=F Damp=F
 DIIS: error= 2.54D-09 at cycle  10 NSaved=  10.
 NSaved=10 IEnMin=10 EnMin= 0.672290028327502E-01 IErMin=10 ErrMin= 2.54D-09
 ErrMax= 2.54D-09  0.00D+00 EMaxC= 1.00D-01 BMatC= 2.44D-16 BMatP= 6.71D-15
 IDIUse=1 WtCom= 1.00D+00 WtEn= 0.00D+00
 Coeff-Com:  0.450D-03-0.150D-02 0.173D-02-0.214D-02-0.199D-02 0.671D-02
 Coeff-Com:  0.327D-01 0.200D+00-0.755D+00 0.152D+01
 Coeff:      0.450D-03-0.150D-02 0.173D-02-0.214D-02-0.199D-02 0.671D-02
 Coeff:      0.327D-01 0.200D+00-0.755D+00 0.152D+01
 Gap=     0.477 Goal=   None    Shift=    0.000
 Gap=     0.523 Goal=   None    Shift=    0.000
 RMSDP=3.84D-09 MaxDP=2.00D-08 DE=-7.11D-15 OVMax= 1.92D-08

 Cycle  11  Pass 2  IDiag  1:
 SCF Done:  E(UAM1) =  0.672290028328E-01 A.U. after   11 cycles
            NFock= 10  Conv=0.38D-08     -V/T= 1.0065
 <Sx>= 0.0000 <Sy>= 0.0000 <Sz>= 0.5000 <S**2>= 0.7858 S= 0.5177
 <L.S>= 0.000000000000E+00
 KE=-1.038617857512D+01 PE=-1.640592257169D+01 EE= 1.066413416250D+01
 Annihilation of the first spin contaminant:
 S**2 before annihilation     0.7858,   after     0.7503
 Leave Link  502 at Wed Oct 28 14:26:37 2020, MaxMem=  2684354560 cpu:               0.7 elap:               0.1
 (Enter /udrive/faculty/rpeverati/g16/g16/l508.exe)
 QCSCF skips out because SCF is already converged.
 Leave Link  508 at Wed Oct 28 14:26:37 2020, MaxMem=  2684354560 cpu:               0.1 elap:               0.0
 (Enter /udrive/faculty/rpeverati/g16/g16/l701.exe)
 ... and contract with generalized density number  0.
 Compute integral first derivatives.
 Leave Link  701 at Wed Oct 28 14:26:37 2020, MaxMem=  2684354560 cpu:               0.9 elap:               0.1
 (Enter /udrive/faculty/rpeverati/g16/g16/l702.exe)
 L702 exits ... SP integral derivatives will be done elsewhere.
 Leave Link  702 at Wed Oct 28 14:26:37 2020, MaxMem=  2684354560 cpu:               0.3 elap:               0.1
 (Enter /udrive/faculty/rpeverati/g16/g16/l703.exe)
 Integral derivatives from FoFJK, PRISM(SPDF).
 Compute integral first derivatives, UseDBF=F ICtDFT=           0.
 Calling FoFJK, ICntrl=      2127 FMM=F ISym2X=1 I1Cent= 0 IOpClX= 1 NMat=1 NMatS=1 NMatT=0.
 FoFJK:  IHMeth= 8 ICntrl=    2127 DoSepK=F KAlg= 0 I1Cent=           0 FoldK=F
 IRaf=         0 NMat=       1 IRICut=       1 DoRegI=T DoRafI=F ISym2E= 1 IDoP0=3 IntGTp=3.
 FoFCou: FMM=F IPFlag=           0 FMFlag=      100000 FMFlg1=         800
         NFxFlg=           0 DoJE=F BraDBF=F KetDBF=F FulRan=T
         wScrn=  0.000000 ICntrl=      2127 IOpCl=  1 I1Cent=           0 NGrid=           0
         NMat0=    1 NMatS0=      1 NMatT0=    0 NMatD0=    1 NMtDS0=    0 NMtDT0=    0
 Petite list used in FoFCou.
 Leave Link  703 at Wed Oct 28 14:26:37 2020, MaxMem=  2684354560 cpu:               0.4 elap:               0.1
 (Enter /udrive/faculty/rpeverati/g16/g16/l716.exe)
 Dipole        =-2.07803988D-05 1.17382977D-01-1.55433274D-15
 ***** Axes restored to original set *****
 -------------------------------------------------------------------
 Center     Atomic                   Forces (Hartrees/Bohr)
 Number     Number              X              Y              Z
 -------------------------------------------------------------------
      1        6          -0.000001353   -0.012201503    0.000000000
      2        1           0.011486770    0.002497039   -0.000000000
      3        1          -0.005742189    0.002496916    0.009945823
      4        1          -0.005742189    0.002496916   -0.009945823
      5        1           0.000016986   -0.038445941    0.000000000
      6        1          -0.000018026    0.043156573   -0.000000000
 -------------------------------------------------------------------
 Cartesian Forces:  Max     0.043156573 RMS     0.014726944
 Leave Link  716 at Wed Oct 28 14:26:37 2020, MaxMem=  2684354560 cpu:               0.3 elap:               0.1
 (Enter /udrive/faculty/rpeverati/g16/g16/l103.exe)

 GradGradGradGradGradGradGradGradGradGradGradGradGradGradGradGradGradGrad
 Berny optimization.
 Optmz: redundant internal coordinate code flag= 1
 Red2BG:  D1=  3.14D-01 OD1=  1.03D-02 B2RMS=  0.00D+00 IAprox=0
 FormGI is forming the generalized inverse of G from B-inverse, IUseBI=4.
 Internal  Forces:  Max     0.043156577 RMS     0.011629361
 Search for a saddle point.
 Step number   1 out of a maximum of   50
 All quantities printed in internal units (Hartrees-Bohrs-Radians)
 Swapping is turned off.
 Second derivative matrix not updated -- first step.
 The second derivative matrix:
                          R1        R2        R3        R4        R5
           R1           0.35620
           R2           0.00000   0.35620
           R3           0.00000   0.00000   0.35620
           R4           0.00994   0.00994   0.00994   0.01277
           R5          -0.00119  -0.00119  -0.00119   0.11228   0.05561
           A1          -0.00000  -0.00000  -0.00000  -0.00349   0.00085
           A2          -0.00000  -0.00000  -0.00000  -0.00931   0.00225
           A3           0.00000   0.00000   0.00000   0.00910  -0.00220
           A4           0.00000   0.00000   0.00000  -0.00930   0.00225
           A5          -0.00000  -0.00000  -0.00000   0.00909  -0.00220
           A6          -0.00000  -0.00000  -0.00000   0.01137  -0.00275
           A7           0.00000   0.00000   0.00000   0.00001   0.00001
           A8          -0.00000   0.00000   0.00000  -0.00000  -0.00000
           D1           0.00000   0.00000   0.00000   0.02683  -0.00650
           D2          -0.00000  -0.00000  -0.00000   0.00367  -0.00089
           D3           0.00000   0.00000   0.00000   0.00183  -0.00044
           D4           0.00000   0.00000   0.00000  -0.00183   0.00044
                          A1        A2        A3        A4        A5
           A1           0.16000
           A2           0.00000   0.16000
           A3          -0.00000  -0.00000   0.16000
           A4           0.00000  -0.00000   0.00000   0.16000
           A5          -0.00000  -0.00000  -0.00000   0.00000   0.16000
           A6          -0.00000  -0.00000  -0.00000   0.00000  -0.00000
           A7          -0.00000  -0.00000   0.00000   0.00000   0.00000
           A8           0.00000   0.00000  -0.00000  -0.00000  -0.00000
           D1          -0.00000  -0.00000   0.00000   0.00000   0.00000
           D2           0.00000   0.00000  -0.00000   0.00000  -0.00000
           D3          -0.00000  -0.00000   0.00000  -0.00000   0.00000
           D4          -0.00000  -0.00000   0.00000  -0.00000   0.00000
                          A6        A7        A8        D1        D2
           A6           0.16000
           A7           0.00000   0.00230
           A8          -0.00000  -0.00000   0.00230
           D1           0.00000   0.00000  -0.00000   0.00326
           D2          -0.00000  -0.00000   0.00000  -0.00000   0.00230
           D3           0.00000   0.00000  -0.00000   0.00000   0.00000
           D4           0.00000   0.00000  -0.00000   0.00000   0.00000
                          D3        D4
           D3           0.00230
           D4           0.00000   0.00230
 ITU=  0
 Eigenvectors of the second derivative matrix:
                           1         2         3         4         5
     Eigenvalues --    -0.08757   0.00230   0.00230   0.05541   0.06798
   1         R1         0.01871   0.00000  -0.00000  -0.00233  -0.00000
   2         R2         0.01871   0.00000  -0.00000  -0.00233  -0.00000
   3         R3         0.01871   0.00000  -0.00000  -0.00233  -0.00000
   4         R4        -0.76232  -0.00005   0.00000   0.04887   0.00000
   5         R5         0.61073  -0.00006   0.00000  -0.18155  -0.00004
   6         A1        -0.03172  -0.00000   0.00000  -0.44649  -0.00007
   7         A2        -0.05083  -0.00000   0.00000   0.01905   0.42745
   8         A3         0.05847   0.00001  -0.00000   0.14229   0.15986
   9         A4        -0.05083  -0.00000   0.00000   0.01916  -0.42743
  10         A5         0.05845   0.00001  -0.00000   0.14235  -0.15979
  11         A6         0.06145   0.00001  -0.00000   0.26135   0.00003
  12         A7        -0.00000   1.00000  -0.00000  -0.00002  -0.00000
  13         A8        -0.00000  -0.00000  -1.00000   0.00000   0.00000
  14         D1         0.16666   0.00002  -0.00000   0.66522   0.00009
  15         D2         0.01330   0.00000  -0.00000  -0.37702  -0.00005
  16         D3         0.00665   0.00000  -0.00000  -0.18842  -0.54016
  17         D4        -0.00665  -0.00000   0.00000   0.18859  -0.54011
                           6         7         8         9        10
     Eigenvalues --     0.07616   0.15032   0.16000   0.16074   0.35620
   1         R1         0.00139   0.02573  -0.00000  -0.00781   0.00000
   2         R2         0.00139   0.02572  -0.00000  -0.00781   0.70711
   3         R3         0.00139   0.02572  -0.00000  -0.00781  -0.70711
   4         R4        -0.01427  -0.61888   0.00001   0.17392   0.00000
   5         R5         0.20753  -0.72238   0.00004   0.17020  -0.00000
   6         A1        -0.22784   0.07650  -0.00041   0.24008  -0.00000
   7         A2         0.33353   0.00497  -0.24736  -0.18254   0.00000
   8         A3        -0.28506  -0.14123   0.66285  -0.31010  -0.00000
   9         A4         0.33352   0.00519   0.24794  -0.18183  -0.00000
  10         A5        -0.28504  -0.14178  -0.66179  -0.31213   0.00000
  11         A6        -0.01726   0.16711  -0.00127   0.78843  -0.00000
  12         A7         0.00002  -0.00007   0.00000   0.00002   0.00000
  13         A8        -0.00000   0.00000  -0.00000  -0.00000   0.00000
  14         D1        -0.40125  -0.13309   0.00000   0.03559   0.00000
  15         D2        -0.48889  -0.03249   0.00000   0.00826  -0.00000
  16         D3        -0.24445  -0.01624   0.00000   0.00413  -0.00000
  17         D4         0.24444   0.01625  -0.00000  -0.00413  -0.00000
                          11        12
     Eigenvalues --     0.35620   0.35712
   1         R1        -0.81586   0.57731
   2         R2         0.40888   0.57597
   3         R3         0.40888   0.57597
   4         R4         0.00006   0.05495
   5         R5         0.00001   0.01349
   6         A1        -0.00000  -0.00039
   7         A2        -0.00000  -0.00177
   8         A3         0.00000   0.00146
   9         A4        -0.00000  -0.00177
  10         A5         0.00000   0.00146
  11         A6         0.00000   0.00233
  12         A7         0.00000   0.00000
  13         A8         0.00000  -0.00000
  14         D1         0.00000   0.00467
  15         D2         0.00000   0.00078
  16         D3         0.00000   0.00039
  17         D4        -0.00000  -0.00039
 RLam0= 5.18D-03.
 Iter=   1 RLamda= 0.00000000D+00 Sum=-1.18948287D-02.
 Iter=   2 RLamda=-1.18948287D-02 Sum=-1.09084541D-02.
 Iter=   3 RLamda=-1.09084541D-02 Sum=-1.09828376D-02.
 Iter=   4 RLamda=-1.09828376D-02 Sum=-1.09771866D-02.
 Iter=   5 RLamda=-1.09771866D-02 Sum=-1.09776157D-02.
 Iter=   6 RLamda=-1.09776157D-02 Sum=-1.09775831D-02.
 Iter=   7 RLamda=-1.09775831D-02 Sum=-1.09775856D-02.
 RFO step:  Lambda0=5.183961476D-03 Lambda=-1.09775831D-02.
 Linear search not attempted -- option 19 set.
 Maximum step size (   0.100) exceeded in Quadratic search.
    -- Step size scaled by   0.292
 Iteration  1 RMS(Cart)=  0.02374389 RMS(Int)=  0.00015882
 Iteration  2 RMS(Cart)=  0.00009891 RMS(Int)=  0.00011099
 Iteration  3 RMS(Cart)=  0.00000002 RMS(Int)=  0.00011099
 ITry= 1 IFail=0 DXMaxC= 6.32D-02 DCOld= 1.00D+10 DXMaxT= 1.00D-01 DXLimC= 3.00D+00 Rises=F
 ClnCor:  largest displacement from symmetrization is 6.52D-04 for atom     4.
 Variable       Old X    -DE/DX   Delta X   Delta X   Delta X     New X
                                 (Linear)    (Quad)   (Total)
    R1        2.04679   0.01176   0.00000   0.01185   0.01185   2.05864
    R2        2.04680   0.01176   0.00000   0.01185   0.01204   2.05883
    R3        2.04680   0.01176   0.00000   0.01185   0.01204   2.05883
    R4        2.61270  -0.00527   0.00000  -0.09226  -0.09226   2.52045
    R5        1.70842  -0.04343   0.00000  -0.01852  -0.01852   1.68990
    A1        2.00285   0.00004   0.00000  -0.00855  -0.00916   1.99369
    A2        2.00285   0.00010   0.00000  -0.00955  -0.00916   1.99369
    A3        1.80566  -0.00009   0.00000   0.01234   0.01238   1.81804
    A4        2.00286   0.00010   0.00000  -0.00956  -0.00991   1.99295
    A5        1.80572  -0.00010   0.00000   0.01232   0.01229   1.81800
    A6        1.80572  -0.00013   0.00000   0.01233   0.01229   1.81800
    A7        3.14102   0.00000   0.00000   0.00012   0.00012   3.14114
    A8        3.14159   0.00000   0.00000  -0.00000   0.00000   3.14159
    D1       -2.37519  -0.00029   0.00000   0.03544   0.03527  -2.33992
    D2        2.09438  -0.00004   0.00000   0.00074   0.00029   2.09468
    D3       -2.09438  -0.00002   0.00000   0.00037  -0.00029  -2.09468
    D4        2.09442   0.00002   0.00000  -0.00037  -0.00059   2.09383
         Item               Value     Threshold  Converged?
 Maximum Force            0.043435     0.000450     NO 
 RMS     Force            0.011705     0.000300     NO 
 Maximum Displacement     0.063206     0.001800     NO 
 RMS     Displacement     0.023725     0.001200     NO 
 Predicted change in Energy=-1.470254D-03
 Lowest energy point so far.  Saving SCF results.
 Largest change from initial coordinates is atom    6       0.034 Angstoms.
 GradGradGradGradGradGradGradGradGradGradGradGradGradGradGradGradGradGrad

 Leave Link  103 at Wed Oct 28 14:26:37 2020, MaxMem=  2684354560 cpu:               0.4 elap:               0.1
 (Enter /udrive/faculty/rpeverati/g16/g16/l202.exe)
                          Input orientation:                          
 ---------------------------------------------------------------------
 Center     Atomic      Atomic             Coordinates (Angstroms)
 Number     Number       Type             X           Y           Z
 ---------------------------------------------------------------------
      1          6           0        0.000075    0.239638   -0.000000
      2          1           0        1.056387    0.506033   -0.000000
      3          1           0       -0.528314    0.506340    0.914691
      4          1           0       -0.528314    0.506340   -0.914691
      5          1           0       -0.000193   -1.094125    0.000000
      6          1           0        0.000033   -1.988380    0.000000
 ---------------------------------------------------------------------
                    Distance matrix (angstroms):
                    1          2          3          4          5
     1  C    0.000000
     2  H    1.089386   0.000000
     3  H    1.089488   1.829737   0.000000
     4  H    1.089488   1.829737   1.829382   0.000000
     5  H    1.333763   1.917517   1.917566   1.917566   0.000000
     6  H    2.228018   2.708871   2.709140   2.709140   0.894255
                    6
     6  H    0.000000
 Stoichiometry    CH5(2)
 Framework group  CS[SG(CH3),X(H2)]
 Deg. of freedom     8
 Full point group                 CS      NOp   2
 RotChk:  IX=0 Diff= 3.96D-04
 Largest Abelian subgroup         CS      NOp   2
 Largest concise Abelian subgroup CS      NOp   2
                         Standard orientation:                         
 ---------------------------------------------------------------------
 Center     Atomic      Atomic             Coordinates (Angstroms)
 Number     Number       Type             X           Y           Z
 ---------------------------------------------------------------------
      1          6           0        0.000000    0.251089    0.000000
      2          1           0        1.056237    0.517782    0.000000
      3          1           0       -0.528464    0.517643    0.914691
      4          1           0       -0.528464    0.517643   -0.914691
      5          1           0        0.000106   -1.082674    0.000000
      6          1           0        0.000584   -1.976928    0.000000
 ---------------------------------------------------------------------
 Rotational constants (GHZ):         149.7996913          61.3151527          61.3086716
 Leave Link  202 at Wed Oct 28 14:26:37 2020, MaxMem=  2684354560 cpu:               0.2 elap:               0.1
 (Enter /udrive/faculty/rpeverati/g16/g16/l301.exe)
 Standard basis: VSTO-6G (5D, 7F)
 Ernie: Thresh=  0.10000D-02 Tol=  0.10000D-05 Strict=F.
  NNHCO=     0 NNPyr=     0 NCTC=     0               EPep=         0.000000000
    EC=         8.422421079  ECS=         0.531875058   EG=         0.067507232
   EHC=         0.000000000  EAt=        -6.533953666  AtH=         0.687479660
 EPDDG=         0.000000000  ECC=         9.021803368 EAtT=         7.221433326
 There are     7 symmetry adapted cartesian basis functions of A'  symmetry.
 There are     2 symmetry adapted cartesian basis functions of A"  symmetry.
 There are     7 symmetry adapted basis functions of A'  symmetry.
 There are     2 symmetry adapted basis functions of A"  symmetry.
     9 basis functions,    54 primitive gaussians,     9 cartesian basis functions
     5 alpha electrons        4 beta electrons
       nuclear repulsion energy        16.2432366946 Hartrees.
 IExCor=    0 DFT=F Ex=HF Corr=None ExCW=0 ScaHFX=  1.000000
 ScaDFX=  1.000000  1.000000  1.000000  1.000000 ScalE2=  1.000000  1.000000
 IRadAn=      5 IRanWt=     -1 IRanGd=            0 ICorTp=0 IEmpDi=  4
 Integral buffers will be    131072 words long.
 Regular integral format.
 Two-electron integral symmetry is turned off.
 Leave Link  301 at Wed Oct 28 14:26:37 2020, MaxMem=  2684354560 cpu:               0.9 elap:               0.1
 (Enter /udrive/faculty/rpeverati/g16/g16/l302.exe)
 Do NDO integrals.
 NPDir=0 NMtPBC=     1 NCelOv=     1 NCel=       1 NClECP=     1 NCelD=      1
         NCelK=      1 NCelE2=     1 NClLst=     1 CellRange=     0.0.
 One-electron integrals computed using PRISM.
 NBasis=     9 RedAO= T EigKep=  1.00D+00  NBF=     7     2
 NBsUse=     9 1.00D-06 EigRej= -1.00D+00 NBFU=     7     2
[...]
           A1           0.00325   0.00326  -0.00237  -0.00437   0.00041
           A2           0.00503  -0.00172   0.00564  -0.00947   0.00079
           A3           0.00949  -0.00763  -0.00851   0.00694  -0.00120
           A4          -0.00172   0.00505   0.00565  -0.00958   0.00047
           A5          -0.00761   0.00956  -0.00861   0.00714  -0.00015
           A6          -0.00855  -0.00867   0.00801   0.00984  -0.00035
           A7          -0.00001  -0.00005  -0.00005  -0.00227  -0.00220
           A8           0.00000   0.00002  -0.00002  -0.00000   0.00000
           D1          -0.00620  -0.00622  -0.00435   0.01780  -0.00133
           D2           0.00508   0.00506  -0.01301   0.00303  -0.00030
           D3          -0.00668   0.01173  -0.00650   0.00155  -0.00004
           D4          -0.01175   0.00666   0.00650  -0.00149   0.00027
                          A1        A2        A3        A4        A5
           A1           0.01717
           A2          -0.00677   0.03285
           A3          -0.01073  -0.01925   0.06591
           A4          -0.00680  -0.00021   0.01729   0.03301
           A5          -0.01070   0.01723  -0.02997  -0.01936   0.06623
           A6           0.01777  -0.02437  -0.02297  -0.02452  -0.02316
           A7          -0.00015  -0.00014   0.00116   0.00046  -0.00066
           A8          -0.00008   0.00011  -0.00001   0.00001   0.00027
           D1          -0.01260  -0.01271   0.01464  -0.01279   0.01471
           D2           0.00812  -0.00946   0.00843  -0.00940   0.00834
           D3           0.00408  -0.01399  -0.00223   0.00447   0.01058
           D4          -0.00403  -0.00453  -0.01066   0.01387   0.00224
                          A6        A7        A8        D1        D2
           A6           0.07791
           A7          -0.00066   0.00072
           A8          -0.00029  -0.00000  -0.00001
           D1           0.00955  -0.00002   0.00003   0.03223
           D2          -0.00578   0.00012   0.00005   0.00211   0.01975
           D3          -0.00283  -0.00012   0.00005   0.00107   0.00986
           D4           0.00295  -0.00024  -0.00000  -0.00103  -0.00989
                          D3        D4
           D3           0.01993
           D4           0.01007   0.01996
 ITU=  0
 Eigenvectors of the second derivative matrix:
                           1         2         3         4         5
     Eigenvalues --    -0.00974  -0.00001   0.00106   0.03908   0.04449
   1         R1         0.00421   0.00000   0.00036  -0.03370  -0.05369
   2         R2         0.00434   0.00011   0.00152  -0.03334   0.05386
   3         R3         0.00446  -0.00011   0.00151   0.04342  -0.00025
   4         R4        -0.07902  -0.00000  -0.02318   0.02543   0.00033
   5         R5         0.97737  -0.00000   0.18679   0.02439  -0.00316
   6         A1        -0.01430   0.00054  -0.00483   0.48922  -0.00206
   7         A2        -0.01586  -0.00054  -0.00477  -0.12415   0.39198
   8         A3         0.01921   0.00000   0.01651  -0.02117   0.15404
   9         A4        -0.01509   0.00000  -0.00190  -0.12652  -0.39005
  10         A5         0.01340  -0.00264  -0.00238  -0.02132  -0.15388
  11         A6         0.01359   0.00264  -0.00238  -0.20027   0.00147
  12         A7         0.18866  -0.00000  -0.98188   0.00018   0.00576
  13         A8         0.00001   0.99999   0.00000   0.00078  -0.00072
  14         D1         0.03788  -0.00032   0.01034  -0.44711   0.00150
  15         D2         0.00198  -0.00091   0.00254   0.56741  -0.00189
  16         D3        -0.00021  -0.00091  -0.00261   0.28112  -0.56705
  17         D4        -0.00219   0.00000  -0.00515  -0.28630  -0.56517
                           6         7         8         9        10
     Eigenvalues --     0.06756   0.11221   0.11300   0.31575   0.33897
   1         R1         0.00964   0.04508  -0.03155  -0.19665  -0.81350
   2         R2         0.00976  -0.03889  -0.03920  -0.19241   0.39941
   3         R3         0.06663  -0.00249   0.03453  -0.18095   0.41146
   4         R4        -0.09539  -0.00553   0.04214   0.93315  -0.00902
   5         R5        -0.05799   0.00529   0.01089   0.07289  -0.00020
   6         A1        -0.11397   0.02136  -0.24467  -0.01603  -0.00568
   7         A2        -0.33395   0.27025   0.28133  -0.04543  -0.00580
   8         A3         0.37301  -0.66056   0.21095   0.02817  -0.05918
   9         A4        -0.33361  -0.31632   0.23248  -0.04607   0.01532
  10         A5         0.37106   0.61667   0.32167   0.02991   0.02702
  11         A6         0.05412   0.06932  -0.80747   0.05172   0.02812
  12         A7         0.00664  -0.01266   0.00494  -0.00726  -0.00037
  13         A8         0.00132   0.00160   0.00329  -0.00003  -0.00000
  14         D1         0.57467   0.00339  -0.02814   0.07928   0.00090
  15         D2         0.30228  -0.00221   0.01864   0.01495  -0.02605
  16         D3         0.15121   0.02374   0.01055   0.00779   0.02555
  17         D4        -0.15107   0.02595  -0.00809  -0.00716   0.05161
                          11        12
     Eigenvalues --     0.33922   0.38925
   1         R1         0.00816  -0.54067
   2         R2        -0.70609  -0.54563
   3         R3         0.70136  -0.54636
   4         R4        -0.00728  -0.33281
   5         R5        -0.00050  -0.02091
   6         A1        -0.00971  -0.00215
   7         A2         0.01402  -0.00569
   8         A3        -0.00168   0.00422
   9         A4         0.00163  -0.00566
  10         A5        -0.05302   0.00363
  11         A6         0.04864   0.00593
  12         A7         0.00006   0.00221
  13         A8        -0.00018  -0.00000
  14         D1         0.00196   0.01003
  15         D2        -0.04405   0.00205
  16         D3        -0.04469   0.00089
  17         D4        -0.00064  -0.00116
 Eigenvalue     1 is  -9.74D-03 should be greater than     0.000000 Eigenvector:
                          R5        A7        R4        D1        A3
   1                    0.97737   0.18866  -0.07902   0.03788   0.01921
                          A2        A4        A1        A6        A5
   1                   -0.01586  -0.01509  -0.01430   0.01359   0.01340
 Eigenvalue     2 is  -7.40D-06 should be greater than     0.000000 Eigenvector:
                          A8        A6        A5        D2        D3
   1                    0.99999   0.00264  -0.00264  -0.00091  -0.00091
                          A2        A1        D1        R2        R3
   1                   -0.00054   0.00054  -0.00032   0.00011  -0.00011
 Angle between quadratic step and forces=  73.85 degrees.
 Linear search not attempted -- first point.
 Iteration  1 RMS(Cart)=  0.00018207 RMS(Int)=  0.00000004
 Iteration  2 RMS(Cart)=  0.00000004 RMS(Int)=  0.00000000
 ITry= 1 IFail=0 DXMaxC= 4.12D-04 DCOld= 1.00D+10 DXMaxT= 3.00D-01 DXLimC= 3.00D+00 Rises=F
 ClnCor:  largest displacement from symmetrization is 3.68D-07 for atom     4.
 Variable       Old X    -DE/DX   Delta X   Delta X   Delta X     New X
                                 (Linear)    (Quad)   (Total)
    R1        2.09868  -0.00001   0.00000  -0.00004  -0.00004   2.09864
    R2        2.09829   0.00001   0.00000   0.00002   0.00002   2.09831
    R3        2.09829   0.00001   0.00000   0.00002   0.00002   2.09831
    R4        2.13533   0.00001   0.00000   0.00004   0.00004   2.13537
    R5        2.42537  -0.00000   0.00000  -0.00003  -0.00003   2.42534
    A1        1.92029   0.00000   0.00000   0.00005   0.00005   1.92035
    A2        1.92029   0.00000   0.00000   0.00005   0.00005   1.92035
    A3        1.89771  -0.00000   0.00000   0.00001   0.00001   1.89773
    A4        1.91957  -0.00000   0.00000  -0.00009  -0.00009   1.91948
    A5        1.90282   0.00000   0.00000  -0.00001  -0.00001   1.90281
    A6        1.90282   0.00000   0.00000  -0.00001  -0.00001   1.90281
    A7        3.46886  -0.00000   0.00000  -0.00053  -0.00053   3.46833
    A8        3.14159  -0.00000   0.00000  -0.00000   0.00000   3.14159
    D1       -2.11804  -0.00000   0.00000  -0.00004  -0.00004  -2.11808
    D2        2.09367   0.00000   0.00000   0.00006   0.00006   2.09374
    D3       -2.09367  -0.00000   0.00000  -0.00006  -0.00006  -2.09374
    D4        2.09584  -0.00000   0.00000  -0.00013  -0.00013   2.09571
         Item               Value     Threshold  Converged?
 Maximum Force            0.000014     0.000450     YES
 RMS     Force            0.000005     0.000300     YES
 Maximum Displacement     0.000412     0.001800     YES
 RMS     Displacement     0.000182     0.001200     YES
 Predicted change in Energy=-1.797482D-09
 Optimization completed.
    -- Stationary point found.
                           ----------------------------
                           !   Optimized Parameters   !
                           ! (Angstroms and Degrees)  !
 --------------------------                            --------------------------
 ! Name  Definition              Value          Derivative Info.                !
 --------------------------------------------------------------------------------
 ! R1    R(1,2)                  1.1106         -DE/DX =    0.0                 !
 ! R2    R(1,3)                  1.1104         -DE/DX =    0.0                 !
 ! R3    R(1,4)                  1.1104         -DE/DX =    0.0                 !
 ! R4    R(1,5)                  1.13           -DE/DX =    0.0                 !
 ! R5    R(5,6)                  1.2835         -DE/DX =    0.0                 !
 ! A1    A(2,1,3)              110.0247         -DE/DX =    0.0                 !
 ! A2    A(2,1,4)              110.0247         -DE/DX =    0.0                 !
 ! A3    A(2,1,5)              108.731          -DE/DX =    0.0                 !
 ! A4    A(3,1,4)              109.9831         -DE/DX =    0.0                 !
 ! A5    A(3,1,5)              109.0236         -DE/DX =    0.0                 !
 ! A6    A(4,1,5)              109.0236         -DE/DX =    0.0                 !
 ! A7    L(1,5,6,2,-1)         198.7511         -DE/DX =    0.0                 !
 ! A8    L(1,5,6,2,-2)         180.0            -DE/DX =    0.0                 !
 ! D1    D(2,1,4,3)           -121.3549         -DE/DX =    0.0                 !
 ! D2    D(2,1,5,3)            119.9587         -DE/DX =    0.0                 !
 ! D3    D(2,1,5,4)           -119.9587         -DE/DX =    0.0                 !
 ! D4    D(3,1,5,4)            120.0825         -DE/DX =    0.0                 !
 --------------------------------------------------------------------------------
 GradGradGradGradGradGradGradGradGradGradGradGradGradGradGradGradGradGrad

 Leave Link  103 at Wed Oct 28 14:27:10 2020, MaxMem=  2684354560 cpu:               0.5 elap:               0.1
 (Enter /udrive/faculty/rpeverati/g16/g16/l9999.exe)

 ----------------------------------------------------------------------

 Electric dipole moment (input orientation):
 (Debye = 10**-18 statcoulomb cm , SI units = C m)
                  (au)            (Debye)         (10**-30 SI)
   Tot        0.111157D+00      0.282532D+00      0.942424D+00
   x          0.157974D-01      0.401530D-01      0.133936D+00
   y          0.110028D+00      0.279664D+00      0.932858D+00
   z          0.000000D+00      0.000000D+00      0.000000D+00

 Dipole polarizability, Alpha (input orientation).
 (esu units = cm**3 , SI units = C**2 m**2 J**-1)
 Alpha(0;0):
               (au)            (10**-24 esu)      (10**-40 SI)
   iso        0.108277D+02      0.160450D+01      0.178525D+01
   aniso      0.589455D+01      0.873482D+00      0.971880D+00
   xx         0.894264D+01      0.132516D+01      0.147444D+01
   yx         0.612177D+00      0.907153D-01      0.100934D+00
   yy         0.146929D+02      0.217727D+01      0.242254D+01
   zx         0.000000D+00      0.000000D+00      0.000000D+00
   zy         0.000000D+00      0.000000D+00      0.000000D+00
   zz         0.884757D+01      0.131107D+01      0.145877D+01

 First dipole hyperpolarizability, Beta (input orientation).
 ||, _|_  parallel and perpendicular components, (z) with respect to z axis,
 vector components x,y,z.  Values do not include the 1/n! factor of 1/2.
 (esu units = statvolt**-1 cm**4 , SI units = C**3 m**3 J**-2)
 Beta(0;0,0):
               (au)            (10**-30 esu)      (10**-50 SI)
   || (z)     0.000000D+00      0.000000D+00      0.000000D+00
   _|_(z)     0.000000D+00      0.000000D+00      0.000000D+00
   x         -0.206251D+02     -0.178185D+00     -0.661316D-01
   y         -0.188390D+03     -0.162754D+01     -0.604045D+00
   z          0.000000D+00      0.000000D+00      0.000000D+00
   ||         0.379031D+02      0.327453D+00      0.121531D+00
   xxx        0.142613D+02      0.123207D+00      0.457269D-01
   xxy        0.133175D+02      0.115052D+00      0.427006D-01
   yxy       -0.343451D+01     -0.296715D-01     -0.110123D-01
   yyy       -0.875954D+02     -0.756756D+00     -0.280862D+00
   xxz        0.000000D+00      0.000000D+00      0.000000D+00
   yxz        0.000000D+00      0.000000D+00      0.000000D+00
   yyz        0.000000D+00      0.000000D+00      0.000000D+00
   zxz       -0.177018D+02     -0.152930D+00     -0.567585D-01
   zyz        0.114814D+02      0.991903D-01      0.368135D-01
   zzz        0.000000D+00      0.000000D+00      0.000000D+00

 ----------------------------------------------------------------------

 Dipole orientation:
     6          0.00641129         -0.00092051          0.35126556
     1          1.75894844         -0.25254287          1.47809356
     1         -1.35115883         -1.54226994          0.78029293
     1         -0.86265700          1.86012087          0.78029293
     1          0.50856119         -0.07301721         -1.72292440
     1          0.29900241         -0.04292958         -4.13903852

 Electric dipole moment (dipole orientation):
 (Debye = 10**-18 statcoulomb cm , SI units = C m)
                  (au)            (Debye)         (10**-30 SI)
   Tot        0.111157D+00      0.282532D+00      0.942424D+00
   x          0.000000D+00      0.000000D+00      0.000000D+00
   y          0.000000D+00      0.000000D+00      0.000000D+00
   z          0.111157D+00      0.282532D+00      0.942424D+00

 Dipole polarizability, Alpha (dipole orientation).
 (esu units = cm**3 , SI units = C**2 m**2 J**-1)
 Alpha(0;0):
               (au)            (10**-24 esu)      (10**-40 SI)
   iso        0.108277D+02      0.160450D+01      0.178525D+01
   aniso      0.589455D+01      0.873482D+00      0.971880D+00
   xx         0.888576D+01      0.131673D+01      0.146506D+01
   yx        -0.548313D-02     -0.812517D-03     -0.904047D-03
   yy         0.884836D+01      0.131119D+01      0.145890D+01
   zx        -0.219231D+00     -0.324867D-01     -0.361463D-01
   zy         0.314764D-01      0.466431D-02      0.518975D-02
   zz         0.147490D+02      0.218558D+01      0.243178D+01

 First dipole hyperpolarizability, Beta (dipole orientation).
 ||, _|_  parallel and perpendicular components, (z) with respect to z axis,
 vector components x,y,z.  Values do not include the 1/n! factor of 1/2.
 (esu units = statvolt**-1 cm**4 , SI units = C**3 m**3 J**-2)
 Beta(0;0,0):
               (au)            (10**-30 esu)      (10**-50 SI)
   || (z)    -0.378817D+02     -0.327269D+00     -0.121462D+00
   _|_(z)    -0.126272D+02     -0.109090D+00     -0.404875D-01
   x          0.629337D+01      0.543698D-01      0.201788D-01
   y         -0.903578D+00     -0.780621D-02     -0.289720D-02
   z         -0.189409D+03     -0.163634D+01     -0.607312D+00
   ||         0.379031D+02      0.327453D+00      0.121531D+00
   xxx        0.691416D+01      0.597330D-01      0.221693D-01
   xxy       -0.643696D+01     -0.556103D-01     -0.206392D-01
   yxy       -0.176444D+02     -0.152434D+00     -0.565744D-01
   yyy        0.797757D+01      0.689200D-01      0.255790D-01
   xxz        0.134695D+02      0.116366D+00      0.431881D-01
   yxz       -0.663381D+00     -0.573109D-02     -0.212704D-02
   yyz        0.894433D+01      0.772721D-01      0.286788D-01
   zxz        0.128281D+02      0.110824D+00      0.411314D-01
   zyz       -0.184180D+01     -0.159117D-01     -0.590549D-02
   zzz       -0.855500D+02     -0.739086D+00     -0.274304D+00

 ----------------------------------------------------------------------

 Test job not archived.
 1\1\GINC-NODE18\Freq\UAM1\ZDO\C1H5(2)\RPEVERATI\28-Oct-2020\0\\#P Freq
  AM1 5D 7F Integral=UltraFineGrid SCF=(NoSymm,XQC,MaxCyc=120) IOp(1/33
 =1) Geom=Check Guess=Read\\TS search on BH76.\\0,2\C,0.0298099792,0.18
 35078489,0.\H,1.0419568968,0.6405941424,0.\H,-0.5270677515,0.492821743
 9,0.9094652573\H,-0.5270677515,0.4928217439,-0.9094652573\H,0.13954478
 1,-0.9411169446,0.\H,-0.153055171,-2.1907699993,0.\\Version=ES64L-G16R
 evA.03\State=2-A'\HF=0.0687039\S2=0.753217\S2-1=0.\S2A=0.750001\RMSD=1
 .336e-09\RMSF=8.484e-06\ZeroPoint=0.0435968\Thermal=0.0471816\Dipole=0
 .0157974,0.1100283,0.\DipoleDeriv=-0.1090226,-0.0259833,0.,0.0017567,-
 0.0689259,0.,0.,0.,-0.1055152,0.0197768,0.00675,0.,-0.0140252,0.009447
 7,0.,0.,0.,0.0369891,0.0312674,-0.001119,0.0088619,0.0019636,0.0187177
 ,-0.0065972,0.0094091,0.003317,0.0226409,0.0312674,-0.001119,-0.008861
 9,0.0019636,0.0187177,0.0065972,-0.0094091,-0.003317,0.0226409,0.05639
 97,-0.0040812,0.,-0.0166484,-0.1025805,0.,0.,0.,0.056416,-0.0296902,0.
 025557,0.,0.0249898,0.124624,0.,0.,0.,-0.0331713\Polar=8.9426429,0.612
 1769,14.6929222,0.,0.,8.8475711\HyperPolar=14.2612992,13.3174506,-3.43
 4506,-87.5953737,0.,0.,0.,-17.7018363,11.4813914,0.\PG=CS [SG(C1H3),X(
 H2)]\NImag=2\\0.50860721,0.00400904,0.46701039,0.,0.,0.50903945,-0.254
 48437,-0.09594888,0.,0.29854353,-0.09664800,-0.08389808,0.,0.11600698,
 0.09363411,0.,0.,-0.04197705,0.,0.,0.04204562,-0.10650389,0.03560848,0
 .10532316,-0.02164920,0.00370379,0.02488818,0.11991172,0.03584120,-0.0
 6058010,-0.05877213,-0.00642571,0.00599176,0.00743786,-0.04318774,0.06
 541423,0.10528745,-0.05843892,-0.21391065,0.00851446,0.00004121,-0.002
 03243,-0.12701325,0.07062961,0.24953984,-0.10650389,0.03560848,-0.1053
 2316,-0.02164920,0.00370379,-0.02488818,0.00822076,-0.00228140,0.00900
 585,0.11991172,0.03584120,-0.06058010,0.05877213,-0.00642571,0.0059917
 6,-0.00743786,-0.00228140,0.00555810,-0.00502386,-0.04318774,0.0654142
 3,-0.10528745,0.05843892,-0.21391065,-0.00851446,-0.00004121,-0.002032
 43,-0.00900585,0.00502386,-0.03152465,0.12701325,-0.07062961,0.2495398
 4,-0.04125433,0.02640445,0.,-0.00076892,-0.02686084,0.,0.00003480,0.01
 570399,0.00428477,0.00003480,0.01570399,-0.00428477,0.04141311,0.01858
 720,-0.23411969,0.,-0.00677043,-0.02312083,0.,0.00611594,-0.01717618,-
 0.00705915,0.00611594,-0.01717618,0.00705915,-0.03136578,0.26037483,0.
 ,0.,-0.03886059,0.,0.,0.00404821,0.00582791,-0.02408912,-0.00209863,-0
 .00582791,0.02408912,-0.00209863,0.,0.,0.03861781,0.00013915,-0.005681
 29,0.,0.00000824,0.00009426,0.,-0.00001420,0.00034974,-0.00007919,-0.0
 0001420,0.00034974,0.00007919,0.00054058,0.00731649,0.,-0.00065952,0.0
 0236941,-0.02783258,0.,-0.00043631,0.00140131,0.,0.00004094,0.00079221
 ,-0.00014890,0.00004094,0.00079221,0.00014890,0.00041414,0.03121813,0.
 ,-0.00242890,-0.00637127,0.,0.,-0.00038065,0.,0.,-0.00005192,-0.000020
 16,-0.00023006,0.00002657,0.00002016,0.00023006,0.00002657,0.,0.,0.000
 39189,0.,0.,-0.00001246\\-0.00002470,-0.00001565,0.,0.00000717,0.00000
 535,0.,0.00000873,-0.00000188,-0.00000133,0.00000873,-0.00000188,0.000
 00133,0.00000045,0.00001405,0.,-0.00000037,0.00000001,0.\\\@


 The most important thing in communication is to hear what isn't being said.
 -- Peter F. Drucker
 Job cpu time:       0 days  0 hours  0 minutes 20.5 seconds.
 Elapsed time:       0 days  0 hours  0 minutes  2.9 seconds.
 File lengths (MBytes):  RWF=      5 Int=      0 D2E=      0 Chk=      2 Scr=      1
 Normal termination of Gaussian 16 at Wed Oct 28 14:27:10 2020.
