 Entering Gaussian System, Link 0=g16
 Input=MN_88_RKT12_BH76_AM1_SE.in
 Output=MN_88_RKT12_BH76_AM1_SE.log
 Initial command:
 /udrive/faculty/rpeverati/g16/g16/l1.exe "/udrive/scratch-directories/gaussian09/rpeverati/Gau-33040.inp" -scrdir="/udrive/scratch-directories/gaussian09/rpeverati/"
 Entering Link 1 = /udrive/faculty/rpeverati/g16/g16/l1.exe PID=     33052.
  
 Copyright (c) 1988,1990,1992,1993,1995,1998,2003,2009,2016,
            Gaussian, Inc.  All Rights Reserved.
  
 This is part of the Gaussian(R) 16 program.  It is based on
 the Gaussian(R) 09 system (copyright 2009, Gaussian, Inc.),
 the Gaussian(R) 03 system (copyright 2003, Gaussian, Inc.),
 the Gaussian(R) 98 system (copyright 1998, Gaussian, Inc.),
 the Gaussian(R) 94 system (copyright 1995, Gaussian, Inc.),
 the Gaussian 92(TM) system (copyright 1992, Gaussian, Inc.),
 the Gaussian 90(TM) system (copyright 1990, Gaussian, Inc.),
 the Gaussian 88(TM) system (copyright 1988, Gaussian, Inc.),
 the Gaussian 86(TM) system (copyright 1986, Carnegie Mellon
 University), and the Gaussian 82(TM) system (copyright 1983,
 Carnegie Mellon University). Gaussian is a federally registered
 trademark of Gaussian, Inc.
  
 This software contains proprietary and confidential information,
 including trade secrets, belonging to Gaussian, Inc.
  
 This software is provided under written license and may be
 used, copied, transmitted, or stored only in accord with that
 written license.
  
 The following legend is applicable only to US Government
 contracts under FAR:
  
                    RESTRICTED RIGHTS LEGEND
  
 Use, reproduction and disclosure by the US Government is
 subject to restrictions as set forth in subparagraphs (a)
 and (c) of the Commercial Computer Software - Restricted
 Rights clause in FAR 52.227-19.
  
 Gaussian, Inc.
 340 Quinnipiac St., Bldg. 40, Wallingford CT 06492
  
  
 ---------------------------------------------------------------
 Warning -- This program may not be used in any manner that
 competes with the business of Gaussian, Inc. or will provide
 assistance to any competitor of Gaussian, Inc.  The licensee
 of this program is prohibited from giving any competitor of
 Gaussian, Inc. access to this program.  By using this program,
 the user acknowledges that Gaussian, Inc. is engaged in the
 business of creating and licensing software in the field of
 computational chemistry and represents and warrants to the
 licensee that it is not a competitor of Gaussian, Inc. and that
 it will not use this program in any manner prohibited above.
 ---------------------------------------------------------------
  

 Cite this work as:
 Gaussian 16, Revision A.03,
 M. J. Frisch, G. W. Trucks, H. B. Schlegel, G. E. Scuseria, 
 M. A. Robb, J. R. Cheeseman, G. Scalmani, V. Barone, 
 G. A. Petersson, H. Nakatsuji, X. Li, M. Caricato, A. V. Marenich, 
 J. Bloino, B. G. Janesko, R. Gomperts, B. Mennucci, H. P. Hratchian, 
 J. V. Ortiz, A. F. Izmaylov, J. L. Sonnenberg, D. Williams-Young, 
 F. Ding, F. Lipparini, F. Egidi, J. Goings, B. Peng, A. Petrone, 
 T. Henderson, D. Ranasinghe, V. G. Zakrzewski, J. Gao, N. Rega, 
 G. Zheng, W. Liang, M. Hada, M. Ehara, K. Toyota, R. Fukuda, 
 J. Hasegawa, M. Ishida, T. Nakajima, Y. Honda, O. Kitao, H. Nakai, 
 T. Vreven, K. Throssell, J. A. Montgomery, Jr., J. E. Peralta, 
 F. Ogliaro, M. J. Bearpark, J. J. Heyd, E. N. Brothers, K. N. Kudin, 
 V. N. Staroverov, T. A. Keith, R. Kobayashi, J. Normand, 
 K. Raghavachari, A. P. Rendell, J. C. Burant, S. S. Iyengar, 
 J. Tomasi, M. Cossi, J. M. Millam, M. Klene, C. Adamo, R. Cammi, 
 J. W. Ochterski, R. L. Martin, K. Morokuma, O. Farkas, 
 J. B. Foresman, and D. J. Fox, Gaussian, Inc., Wallingford CT, 2016.
 
 ******************************************
 Gaussian 16:  ES64L-G16RevA.03 25-Dec-2016
                21-Oct-2020 
 ******************************************
 %NoSave
 %nproc=12
 Will use up to   12 processors via shared memory.
 %mem=20GB
 %chk=MN_88_RKT12_BH76_AM1_SE
 ----------------------------------------------------------------------
 #P Opt(TS,MaxCyc=50,NoEigenTest,MaxStep=10,AddRedundant) AM1 5D 7F Int
 egral=UltraFineGrid SCF=(NoSymm,XQC,MaxCyc=120) IOp(1/33=1)
 ----------------------------------------------------------------------
 1/5=1,6=50,8=10,11=1,18=120,26=1,33=1,38=1/1,3;
 2/9=110,12=2,17=6,18=5,40=1/2;
 3/5=2,8=11,25=1,41=700000,71=1,75=-5/1,2,3;
 4/9=2,35=1/1;
 5/5=2,7=120,8=3,13=1,35=1,38=5/2,8;
 6/7=2,8=2,9=2,10=2,28=1/1;
 7//1,2,3,16;
 1/5=1,6=50,8=10,11=1,18=20,26=1,33=1/3(2);
 2/9=110/2;
 99//99;
 2/9=110/2;
 3/5=2,8=11,25=1,41=700000,71=1,75=-5,135=20/1,2,3;
 4/5=5,9=2,16=3,35=1/1;
 5/5=2,7=120,8=3,13=1,35=1,38=5/2,8;
 7//1,2,3,16;
 1/5=1,6=50,8=10,11=1,18=20,26=1,33=1/3(-5);
 2/9=110/2;
 6/7=2,8=2,9=2,10=2,19=2,28=1/1;
 99/9=1/99;
 Leave Link    1 at Wed Oct 21 14:17:55 2020, MaxMem=  2684354560 cpu:              11.8 elap:               1.2
 (Enter /udrive/faculty/rpeverati/g16/g16/l101.exe)
 ONIOM data not found on unit 2.
 ------------------
 TS search on BH76.
 ------------------
 TstMul:  ICh=     0
 TstMul:  Mul=     2
 TstMul:  ICh=     0
 TstMul:  Mul=     2
 Symbolic Z-matrix:
 Charge =  0 Multiplicity = 2
 P                     0.21743   0.00009  -0.11125 
 H                     0.24661   1.03467   0.85217 
 H                     0.26266  -1.02506   0.86162 
 H                    -1.26642  -0.01095  -0.15063 
 H                    -2.50429   0.00003   0.10558 
 
 RdStrC is calling ZToCFu for IStruc=1 NZ=     5.
 PrtBox:  NBox=     1 Levels=  1 BoxLen=    8.00 SMaxX=        5.23
          Shift=            4.732420            1.937080            0.284642
 Box      1 Number                   0 centers from      1 to      5:
 After GenITR:
 ITRead=  0  0  0  0  0
 MicOpt= -1 -1 -1 -1 -1
 Add virtual bond connecting atoms H5         and H4         Dist= 2.39D+00.
 The following ModRedundant input section has been read:
 
 ITRead=  0  0  0  0  0
 MicOpt= -1 -1 -1 -1 -1
 NAtoms=      5 NQM=        5 NQMF=       0 NMMI=      0 NMMIF=      0
                NMic=       0 NMicF=      0.
                    Isotopes and Nuclear Properties:
 (Nuclear quadrupole moments (NQMom) in fm**2, nuclear magnetic moments (NMagM)
  in nuclear magnetons)

  Atom         1           2           3           4           5
 IAtWgt=          31           1           1           1           1
 AtmWgt=  30.9737634   1.0078250   1.0078250   1.0078250   1.0078250
 NucSpn=           1           1           1           1           1
 AtZEff=   0.0000000   0.0000000   0.0000000   0.0000000   0.0000000
 NQMom=    0.0000000   0.0000000   0.0000000   0.0000000   0.0000000
 NMagM=    1.1316000   2.7928460   2.7928460   2.7928460   2.7928460
 AtZNuc=  15.0000000   1.0000000   1.0000000   1.0000000   1.0000000
 No MM parameters found.
 Leave Link  101 at Wed Oct 21 14:17:56 2020, MaxMem=  2684354560 cpu:               4.6 elap:               0.8
 (Enter /udrive/faculty/rpeverati/g16/g16/l103.exe)

 GradGradGradGradGradGradGradGradGradGradGradGradGradGradGradGradGradGrad
 Berny optimization.
 Optmz: redundant internal coordinate code flag= 1
 Initialization pass.
                           ----------------------------
                           !    Initial Parameters    !
                           ! (Angstroms and Degrees)  !
 --------------------------                            --------------------------
 ! Name  Definition              Value          Derivative Info.                !
 --------------------------------------------------------------------------------
 ! R1    R(1,2)                  1.414          estimate D2E/DX2                !
 ! R2    R(1,3)                  1.414          estimate D2E/DX2                !
 ! R3    R(1,4)                  1.4844         estimate D2E/DX2                !
 ! R4    R(4,5)                  1.2642         estimate D2E/DX2                !
 ! A1    A(2,1,3)               93.4982         estimate D2E/DX2                !
 ! A2    A(2,1,4)               92.5302         estimate D2E/DX2                !
 ! A3    A(3,1,4)               92.5698         estimate D2E/DX2                !
 ! A4    L(1,4,5,2,-1)         169.6976         estimate D2E/DX2                !
 ! A5    L(1,4,5,2,-2)         191.3441         estimate D2E/DX2                !
 ! D1    D(2,1,4,3)            -93.619          estimate D2E/DX2                !
 --------------------------------------------------------------------------------
 Maximum allowed force set to 1.00D+20.
 Trust Radius=1.00D-01 FncErr=1.00D-07 GrdErr=1.00D-07 EigMax=2.50D+02 EigMin=1.00D-04
 Number of steps in this run=     50 maximum allowed number of steps=    100.
 Search for a saddle point of order  1.
 GradGradGradGradGradGradGradGradGradGradGradGradGradGradGradGradGradGrad

 Leave Link  103 at Wed Oct 21 14:17:58 2020, MaxMem=  2684354560 cpu:               1.9 elap:               1.0
 (Enter /udrive/faculty/rpeverati/g16/g16/l202.exe)
                          Input orientation:                          
 ---------------------------------------------------------------------
 Center     Atomic      Atomic             Coordinates (Angstroms)
 Number     Number       Type             X           Y           Z
 ---------------------------------------------------------------------
      1         15           0        0.217429    0.000088   -0.111249
      2          1           0        0.246610    1.034668    0.852166
      3          1           0        0.262661   -1.025059    0.861622
      4          1           0       -1.266416   -0.010952   -0.150626
      5          1           0       -2.504289    0.000029    0.105575
 ---------------------------------------------------------------------
                    Distance matrix (angstroms):
                    1          2          3          4          5
     1  P    0.000000
     2  H    1.413993   0.000000
     3  H    1.414019   2.059811   0.000000
     4  H    1.484409   2.094794   2.095504   0.000000
     5  H    2.730341   3.032379   3.046051   1.264155   0.000000
 Stoichiometry    H4P(2)
 Framework group  C1[X(H4P)]
 Deg. of freedom     9
 Full point group                 C1      NOp   1
 Largest Abelian subgroup         C1      NOp   1
 Largest concise Abelian subgroup C1      NOp   1
                         Standard orientation:                         
 ---------------------------------------------------------------------
 Center     Atomic      Atomic             Coordinates (Angstroms)
 Number     Number       Type             X           Y           Z
 ---------------------------------------------------------------------
      1         15           0        0.217429    0.000088   -0.111249
      2          1           0        0.246611    1.034668    0.852166
      3          1           0        0.262661   -1.025059    0.861622
      4          1           0       -1.266416   -0.010952   -0.150626
      5          1           0       -2.504289    0.000029    0.105575
 ---------------------------------------------------------------------
 Rotational constants (GHZ):         128.2471139          45.9390495          44.5801269
 Leave Link  202 at Wed Oct 21 14:17:59 2020, MaxMem=  2684354560 cpu:               3.2 elap:               1.1
 (Enter /udrive/faculty/rpeverati/g16/g16/l301.exe)
 Standard basis: VSTO-6G (5D, 7F)
 Ernie: Thresh=  0.10000D-02 Tol=  0.10000D-05 Strict=F.
  NNHCO=     0 NNPyr=     0 NCTC=     0               EPep=         0.000000000
    EC=         6.464274922  ECS=         0.214864643   EG=         0.030626180
   EHC=         0.000000000  EAt=        -6.248213507  AtH=         0.452547749
 EPDDG=         0.000000000  ECC=         6.709765745 EAtT=         6.700761256
 There are     8 symmetry adapted cartesian basis functions of A   symmetry.
 There are     8 symmetry adapted basis functions of A   symmetry.
     8 basis functions,    48 primitive gaussians,     8 cartesian basis functions
     5 alpha electrons        4 beta electrons
       nuclear repulsion energy        13.4105270010 Hartrees.
 IExCor=    0 DFT=F Ex=HF Corr=None ExCW=0 ScaHFX=  1.000000
 ScaDFX=  1.000000  1.000000  1.000000  1.000000 ScalE2=  1.000000  1.000000
 IRadAn=      5 IRanWt=     -1 IRanGd=            0 ICorTp=0 IEmpDi=  4
 Integral buffers will be    131072 words long.
 Regular integral format.
 Two-electron integral symmetry is turned off.
 Leave Link  301 at Wed Oct 21 14:18:00 2020, MaxMem=  2684354560 cpu:               2.4 elap:               1.0
 (Enter /udrive/faculty/rpeverati/g16/g16/l302.exe)
 Do NDO integrals.
 NPDir=0 NMtPBC=     1 NCelOv=     1 NCel=       1 NClECP=     1 NCelD=      1
         NCelK=      1 NCelE2=     1 NClLst=     1 CellRange=     0.0.
 One-electron integrals computed using PRISM.
 NBasis=     8 RedAO= F EigKep=  0.00D+00  NBF=     8
 NBsUse=     8 1.00D-04 EigRej=  0.00D+00 NBFU=     8
 Leave Link  302 at Wed Oct 21 14:18:02 2020, MaxMem=  2684354560 cpu:               4.1 elap:               1.0
 (Enter /udrive/faculty/rpeverati/g16/g16/l303.exe)
 DipDrv:  MaxL=1.
 Leave Link  303 at Wed Oct 21 14:18:03 2020, MaxMem=  2684354560 cpu:               1.3 elap:               0.9
 (Enter /udrive/faculty/rpeverati/g16/g16/l401.exe)
 SCF N**3 symmetry information disabled.
 Simple Huckel Guess.
 JPrj=0 DoOrth=F DoCkMO=F.
 Initial guess <Sx>= 0.0000 <Sy>= 0.0000 <Sz>= 0.5000 <S**2>= 0.7500 S= 0.5000
 Leave Link  401 at Wed Oct 21 14:18:04 2020, MaxMem=  2684354560 cpu:               3.6 elap:               1.0
 (Enter /udrive/faculty/rpeverati/g16/g16/l502.exe)
 Keep J ints in memory in canonical form, NReq=859223.
 FoFCou: FMM=F IPFlag=           0 FMFlag=           0 FMFlg1=           0
         NFxFlg=           0 DoJE=F BraDBF=F KetDBF=F FulRan=T
         wScrn=  0.000000 ICntrl=       600 IOpCl=  2 I1Cent=           0 NGrid=           0
         NMat0=    1 NMatS0=     14 NMatT0=    0 NMatD0=    1 NMtDS0=    0 NMtDT0=    0
 Symmetry not used in FoFCou.
 Two-electron integral symmetry not used.
 UHF open shell SCF:
 Using DIIS extrapolation, IDIIS=  1040.
 Overlap will be assumed to be unity.
 NGot=  2684354560 LenX=  2684294036 LenY=  2684293154
 Requested convergence on RMS density matrix=1.00D-08 within 120 cycles.
 Requested convergence on MAX density matrix=1.00D-06.
 Requested convergence on             energy=1.00D-06.
 No special actions if energy rises.

 Cycle   1  Pass 1  IDiag  1:
 E= 0.227424425008287    
 DIIS: error= 3.63D-02 at cycle   1 NSaved=   1.
 NSaved= 1 IEnMin= 1 EnMin= 0.227424425008287     IErMin= 1 ErrMin= 3.63D-02
 ErrMax= 3.63D-02  0.00D+00 EMaxC= 1.00D-01 BMatC= 9.31D-02 BMatP= 9.31D-02
 IDIUse=3 WtCom= 6.37D-01 WtEn= 3.63D-01
 Coeff-Com:  0.100D+01
 Coeff-En:   0.100D+01
 Coeff:      0.100D+01
 GapD=    2.000 DampG=2.000 DampE=0.500 DampFc=1.0000 IDamp=-1.
 RMSDP=5.08D-02 MaxDP=2.01D-01              OVMax= 0.00D+00

 Cycle   2  Pass 1  IDiag  1:
 E= 0.119638723069441     Delta-E=       -0.107785701939 Rises=F Damp=F
 DIIS: error= 1.42D-02 at cycle   2 NSaved=   2.
 NSaved= 2 IEnMin= 2 EnMin= 0.119638723069441     IErMin= 2 ErrMin= 1.42D-02
 ErrMax= 1.42D-02  0.00D+00 EMaxC= 1.00D-01 BMatC= 9.17D-03 BMatP= 9.31D-02
 IDIUse=3 WtCom= 8.58D-01 WtEn= 1.42D-01
 Coeff-Com: -0.248D+00 0.125D+01
 Coeff-En:   0.000D+00 0.100D+01
 Coeff:     -0.213D+00 0.121D+01
 RMSDP=2.05D-02 MaxDP=9.11D-02 DE=-1.08D-01 OVMax= 0.00D+00

 Cycle   3  Pass 1  IDiag  3:
 E= 0.104113978402218     Delta-E=       -0.015524744667 Rises=F Damp=F
 DIIS: error= 7.00D-03 at cycle   3 NSaved=   3.
 NSaved= 3 IEnMin= 3 EnMin= 0.104113978402218     IErMin= 3 ErrMin= 7.00D-03
 ErrMax= 7.00D-03  0.00D+00 EMaxC= 1.00D-01 BMatC= 2.07D-03 BMatP= 9.17D-03
 IDIUse=3 WtCom= 9.30D-01 WtEn= 7.00D-02
 Coeff-Com:  0.161D+00-0.119D+01 0.203D+01
 Coeff-En:   0.000D+00 0.000D+00 0.100D+01
 Coeff:      0.149D+00-0.110D+01 0.195D+01
 Gap=     0.400 Goal=   None    Shift=    0.000
 Gap=     0.366 Goal=   None    Shift=    0.000
 RMSDP=1.66D-02 MaxDP=5.75D-02 DE=-1.55D-02 OVMax= 6.56D-02

 Cycle   4  Pass 1  IDiag  3:
 E= 0.989920568661233E-01 Delta-E=       -0.005121921536 Rises=F Damp=F
 DIIS: error= 2.56D-03 at cycle   4 NSaved=   4.
 NSaved= 4 IEnMin= 4 EnMin= 0.989920568661233E-01 IErMin= 4 ErrMin= 2.56D-03
 ErrMax= 2.56D-03  0.00D+00 EMaxC= 1.00D-01 BMatC= 1.99D-04 BMatP= 2.07D-03
 IDIUse=3 WtCom= 9.74D-01 WtEn= 2.56D-02
 Coeff-Com: -0.106D+00 0.874D+00-0.169D+01 0.192D+01
 Coeff-En:   0.000D+00 0.000D+00 0.000D+00 0.100D+01
 Coeff:     -0.103D+00 0.852D+00-0.165D+01 0.190D+01
 Gap=     0.404 Goal=   None    Shift=    0.000
 Gap=     0.371 Goal=   None    Shift=    0.000
 RMSDP=5.63D-03 MaxDP=2.13D-02 DE=-5.12D-03 OVMax= 2.58D-02

 Cycle   5  Pass 1  IDiag  3:
 E= 0.984590402021990E-01 Delta-E=       -0.000533016664 Rises=F Damp=F
 DIIS: error= 9.08D-04 at cycle   5 NSaved=   5.
 NSaved= 5 IEnMin= 5 EnMin= 0.984590402021990E-01 IErMin= 5 ErrMin= 9.08D-04
 ErrMax= 9.08D-04  0.00D+00 EMaxC= 1.00D-01 BMatC= 1.99D-05 BMatP= 1.99D-04
 IDIUse=3 WtCom= 9.91D-01 WtEn= 9.08D-03
 Coeff-Com:  0.187D-01-0.226D+00 0.491D+00-0.806D+00 0.152D+01
 Coeff-En:   0.000D+00 0.000D+00 0.000D+00 0.000D+00 0.100D+01
 Coeff:      0.185D-01-0.224D+00 0.487D+00-0.798D+00 0.152D+01
 Gap=     0.405 Goal=   None    Shift=    0.000
 Gap=     0.374 Goal=   None    Shift=    0.000
 RMSDP=1.64D-03 MaxDP=7.79D-03 DE=-5.33D-04 OVMax= 8.67D-03

 Cycle   6  Pass 1  IDiag  3:
 E= 0.984058965018413E-01 Delta-E=       -0.000053143700 Rises=F Damp=F
 DIIS: error= 5.51D-04 at cycle   6 NSaved=   6.
 NSaved= 6 IEnMin= 6 EnMin= 0.984058965018413E-01 IErMin= 6 ErrMin= 5.51D-04
 ErrMax= 5.51D-04  0.00D+00 EMaxC= 1.00D-01 BMatC= 5.20D-06 BMatP= 1.99D-05
 IDIUse=3 WtCom= 9.94D-01 WtEn= 5.51D-03
 Coeff-Com:  0.581D-02 0.411D-01-0.140D+00 0.483D+00-0.177D+01 0.238D+01
 Coeff-En:   0.000D+00 0.000D+00 0.000D+00 0.000D+00 0.000D+00 0.100D+01
 Coeff:      0.578D-02 0.409D-01-0.140D+00 0.481D+00-0.176D+01 0.237D+01
 Gap=     0.404 Goal=   None    Shift=    0.000
 Gap=     0.373 Goal=   None    Shift=    0.000
 RMSDP=1.14D-03 MaxDP=6.12D-03 DE=-5.31D-05 OVMax= 4.68D-03

 Cycle   7  Pass 1  IDiag  3:
 E= 0.983883838242487E-01 Delta-E=       -0.000017512678 Rises=F Damp=F
 DIIS: error= 1.43D-04 at cycle   7 NSaved=   7.
 NSaved= 7 IEnMin= 7 EnMin= 0.983883838242487E-01 IErMin= 7 ErrMin= 1.43D-04
 ErrMax= 1.43D-04  0.00D+00 EMaxC= 1.00D-01 BMatC= 4.08D-07 BMatP= 5.20D-06
 IDIUse=3 WtCom= 9.99D-01 WtEn= 1.43D-03
 Coeff-Com: -0.447D-02 0.141D-01-0.113D-01-0.927D-01 0.451D+00-0.847D+00
 Coeff-Com:  0.149D+01
 Coeff-En:   0.000D+00 0.000D+00 0.000D+00 0.000D+00 0.000D+00 0.000D+00
 Coeff-En:   0.100D+01
 Coeff:     -0.446D-02 0.141D-01-0.113D-01-0.925D-01 0.451D+00-0.846D+00
 Coeff:      0.149D+01
 Gap=     0.405 Goal=   None    Shift=    0.000
 Gap=     0.374 Goal=   None    Shift=    0.000
 RMSDP=3.62D-04 MaxDP=1.88D-03 DE=-1.75D-05 OVMax= 1.78D-03

 Cycle   8  Pass 1  IDiag  3:
 E= 0.983869260883559E-01 Delta-E=       -0.000001457736 Rises=F Damp=F
 DIIS: error= 4.78D-05 at cycle   8 NSaved=   8.
 NSaved= 8 IEnMin= 8 EnMin= 0.983869260883559E-01 IErMin= 8 ErrMin= 4.78D-05
 ErrMax= 4.78D-05  0.00D+00 EMaxC= 1.00D-01 BMatC= 6.06D-08 BMatP= 4.08D-07
 IDIUse=1 WtCom= 1.00D+00 WtEn= 0.00D+00
 Coeff-Com: -0.737D-03 0.152D-01-0.345D-01 0.940D-01-0.224D+00 0.382D+00
 Coeff-Com: -0.107D+01 0.184D+01
 Coeff:     -0.737D-03 0.152D-01-0.345D-01 0.940D-01-0.224D+00 0.382D+00
 Coeff:     -0.107D+01 0.184D+01
 Gap=     0.405 Goal=   None    Shift=    0.000
 Gap=     0.374 Goal=   None    Shift=    0.000
 RMSDP=1.05D-04 MaxDP=4.98D-04 DE=-1.46D-06 OVMax= 3.95D-04

 Cycle   9  Pass 1  IDiag  3:
 E= 0.983867539844336E-01 Delta-E=       -0.000000172104 Rises=F Damp=F
 DIIS: error= 1.63D-05 at cycle   9 NSaved=   9.
 NSaved= 9 IEnMin= 9 EnMin= 0.983867539844336E-01 IErMin= 9 ErrMin= 1.63D-05
 ErrMax= 1.63D-05  0.00D+00 EMaxC= 1.00D-01 BMatC= 9.85D-09 BMatP= 6.06D-08
 IDIUse=1 WtCom= 1.00D+00 WtEn= 0.00D+00
 Coeff-Com: -0.321D-03 0.425D-02-0.101D-01-0.223D-03-0.107D-01-0.324D-01
 Coeff-Com:  0.487D+00-0.135D+01 0.192D+01
 Coeff:     -0.321D-03 0.425D-02-0.101D-01-0.223D-03-0.107D-01-0.324D-01
 Coeff:      0.487D+00-0.135D+01 0.192D+01
 Gap=     0.405 Goal=   None    Shift=    0.000
 Gap=     0.373 Goal=   None    Shift=    0.000
 RMSDP=5.10D-05 MaxDP=1.97D-04 DE=-1.72D-07 OVMax= 2.88D-04

 Cycle  10  Pass 1  IDiag  3:
 E= 0.983867226875113E-01 Delta-E=       -0.000000031297 Rises=F Damp=F
 DIIS: error= 4.23D-06 at cycle  10 NSaved=  10.
 NSaved=10 IEnMin=10 EnMin= 0.983867226875113E-01 IErMin=10 ErrMin= 4.23D-06
 ErrMax= 4.23D-06  0.00D+00 EMaxC= 1.00D-01 BMatC= 7.47D-10 BMatP= 9.85D-09
 IDIUse=1 WtCom= 1.00D+00 WtEn= 0.00D+00
 Coeff-Com:  0.405D-05-0.400D-03 0.183D-02 0.105D-01-0.134D-01 0.440D-01
 Coeff-Com: -0.379D+00 0.102D+01-0.157D+01 0.188D+01
 Coeff:      0.405D-05-0.400D-03 0.183D-02 0.105D-01-0.134D-01 0.440D-01
 Coeff:     -0.379D+00 0.102D+01-0.157D+01 0.188D+01
 Gap=     0.405 Goal=   None    Shift=    0.000
 Gap=     0.373 Goal=   None    Shift=    0.000
 RMSDP=1.30D-05 MaxDP=5.72D-05 DE=-3.13D-08 OVMax= 5.73D-05

 Cycle  11  Pass 1  IDiag  3:
 E= 0.983867206298488E-01 Delta-E=       -0.000000002058 Rises=F Damp=F
 DIIS: error= 1.19D-06 at cycle  11 NSaved=  11.
 NSaved=11 IEnMin=11 EnMin= 0.983867206298488E-01 IErMin=11 ErrMin= 1.19D-06
 ErrMax= 1.19D-06  0.00D+00 EMaxC= 1.00D-01 BMatC= 6.97D-11 BMatP= 7.47D-10
 IDIUse=1 WtCom= 1.00D+00 WtEn= 0.00D+00
 Coeff-Com:  0.287D-05-0.122D-03-0.210D-03-0.661D-02 0.121D-01-0.261D-01
 Coeff-Com:  0.175D+00-0.462D+00 0.665D+00-0.954D+00 0.160D+01
 Coeff:      0.287D-05-0.122D-03-0.210D-03-0.661D-02 0.121D-01-0.261D-01
 Coeff:      0.175D+00-0.462D+00 0.665D+00-0.954D+00 0.160D+01
 Gap=     0.405 Goal=   None    Shift=    0.000
 Gap=     0.373 Goal=   None    Shift=    0.000
 RMSDP=4.50D-06 MaxDP=1.31D-05 DE=-2.06D-09 OVMax= 1.42D-05

 Cycle  12  Pass 1  IDiag  3:
 E= 0.983867204914741E-01 Delta-E=       -0.000000000138 Rises=F Damp=F
 DIIS: error= 8.94D-07 at cycle  12 NSaved=  12.
 NSaved=12 IEnMin=12 EnMin= 0.983867204914741E-01 IErMin=12 ErrMin= 8.94D-07
 ErrMax= 8.94D-07  0.00D+00 EMaxC= 1.00D-01 BMatC= 2.08D-11 BMatP= 6.97D-11
 IDIUse=1 WtCom= 1.00D+00 WtEn= 0.00D+00
 Coeff-Com:  0.122D-04-0.935D-04 0.125D-03-0.227D-02 0.280D-02-0.980D-02
 Coeff-Com:  0.694D-01-0.179D+00 0.296D+00-0.258D+00-0.391D+00 0.147D+01
 Coeff:      0.122D-04-0.935D-04 0.125D-03-0.227D-02 0.280D-02-0.980D-02
 Coeff:      0.694D-01-0.179D+00 0.296D+00-0.258D+00-0.391D+00 0.147D+01
 Gap=     0.402 Goal=   None    Shift=    0.000
 Gap=     0.373 Goal=   None    Shift=    0.000
 RMSDP=1.71D-06 MaxDP=6.81D-06 DE=-1.38D-10 OVMax= 8.46D-06

 Cycle  13  Pass 1  IDiag  3:
 E= 0.983867204395423E-01 Delta-E=       -0.000000000052 Rises=F Damp=F
 DIIS: error= 2.52D-07 at cycle  13 NSaved=  13.
 NSaved=13 IEnMin=13 EnMin= 0.983867204395423E-01 IErMin=13 ErrMin= 2.52D-07
 ErrMax= 2.52D-07  0.00D+00 EMaxC= 1.00D-01 BMatC= 2.07D-12 BMatP= 2.08D-11
 IDIUse=1 WtCom= 1.00D+00 WtEn= 0.00D+00
 Coeff-Com: -0.186D-05 0.454D-04-0.210D-03 0.275D-03-0.371D-04 0.232D-02
 Coeff-Com: -0.917D-02 0.172D-01-0.568D-01-0.465D-01 0.723D+00-0.187D+01
 Coeff-Com:  0.224D+01
 Coeff:     -0.186D-05 0.454D-04-0.210D-03 0.275D-03-0.371D-04 0.232D-02
 Coeff:     -0.917D-02 0.172D-01-0.568D-01-0.465D-01 0.723D+00-0.187D+01
 Coeff:      0.224D+01
 Gap=     0.402 Goal=   None    Shift=    0.000
 Gap=     0.373 Goal=   None    Shift=    0.000
 RMSDP=5.95D-07 MaxDP=1.99D-06 DE=-5.19D-11 OVMax= 2.03D-06

 Cycle  14  Pass 1  IDiag  3:
 E= 0.983867204341067E-01 Delta-E=       -0.000000000005 Rises=F Damp=F
 DIIS: error= 6.11D-08 at cycle  14 NSaved=  14.
 NSaved=14 IEnMin=14 EnMin= 0.983867204341067E-01 IErMin=14 ErrMin= 6.11D-08
 ErrMax= 6.11D-08  0.00D+00 EMaxC= 1.00D-01 BMatC= 1.29D-13 BMatP= 2.07D-12
 IDIUse=1 WtCom= 1.00D+00 WtEn= 0.00D+00
 Coeff-Com:  0.684D-06-0.174D-04 0.872D-04-0.404D-03 0.305D-03-0.236D-02
 Coeff-Com:  0.143D-01-0.340D-01 0.715D-01-0.143D-01-0.412D+00 0.117D+01
 Coeff-Com: -0.163D+01 0.183D+01
 Coeff:      0.684D-06-0.174D-04 0.872D-04-0.404D-03 0.305D-03-0.236D-02
 Coeff:      0.143D-01-0.340D-01 0.715D-01-0.143D-01-0.412D+00 0.117D+01
 Coeff:     -0.163D+01 0.183D+01
 Gap=     0.402 Goal=   None    Shift=    0.000
 Gap=     0.373 Goal=   None    Shift=    0.000
 RMSDP=1.92D-07 MaxDP=6.94D-07 DE=-5.44D-12 OVMax= 8.19D-07

 Cycle  15  Pass 1  IDiag  3:
 E= 0.983867204337656E-01 Delta-E=       -0.000000000000 Rises=F Damp=F
 DIIS: error= 9.38D-09 at cycle  15 NSaved=  15.
 NSaved=15 IEnMin=15 EnMin= 0.983867204337656E-01 IErMin=15 ErrMin= 9.38D-09
 ErrMax= 9.38D-09  0.00D+00 EMaxC= 1.00D-01 BMatC= 5.18D-15 BMatP= 1.29D-13
 IDIUse=1 WtCom= 1.00D+00 WtEn= 0.00D+00
 Coeff-Com: -0.111D-06 0.381D-05-0.242D-04 0.141D-03-0.977D-04 0.781D-03
 Coeff-Com: -0.516D-02 0.126D-01-0.262D-01 0.709D-02 0.136D+00-0.389D+00
 Coeff-Com:  0.587D+00-0.870D+00 0.155D+01
 Coeff:     -0.111D-06 0.381D-05-0.242D-04 0.141D-03-0.977D-04 0.781D-03
 Coeff:     -0.516D-02 0.126D-01-0.262D-01 0.709D-02 0.136D+00-0.389D+00
 Coeff:      0.587D+00-0.870D+00 0.155D+01
 Gap=     0.402 Goal=   None    Shift=    0.000
 Gap=     0.373 Goal=   None    Shift=    0.000
 RMSDP=5.15D-08 MaxDP=2.25D-07 DE=-3.41D-13 OVMax= 2.66D-07

 Cycle  16  Pass 1  IDiag  3:
 E= 0.983867204337461E-01 Delta-E=       -0.000000000000 Rises=F Damp=F
 DIIS: error= 3.95D-09 at cycle  16 NSaved=  16.
 NSaved=16 IEnMin=16 EnMin= 0.983867204337461E-01 IErMin=16 ErrMin= 3.95D-09
 ErrMax= 3.95D-09  0.00D+00 EMaxC= 1.00D-01 BMatC= 4.51D-16 BMatP= 5.18D-15
 IDIUse=1 WtCom= 1.00D+00 WtEn= 0.00D+00
 Large coefficients: NSaved= 16 BigCof=    0.00 CofMax=   10.00 Det=-1.76D-16
 Inversion failed.  Reducing to 15 matrices.
 Coeff-Com: -0.346D-06 0.121D-05-0.830D-05 0.113D-04-0.122D-04 0.192D-03
 Coeff-Com: -0.534D-03 0.118D-02-0.656D-03-0.215D-02 0.468D-02-0.309D-01
 Coeff-Com:  0.133D+00-0.530D+00 0.143D+01
 Coeff:     -0.346D-06 0.121D-05-0.830D-05 0.113D-04-0.122D-04 0.192D-03
 Coeff:     -0.534D-03 0.118D-02-0.656D-03-0.215D-02 0.468D-02-0.309D-01
 Coeff:      0.133D+00-0.530D+00 0.143D+01
 Gap=     0.402 Goal=   None    Shift=    0.000
 Gap=     0.373 Goal=   None    Shift=    0.000
 RMSDP=1.36D-08 MaxDP=7.33D-08 DE=-1.95D-14 OVMax= 7.51D-08

 Cycle  17  Pass 1  IDiag  3:
 E= 0.983867204337407E-01 Delta-E=       -0.000000000000 Rises=F Damp=F
 DIIS: error= 5.69D-10 at cycle  17 NSaved=  16.
 NSaved=16 IEnMin=16 EnMin= 0.983867204337407E-01 IErMin=16 ErrMin= 5.69D-10
 ErrMax= 5.69D-10  0.00D+00 EMaxC= 1.00D-01 BMatC= 1.25D-17 BMatP= 4.51D-16
 IDIUse=1 WtCom= 1.00D+00 WtEn= 0.00D+00
 Large coefficients: NSaved= 16 BigCof=    0.00 CofMax=   10.00 Det=-4.33D-18
 Inversion failed.  Reducing to 15 matrices.
 Coeff-Com:  0.155D-06-0.231D-05 0.199D-05-0.352D-04 0.127D-03-0.264D-03
 Coeff-Com:  0.369D-03-0.950D-04-0.314D-02 0.110D-01 0.115D-02-0.686D-01
 Coeff-Com:  0.351D+00-0.109D+01 0.180D+01
 Coeff:      0.155D-06-0.231D-05 0.199D-05-0.352D-04 0.127D-03-0.264D-03
 Coeff:      0.369D-03-0.950D-04-0.314D-02 0.110D-01 0.115D-02-0.686D-01
 Coeff:      0.351D+00-0.109D+01 0.180D+01
 Gap=     0.402 Goal=   None    Shift=    0.000
 Gap=     0.373 Goal=   None    Shift=    0.000
 RMSDP=1.35D-09 MaxDP=4.55D-09 DE=-5.33D-15 OVMax= 0.00D+00

 SCF Done:  E(UAM1) =  0.983867204337E-01 A.U. after   17 cycles
            NFock= 17  Conv=0.13D-08     -V/T= 1.0105
 <Sx>= 0.0000 <Sy>= 0.0000 <Sz>= 0.5000 <S**2>= 0.7733 S= 0.5116
 <L.S>= 0.000000000000E+00
 KE=-9.340431838203D+00 PE=-1.265596490611D+01 EE= 8.684256463709D+00
 Annihilation of the first spin contaminant:
 S**2 before annihilation     0.7733,   after     0.7500
 Leave Link  502 at Wed Oct 21 14:18:07 2020, MaxMem=  2684354560 cpu:              16.3 elap:               2.3
 (Enter /udrive/faculty/rpeverati/g16/g16/l508.exe)
 QCSCF skips out because SCF is already converged.
 Leave Link  508 at Wed Oct 21 14:18:08 2020, MaxMem=  2684354560 cpu:               0.8 elap:               0.6
 (Enter /udrive/faculty/rpeverati/g16/g16/l601.exe)
 Copying SCF densities to generalized density rwf, IOpCl= 1 IROHF=0.

 **********************************************************************

            Population analysis using the SCF density.

 **********************************************************************

 Orbital symmetries:
 Alpha Orbitals:
       Occupied  (A) (A) (A) (A) (A)
       Virtual   (A) (A) (A)
 Beta  Orbitals:
       Occupied  (A) (A) (A) (A)
       Virtual   (A) (A) (A) (A)
 The electronic state is 2-A.
 Alpha  occ. eigenvalues --   -0.77125  -0.51220  -0.47020  -0.41146  -0.35536
 Alpha virt. eigenvalues --    0.04631   0.05952   0.06610
  Beta  occ. eigenvalues --   -0.76747  -0.47639  -0.46936  -0.39418
  Beta virt. eigenvalues --   -0.02102   0.04916   0.06007   0.09951
          Condensed to atoms (all electrons):
               1          2          3          4          5
     1  P    5.113224   0.000000   0.000000   0.000000   0.000000
     2  H    0.000000   0.965645   0.000000   0.000000   0.000000
     3  H    0.000000   0.000000   0.965651   0.000000   0.000000
     4  H    0.000000   0.000000   0.000000   0.937800   0.000000
     5  H    0.000000   0.000000   0.000000   0.000000   1.017679
          Atomic-Atomic Spin Densities.
               1          2          3          4          5
     1  P    0.315894   0.000000   0.000000   0.000000   0.000000
     2  H    0.000000  -0.009418   0.000000   0.000000   0.000000
     3  H    0.000000   0.000000  -0.009402   0.000000   0.000000
     4  H    0.000000   0.000000   0.000000  -0.140735   0.000000
     5  H    0.000000   0.000000   0.000000   0.000000   0.843661
 Mulliken charges and spin densities:
               1          2
     1  P   -0.113224   0.315894
     2  H    0.034355  -0.009418
     3  H    0.034349  -0.009402
     4  H    0.062200  -0.140735
     5  H   -0.017679   0.843661
 Sum of Mulliken charges =   0.00000   1.00000
 Mulliken charges and spin densities with hydrogens summed into heavy atoms:
               1          2
     1  P    0.000000   1.000000
 Charge=              0.0000 electrons
 Dipole moment (field-independent basis, Debye):
    X=             -1.1607    Y=             -0.0012    Z=              1.9804  Tot=              2.2955
 N-N= 1.341052700104D+01 E-N=-1.265596490732D+01  KE=-9.340431838203D+00
 Leave Link  601 at Wed Oct 21 14:18:09 2020, MaxMem=  2684354560 cpu:               3.0 elap:               0.9
 (Enter /udrive/faculty/rpeverati/g16/g16/l701.exe)
 ... and contract with generalized density number  0.
 Compute integral first derivatives.
 Leave Link  701 at Wed Oct 21 14:18:11 2020, MaxMem=  2684354560 cpu:               7.3 elap:               1.4
 (Enter /udrive/faculty/rpeverati/g16/g16/l702.exe)
 L702 exits ... SP integral derivatives will be done elsewhere.
 Leave Link  702 at Wed Oct 21 14:18:13 2020, MaxMem=  2684354560 cpu:               1.8 elap:               0.9
 (Enter /udrive/faculty/rpeverati/g16/g16/l703.exe)
 Integral derivatives from FoFJK, PRISM(SPDF).
 Compute integral first derivatives, UseDBF=F ICtDFT=           0.
 Calling FoFJK, ICntrl=      2127 FMM=F ISym2X=0 I1Cent= 0 IOpClX= 1 NMat=1 NMatS=1 NMatT=0.
 FoFJK:  IHMeth= 8 ICntrl=    2127 DoSepK=F KAlg= 0 I1Cent=           0 FoldK=F
 IRaf=         0 NMat=       1 IRICut=       1 DoRegI=T DoRafI=F ISym2E= 0 IDoP0=3 IntGTp=3.
 FoFCou: FMM=F IPFlag=           0 FMFlag=      100000 FMFlg1=         800
         NFxFlg=           0 DoJE=F BraDBF=F KetDBF=F FulRan=T
         wScrn=  0.000000 ICntrl=      2127 IOpCl=  1 I1Cent=           0 NGrid=           0
         NMat0=    1 NMatS0=      1 NMatT0=    0 NMatD0=    1 NMtDS0=    0 NMtDT0=    0
 Symmetry not used in FoFCou.
 Leave Link  703 at Wed Oct 21 14:18:14 2020, MaxMem=  2684354560 cpu:               2.8 elap:               0.8
 (Enter /udrive/faculty/rpeverati/g16/g16/l716.exe)
 Dipole        =-4.56666818D-01-4.83750957D-04 7.79138956D-01
 ***** Axes restored to original set *****
 -------------------------------------------------------------------
 Center     Atomic                   Forces (Hartrees/Bohr)
 Number     Number              X              Y              Z
 -------------------------------------------------------------------
      1       15          -0.031689497   -0.000037659    0.033454978
      2        1           0.002007899   -0.013200014   -0.015153251
      3        1           0.001766523    0.013099500   -0.015283311
      4        1           0.004596486    0.000309410    0.001168370
      5        1           0.023318588   -0.000171236   -0.004186786
 -------------------------------------------------------------------
 Cartesian Forces:  Max     0.033454978 RMS     0.015326567
 Leave Link  716 at Wed Oct 21 14:18:15 2020, MaxMem=  2684354560 cpu:               2.0 elap:               0.8
 (Enter /udrive/faculty/rpeverati/g16/g16/l103.exe)

 GradGradGradGradGradGradGradGradGradGradGradGradGradGradGradGradGradGrad
 Berny optimization.
 Optmz: redundant internal coordinate code flag= 1
 FormGI is forming the generalized inverse of G from B-inverse, IUseBI=4.
 Internal  Forces:  Max     0.027847423 RMS     0.014940865
 Search for a saddle point.
 Step number   1 out of a maximum of   50
 All quantities printed in internal units (Hartrees-Bohrs-Radians)
 Swapping is turned off.
 Second derivative matrix not updated -- first step.
 The second derivative matrix:
                          R1        R2        R3        R4        A1
           R1           0.21288
           R2           0.00000   0.21286
           R3           0.00000   0.00000   0.17567
           R4           0.00000   0.00000   0.00000   0.09500
           A1           0.00000   0.00000   0.00000   0.00000   0.16000
           A2           0.00000   0.00000   0.00000   0.00000   0.00000
           A3           0.00000   0.00000   0.00000   0.00000   0.00000
           A4           0.00000   0.00000   0.00000   0.00000   0.00000
           A5           0.00000   0.00000   0.00000   0.00000   0.00000
           D1           0.00000   0.00000   0.00000   0.00000   0.00000
                          A2        A3        A4        A5        D1
           A2           0.16000
           A3           0.00000   0.16000
           A4           0.00000   0.00000   0.00230
           A5           0.00000   0.00000   0.00000   0.00230
           D1           0.00000   0.00000   0.00000   0.00000   0.00230
 ITU=  0
 Eigenvectors of the second derivative matrix:
                           1         2         3         4         5
     Eigenvalues --     0.00230   0.00230   0.08081   0.09500   0.16000
   1         R1         0.00000   0.00000  -0.00000  -0.00000  -0.00000
   2         R2         0.00000  -0.00000   0.00000  -0.00000   0.00000
   3         R3        -0.00000  -0.00000  -0.00000   0.00000   0.00000
   4         R4        -0.00000  -0.00000   0.00000  -1.00000  -0.00000
   5         A1        -0.00000  -0.00000   0.70399   0.00000  -0.03711
   6         A2        -0.00000  -0.00000   0.03356  -0.00000   0.97854
   7         A3        -0.00000  -0.00000   0.03310  -0.00000  -0.20267
   8         A4         0.15603   0.98775   0.00000  -0.00000  -0.00000
   9         A5        -0.98775   0.15603  -0.00000   0.00000  -0.00000
  10         D1         0.00000   0.00000  -0.70864  -0.00000   0.00000
                           6         7         8         9
     Eigenvalues --     0.16000   0.17567   0.21286   0.21288
   1         R1         0.00000   0.00000   0.00000   1.00000
   2         R2         0.00000   0.00000  -1.00000   0.00000
   3         R3        -0.00000   1.00000   0.00000  -0.00000
   4         R4         0.00000   0.00000   0.00000  -0.00000
   5         A1         0.05554   0.00000   0.00000   0.00000
   6         A2        -0.20047  -0.00000  -0.00000   0.00000
   7         A3        -0.97812  -0.00000  -0.00000   0.00000
   8         A4        -0.00000   0.00000  -0.00000  -0.00000
   9         A5        -0.00000  -0.00000  -0.00000   0.00000
  10         D1         0.00000  -0.00000  -0.00000  -0.00000
 Eigenvalue     1 is   2.30D-03 should be less than     0.000000 Eigenvector:
                          A5        A4        A1        D1        R4
   1                   -0.98775   0.15603  -0.00000   0.00000  -0.00000
                          R2        R3        R1        A2        A3
   1                    0.00000  -0.00000   0.00000  -0.00000  -0.00000
 RLam0= 2.60D-03.
 Iter=   1 RLamda= 0.00000000D+00 Sum=-1.53038921D-02.
 Iter=   2 RLamda=-1.53038921D-02 Sum=-1.33539846D-02.
 Iter=   3 RLamda=-1.33539846D-02 Sum=-1.35350672D-02.
 Iter=   4 RLamda=-1.35350672D-02 Sum=-1.35179554D-02.
 Iter=   5 RLamda=-1.35179554D-02 Sum=-1.35195697D-02.
 Iter=   6 RLamda=-1.35195697D-02 Sum=-1.35194174D-02.
 Iter=   7 RLamda=-1.35194174D-02 Sum=-1.35194318D-02.
 Iter=   8 RLamda=-1.35194318D-02 Sum=-1.35194304D-02.
 RFO step:  Lambda0=2.600431463D-03 Lambda=-1.35194318D-02.
 Linear search not attempted -- option 19 set.
 Maximum step size (   0.100) exceeded in Quadratic search.
    -- Step size scaled by   0.231
 Iteration  1 RMS(Cart)=  0.03204938 RMS(Int)=  0.00097578
 Iteration  2 RMS(Cart)=  0.00101492 RMS(Int)=  0.00001962
 Iteration  3 RMS(Cart)=  0.00000094 RMS(Int)=  0.00001960
 ITry= 1 IFail=0 DXMaxC= 4.08D-02 DCOld= 1.00D+10 DXMaxT= 1.00D-01 DXLimC= 3.00D+00 Rises=F
 Variable       Old X    -DE/DX   Delta X   Delta X   Delta X     New X
                                 (Linear)    (Quad)   (Total)
    R1        2.67206  -0.01992   0.00000  -0.02031  -0.02031   2.65175
    R2        2.67211  -0.01996   0.00000  -0.02035  -0.02035   2.65176
    R3        2.80513  -0.02785   0.00000  -0.03398  -0.03398   2.77114
    R4        2.38891  -0.02368   0.00000  -0.05039  -0.05039   2.33852
    A1        1.63185   0.00253   0.00000   0.00687   0.00682   1.63867
    A2        1.61496   0.00644   0.00000   0.00874   0.00874   1.62370
    A3        1.61565   0.00641   0.00000   0.00870   0.00869   1.62434
    A4        2.96178  -0.00121   0.00000  -0.00457  -0.00457   2.95722
    A5        3.33959   0.00070   0.00000  -0.07252  -0.07252   3.26707
    D1       -1.63396  -0.00315   0.00000  -0.00771  -0.00775  -1.64171
         Item               Value     Threshold  Converged?
 Maximum Force            0.027847     0.000450     NO 
 RMS     Force            0.014941     0.000300     NO 
 Maximum Displacement     0.040752     0.001800     NO 
 RMS     Displacement     0.031947     0.001200     NO 
 Predicted change in Energy=-2.726578D-03
 Lowest energy point so far.  Saving SCF results.
 Largest change from initial coordinates is atom    5       0.032 Angstoms.
 GradGradGradGradGradGradGradGradGradGradGradGradGradGradGradGradGradGrad

 Leave Link  103 at Wed Oct 21 14:18:18 2020, MaxMem=  2684354560 cpu:              15.0 elap:               2.1
 (Enter /udrive/faculty/rpeverati/g16/g16/l202.exe)
                          Input orientation:                          
 ---------------------------------------------------------------------
 Center     Atomic      Atomic             Coordinates (Angstroms)
 Number     Number       Type             X           Y           Z
 ---------------------------------------------------------------------
      1         15           0        0.197314    0.000182   -0.105502
      2          1           0        0.234009    1.029060    0.847996
      3          1           0        0.278326   -1.021139    0.853377
      4          1           0       -1.268583   -0.030922   -0.129632
      5          1           0       -2.485070    0.021594    0.091248
 ---------------------------------------------------------------------
                    Distance matrix (angstroms):
                    1          2          3          4          5
     1  P    0.000000
     2  H    1.403244   0.000000
     3  H    1.403249   2.050685   0.000000
     4  H    1.466425   2.082571   2.083210   0.000000
     5  H    2.689675   2.996839   3.050326   1.237492   0.000000
 Stoichiometry    H4P(2)
 Framework group  C1[X(H4P)]
 Deg. of freedom     9
 Full point group                 C1      NOp   1
 RotChk:  IX=0 Diff= 2.90D-02
 Largest Abelian subgroup         C1      NOp   1
 Largest concise Abelian subgroup C1      NOp   1
                         Standard orientation:                         
 ---------------------------------------------------------------------
 Center     Atomic      Atomic             Coordinates (Angstroms)
 Number     Number       Type             X           Y           Z
 ---------------------------------------------------------------------
      1         15           0        0.211117    0.000214   -0.111683
      2          1           0        0.247296    1.044578    0.824847
      3          1           0        0.310000   -1.004800    0.862625
      4          1           0       -1.254602   -0.044171   -0.121742
      5          1           0       -2.469446    0.001185    0.109522
 ---------------------------------------------------------------------
 Rotational constants (GHZ):         130.4950776          47.1853186          45.6279744
 Leave Link  202 at Wed Oct 21 14:18:19 2020, MaxMem=  2684354560 cpu:               2.9 elap:               0.9
 (Enter /udrive/faculty/rpeverati/g16/g16/l301.exe)
 Standard basis: VSTO-6G (5D, 7F)
 Ernie: Thresh=  0.10000D-02 Tol=  0.10000D-05 Strict=F.
  NNHCO=     0 NNPyr=     0 NCTC=     0               EPep=         0.000000000
    EC=         6.506851039  ECS=         0.224354178   EG=         0.031884917
   EHC=         0.000000000  EAt=        -6.248213507  AtH=         0.452547749
 EPDDG=         0.000000000  ECC=         6.763090135 EAtT=         6.700761256
 There are     8 symmetry adapted cartesian basis functions of A   symmetry.
 There are     8 symmetry adapted basis functions of A   symmetry.
     8 basis functions,    48 primitive gaussians,     8 cartesian basis functions
     5 alpha electrons        4 beta electrons
       nuclear repulsion energy        13.4638513906 Hartrees.
 IExCor=    0 DFT=F Ex=HF Corr=None ExCW=0 ScaHFX=  1.000000
 ScaDFX=  1.000000  1.000000  1.000000  1.000000 ScalE2=  1.000000  1.000000
 IRadAn=      5 IRanWt=     -1 IRanGd=            0 ICorTp=0 IEmpDi=  4
 Integral buffers will be    131072 words long.
 Regular integral format.
 Two-electron integral symmetry is turned off.
 Leave Link  301 at Wed Oct 21 14:18:21 2020, MaxMem=  2684354560 cpu:               4.0 elap:               1.1
 (Enter /udrive/faculty/rpeverati/g16/g16/l302.exe)
 Do NDO integrals.
 NPDir=0 NMtPBC=     1 NCelOv=     1 NCel=       1 NClECP=     1 NCelD=      1
         NCelK=      1 NCelE2=     1 NClLst=     1 CellRange=     0.0.
 One-electron integrals computed using PRISM.
 NBasis=     8 RedAO= F EigKep=  0.00D+00  NBF=     8
 NBsUse=     8 1.00D-04 EigRej=  0.00D+00 NBFU=     8
 Leave Link  302 at Wed Oct 21 14:18:23 2020, MaxMem=  2684354560 cpu:               3.7 elap:               1.1
 (Enter /udrive/faculty/rpeverati/g16/g16/l303.exe)
 DipDrv:  MaxL=1.
 Leave Link  303 at Wed Oct 21 14:18:24 2020, MaxMem=  2684354560 cpu:               3.0 elap:               1.1
 (Enter /udrive/faculty/rpeverati/g16/g16/l401.exe)
 Initial guess from the checkpoint file:  "MN_88_RKT12_BH76_AM1_SE.chk"
 SCF N**3 symmetry information disabled.
 B after Tr=     0.000000   -0.000000    0.000000
         Rot=    0.999944    0.008005   -0.005267   -0.004447 Ang=   1.21 deg.
 Guess basis will be translated and rotated to current coordinates.
 JPrj=0 DoOrth=T DoCkMO=T.
 Initial guess <Sx>= 0.0000 <Sy>= 0.0000 <Sz>= 0.5000 <S**2>= 0.7733 S= 0.5116
 Leave Link  401 at Wed Oct 21 14:18:26 2020, MaxMem=  2684354560 cpu:               4.1 elap:               1.2
 (Enter /udrive/faculty/rpeverati/g16/g16/l502.exe)
 Keep J ints in memory in canonical form, NReq=859223.
 FoFCou: FMM=F IPFlag=           0 FMFlag=           0 FMFlg1=           0
         NFxFlg=           0 DoJE=F BraDBF=F KetDBF=F FulRan=T
         wScrn=  0.000000 ICntrl=       600 IOpCl=  2 I1Cent=           0 NGrid=           0
         NMat0=    1 NMatS0=     14 NMatT0=    0 NMatD0=    1 NMtDS0=    0 NMtDT0=    0
 Symmetry not used in FoFCou.
 Two-electron integral symmetry not used.
 UHF open shell SCF:
 Using DIIS extrapolation, IDIIS=  1040.
 Overlap will be assumed to be unity.
 NGot=  2684354560 LenX=  2684294036 LenY=  2684293154
 Requested convergence on RMS density matrix=1.00D-08 within 120 cycles.
 Requested convergence on MAX density matrix=1.00D-06.
 Requested convergence on             energy=1.00D-06.
 No special actions if energy rises.

 Cycle   1  Pass 1  IDiag  1:
 E= 0.956432051644125E-01
 DIIS: error= 1.19D-03 at cycle   1 NSaved=   1.
 NSaved= 1 IEnMin= 1 EnMin= 0.956432051644125E-01 IErMin= 1 ErrMin= 1.19D-03
 ErrMax= 1.19D-03  0.00D+00 EMaxC= 1.00D-01 BMatC= 7.87D-05 BMatP= 7.87D-05
 IDIUse=3 WtCom= 9.88D-01 WtEn= 1.19D-02
 Coeff-Com:  0.100D+01
 Coeff-En:   0.100D+01
 Coeff:      0.100D+01
 GapD=    2.000 DampG=2.000 DampE=1.000 DampFc=2.0000 IDamp=-1.
 RMSDP=1.44D-03 MaxDP=5.05D-03              OVMax= 0.00D+00

 Cycle   2  Pass 1  IDiag  3:
 E= 0.955382580038968E-01 Delta-E=       -0.000104947161 Rises=F Damp=F
 DIIS: error= 5.71D-04 at cycle   2 NSaved=   2.
 NSaved= 2 IEnMin= 2 EnMin= 0.955382580038968E-01 IErMin= 2 ErrMin= 5.71D-04
 ErrMax= 5.71D-04  0.00D+00 EMaxC= 1.00D-01 BMatC= 1.87D-05 BMatP= 7.87D-05
 IDIUse=3 WtCom= 9.94D-01 WtEn= 5.71D-03
 Coeff-Com: -0.752D+00 0.175D+01
 Coeff-En:   0.000D+00 0.100D+01
 Coeff:     -0.747D+00 0.175D+01
 Gap=     0.401 Goal=   None    Shift=    0.000
 Gap=     0.373 Goal=   None    Shift=    0.000
 RMSDP=1.34D-03 MaxDP=4.71D-03 DE=-1.05D-04 OVMax= 0.00D+00

 Cycle   3  Pass 1  IDiag  3:
 E= 0.954992357565647E-01 Delta-E=       -0.000039022247 Rises=F Damp=F
 DIIS: error= 1.42D-04 at cycle   3 NSaved=   3.
 NSaved= 3 IEnMin= 3 EnMin= 0.954992357565647E-01 IErMin= 3 ErrMin= 1.42D-04
 ErrMax= 1.42D-04  0.00D+00 EMaxC= 1.00D-01 BMatC= 1.23D-06 BMatP= 1.87D-05
 IDIUse=3 WtCom= 9.99D-01 WtEn= 1.42D-03
 Coeff-Com:  0.313D+00-0.908D+00 0.159D+01
 Coeff-En:   0.000D+00 0.000D+00 0.100D+01
 Coeff:      0.313D+00-0.907D+00 0.159D+01
 Gap=     0.401 Goal=   None    Shift=    0.000
 Gap=     0.373 Goal=   None    Shift=    0.000
 RMSDP=4.44D-04 MaxDP=1.28D-03 DE=-3.90D-05 OVMax= 1.87D-03

 Cycle   4  Pass 1  IDiag  3:
 E= 0.954958462807891E-01 Delta-E=       -0.000003389476 Rises=F Damp=F
 DIIS: error= 6.70D-05 at cycle   4 NSaved=   4.
 NSaved= 4 IEnMin= 4 EnMin= 0.954958462807891E-01 IErMin= 4 ErrMin= 6.70D-05
 ErrMax= 6.70D-05  0.00D+00 EMaxC= 1.00D-01 BMatC= 1.53D-07 BMatP= 1.23D-06
 IDIUse=1 WtCom= 1.00D+00 WtEn= 0.00D+00
 Coeff-Com: -0.260D+00 0.770D+00-0.153D+01 0.202D+01
 Coeff:     -0.260D+00 0.770D+00-0.153D+01 0.202D+01
 Gap=     0.401 Goal=   None    Shift=    0.000
 Gap=     0.373 Goal=   None    Shift=    0.000
 RMSDP=1.83D-04 MaxDP=7.49D-04 DE=-3.39D-06 OVMax= 8.91D-04

 Cycle   5  Pass 1  IDiag  3:
 E= 0.954953265526353E-01 Delta-E=       -0.000000519728 Rises=F Damp=F
 DIIS: error= 3.49D-05 at cycle   5 NSaved=   5.
 NSaved= 5 IEnMin= 5 EnMin= 0.954953265526353E-01 IErMin= 5 ErrMin= 3.49D-05
 ErrMax= 3.49D-05  0.00D+00 EMaxC= 1.00D-01 BMatC= 2.67D-08 BMatP= 1.53D-07
 IDIUse=1 WtCom= 1.00D+00 WtEn= 0.00D+00
 Coeff-Com:  0.299D+00-0.888D+00 0.180D+01-0.269D+01 0.248D+01
 Coeff:      0.299D+00-0.888D+00 0.180D+01-0.269D+01 0.248D+01
 Gap=     0.401 Goal=   None    Shift=    0.000
 Gap=     0.373 Goal=   None    Shift=    0.000
 RMSDP=1.03D-04 MaxDP=5.00D-04 DE=-5.20D-07 OVMax= 3.89D-04

 Cycle   6  Pass 1  IDiag  3:
 E= 0.954952191808456E-01 Delta-E=       -0.000000107372 Rises=F Damp=F
 DIIS: error= 9.84D-06 at cycle   6 NSaved=   6.
 NSaved= 6 IEnMin= 6 EnMin= 0.954952191808456E-01 IErMin= 6 ErrMin= 9.84D-06
 ErrMax= 9.84D-06  0.00D+00 EMaxC= 1.00D-01 BMatC= 2.14D-09 BMatP= 2.67D-08
 IDIUse=1 WtCom= 1.00D+00 WtEn= 0.00D+00
 Coeff-Com: -0.270D+00 0.802D+00-0.164D+01 0.250D+01-0.252D+01 0.213D+01
 Coeff:     -0.270D+00 0.802D+00-0.164D+01 0.250D+01-0.252D+01 0.213D+01
 Gap=     0.401 Goal=   None    Shift=    0.000
 Gap=     0.373 Goal=   None    Shift=    0.000
 RMSDP=2.51D-05 MaxDP=1.27D-04 DE=-1.07D-07 OVMax= 1.17D-04

 Cycle   7  Pass 1  IDiag  3:
 E= 0.954952127584807E-01 Delta-E=       -0.000000006422 Rises=F Damp=F
 DIIS: error= 1.46D-06 at cycle   7 NSaved=   7.
 NSaved= 7 IEnMin= 7 EnMin= 0.954952127584807E-01 IErMin= 7 ErrMin= 1.46D-06
 ErrMax= 1.46D-06  0.00D+00 EMaxC= 1.00D-01 BMatC= 9.47D-11 BMatP= 2.14D-09
 IDIUse=1 WtCom= 1.00D+00 WtEn= 0.00D+00
 Coeff-Com:  0.184D+00-0.547D+00 0.111D+01-0.170D+01 0.172D+01-0.152D+01
 Coeff-Com:  0.175D+01
 Coeff:      0.184D+00-0.547D+00 0.111D+01-0.170D+01 0.172D+01-0.152D+01
 Coeff:      0.175D+01
 Gap=     0.401 Goal=   None    Shift=    0.000
 Gap=     0.373 Goal=   None    Shift=    0.000
 RMSDP=3.20D-06 MaxDP=1.46D-05 DE=-6.42D-09 OVMax= 1.27D-05

 Cycle   8  Pass 1  IDiag  3:
 E= 0.954952125429482E-01 Delta-E=       -0.000000000216 Rises=F Damp=F
 DIIS: error= 6.18D-07 at cycle   8 NSaved=   8.
 NSaved= 8 IEnMin= 8 EnMin= 0.954952125429482E-01 IErMin= 8 ErrMin= 6.18D-07
 ErrMax= 6.18D-07  0.00D+00 EMaxC= 1.00D-01 BMatC= 1.26D-11 BMatP= 9.47D-11
 IDIUse=1 WtCom= 1.00D+00 WtEn= 0.00D+00
 Coeff-Com: -0.489D-01 0.145D+00-0.295D+00 0.455D+00-0.465D+00 0.411D+00
 Coeff-Com: -0.761D+00 0.156D+01
 Coeff:     -0.489D-01 0.145D+00-0.295D+00 0.455D+00-0.465D+00 0.411D+00
 Coeff:     -0.761D+00 0.156D+01
 Gap=     0.401 Goal=   None    Shift=    0.000
 Gap=     0.373 Goal=   None    Shift=    0.000
 RMSDP=1.27D-06 MaxDP=6.64D-06 DE=-2.16D-10 OVMax= 6.61D-06

 Cycle   9  Pass 1  IDiag  3:
 E= 0.954952125114321E-01 Delta-E=       -0.000000000032 Rises=F Damp=F
 DIIS: error= 2.04D-07 at cycle   9 NSaved=   9.
 NSaved= 9 IEnMin= 9 EnMin= 0.954952125114321E-01 IErMin= 9 ErrMin= 2.04D-07
 ErrMax= 2.04D-07  0.00D+00 EMaxC= 1.00D-01 BMatC= 1.75D-12 BMatP= 1.26D-11
 IDIUse=1 WtCom= 1.00D+00 WtEn= 0.00D+00
 Coeff-Com: -0.325D-02 0.979D-02-0.203D-01 0.296D-01-0.287D-01 0.290D-01
 Coeff-Com:  0.121D+00-0.856D+00 0.172D+01
 Coeff:     -0.325D-02 0.979D-02-0.203D-01 0.296D-01-0.287D-01 0.290D-01
 Coeff:      0.121D+00-0.856D+00 0.172D+01
 Gap=     0.401 Goal=   None    Shift=    0.000
 Gap=     0.373 Goal=   None    Shift=    0.000
 RMSDP=5.62D-07 MaxDP=2.78D-06 DE=-3.15D-11 OVMax= 2.76D-06

 Cycle  10  Pass 1  IDiag  3:
 E= 0.954952125067123E-01 Delta-E=       -0.000000000005 Rises=F Damp=F
 DIIS: error= 4.60D-08 at cycle  10 NSaved=  10.
 NSaved=10 IEnMin=10 EnMin= 0.954952125067123E-01 IErMin=10 ErrMin= 4.60D-08
 ErrMax= 4.60D-08  0.00D+00 EMaxC= 1.00D-01 BMatC= 1.37D-13 BMatP= 1.75D-12
 IDIUse=1 WtCom= 1.00D+00 WtEn= 0.00D+00
 Coeff-Com:  0.869D-03-0.270D-02 0.591D-02-0.757D-02 0.659D-02-0.100D-01
 Coeff-Com: -0.136D+00 0.859D+00-0.183D+01 0.212D+01
 Coeff:      0.869D-03-0.270D-02 0.591D-02-0.757D-02 0.659D-02-0.100D-01
 Coeff:     -0.136D+00 0.859D+00-0.183D+01 0.212D+01
 Gap=     0.401 Goal=   None    Shift=    0.000
 Gap=     0.373 Goal=   None    Shift=    0.000
 RMSDP=1.66D-07 MaxDP=7.13D-07 DE=-4.72D-12 OVMax= 6.23D-07

 Cycle  11  Pass 1  IDiag  3:
 E= 0.954952125063411E-01 Delta-E=       -0.000000000000 Rises=F Damp=F
 DIIS: error= 1.25D-08 at cycle  11 NSaved=  11.
 NSaved=11 IEnMin=11 EnMin= 0.954952125063411E-01 IErMin=11 ErrMin= 1.25D-08
 ErrMax= 1.25D-08  0.00D+00 EMaxC= 1.00D-01 BMatC= 7.29D-15 BMatP= 1.37D-13
 IDIUse=1 WtCom= 1.00D+00 WtEn= 0.00D+00
 Coeff-Com: -0.438D-04 0.228D-03-0.795D-03-0.662D-04 0.101D-02 0.264D-02
 Coeff-Com:  0.123D+00-0.741D+00 0.157D+01-0.190D+01 0.194D+01
 Coeff:     -0.438D-04 0.228D-03-0.795D-03-0.662D-04 0.101D-02 0.264D-02
 Coeff:      0.123D+00-0.741D+00 0.157D+01-0.190D+01 0.194D+01
 Gap=     0.401 Goal=   None    Shift=    0.000
 Gap=     0.373 Goal=   None    Shift=    0.000
 RMSDP=3.52D-08 MaxDP=1.73D-07 DE=-3.71D-13 OVMax= 0.00D+00

 Cycle  12  Pass 1  IDiag  3:
 E= 0.954952125063127E-01 Delta-E=       -0.000000000000 Rises=F Damp=F
 DIIS: error= 5.28D-09 at cycle  12 NSaved=  12.
 NSaved=12 IEnMin=12 EnMin= 0.954952125063127E-01 IErMin=12 ErrMin= 5.28D-09
 ErrMax= 5.28D-09  0.00D+00 EMaxC= 1.00D-01 BMatC= 1.01D-15 BMatP= 7.29D-15
 IDIUse=1 WtCom= 1.00D+00 WtEn= 0.00D+00
 Coeff-Com:  0.106D-03-0.407D-03 0.114D-02-0.578D-03-0.251D-03-0.300D-02
 Coeff-Com: -0.113D+00 0.683D+00-0.145D+01 0.177D+01-0.212D+01 0.224D+01
 Coeff:      0.106D-03-0.407D-03 0.114D-02-0.578D-03-0.251D-03-0.300D-02
 Coeff:     -0.113D+00 0.683D+00-0.145D+01 0.177D+01-0.212D+01 0.224D+01
 Gap=     0.401 Goal=   None    Shift=    0.000
 Gap=     0.373 Goal=   None    Shift=    0.000
 RMSDP=1.59D-08 MaxDP=7.27D-08 DE=-2.84D-14 OVMax= 4.90D-08

 Cycle  13  Pass 1  IDiag  3:
 E= 0.954952125063198E-01 Delta-E=        0.000000000000 Rises=F Damp=F
 DIIS: error= 9.30D-10 at cycle  13 NSaved=  13.
 NSaved=13 IEnMin=12 EnMin= 0.954952125063127E-01 IErMin=13 ErrMin= 9.30D-10
 ErrMax= 9.30D-10  0.00D+00 EMaxC= 1.00D-01 BMatC= 4.90D-17 BMatP= 1.01D-15
 IDIUse=1 WtCom= 1.00D+00 WtEn= 0.00D+00
 Coeff-Com: -0.448D-04 0.211D-03-0.692D-03 0.634D-04 0.646D-03 0.215D-02
 Coeff-Com:  0.963D-01-0.581D+00 0.123D+01-0.150D+01 0.183D+01-0.206D+01
 Coeff-Com:  0.198D+01
 Coeff:     -0.448D-04 0.211D-03-0.692D-03 0.634D-04 0.646D-03 0.215D-02
 Coeff:      0.963D-01-0.581D+00 0.123D+01-0.150D+01 0.183D+01-0.206D+01
 Coeff:      0.198D+01
 Gap=     0.401 Goal=   None    Shift=    0.000
 Gap=     0.373 Goal=   None    Shift=    0.000
 RMSDP=2.92D-09 MaxDP=1.38D-08 DE= 7.11D-15 OVMax= 0.00D+00

 SCF Done:  E(UAM1) =  0.954952125063E-01 A.U. after   13 cycles
            NFock= 13  Conv=0.29D-08     -V/T= 1.0102
 <Sx>= 0.0000 <Sy>= 0.0000 <Sz>= 0.5000 <S**2>= 0.7730 S= 0.5114
 <L.S>= 0.000000000000E+00
 KE=-9.348502772326D+00 PE=-1.274230150074D+01 EE= 8.722448094923D+00
 Annihilation of the first spin contaminant:
 S**2 before annihilation     0.7730,   after     0.7500
 Leave Link  502 at Wed Oct 21 14:18:30 2020, MaxMem=  2684354560 cpu:              31.2 elap:               4.0
 (Enter /udrive/faculty/rpeverati/g16/g16/l508.exe)
 QCSCF skips out because SCF is already converged.
 Leave Link  508 at Wed Oct 21 14:18:31 2020, MaxMem=  2684354560 cpu:               1.0 elap:               0.9
 (Enter /udrive/faculty/rpeverati/g16/g16/l701.exe)
 ... and contract with generalized density number  0.
 Compute integral first derivatives.
 Leave Link  701 at Wed Oct 21 14:18:33 2020, MaxMem=  2684354560 cpu:               4.2 elap:               0.9
 (Enter /udrive/faculty/rpeverati/g16/g16/l702.exe)
 L702 exits ... SP integral derivatives will be done elsewhere.
 Leave Link  702 at Wed Oct 21 14:18:34 2020, MaxMem=  2684354560 cpu:               2.2 elap:               0.7
 (Enter /udrive/faculty/rpeverati/g16/g16/l703.exe)
 Integral derivatives from FoFJK, PRISM(SPDF).
 Compute integral first derivatives, UseDBF=F ICtDFT=           0.
 Calling FoFJK, ICntrl=      2127 FMM=F ISym2X=0 I1Cent= 0 IOpClX= 1 NMat=1 NMatS=1 NMatT=0.
 FoFJK:  IHMeth= 8 ICntrl=    2127 DoSepK=F KAlg= 0 I1Cent=           0 FoldK=F
 IRaf=         0 NMat=       1 IRICut=       1 DoRegI=T DoRafI=F ISym2E= 0 IDoP0=3 IntGTp=3.
 FoFCou: FMM=F IPFlag=           0 FMFlag=      100000 FMFlg1=         800
         NFxFlg=           0 DoJE=F BraDBF=F KetDBF=F FulRan=T
         wScrn=  0.000000 ICntrl=      2127 IOpCl=  1 I1Cent=           0 NGrid=           0
         NMat0=    1 NMatS0=      1 NMatT0=    0 NMatD0=    1 NMtDS0=    0 NMtDT0=    0
 Symmetry not used in FoFCou.
 Leave Link  703 at Wed Oct 21 14:18:35 2020, MaxMem=  2684354560 cpu:               3.3 elap:               1.1
 (Enter /udrive/faculty/rpeverati/g16/g16/l716.exe)
 Dipole        =-4.30539282D-01-1.06154994D-03 7.88837159D-01
 ***** Axes restored to original set *****
 -------------------------------------------------------------------
 Center     Atomic                   Forces (Hartrees/Bohr)
 Number     Number              X              Y              Z
 -------------------------------------------------------------------
      1       15          -0.024113756   -0.000292655    0.027710583
      2        1           0.001784079   -0.010363174   -0.012276295
      3        1           0.001271033    0.010371614   -0.012327618
      4        1          -0.003438896    0.001209543    0.000771606
      5        1           0.024497539   -0.000925328   -0.003878277
 -------------------------------------------------------------------
 Cartesian Forces:  Max     0.027710583 RMS     0.012914561
 Leave Link  716 at Wed Oct 21 14:18:37 2020, MaxMem=  2684354560 cpu:               1.6 elap:               0.9
 (Enter /udrive/faculty/rpeverati/g16/g16/l103.exe)

 GradGradGradGradGradGradGradGradGradGradGradGradGradGradGradGradGradGrad
 Berny optimization.
 Optmz: redundant internal coordinate code flag= 1
 Red2BG:  D1=  1.71D-01 OD1=  2.95D-02 B2RMS=  0.00D+00 IAprox=0
 FormGI is forming the generalized inverse of G from B-inverse, IUseBI=4.
 Internal  Forces:  Max     0.024813223 RMS     0.012832357
 Search for a saddle point.
 Step number   2 out of a maximum of   50
 All quantities printed in internal units (Hartrees-Bohrs-Radians)
 Swapping is turned off.
 Update second derivatives using D2CorX and points    1    2
 The second derivative matrix:
                          R1        R2        R3        R4        A1
           R1           0.21292
           R2           0.00006   0.21295
           R3           0.00237   0.00240   0.18196
           R4          -0.00880  -0.00869  -0.00311   0.02829
           A1           0.00119   0.00117   0.00042   0.00901   0.15878
           A2           0.00131   0.00130   0.00032   0.01049  -0.00142
           A3           0.00111   0.00110   0.00013   0.00948  -0.00128
           A4           0.00017   0.00017   0.00069  -0.00119   0.00016
           A5           0.00132   0.00140   0.00965  -0.02549   0.00343
           D1           0.00057   0.00057   0.00146  -0.00058   0.00008
                          A2        A3        A4        A5        D1
           A2           0.15835
           A3          -0.00148   0.15867
           A4           0.00017   0.00013   0.00237
           A5           0.00373   0.00310   0.00080   0.01081
           D1           0.00005   0.00001   0.00016   0.00228   0.00264
 ITU=  0  0
 Eigenvectors of the second derivative matrix:
                           1         2         3         4         5
     Eigenvalues --    -0.00888   0.00232   0.04390   0.08113   0.15872
   1         R1        -0.01972   0.00032   0.04564   0.00659   0.01350
   2         R2        -0.01916   0.00029   0.04540   0.00660   0.01331
   3         R3         0.03139  -0.00204   0.05718   0.01537   0.00190
   4         R4        -0.59246   0.02119   0.78046   0.15512  -0.10078
   5         A1         0.03755  -0.00113  -0.09858   0.69393   0.08596
   6         A2         0.05533  -0.00185  -0.05827   0.03525  -0.73977
   7         A3         0.04863  -0.00160  -0.05414   0.03486  -0.65926
   8         A4        -0.00856   0.99941  -0.03293  -0.00248  -0.00054
   9         A5        -0.79902  -0.02686  -0.59603  -0.03933  -0.01281
  10         D1        -0.04361   0.00133   0.10531  -0.70005  -0.00619
                           6         7         8         9
     Eigenvalues --     0.16000   0.18218   0.21287   0.21437
   1         R1         0.00069  -0.08443   0.71361  -0.69350
   2         R2         0.00070  -0.08534  -0.70054  -0.70661
   3         R3         0.00579   0.99084   0.00045  -0.11710
   4         R4         0.00036  -0.02026  -0.00098   0.06919
   5         A1        -0.00407  -0.00624   0.00002   0.00149
   6         A2        -0.66556   0.00397   0.00032  -0.02030
   7         A3         0.74631  -0.00394   0.00027  -0.01595
   8         A4        -0.00006   0.00404   0.00000  -0.00199
   9         A5        -0.00092   0.05744  -0.00003  -0.02416
  10         D1        -0.00011   0.00625  -0.00005   0.00058
 RLam0= 1.13D-02.
 Iter=   1 RLamda= 0.00000000D+00 Sum=-1.81638492D-02.
 Iter=   2 RLamda=-1.81638492D-02 Sum=-1.30089085D-02.
 Iter=   3 RLamda=-1.30089085D-02 Sum=-1.39588327D-02.
 Iter=   4 RLamda=-1.39588327D-02 Sum=-1.37703770D-02.
 Iter=   5 RLamda=-1.37703770D-02 Sum=-1.38072310D-02.
 Iter=   6 RLamda=-1.38072310D-02 Sum=-1.38000036D-02.
 Iter=   7 RLamda=-1.38000036D-02 Sum=-1.38014201D-02.
 Iter=   8 RLamda=-1.38014201D-02 Sum=-1.38011425D-02.
 Iter=   9 RLamda=-1.38011425D-02 Sum=-1.38011969D-02.
 Iter=  10 RLamda=-1.38011969D-02 Sum=-1.38011862D-02.
 Iter=  11 RLamda=-1.38011862D-02 Sum=-1.38011883D-02.
 RFO step:  Lambda0=1.127308547D-02 Lambda=-1.38011862D-02.
 Linear search not attempted -- option 19 set.
 Maximum step size (   0.100) exceeded in Quadratic search.
    -- Step size scaled by   0.115
 Iteration  1 RMS(Cart)=  0.03460004 RMS(Int)=  0.00134942
 Iteration  2 RMS(Cart)=  0.00144970 RMS(Int)=  0.00000157
 Iteration  3 RMS(Cart)=  0.00000169 RMS(Int)=  0.00000015
 Iteration  4 RMS(Cart)=  0.00000000 RMS(Int)=  0.00000015
 ITry= 1 IFail=0 DXMaxC= 5.59D-02 DCOld= 1.00D+10 DXMaxT= 1.00D-01 DXLimC= 3.00D+00 Rises=F
 Variable       Old X    -DE/DX   Delta X   Delta X   Delta X     New X
                                 (Linear)    (Quad)   (Total)
    R1        2.65175  -0.01588   0.00000  -0.00765  -0.00765   2.64409
    R2        2.65176  -0.01590   0.00000  -0.00770  -0.00770   2.64405
    R3        2.77114  -0.02102   0.00000  -0.01697  -0.01697   2.75417
    R4        2.33852  -0.02481   0.00000   0.01552   0.01552   2.35404
    A1        1.63867   0.00224   0.00000   0.00081   0.00081   1.63948
    A2        1.62370   0.00595   0.00000   0.00056   0.00056   1.62425
    A3        1.62434   0.00581   0.00000   0.00095   0.00095   1.62529
    A4        2.95722  -0.00117   0.00000  -0.00995  -0.00995   2.94727
    A5        3.26707   0.00052   0.00000   0.09619   0.09619   3.36326
    D1       -1.64171  -0.00292   0.00000  -0.00090  -0.00090  -1.64261
         Item               Value     Threshold  Converged?
 Maximum Force            0.024813     0.000450     NO 
 RMS     Force            0.012832     0.000300     NO 
 Maximum Displacement     0.055869     0.001800     NO 
 RMS     Displacement     0.035149     0.001200     NO 
 Predicted change in Energy=-2.503137D-04
 Lowest energy point so far.  Saving SCF results.
 Largest change from initial coordinates is atom    5       0.060 Angstoms.
 GradGradGradGradGradGradGradGradGradGradGradGradGradGradGradGradGradGrad

 Leave Link  103 at Wed Oct 21 14:18:39 2020, MaxMem=  2684354560 cpu:              13.9 elap:               1.9
 (Enter /udrive/faculty/rpeverati/g16/g16/l202.exe)
                          Input orientation:                          
 ---------------------------------------------------------------------
 Center     Atomic      Atomic             Coordinates (Angstroms)
 Number     Number       Type             X           Y           Z
 ---------------------------------------------------------------------
      1         15           0        0.200405   -0.000065   -0.103249
      2          1           0        0.235185    1.027614    0.845651
      3          1           0        0.248762   -1.017834    0.855652
      4          1           0       -1.256093   -0.008957   -0.155065
      5          1           0       -2.472263   -0.001984    0.114499
 ---------------------------------------------------------------------
                    Distance matrix (angstroms):
                    1          2          3          4          5
     1  P    0.000000
     2  H    1.399194   0.000000
     3  H    1.399172   2.045517   0.000000
     4  H    1.457447   2.073600   2.074600   0.000000
     5  H    2.681525   2.987462   2.997538   1.245707   0.000000
 Stoichiometry    H4P(2)
 Framework group  C1[X(H4P)]
 Deg. of freedom     9
 Full point group                 C1      NOp   1
 RotChk:  IX=0 Diff= 2.99D-02
 Largest Abelian subgroup         C1      NOp   1
 Largest concise Abelian subgroup C1      NOp   1
                         Standard orientation:                         
 ---------------------------------------------------------------------
 Center     Atomic      Atomic             Coordinates (Angstroms)
 Number     Number       Type             X           Y           Z
 ---------------------------------------------------------------------
      1         15           0        0.212715    0.000056   -0.109599
      2          1           0        0.250243    1.026345    0.840698
      3          1           0        0.262411   -1.019124    0.847733
      4          1           0       -1.243896   -0.007748   -0.158310
      5          1           0       -2.459482   -0.000316    0.113867
 ---------------------------------------------------------------------
 Rotational constants (GHZ):         130.8132703          47.5629969          46.0315871
 Leave Link  202 at Wed Oct 21 14:18:40 2020, MaxMem=  2684354560 cpu:               2.2 elap:               0.9
 (Enter /udrive/faculty/rpeverati/g16/g16/l301.exe)
 Standard basis: VSTO-6G (5D, 7F)
 Ernie: Thresh=  0.10000D-02 Tol=  0.10000D-05 Strict=F.
  NNHCO=     0 NNPyr=     0 NCTC=     0               EPep=         0.000000000
    EC=         6.522977387  ECS=         0.227382587   EG=         0.032306811
   EHC=         0.000000000  EAt=        -6.248213507  AtH=         0.452547749
 EPDDG=         0.000000000  ECC=         6.782666786 EAtT=         6.700761256
 There are     8 symmetry adapted cartesian basis functions of A   symmetry.
 There are     8 symmetry adapted basis functions of A   symmetry.
     8 basis functions,    48 primitive gaussians,     8 cartesian basis functions
     5 alpha electrons        4 beta electrons
       nuclear repulsion energy        13.4834280414 Hartrees.
 IExCor=    0 DFT=F Ex=HF Corr=None ExCW=0 ScaHFX=  1.000000
 ScaDFX=  1.000000  1.000000  1.000000  1.000000 ScalE2=  1.000000  1.000000
 IRadAn=      5 IRanWt=     -1 IRanGd=            0 ICorTp=0 IEmpDi=  4
 Integral buffers will be    131072 words long.
 Regular integral format.
 Two-electron integral symmetry is turned off.
 Leave Link  301 at Wed Oct 21 14:18:42 2020, MaxMem=  2684354560 cpu:               4.3 elap:               1.0
 (Enter /udrive/faculty/rpeverati/g16/g16/l302.exe)
 Do NDO integrals.
 NPDir=0 NMtPBC=     1 NCelOv=     1 NCel=       1 NClECP=     1 NCelD=      1
         NCelK=      1 NCelE2=     1 NClLst=     1 CellRange=     0.0.
 One-electron integrals computed using PRISM.
 NBasis=     8 RedAO= F EigKep=  0.00D+00  NBF=     8
 NBsUse=     8 1.00D-04 EigRej=  0.00D+00 NBFU=     8
 Leave Link  302 at Wed Oct 21 14:18:44 2020, MaxMem=  2684354560 cpu:               5.1 elap:               1.2
 (Enter /udrive/faculty/rpeverati/g16/g16/l303.exe)
 DipDrv:  MaxL=1.
 Leave Link  303 at Wed Oct 21 14:18:45 2020, MaxMem=  2684354560 cpu:               4.3 elap:               1.1
 (Enter /udrive/faculty/rpeverati/g16/g16/l401.exe)
 Initial guess from the checkpoint file:  "MN_88_RKT12_BH76_AM1_SE.chk"
 SCF N**3 symmetry information disabled.
 B after Tr=    -0.000000   -0.000000   -0.000000
         Rot=    0.999942   -0.008680    0.004091    0.004829 Ang=  -1.23 deg.
 Guess basis will be translated and rotated to current coordinates.
 JPrj=0 DoOrth=T DoCkMO=T.
 Initial guess <Sx>= 0.0000 <Sy>= 0.0000 <Sz>= 0.5000 <S**2>= 0.7730 S= 0.5114
 Leave Link  401 at Wed Oct 21 14:18:47 2020, MaxMem=  2684354560 cpu:               5.8 elap:               1.2
 (Enter /udrive/faculty/rpeverati/g16/g16/l502.exe)
 Keep J ints in memory in canonical form, NReq=859223.
 FoFCou: FMM=F IPFlag=           0 FMFlag=           0 FMFlg1=           0
         NFxFlg=           0 DoJE=F BraDBF=F KetDBF=F FulRan=T
         wScrn=  0.000000 ICntrl=       600 IOpCl=  2 I1Cent=           0 NGrid=           0
         NMat0=    1 NMatS0=     14 NMatT0=    0 NMatD0=    1 NMtDS0=    0 NMtDT0=    0
 Symmetry not used in FoFCou.
 Two-electron integral symmetry not used.
 UHF open shell SCF:
 Using DIIS extrapolation, IDIIS=  1040.
 Overlap will be assumed to be unity.
 NGot=  2684354560 LenX=  2684294036 LenY=  2684293154
 Requested convergence on RMS density matrix=1.00D-08 within 120 cycles.
 Requested convergence on MAX density matrix=1.00D-06.
 Requested convergence on             energy=1.00D-06.
 No special actions if energy rises.

 Cycle   1  Pass 1  IDiag  1:
 E= 0.953512830157504E-01
 DIIS: error= 1.32D-03 at cycle   1 NSaved=   1.
 NSaved= 1 IEnMin= 1 EnMin= 0.953512830157504E-01 IErMin= 1 ErrMin= 1.32D-03
 ErrMax= 1.32D-03  0.00D+00 EMaxC= 1.00D-01 BMatC= 6.85D-05 BMatP= 6.85D-05
 IDIUse=3 WtCom= 9.87D-01 WtEn= 1.32D-02
 Coeff-Com:  0.100D+01
 Coeff-En:   0.100D+01
 Coeff:      0.100D+01
 GapD=    2.000 DampG=2.000 DampE=1.000 DampFc=2.0000 IDamp=-1.
 RMSDP=1.43D-03 MaxDP=5.09D-03              OVMax= 0.00D+00

 Cycle   2  Pass 1  IDiag  3:
 E= 0.952517094001930E-01 Delta-E=       -0.000099573616 Rises=F Damp=F
 DIIS: error= 6.29D-04 at cycle   2 NSaved=   2.
 NSaved= 2 IEnMin= 2 EnMin= 0.952517094001930E-01 IErMin= 2 ErrMin= 6.29D-04
 ErrMax= 6.29D-04  0.00D+00 EMaxC= 1.00D-01 BMatC= 1.80D-05 BMatP= 6.85D-05
 IDIUse=3 WtCom= 9.94D-01 WtEn= 6.29D-03
 Coeff-Com: -0.906D+00 0.191D+01
 Coeff-En:   0.000D+00 0.100D+01
 Coeff:     -0.901D+00 0.190D+01
 Gap=     0.402 Goal=   None    Shift=    0.000
 Gap=     0.375 Goal=   None    Shift=    0.000
 RMSDP=1.47D-03 MaxDP=5.25D-03 DE=-9.96D-05 OVMax= 0.00D+00

 Cycle   3  Pass 1  IDiag  3:
 E= 0.952110849702823E-01 Delta-E=       -0.000040624430 Rises=F Damp=F
 DIIS: error= 2.14D-04 at cycle   3 NSaved=   3.
 NSaved= 3 IEnMin= 3 EnMin= 0.952110849702823E-01 IErMin= 3 ErrMin= 2.14D-04
 ErrMax= 2.14D-04  0.00D+00 EMaxC= 1.00D-01 BMatC= 1.05D-06 BMatP= 1.80D-05
 IDIUse=3 WtCom= 9.98D-01 WtEn= 2.14D-03
 Coeff-Com:  0.579D+00-0.133D+01 0.175D+01
 Coeff-En:   0.000D+00 0.000D+00 0.100D+01
 Coeff:      0.578D+00-0.132D+01 0.175D+01
 Gap=     0.402 Goal=   None    Shift=    0.000
 Gap=     0.375 Goal=   None    Shift=    0.000
 RMSDP=4.22D-04 MaxDP=1.78D-03 DE=-4.06D-05 OVMax= 0.00D+00

 Cycle   4  Pass 1  IDiag  3:
 E= 0.952078642484828E-01 Delta-E=       -0.000003220722 Rises=F Damp=F
 DIIS: error= 1.00D-04 at cycle   4 NSaved=   4.
 NSaved= 4 IEnMin= 4 EnMin= 0.952078642484828E-01 IErMin= 4 ErrMin= 1.00D-04
 ErrMax= 1.00D-04  0.00D+00 EMaxC= 1.00D-01 BMatC= 2.08D-07 BMatP= 1.05D-06
 IDIUse=3 WtCom= 9.99D-01 WtEn= 1.00D-03
 Coeff-Com: -0.507D+00 0.118D+01-0.188D+01 0.221D+01
 Coeff-En:   0.000D+00 0.000D+00 0.000D+00 0.100D+01
 Coeff:     -0.507D+00 0.118D+01-0.188D+01 0.221D+01
 Gap=     0.402 Goal=   None    Shift=    0.000
 Gap=     0.375 Goal=   None    Shift=    0.000
 RMSDP=2.50D-04 MaxDP=1.27D-03 DE=-3.22D-06 OVMax= 1.32D-03

 Cycle   5  Pass 1  IDiag  3:
 E= 0.952070639426896E-01 Delta-E=       -0.000000800306 Rises=F Damp=F
 DIIS: error= 3.26D-05 at cycle   5 NSaved=   5.
 NSaved= 5 IEnMin= 5 EnMin= 0.952070639426896E-01 IErMin= 5 ErrMin= 3.26D-05
 ErrMax= 3.26D-05  0.00D+00 EMaxC= 1.00D-01 BMatC= 2.84D-08 BMatP= 2.08D-07
 IDIUse=1 WtCom= 1.00D+00 WtEn= 0.00D+00
 Coeff-Com:  0.348D+00-0.816D+00 0.139D+01-0.204D+01 0.212D+01
 Coeff:      0.348D+00-0.816D+00 0.139D+01-0.204D+01 0.212D+01
 Gap=     0.402 Goal=   None    Shift=    0.000
 Gap=     0.375 Goal=   None    Shift=    0.000
 RMSDP=1.08D-04 MaxDP=5.55D-04 DE=-8.00D-07 OVMax= 3.82D-04

 Cycle   6  Pass 1  IDiag  3:
 E= 0.952069568216594E-01 Delta-E=       -0.000000107121 Rises=F Damp=F
 DIIS: error= 5.64D-06 at cycle   6 NSaved=   6.
 NSaved= 6 IEnMin= 6 EnMin= 0.952069568216594E-01 IErMin= 6 ErrMin= 5.64D-06
 ErrMax= 5.64D-06  0.00D+00 EMaxC= 1.00D-01 BMatC= 1.38D-09 BMatP= 2.84D-08
 IDIUse=1 WtCom= 1.00D+00 WtEn= 0.00D+00
 Coeff-Com: -0.277D+00 0.650D+00-0.112D+01 0.167D+01-0.184D+01 0.192D+01
 Coeff:     -0.277D+00 0.650D+00-0.112D+01 0.167D+01-0.184D+01 0.192D+01
 Gap=     0.402 Goal=   None    Shift=    0.000
 Gap=     0.375 Goal=   None    Shift=    0.000
 RMSDP=1.52D-05 MaxDP=6.36D-05 DE=-1.07D-07 OVMax= 0.00D+00

 Cycle   7  Pass 1  IDiag  3:
 E= 0.952069535159534E-01 Delta-E=       -0.000000003306 Rises=F Damp=F
 DIIS: error= 1.14D-06 at cycle   7 NSaved=   7.
 NSaved= 7 IEnMin= 7 EnMin= 0.952069535159534E-01 IErMin= 7 ErrMin= 1.14D-06
 ErrMax= 1.14D-06  0.00D+00 EMaxC= 1.00D-01 BMatC= 6.30D-11 BMatP= 1.38D-09
 IDIUse=1 WtCom= 1.00D+00 WtEn= 0.00D+00
 Coeff-Com:  0.155D+00-0.363D+00 0.624D+00-0.931D+00 0.103D+01-0.120D+01
 Coeff-Com:  0.168D+01
 Coeff:      0.155D+00-0.363D+00 0.624D+00-0.931D+00 0.103D+01-0.120D+01
 Coeff:      0.168D+01
 Gap=     0.402 Goal=   None    Shift=    0.000
 Gap=     0.375 Goal=   None    Shift=    0.000
 RMSDP=2.71D-06 MaxDP=9.81D-06 DE=-3.31D-09 OVMax= 9.80D-06

 Cycle   8  Pass 1  IDiag  3:
 E= 0.952069533787778E-01 Delta-E=       -0.000000000137 Rises=F Damp=F
 DIIS: error= 4.50D-07 at cycle   8 NSaved=   8.
 NSaved= 8 IEnMin= 8 EnMin= 0.952069533787778E-01 IErMin= 8 ErrMin= 4.50D-07
 ErrMax= 4.50D-07  0.00D+00 EMaxC= 1.00D-01 BMatC= 7.15D-12 BMatP= 6.30D-11
 IDIUse=1 WtCom= 1.00D+00 WtEn= 0.00D+00
 Coeff-Com: -0.302D-01 0.710D-01-0.123D+00 0.184D+00-0.207D+00 0.280D+00
 Coeff-Com: -0.635D+00 0.146D+01
 Coeff:     -0.302D-01 0.710D-01-0.123D+00 0.184D+00-0.207D+00 0.280D+00
 Coeff:     -0.635D+00 0.146D+01
 Gap=     0.402 Goal=   None    Shift=    0.000
 Gap=     0.375 Goal=   None    Shift=    0.000
 RMSDP=7.71D-07 MaxDP=4.07D-06 DE=-1.37D-10 OVMax= 0.00D+00

 Cycle   9  Pass 1  IDiag  3:
 E= 0.952069533624584E-01 Delta-E=       -0.000000000016 Rises=F Damp=F
 DIIS: error= 1.90D-07 at cycle   9 NSaved=   9.
 NSaved= 9 IEnMin= 9 EnMin= 0.952069533624584E-01 IErMin= 9 ErrMin= 1.90D-07
 ErrMax= 1.90D-07  0.00D+00 EMaxC= 1.00D-01 BMatC= 1.58D-12 BMatP= 7.15D-12
 IDIUse=1 WtCom= 1.00D+00 WtEn= 0.00D+00
 Coeff-Com:  0.272D-02-0.648D-02 0.117D-01-0.175D-01 0.206D-01-0.580D-01
 Coeff-Com:  0.257D+00-0.125D+01 0.204D+01
 Coeff:      0.272D-02-0.648D-02 0.117D-01-0.175D-01 0.206D-01-0.580D-01
 Coeff:      0.257D+00-0.125D+01 0.204D+01
 Gap=     0.402 Goal=   None    Shift=    0.000
 Gap=     0.375 Goal=   None    Shift=    0.000
 RMSDP=5.98D-07 MaxDP=2.85D-06 DE=-1.63D-11 OVMax= 2.85D-06

 Cycle  10  Pass 1  IDiag  3:
 E= 0.952069533575131E-01 Delta-E=       -0.000000000005 Rises=F Damp=F
 DIIS: error= 5.68D-08 at cycle  10 NSaved=  10.
 NSaved=10 IEnMin=10 EnMin= 0.952069533575131E-01 IErMin=10 ErrMin= 5.68D-08
 ErrMax= 5.68D-08  0.00D+00 EMaxC= 1.00D-01 BMatC= 1.26D-13 BMatP= 1.58D-12
 IDIUse=1 WtCom= 1.00D+00 WtEn= 0.00D+00
 Coeff-Com:  0.151D-03-0.269D-03-0.769D-04 0.327D-03-0.177D-02 0.337D-01
 Coeff-Com: -0.203D+00 0.115D+01-0.210D+01 0.213D+01
 Coeff:      0.151D-03-0.269D-03-0.769D-04 0.327D-03-0.177D-02 0.337D-01
 Coeff:     -0.203D+00 0.115D+01-0.210D+01 0.213D+01
 Gap=     0.402 Goal=   None    Shift=    0.000
 Gap=     0.375 Goal=   None    Shift=    0.000
 RMSDP=1.86D-07 MaxDP=9.61D-07 DE=-4.95D-12 OVMax= 9.04D-07

 Cycle  11  Pass 1  IDiag  3:
 E= 0.952069533571080E-01 Delta-E=       -0.000000000000 Rises=F Damp=F
 DIIS: error= 7.55D-09 at cycle  11 NSaved=  11.
 NSaved=11 IEnMin=11 EnMin= 0.952069533571080E-01 IErMin=11 ErrMin= 7.55D-09
 ErrMax= 7.55D-09  0.00D+00 EMaxC= 1.00D-01 BMatC= 3.30D-15 BMatP= 1.26D-13
 IDIUse=1 WtCom= 1.00D+00 WtEn= 0.00D+00
 Coeff-Com: -0.590D-04 0.869D-04 0.182D-03-0.417D-03 0.131D-02-0.201D-01
 Coeff-Com:  0.119D+00-0.673D+00 0.125D+01-0.134D+01 0.167D+01
 Coeff:     -0.590D-04 0.869D-04 0.182D-03-0.417D-03 0.131D-02-0.201D-01
 Coeff:      0.119D+00-0.673D+00 0.125D+01-0.134D+01 0.167D+01
 Gap=     0.402 Goal=   None    Shift=    0.000
 Gap=     0.375 Goal=   None    Shift=    0.000
 RMSDP=2.24D-08 MaxDP=9.85D-08 DE=-4.05D-13 OVMax= 0.00D+00

 Cycle  12  Pass 1  IDiag  3:
 E= 0.952069533571009E-01 Delta-E=       -0.000000000000 Rises=F Damp=F
 DIIS: error= 2.45D-09 at cycle  12 NSaved=  12.
 NSaved=12 IEnMin=12 EnMin= 0.952069533571009E-01 IErMin=12 ErrMin= 2.45D-09
 ErrMax= 2.45D-09  0.00D+00 EMaxC= 1.00D-01 BMatC= 3.14D-16 BMatP= 3.30D-15
 IDIUse=1 WtCom= 1.00D+00 WtEn= 0.00D+00
 Coeff-Com:  0.301D-04-0.270D-04-0.232D-03 0.453D-03-0.120D-02 0.174D-01
 Coeff-Com: -0.103D+00 0.583D+00-0.108D+01 0.116D+01-0.161D+01 0.202D+01
 Coeff:      0.301D-04-0.270D-04-0.232D-03 0.453D-03-0.120D-02 0.174D-01
 Coeff:     -0.103D+00 0.583D+00-0.108D+01 0.116D+01-0.161D+01 0.202D+01
 Gap=     0.402 Goal=   None    Shift=    0.000
 Gap=     0.375 Goal=   None    Shift=    0.000
 RMSDP=7.09D-09 MaxDP=3.09D-08 DE=-7.11D-15 OVMax= 2.08D-08

 Cycle  13  Pass 2  IDiag  1:
 SCF Done:  E(UAM1) =  0.952069533571E-01 A.U. after   13 cycles
            NFock= 12  Conv=0.71D-08     -V/T= 1.0102
 <Sx>= 0.0000 <Sy>= 0.0000 <Sz>= 0.5000 <S**2>= 0.7711 S= 0.5105
 <L.S>= 0.000000000000E+00
 KE=-9.345755591839D+00 PE=-1.277762438068D+01 EE= 8.735158884431D+00
 Annihilation of the first spin contaminant:
 S**2 before annihilation     0.7711,   after     0.7500
 Leave Link  502 at Wed Oct 21 14:18:50 2020, MaxMem=  2684354560 cpu:              16.4 elap:               2.5
 (Enter /udrive/faculty/rpeverati/g16/g16/l508.exe)
 QCSCF skips out because SCF is already converged.
 Leave Link  508 at Wed Oct 21 14:18:51 2020, MaxMem=  2684354560 cpu:               1.0 elap:               0.7
 (Enter /udrive/faculty/rpeverati/g16/g16/l701.exe)
 ... and contract with generalized density number  0.
 Compute integral first derivatives.
 Leave Link  701 at Wed Oct 21 14:18:53 2020, MaxMem=  2684354560 cpu:               5.0 elap:               1.3
 (Enter /udrive/faculty/rpeverati/g16/g16/l702.exe)
 L702 exits ... SP integral derivatives will be done elsewhere.
 Leave Link  702 at Wed Oct 21 14:18:54 2020, MaxMem=  2684354560 cpu:               3.0 elap:               0.8
 (Enter /udrive/faculty/rpeverati/g16/g16/l703.exe)
 Integral derivatives from FoFJK, PRISM(SPDF).
 Compute integral first derivatives, UseDBF=F ICtDFT=           0.
 Calling FoFJK, ICntrl=      2127 FMM=F ISym2X=0 I1Cent= 0 IOpClX= 1 NMat=1 NMatS=1 NMatT=0.
 FoFJK:  IHMeth= 8 ICntrl=    2127 DoSepK=F KAlg= 0 I1Cent=           0 FoldK=F
 IRaf=         0 NMat=       1 IRICut=       1 DoRegI=T DoRafI=F ISym2E= 0 IDoP0=3 IntGTp=3.
 FoFCou: FMM=F IPFlag=           0 FMFlag=      100000 FMFlg1=         800
         NFxFlg=           0 DoJE=F BraDBF=F KetDBF=F FulRan=T
         wScrn=  0.000000 ICntrl=      2127 IOpCl=  1 I1Cent=           0 NGrid=           0
         NMat0=    1 NMatS0=      1 NMatT0=    0 NMatD0=    1 NMtDS0=    0 NMtDT0=    0
 Symmetry not used in FoFCou.
 Leave Link  703 at Wed Oct 21 14:18:55 2020, MaxMem=  2684354560 cpu:               4.4 elap:               1.0
 (Enter /udrive/faculty/rpeverati/g16/g16/l716.exe)
 Dipole        =-4.45264796D-01-3.57603405D-04 7.71013352D-01
 ***** Axes restored to original set *****
 -------------------------------------------------------------------
 Center     Atomic                   Forces (Hartrees/Bohr)
 Number     Number              X              Y              Z
 -------------------------------------------------------------------
      1       15          -0.023023975    0.000039586    0.025325790
      2        1           0.001937833   -0.009252619   -0.011139270
      3        1           0.001766498    0.009165353   -0.011229982
      4        1          -0.003513021    0.000153790    0.001410261
      5        1           0.022832665   -0.000106110   -0.004366800
 -------------------------------------------------------------------
 Cartesian Forces:  Max     0.025325790 RMS     0.011980404
 Leave Link  716 at Wed Oct 21 14:18:57 2020, MaxMem=  2684354560 cpu:               1.5 elap:               0.8
 (Enter /udrive/faculty/rpeverati/g16/g16/l103.exe)

 GradGradGradGradGradGradGradGradGradGradGradGradGradGradGradGradGradGrad
 Berny optimization.
 Optmz: redundant internal coordinate code flag= 1
 Red2BG:  D1=  1.72D-01 OD1=  2.69D-02 B2RMS=  0.00D+00 IAprox=0
 FormGI is forming the generalized inverse of G from B-inverse, IUseBI=4.
[...]
                                                                                                                              X      
 
 ***** Axes restored to original set *****
 -------------------------------------------------------------------
 Center     Atomic                   Forces (Hartrees/Bohr)
 Number     Number              X              Y              Z
 -------------------------------------------------------------------
      1       15          -0.000001853   -0.000001984    0.000005172
      2        1          -0.000000742    0.000000519   -0.000001739
      3        1           0.000000842    0.000000351   -0.000002551
      4        1           0.000001079    0.000000952   -0.000001118
      5        1           0.000000675    0.000000162    0.000000235
 -------------------------------------------------------------------
 Cartesian Forces:  Max     0.000005172 RMS     0.000001810
 Force constants in Cartesian coordinates: 
                1             2             3             4             5 
      1  0.242743D+00
      2 -0.312991D-03  0.265971D+00
      3  0.111272D-01  0.177117D-04  0.248501D+00
      4 -0.197122D-01 -0.281801D-02 -0.311360D-02  0.216607D-01
      5 -0.127995D-01 -0.125723D+00 -0.914291D-01  0.153889D-01  0.139503D+00
      6 -0.138536D-01 -0.108563D+00 -0.112766D+00  0.151918D-01  0.100470D+00
      7 -0.204418D-01  0.660329D-02 -0.667320D-02  0.671357D-03 -0.106071D-02
      8  0.163363D-01 -0.120548D+00  0.914248D-01  0.158850D-02 -0.128967D-01
      9 -0.182720D-01  0.108137D+00 -0.117209D+00  0.806311D-03 -0.819884D-02
     10 -0.206768D+00 -0.354381D-02 -0.800686D-03 -0.255564D-02 -0.147276D-02
     11 -0.330095D-02 -0.198634D-01 -0.325078D-05 -0.141434D-01 -0.882725D-03
     12  0.208867D-01  0.406428D-03 -0.186974D-01 -0.128760D-01 -0.850804D-03
     13  0.417839D-02  0.715302D-04 -0.539726D-03 -0.640641D-04 -0.559438D-04
     14  0.772102D-04  0.162977D-03 -0.101960D-04 -0.156507D-04  0.000000D+00
     15  0.111928D-03  0.218999D-05  0.172510D-03 -0.855274D-05  0.915892D-05
                6             7             8             9            10 
      6  0.102981D+00
      7  0.516072D-03  0.229746D-01
      8  0.871541D-02 -0.193234D-01  0.133717D+00
      9  0.919861D-02  0.193756D-01 -0.100515D+00  0.107451D+00
     10 -0.185960D-02 -0.313742D-02  0.134519D-02 -0.191438D-02  0.207368D+00
     11 -0.631775D-03  0.137677D-01 -0.274900D-03  0.586380D-03  0.357101D-02
     12  0.580910D-03 -0.132101D-01  0.383845D-03  0.553397D-03  0.488690D-02
     13  0.526609D-05 -0.666873D-04  0.535479D-04  0.445694D-05  0.509247D-02
     14  0.980812D-05  0.128775D-04  0.194035D-05 -0.951215D-05  0.100355D-03
     15  0.592655D-05 -0.849066D-05 -0.936095D-05  0.634273D-05 -0.312358D-03
               11            12            13            14            15 
     11  0.213332D-01
     12  0.547346D-04  0.178935D-01
     13  0.105658D-03  0.312637D-03 -0.913994D-02
     14 -0.311662D-03  0.579257D-05 -0.174788D-03  0.147024D-03
     15 -0.609750D-05 -0.330572D-03  0.217465D-03  0.410928D-05  0.145789D-03
 FormGI is forming the generalized inverse of G from B-inverse, IUseBI=4.
 Force constants in internal coordinates: 
                1             2             3             4             5 
      1  0.225572D+00
      2  0.275095D-02  0.225570D+00
      3  0.266576D-02  0.265777D-02  0.208521D+00
      4  0.542493D-04  0.453021D-04 -0.403958D-02 -0.913206D-02
      5  0.319380D-02  0.319313D-02 -0.141880D-02  0.326263D-04  0.329589D-01
      6  0.641067D-02 -0.163761D-02  0.681659D-02  0.133156D-03 -0.100293D-01
      7 -0.163832D-02  0.641251D-02  0.684279D-02  0.158751D-03 -0.100273D-01
      8 -0.282303D-04 -0.360079D-05 -0.804936D-03 -0.870873D-03 -0.261634D-04
      9  0.124280D-04  0.198076D-04  0.566019D-03  0.622452D-03 -0.678288D-05
     10 -0.385279D-02 -0.385268D-02 -0.314397D-03 -0.705796D-04 -0.308623D-01
                6             7             8             9            10 
      6  0.125530D+00
      7  0.249392D-02  0.125531D+00
      8  0.163101D-03 -0.121348D-04  0.145649D-02
      9 -0.239062D-04 -0.116913D-03  0.564883D-04  0.711038D-03
     10 -0.626075D-02 -0.626675D-02  0.716281D-05  0.249633D-04  0.329189D-01
 Leave Link  716 at Wed Oct 21 14:32:50 2020, MaxMem=  2684354560 cpu:               7.8 elap:               1.9
 (Enter /udrive/faculty/rpeverati/g16/g16/l103.exe)

 GradGradGradGradGradGradGradGradGradGradGradGradGradGradGradGradGradGrad
 Berny optimization.
 Optmz: redundant internal coordinate code flag= 1
 Red2BG:  D1=  1.57D-01 OD1=  1.97D-15 B2RMS=  0.00D+00 IAprox=1
 Red2BG is reusing G-inverse.
 Internal  Forces:  Max     0.000002958 RMS     0.000001697
 Search for a local minimum.
 Step number   1 out of a maximum of    2
 All quantities printed in internal units (Hartrees-Bohrs-Radians)
 Second derivative matrix not updated -- analytic derivatives used.
 The second derivative matrix:
                          R1        R2        R3        R4        A1
           R1           0.22557
           R2           0.00275   0.22557
           R3           0.00267   0.00266   0.20852
           R4           0.00005   0.00005  -0.00404  -0.00913
           A1           0.00319   0.00319  -0.00142   0.00003   0.03296
           A2           0.00641  -0.00164   0.00682   0.00013  -0.01003
           A3          -0.00164   0.00641   0.00684   0.00016  -0.01003
           A4          -0.00003  -0.00000  -0.00080  -0.00087  -0.00003
           A5           0.00001   0.00002   0.00057   0.00062  -0.00001
           D1          -0.00385  -0.00385  -0.00031  -0.00007  -0.03086
                          A2        A3        A4        A5        D1
           A2           0.12553
           A3           0.00249   0.12553
           A4           0.00016  -0.00001   0.00146
           A5          -0.00002  -0.00012   0.00006   0.00071
           D1          -0.00626  -0.00627   0.00001   0.00002   0.03292
 ITU=  0
 Eigenvectors of the second derivative matrix:
                           1         2         3         4         5
     Eigenvalues --    -0.00932   0.00075   0.00153   0.06327   0.12239
   1         R1        -0.00037  -0.00006  -0.00015   0.03136  -0.05648
   2         R2        -0.00033  -0.00011   0.00002   0.03135   0.05651
   3         R3         0.01904  -0.00152  -0.00230  -0.00261   0.00025
   4         R4         0.99442   0.06376   0.08183  -0.00098  -0.00015
   5         A1        -0.00036   0.00015  -0.00039  -0.69494   0.00000
   6         A2        -0.00199   0.00019   0.00134  -0.04050   0.70462
   7         A3        -0.00212   0.00094  -0.00013  -0.04040  -0.70507
   8         A4         0.08213  -0.00295  -0.99661   0.00031   0.00103
   9         A5        -0.06326   0.99796  -0.00818   0.00043   0.00054
  10         D1         0.00089  -0.00030   0.00024   0.71541   0.00008
                           6         7         8         9
     Eigenvalues --     0.12896   0.20889   0.22347   0.22971
   1         R1         0.02777   0.14753   0.70463   0.69050
   2         R2         0.02776   0.14721  -0.70507   0.69012
   3         R3         0.11963  -0.97170   0.00019   0.20276
   4         R4        -0.00492   0.01795   0.00002  -0.00307
   5         A1         0.13038   0.02241  -0.00001   0.02154
   6         A2        -0.69487  -0.07569   0.05649   0.04595
   7         A3        -0.69438  -0.07602  -0.05650   0.04598
   8         A4        -0.00157   0.00361  -0.00003  -0.00077
   9         A5         0.00127  -0.00251   0.00000   0.00056
  10         D1         0.04609  -0.00325   0.00001  -0.03366
 Eigenvalue     1 is  -9.32D-03 should be greater than     0.000000 Eigenvector:
                          R4        A4        A5        R3        A3
   1                    0.99442   0.08213  -0.06326   0.01904  -0.00212
                          A2        D1        R1        A1        R2
   1                   -0.00199   0.00089  -0.00037  -0.00036  -0.00033
 Angle between quadratic step and forces=  74.59 degrees.
 Linear search not attempted -- first point.
 Iteration  1 RMS(Cart)=  0.00032320 RMS(Int)=  0.00000009
 Iteration  2 RMS(Cart)=  0.00000011 RMS(Int)=  0.00000000
 ITry= 1 IFail=0 DXMaxC= 5.69D-04 DCOld= 1.00D+10 DXMaxT= 3.00D-01 DXLimC= 3.00D+00 Rises=F
 Variable       Old X    -DE/DX   Delta X   Delta X   Delta X     New X
                                 (Linear)    (Quad)   (Total)
    R1        2.57616  -0.00000   0.00000  -0.00000  -0.00000   2.57616
    R2        2.57617  -0.00000   0.00000  -0.00001  -0.00001   2.57616
    R3        2.59397  -0.00000   0.00000  -0.00001  -0.00001   2.59396
    R4        3.19815  -0.00000   0.00000  -0.00002  -0.00002   3.19813
    A1        1.68408   0.00000   0.00000   0.00003   0.00003   1.68411
    A2        1.68331  -0.00000   0.00000  -0.00001  -0.00001   1.68330
    A3        1.68328   0.00000   0.00000   0.00003   0.00003   1.68330
    A4        3.09314  -0.00000   0.00000  -0.00060  -0.00060   3.09255
    A5        3.21851   0.00000   0.00000   0.00025   0.00025   3.21875
    D1       -1.69839  -0.00000   0.00000  -0.00004  -0.00004  -1.69842
         Item               Value     Threshold  Converged?
 Maximum Force            0.000003     0.000450     YES
 RMS     Force            0.000002     0.000300     YES
 Maximum Displacement     0.000569     0.001800     YES
 RMS     Displacement     0.000323     0.001200     YES
 Predicted change in Energy=-5.296034D-10
 Optimization completed.
    -- Stationary point found.
                           ----------------------------
                           !   Optimized Parameters   !
                           ! (Angstroms and Degrees)  !
 --------------------------                            --------------------------
 ! Name  Definition              Value          Derivative Info.                !
 --------------------------------------------------------------------------------
 ! R1    R(1,2)                  1.3632         -DE/DX =    0.0                 !
 ! R2    R(1,3)                  1.3632         -DE/DX =    0.0                 !
 ! R3    R(1,4)                  1.3727         -DE/DX =    0.0                 !
 ! R4    R(4,5)                  1.6924         -DE/DX =    0.0                 !
 ! A1    A(2,1,3)               96.4904         -DE/DX =    0.0                 !
 ! A2    A(2,1,4)               96.4467         -DE/DX =    0.0                 !
 ! A3    A(3,1,4)               96.4447         -DE/DX =    0.0                 !
 ! A4    L(1,4,5,2,-1)         177.2241         -DE/DX =    0.0                 !
 ! A5    L(1,4,5,2,-2)         184.4068         -DE/DX =    0.0                 !
 ! D1    D(2,1,4,3)            -97.3103         -DE/DX =    0.0                 !
 --------------------------------------------------------------------------------
 GradGradGradGradGradGradGradGradGradGradGradGradGradGradGradGradGradGrad

 Leave Link  103 at Wed Oct 21 14:32:53 2020, MaxMem=  2684354560 cpu:              12.7 elap:               2.4
 (Enter /udrive/faculty/rpeverati/g16/g16/l9999.exe)

 ----------------------------------------------------------------------

 Electric dipole moment (input orientation):
 (Debye = 10**-18 statcoulomb cm , SI units = C m)
                  (au)            (Debye)         (10**-30 SI)
   Tot        0.891430D+00      0.226579D+01      0.755786D+01
   x         -0.434306D+00     -0.110390D+01     -0.368220D+01
   y          0.459257D-03      0.116732D-02      0.389375D-02
   z          0.778477D+00      0.197869D+01      0.660020D+01

 Dipole polarizability, Alpha (input orientation).
 (esu units = cm**3 , SI units = C**2 m**2 J**-1)
 Alpha(0;0):
               (au)            (10**-24 esu)      (10**-40 SI)
   iso        0.220932D+02      0.327387D+01      0.364267D+01
   aniso      0.578092D+01      0.856644D+00      0.953145D+00
   xx         0.257486D+02      0.381555D+01      0.424538D+01
   yx         0.102858D+00      0.152419D-01      0.169589D-01
   yy         0.198171D+02      0.293660D+01      0.326740D+01
   zx        -0.951939D+00     -0.141063D+00     -0.156953D+00
   zy        -0.827603D-02     -0.122638D-02     -0.136453D-02
   zz         0.207137D+02      0.306946D+01      0.341523D+01

 First dipole hyperpolarizability, Beta (input orientation).
 ||, _|_  parallel and perpendicular components, (z) with respect to z axis,
 vector components x,y,z.  Values do not include the 1/n! factor of 1/2.
 (esu units = statvolt**-1 cm**4 , SI units = C**3 m**3 J**-2)
 Beta(0;0,0):
               (au)            (10**-30 esu)      (10**-50 SI)
   || (z)     0.109883D+03      0.949301D+00      0.352324D+00
   _|_(z)     0.366276D+02      0.316434D+00      0.117441D+00
   x         -0.480932D+03     -0.415488D+01     -0.154204D+01
   y         -0.299822D+01     -0.259023D-01     -0.961338D-02
   z          0.549414D+03      0.474650D+01      0.176162D+01
   ||         0.146036D+03      0.126163D+01      0.468243D+00
   xxx       -0.196155D+03     -0.169463D+01     -0.628944D+00
   xxy       -0.368940D+01     -0.318735D-01     -0.118295D-01
   yxy       -0.100657D+01     -0.869601D-02     -0.322744D-02
   yyy        0.363343D+01      0.313900D-01      0.116501D-01
   xxz       -0.940953D+00     -0.812910D-02     -0.301704D-02
   yxz       -0.168879D+01     -0.145898D-01     -0.541487D-02
   yyz        0.110487D+03      0.954522D+00      0.354261D+00
   zxz        0.368508D+02      0.318362D+00      0.118157D+00
   zyz       -0.943443D+00     -0.815062D-02     -0.302502D-02
   zzz        0.735917D+02      0.635775D+00      0.235962D+00

 ----------------------------------------------------------------------

 Dipole orientation:
    15          0.30087730          0.02150471         -0.30971040
     1          1.32696291          1.96611914          1.03275860
     1          1.41064875         -1.87661292          1.03274529
     1         -1.97161493         -0.02805008          0.94010018
     1         -4.65638374         -0.08756313          2.67693998

 Electric dipole moment (dipole orientation):
 (Debye = 10**-18 statcoulomb cm , SI units = C m)
                  (au)            (Debye)         (10**-30 SI)
   Tot        0.891430D+00      0.226579D+01      0.755786D+01
   x          0.000000D+00      0.000000D+00      0.000000D+00
   y          0.000000D+00      0.000000D+00      0.000000D+00
   z          0.891430D+00      0.226579D+01      0.755786D+01

 Dipole polarizability, Alpha (dipole orientation).
 (esu units = cm**3 , SI units = C**2 m**2 J**-1)
 Alpha(0;0):
               (au)            (10**-24 esu)      (10**-40 SI)
   iso        0.220932D+02      0.327387D+01      0.364267D+01
   aniso      0.578092D+01      0.856644D+00      0.953145D+00
   xx         0.237435D+02      0.351842D+01      0.391477D+01
   yx         0.866275D-01      0.128369D-01      0.142829D-01
   yy         0.198172D+02      0.293660D+01      0.326741D+01
   zx        -0.264219D+01     -0.391532D+00     -0.435638D+00
   zy        -0.584806D-01     -0.866593D-02     -0.964215D-02
   zz         0.227188D+02      0.336658D+01      0.374583D+01

 First dipole hyperpolarizability, Beta (dipole orientation).
 ||, _|_  parallel and perpendicular components, (z) with respect to z axis,
 vector components x,y,z.  Values do not include the 1/n! factor of 1/2.
 (esu units = statvolt**-1 cm**4 , SI units = C**3 m**3 J**-2)
 Beta(0;0,0):
               (au)            (10**-30 esu)      (10**-50 SI)
   || (z)     0.142821D+03      0.123386D+01      0.457937D+00
   _|_(z)     0.476071D+02      0.411288D+00      0.152646D+00
   x         -0.152318D+03     -0.131591D+01     -0.488388D+00
   y         -0.334572D+01     -0.289044D-01     -0.107276D-01
   z          0.714106D+03      0.616932D+01      0.228968D+01
   ||         0.146036D+03      0.126163D+01      0.468243D+00
   xxx       -0.100263D+03     -0.866196D+00     -0.321480D+00
   xxy       -0.450423D+01     -0.389130D-01     -0.144422D-01
   yxy        0.529518D+02      0.457462D+00      0.169783D+00
   yyy        0.346226D+01      0.299112D-01      0.111013D-01
   xxz        0.111021D+03      0.959138D+00      0.355975D+00
   yxz        0.308429D+00      0.266459D-02      0.988935D-03
   yyz        0.969795D+02      0.837827D+00      0.310951D+00
   zxz       -0.346135D+01     -0.299034D-01     -0.110983D-01
   zyz       -0.732716D-01     -0.633010D-03     -0.234935D-03
   zzz        0.300347D+02      0.259476D+00      0.963021D-01

 ----------------------------------------------------------------------

 Test job not archived.
 1\1\GINC-NODE55\Freq\UAM1\ZDO\H4P1(2)\RPEVERATI\21-Oct-2020\0\\#P Freq
  AM1 5D 7F Integral=UltraFineGrid SCF=(NoSymm,XQC,MaxCyc=120) IOp(1/33
 =1) Geom=Check Guess=Read\\TS search on BH76.\\0,2\P,0.2188927119,0.01
 1316701,-0.0655597521\H,0.3471003439,1.0408009408,0.8188396327\H,0.385
 5046173,-0.9926790753,0.8414566669\H,-1.1535072159,-0.0147269619,-0.07
 38625644\H,-2.841995048,-0.0459367574,0.0366141424\\Version=ES64L-G16R
 evA.03\State=2-A\HF=0.0986823\S2=0.751209\S2-1=0.\S2A=0.75\RMSD=1.560e
 -09\RMSF=1.810e-06\ZeroPoint=0.0241727\Thermal=0.0285094\Dipole=-0.434
 3063,0.0004593,0.7784767\DipoleDeriv=-0.1655106,-0.0005468,-0.0811968,
 -0.0004454,-0.1848491,-0.0000012,-0.0717856,0.000176,-0.047543,0.04885
 33,0.1003328,0.0953094,-0.0528358,0.071755,0.1099699,-0.0678709,-0.142
 4142,0.0010674,0.050677,-0.0989554,0.101634,0.050443,0.0706432,-0.1078
 175,-0.0743259,0.1381556,0.0003687,0.0188517,-0.0019034,-0.1209523,0.0
 017997,0.0484278,-0.0022438,0.2119851,0.0040521,0.0527739,0.047132,0.0
 010729,0.0052062,0.0010385,-0.0059777,0.0000926,0.0019978,0.0000305,-0
 .0066676\Polar=25.7486351,0.1028575,19.8171334,-0.9519387,-0.008276,20
 .7137139\HyperPolar=-196.1549338,-3.6893978,-1.0065729,3.6334337,-0.94
 09533,-1.6887884,110.4870539,36.8507562,-0.9434433,73.5917437\PG=C01 [
 X(H4P1)]\NImag=1\\0.24274308,-0.00031299,0.26597095,0.01112717,0.00001
 771,0.24850057,-0.01971223,-0.00281801,-0.00311360,0.02166067,-0.01279
 954,-0.12572309,-0.09142906,0.01538888,0.13950273,-0.01385356,-0.10856
 299,-0.11276607,0.01519177,0.10046952,0.10298062,-0.02044175,0.0066032
 9,-0.00667320,0.00067136,-0.00106071,0.00051607,0.02297460,0.01633628,
 -0.12054781,0.09142479,0.00158850,-0.01289667,0.00871541,-0.01932344,0
 .13371739,-0.01827204,0.10813667,-0.11720949,0.00080631,-0.00819884,0.
 00919861,0.01937561,-0.10051467,0.10745114,-0.20676781,-0.00354381,-0.
 00080069,-0.00255564,-0.00147276,-0.00185960,-0.00313742,0.00134519,-0
 .00191438,0.20736837,-0.00330095,-0.01986342,-0.00000325,-0.01414343,-
 0.00088272,-0.00063178,0.01376771,-0.00027490,0.00058638,0.00357101,0.
 02133316,0.02088672,0.00040643,-0.01869738,-0.01287603,-0.00085080,0.0
 0058091,-0.01321008,0.00038384,0.00055340,0.00488690,0.00005473,0.0178
 9351,0.00417839,0.00007153,-0.00053973,-0.00006406,-0.00005594,0.00000
 527,-0.00006669,0.00005355,0.00000446,0.00509247,0.00010566,0.00031264
 ,-0.00913994,0.00007721,0.00016298,-0.00001020,-0.00001565,-0.00000027
 ,0.00000981,0.00001288,0.00000194,-0.00000951,0.00010035,-0.00031166,0
 .00000579,-0.00017479,0.00014702,0.00011193,0.00000219,0.00017251,-0.0
 0000855,0.00000916,0.00000593,-0.00000849,-0.00000936,0.00000634,-0.00
 031236,-0.00000610,-0.00033057,0.00021747,0.00000411,0.00014579\\0.000
 00185,0.00000198,-0.00000517,0.00000074,-0.00000052,0.00000174,-0.0000
 0084,-0.00000035,0.00000255,-0.00000108,-0.00000095,0.00000112,-0.0000
 0068,-0.00000016,-0.00000023\\\@


  DISAPPOINTMENT IS THE NURSE OF WISDOM.               
                              SIR BOYLE ROCHE                 
 Job cpu time:       0 days  0 hours  3 minutes 17.9 seconds.
 Elapsed time:       0 days  0 hours  0 minutes 38.8 seconds.
 File lengths (MBytes):  RWF=      5 Int=      0 D2E=      0 Chk=      2 Scr=      1
 Normal termination of Gaussian 16 at Wed Oct 21 14:32:56 2020.
