 Entering Gaussian System, Link 0=g16
 Input=MN_81_RKT04_BH76_AM1_SE.in
 Output=MN_81_RKT04_BH76_AM1_SE.log
 Initial command:
 /udrive/faculty/rpeverati/g16/g16/l1.exe "/udrive/scratch-directories/gaussian09/rpeverati/Gau-2234.inp" -scrdir="/udrive/scratch-directories/gaussian09/rpeverati/"
 Entering Link 1 = /udrive/faculty/rpeverati/g16/g16/l1.exe PID=      2249.
  
 Copyright (c) 1988,1990,1992,1993,1995,1998,2003,2009,2016,
            Gaussian, Inc.  All Rights Reserved.
  
 This is part of the Gaussian(R) 16 program.  It is based on
 the Gaussian(R) 09 system (copyright 2009, Gaussian, Inc.),
 the Gaussian(R) 03 system (copyright 2003, Gaussian, Inc.),
 the Gaussian(R) 98 system (copyright 1998, Gaussian, Inc.),
 the Gaussian(R) 94 system (copyright 1995, Gaussian, Inc.),
 the Gaussian 92(TM) system (copyright 1992, Gaussian, Inc.),
 the Gaussian 90(TM) system (copyright 1990, Gaussian, Inc.),
 the Gaussian 88(TM) system (copyright 1988, Gaussian, Inc.),
 the Gaussian 86(TM) system (copyright 1986, Carnegie Mellon
 University), and the Gaussian 82(TM) system (copyright 1983,
 Carnegie Mellon University). Gaussian is a federally registered
 trademark of Gaussian, Inc.
  
 This software contains proprietary and confidential information,
 including trade secrets, belonging to Gaussian, Inc.
  
 This software is provided under written license and may be
 used, copied, transmitted, or stored only in accord with that
 written license.
  
 The following legend is applicable only to US Government
 contracts under FAR:
  
                    RESTRICTED RIGHTS LEGEND
  
 Use, reproduction and disclosure by the US Government is
 subject to restrictions as set forth in subparagraphs (a)
 and (c) of the Commercial Computer Software - Restricted
 Rights clause in FAR 52.227-19.
  
 Gaussian, Inc.
 340 Quinnipiac St., Bldg. 40, Wallingford CT 06492
  
  
 ---------------------------------------------------------------
 Warning -- This program may not be used in any manner that
 competes with the business of Gaussian, Inc. or will provide
 assistance to any competitor of Gaussian, Inc.  The licensee
 of this program is prohibited from giving any competitor of
 Gaussian, Inc. access to this program.  By using this program,
 the user acknowledges that Gaussian, Inc. is engaged in the
 business of creating and licensing software in the field of
 computational chemistry and represents and warrants to the
 licensee that it is not a competitor of Gaussian, Inc. and that
 it will not use this program in any manner prohibited above.
 ---------------------------------------------------------------
  

 Cite this work as:
 Gaussian 16, Revision A.03,
 M. J. Frisch, G. W. Trucks, H. B. Schlegel, G. E. Scuseria, 
 M. A. Robb, J. R. Cheeseman, G. Scalmani, V. Barone, 
 G. A. Petersson, H. Nakatsuji, X. Li, M. Caricato, A. V. Marenich, 
 J. Bloino, B. G. Janesko, R. Gomperts, B. Mennucci, H. P. Hratchian, 
 J. V. Ortiz, A. F. Izmaylov, J. L. Sonnenberg, D. Williams-Young, 
 F. Ding, F. Lipparini, F. Egidi, J. Goings, B. Peng, A. Petrone, 
 T. Henderson, D. Ranasinghe, V. G. Zakrzewski, J. Gao, N. Rega, 
 G. Zheng, W. Liang, M. Hada, M. Ehara, K. Toyota, R. Fukuda, 
 J. Hasegawa, M. Ishida, T. Nakajima, Y. Honda, O. Kitao, H. Nakai, 
 T. Vreven, K. Throssell, J. A. Montgomery, Jr., J. E. Peralta, 
 F. Ogliaro, M. J. Bearpark, J. J. Heyd, E. N. Brothers, K. N. Kudin, 
 V. N. Staroverov, T. A. Keith, R. Kobayashi, J. Normand, 
 K. Raghavachari, A. P. Rendell, J. C. Burant, S. S. Iyengar, 
 J. Tomasi, M. Cossi, J. M. Millam, M. Klene, C. Adamo, R. Cammi, 
 J. W. Ochterski, R. L. Martin, K. Morokuma, O. Farkas, 
 J. B. Foresman, and D. J. Fox, Gaussian, Inc., Wallingford CT, 2016.
 
 ******************************************
 Gaussian 16:  ES64L-G16RevA.03 25-Dec-2016
                28-Oct-2020 
 ******************************************
 %NoSave
 %nproc=12
 Will use up to   12 processors via shared memory.
 %mem=20GB
 %chk=MN_81_RKT04_BH76_AM1_SE
 ----------------------------------------------------------------------
 #P Opt(TS,MaxCyc=50,NoEigenTest,MaxStep=10,AddRedundant) AM1 5D 7F Int
 egral=UltraFineGrid SCF=(NoSymm,XQC,MaxCyc=120) IOp(1/33=1)
 ----------------------------------------------------------------------
 1/5=1,6=50,8=10,11=1,18=120,26=1,33=1,38=1/1,3;
 2/9=110,12=2,17=6,18=5,40=1/2;
 3/5=2,8=11,25=1,41=700000,71=1,75=-5/1,2,3;
 4/9=2,35=1/1;
 5/5=2,7=120,8=3,13=1,35=1,38=5/2,8;
 6/7=2,8=2,9=2,10=2,28=1/1;
 7//1,2,3,16;
 1/5=1,6=50,8=10,11=1,18=20,26=1,33=1/3(2);
 2/9=110/2;
 99//99;
 2/9=110/2;
 3/5=2,8=11,25=1,41=700000,71=1,75=-5,135=20/1,2,3;
 4/5=5,9=2,16=3,35=1/1;
 5/5=2,7=120,8=3,13=1,35=1,38=5/2,8;
 7//1,2,3,16;
 1/5=1,6=50,8=10,11=1,18=20,26=1,33=1/3(-5);
 2/9=110/2;
 6/7=2,8=2,9=2,10=2,19=2,28=1/1;
 99/9=1/99;
 Leave Link    1 at Wed Oct 28 14:27:02 2020, MaxMem=  2684354560 cpu:               2.5 elap:               0.2
 (Enter /udrive/faculty/rpeverati/g16/g16/l101.exe)
 ONIOM results not found on unit 2.
 ------------------
 TS search on BH76.
 ------------------
 TstMul:  ICh=     0
 TstMul:  Mul=     2
 TstMul:  ICh=     0
 TstMul:  Mul=     2
 Symbolic Z-matrix:
 Charge =  0 Multiplicity = 2
 C                    -1.21149   0.00797   0.00041 
 O                     1.29397  -0.10869   0.00013 
 H                     0.00948  -0.11802   0.0028 
 H                    -1.52553  -0.23325   1.01007 
 H                    -1.43067   1.03323  -0.27808 
 H                    -1.55271  -0.71011  -0.7377 
 H                     1.41664   0.8499   -0.00059 
 
 RdStrC is calling ZToCFu for IStruc=1 NZ=     7.
 PrtBox:  NBox=     1 Levels=  1 BoxLen=    8.00 SMaxX=        5.61
          Shift=            2.934200            1.341920            1.394060
 Box      1 Number                   0 centers from      1 to      7:
 After GenITR:
 ITRead=  0  0  0  0  0  0  0
 MicOpt= -1 -1 -1 -1 -1 -1 -1
 Add virtual bond connecting atoms H3         and O2         Dist= 2.43D+00.
 The following ModRedundant input section has been read:
 B       1       2 D                                                           
 B       2       3 D                                                           
 
 ITRead=  0  0  0  0  0  0  0
 MicOpt= -1 -1 -1 -1 -1 -1 -1
 NAtoms=      7 NQM=        7 NQMF=       0 NMMI=      0 NMMIF=      0
                NMic=       0 NMicF=      0.
                    Isotopes and Nuclear Properties:
 (Nuclear quadrupole moments (NQMom) in fm**2, nuclear magnetic moments (NMagM)
  in nuclear magnetons)

  Atom         1           2           3           4           5           6           7
 IAtWgt=          12          16           1           1           1           1           1
 AtmWgt=  12.0000000  15.9949146   1.0078250   1.0078250   1.0078250   1.0078250   1.0078250
 NucSpn=           0           0           1           1           1           1           1
 AtZEff=   0.0000000   0.0000000   0.0000000   0.0000000   0.0000000   0.0000000   0.0000000
 NQMom=    0.0000000   0.0000000   0.0000000   0.0000000   0.0000000   0.0000000   0.0000000
 NMagM=    0.0000000   0.0000000   2.7928460   2.7928460   2.7928460   2.7928460   2.7928460
 AtZNuc=   6.0000000   8.0000000   1.0000000   1.0000000   1.0000000   1.0000000   1.0000000
 No MM parameters found.
 Leave Link  101 at Wed Oct 28 14:27:02 2020, MaxMem=  2684354560 cpu:               9.3 elap:               0.8
 (Enter /udrive/faculty/rpeverati/g16/g16/l103.exe)

 GradGradGradGradGradGradGradGradGradGradGradGradGradGradGradGradGradGrad
 Berny optimization.
 Optmz: redundant internal coordinate code flag= 1
 Initialization pass.
                           ----------------------------
                           !    Initial Parameters    !
                           ! (Angstroms and Degrees)  !
 --------------------------                            --------------------------
 ! Name  Definition              Value          Derivative Info.                !
 --------------------------------------------------------------------------------
 ! R1    R(1,2)                  2.5082         calc D2E/DXDY, step=    0.0026  !
 ! R2    R(1,3)                  1.2274         estimate D2E/DX2                !
 ! R3    R(1,4)                  1.0845         estimate D2E/DX2                !
 ! R4    R(1,5)                  1.0848         estimate D2E/DX2                !
 ! R5    R(1,6)                  1.0848         estimate D2E/DX2                !
 ! R6    R(2,3)                  1.2845         calc D2E/DXDY, step=    0.0026  !
 ! R7    R(2,7)                  0.9664         estimate D2E/DX2                !
 ! A1    A(3,1,4)              105.2711         estimate D2E/DX2                !
 ! A2    A(3,1,5)              107.367          estimate D2E/DX2                !
 ! A3    A(3,1,6)              104.2563         estimate D2E/DX2                !
 ! A4    A(4,1,5)              112.9983         estimate D2E/DX2                !
 ! A5    A(4,1,6)              113.273          estimate D2E/DX2                !
 ! A6    A(5,1,6)              112.7916         estimate D2E/DX2                !
 ! A7    A(3,2,7)               97.7088         estimate D2E/DX2                !
 ! A8    L(1,3,2,7,-1)         173.692          estimate D2E/DX2                !
 ! A9    L(1,3,2,7,-2)         180.3499         estimate D2E/DX2                !
 ! D1    D(4,1,2,7)           -104.2472         estimate D2E/DX2                !
 ! D2    D(5,1,2,7)             15.3168         estimate D2E/DX2                !
 ! D3    D(6,1,2,7)            134.7639         estimate D2E/DX2                !
 --------------------------------------------------------------------------------
 Maximum allowed force set to 1.00D+20.
 Trust Radius=1.00D-01 FncErr=1.00D-07 GrdErr=1.00D-07 EigMax=2.50D+02 EigMin=1.00D-04
 Number of steps in this run=     50 maximum allowed number of steps=    100.
 Search for a saddle point of order  1.
 GradGradGradGradGradGradGradGradGradGradGradGradGradGradGradGradGradGrad

 Leave Link  103 at Wed Oct 28 14:27:03 2020, MaxMem=  2684354560 cpu:               0.3 elap:               0.1
 (Enter /udrive/faculty/rpeverati/g16/g16/l202.exe)
                          Input orientation:                          
 ---------------------------------------------------------------------
 Center     Atomic      Atomic             Coordinates (Angstroms)
 Number     Number       Type             X           Y           Z
 ---------------------------------------------------------------------
      1          6           0       -1.211488    0.007968    0.000407
      2          8           0        1.293965   -0.108694    0.000133
      3          1           0        0.009476   -0.118020    0.002799
      4          1           0       -1.525528   -0.233250    1.010072
      5          1           0       -1.430668    1.033234   -0.278082
      6          1           0       -1.552712   -0.710113   -0.737705
      7          1           0        1.416639    0.849896   -0.000591
 ---------------------------------------------------------------------
                    Distance matrix (angstroms):
                    1          2          3          4          5
     1  C    0.000000
     2  O    2.508168   0.000000
     3  H    1.227449   1.284526   0.000000
     4  H    1.084542   2.997505   1.839596   0.000000
     5  H    1.084789   2.967327   1.865019   1.808956   0.000000
     6  H    1.084843   3.001613   1.827389   1.811867   1.807044
     7  H    2.759691   0.966408   1.707917   3.294084   2.866665
                    6          7
     6  H    0.000000
     7  H    3.434241   0.000000
 Stoichiometry    CH5O(2)
 Framework group  C1[X(CH5O)]
 Deg. of freedom    15
 Full point group                 C1      NOp   1
 Largest Abelian subgroup         C1      NOp   1
 Largest concise Abelian subgroup C1      NOp   1
                         Standard orientation:                         
 ---------------------------------------------------------------------
 Center     Atomic      Atomic             Coordinates (Angstroms)
 Number     Number       Type             X           Y           Z
 ---------------------------------------------------------------------
      1          6           0       -1.211488    0.007968    0.000407
      2          8           0        1.293965   -0.108694    0.000133
      3          1           0        0.009476   -0.118020    0.002799
      4          1           0       -1.525528   -0.233250    1.010072
      5          1           0       -1.430668    1.033235   -0.278082
      6          1           0       -1.552712   -0.710113   -0.737705
      7          1           0        1.416639    0.849895   -0.000591
 ---------------------------------------------------------------------
 Rotational constants (GHZ):         120.8646308           9.2474374           9.1021904
 Leave Link  202 at Wed Oct 28 14:27:03 2020, MaxMem=  2684354560 cpu:               0.1 elap:               0.0
 (Enter /udrive/faculty/rpeverati/g16/g16/l301.exe)
 Standard basis: VSTO-6G (5D, 7F)
 Ernie: Thresh=  0.10000D-02 Tol=  0.10000D-05 Strict=F.
  NNHCO=     0 NNPyr=     0 NCTC=     0               EPep=         0.000000000
    EC=        20.059557922  ECS=         0.739590148   EG=         0.198506322
   EHC=         0.000000000  EAt=       -18.150397285  AtH=         0.782392968
 EPDDG=         0.000000000  ECC=        20.997654391 EAtT=        18.932790253
 There are    13 symmetry adapted cartesian basis functions of A   symmetry.
 There are    13 symmetry adapted basis functions of A   symmetry.
    13 basis functions,    78 primitive gaussians,    13 cartesian basis functions
     8 alpha electrons        7 beta electrons
       nuclear repulsion energy        39.9304446436 Hartrees.
 IExCor=    0 DFT=F Ex=HF Corr=None ExCW=0 ScaHFX=  1.000000
 ScaDFX=  1.000000  1.000000  1.000000  1.000000 ScalE2=  1.000000  1.000000
 IRadAn=      5 IRanWt=     -1 IRanGd=            0 ICorTp=0 IEmpDi=  4
 Integral buffers will be    131072 words long.
 Regular integral format.
 Two-electron integral symmetry is turned off.
 Leave Link  301 at Wed Oct 28 14:27:03 2020, MaxMem=  2684354560 cpu:               1.0 elap:               0.1
 (Enter /udrive/faculty/rpeverati/g16/g16/l302.exe)
 Do NDO integrals.
 NPDir=0 NMtPBC=     1 NCelOv=     1 NCel=       1 NClECP=     1 NCelD=      1
         NCelK=      1 NCelE2=     1 NClLst=     1 CellRange=     0.0.
 One-electron integrals computed using PRISM.
 NBasis=    13 RedAO= F EigKep=  0.00D+00  NBF=    13
 NBsUse=    13 1.00D-04 EigRej=  0.00D+00 NBFU=    13
 Leave Link  302 at Wed Oct 28 14:27:03 2020, MaxMem=  2684354560 cpu:               1.3 elap:               0.1
 (Enter /udrive/faculty/rpeverati/g16/g16/l303.exe)
 DipDrv:  MaxL=1.
 Leave Link  303 at Wed Oct 28 14:27:03 2020, MaxMem=  2684354560 cpu:               0.6 elap:               0.1
 (Enter /udrive/faculty/rpeverati/g16/g16/l401.exe)
 SCF N**3 symmetry information disabled.
 Simple Huckel Guess.
 JPrj=0 DoOrth=F DoCkMO=F.
 Initial guess <Sx>= 0.0000 <Sy>= 0.0000 <Sz>= 0.5000 <S**2>= 0.7500 S= 0.5000
 Leave Link  401 at Wed Oct 28 14:27:03 2020, MaxMem=  2684354560 cpu:               0.8 elap:               0.1
 (Enter /udrive/faculty/rpeverati/g16/g16/l502.exe)
 Keep J ints in memory in canonical form, NReq=859516.
 FoFCou: FMM=F IPFlag=           0 FMFlag=           0 FMFlg1=           0
         NFxFlg=           0 DoJE=F BraDBF=F KetDBF=F FulRan=T
         wScrn=  0.000000 ICntrl=       600 IOpCl=  2 I1Cent=           0 NGrid=           0
         NMat0=    1 NMatS0=     25 NMatT0=    0 NMatD0=    1 NMtDS0=    0 NMtDT0=    0
 Symmetry not used in FoFCou.
 Two-electron integral symmetry not used.
 UHF open shell SCF:
 Using DIIS extrapolation, IDIIS=  1040.
 Overlap will be assumed to be unity.
 NGot=  2684354560 LenX=  2684293739 LenY=  2684292857
 Requested convergence on RMS density matrix=1.00D-08 within 120 cycles.
 Requested convergence on MAX density matrix=1.00D-06.
 Requested convergence on             energy=1.00D-06.
 No special actions if energy rises.

 Cycle   1  Pass 1  IDiag  1:
 E= 0.246253303511480    
 DIIS: error= 1.01D-01 at cycle   1 NSaved=   1.
 NSaved= 1 IEnMin= 1 EnMin= 0.246253303511480     IErMin= 1 ErrMin= 1.01D-01
 ErrMax= 1.01D-01  0.00D+00 EMaxC= 1.00D-01 BMatC= 3.71D-01 BMatP= 3.71D-01
 IDIUse=3 WtCom= 0.00D+00 WtEn= 1.00D+00
 Coeff-Com:  0.100D+01
 Coeff-En:   0.100D+01
 Coeff:      0.100D+01
 GapD=    2.000 DampG=2.000 DampE=0.250 DampFc=0.5000 IDamp=-1.
 Damping current iteration by 5.00D-01
 RMSDP=3.11D-02 MaxDP=1.55D-01              OVMax= 0.00D+00

 Cycle   2  Pass 1  IDiag  1:
 E= 0.149556504237140     Delta-E=       -0.096696799274 Rises=F Damp=T
 DIIS: error= 6.34D-02 at cycle   2 NSaved=   2.
 NSaved= 2 IEnMin= 2 EnMin= 0.149556504237140     IErMin= 2 ErrMin= 6.34D-02
 ErrMax= 6.34D-02  0.00D+00 EMaxC= 1.00D-01 BMatC= 1.50D-01 BMatP= 3.71D-01
 IDIUse=3 WtCom= 3.66D-01 WtEn= 6.34D-01
 Coeff-Com: -0.169D+01 0.269D+01
 Coeff-En:   0.000D+00 0.100D+01
 Coeff:     -0.618D+00 0.162D+01
 RMSDP=2.32D-02 MaxDP=1.05D-01 DE=-9.67D-02 OVMax= 0.00D+00

 Cycle   3  Pass 1  IDiag  1:
 E= 0.106585950897511E-01 Delta-E=       -0.138897909147 Rises=F Damp=F
 DIIS: error= 9.36D-03 at cycle   3 NSaved=   3.
 NSaved= 3 IEnMin= 3 EnMin= 0.106585950897511E-01 IErMin= 3 ErrMin= 9.36D-03
 ErrMax= 9.36D-03  0.00D+00 EMaxC= 1.00D-01 BMatC= 5.43D-03 BMatP= 1.50D-01
 IDIUse=3 WtCom= 9.06D-01 WtEn= 9.36D-02
 Coeff-Com:  0.154D+01-0.279D+01 0.226D+01
 Coeff-En:   0.000D+00 0.000D+00 0.100D+01
 Coeff:      0.139D+01-0.253D+01 0.214D+01
 RMSDP=7.17D-03 MaxDP=3.98D-02 DE=-1.39D-01 OVMax= 0.00D+00

 Cycle   4  Pass 1  IDiag  3:
 E= 0.556607411192545E-02 Delta-E=       -0.005092520978 Rises=F Damp=F
 DIIS: error= 1.69D-03 at cycle   4 NSaved=   4.
 NSaved= 4 IEnMin= 4 EnMin= 0.556607411192545E-02 IErMin= 4 ErrMin= 1.69D-03
 ErrMax= 1.69D-03  0.00D+00 EMaxC= 1.00D-01 BMatC= 1.32D-04 BMatP= 5.43D-03
 IDIUse=3 WtCom= 9.83D-01 WtEn= 1.69D-02
 Coeff-Com: -0.648D+00 0.121D+01-0.122D+01 0.166D+01
 Coeff-En:   0.000D+00 0.000D+00 0.000D+00 0.100D+01
 Coeff:     -0.637D+00 0.119D+01-0.120D+01 0.165D+01
 Gap=     0.535 Goal=   None    Shift=    0.000
 Gap=     0.412 Goal=   None    Shift=    0.000
 RMSDP=1.87D-03 MaxDP=1.34D-02 DE=-5.09D-03 OVMax= 1.63D-02

 Cycle   5  Pass 1  IDiag  3:
 E= 0.533756621466353E-02 Delta-E=       -0.000228507897 Rises=F Damp=F
 DIIS: error= 5.54D-04 at cycle   5 NSaved=   5.
 NSaved= 5 IEnMin= 5 EnMin= 0.533756621466353E-02 IErMin= 5 ErrMin= 5.54D-04
 ErrMax= 5.54D-04  0.00D+00 EMaxC= 1.00D-01 BMatC= 9.63D-06 BMatP= 1.32D-04
 IDIUse=3 WtCom= 9.94D-01 WtEn= 5.54D-03
 Coeff-Com:  0.178D+00-0.340D+00 0.421D+00-0.923D+00 0.166D+01
 Coeff-En:   0.000D+00 0.000D+00 0.000D+00 0.000D+00 0.100D+01
 Coeff:      0.177D+00-0.338D+00 0.419D+00-0.918D+00 0.166D+01
 Gap=     0.536 Goal=   None    Shift=    0.000
 Gap=     0.413 Goal=   None    Shift=    0.000
 RMSDP=5.59D-04 MaxDP=3.78D-03 DE=-2.29D-04 OVMax= 5.40D-03

 Cycle   6  Pass 1  IDiag  3:
 E= 0.531988435155739E-02 Delta-E=       -0.000017681863 Rises=F Damp=F
 DIIS: error= 8.59D-05 at cycle   6 NSaved=   6.
 NSaved= 6 IEnMin= 6 EnMin= 0.531988435155739E-02 IErMin= 6 ErrMin= 8.59D-05
 ErrMax= 8.59D-05  0.00D+00 EMaxC= 1.00D-01 BMatC= 5.89D-07 BMatP= 9.63D-06
 IDIUse=1 WtCom= 1.00D+00 WtEn= 0.00D+00
 Coeff-Com: -0.151D-01 0.329D-01-0.788D-01 0.294D+00-0.780D+00 0.155D+01
 Coeff:     -0.151D-01 0.329D-01-0.788D-01 0.294D+00-0.780D+00 0.155D+01
 Gap=     0.536 Goal=   None    Shift=    0.000
 Gap=     0.413 Goal=   None    Shift=    0.000
 RMSDP=1.25D-04 MaxDP=6.55D-04 DE=-1.77D-05 OVMax= 8.80D-04

 Cycle   7  Pass 1  IDiag  3:
 E= 0.531884806775906E-02 Delta-E=       -0.000001036284 Rises=F Damp=F
 DIIS: error= 3.51D-05 at cycle   7 NSaved=   7.
 NSaved= 7 IEnMin= 7 EnMin= 0.531884806775906E-02 IErMin= 7 ErrMin= 3.51D-05
 ErrMax= 3.51D-05  0.00D+00 EMaxC= 1.00D-01 BMatC= 6.84D-08 BMatP= 5.89D-07
 IDIUse=1 WtCom= 1.00D+00 WtEn= 0.00D+00
 Coeff-Com:  0.290D-02-0.701D-02 0.234D-01-0.102D+00 0.309D+00-0.895D+00
 Coeff-Com:  0.167D+01
 Coeff:      0.290D-02-0.701D-02 0.234D-01-0.102D+00 0.309D+00-0.895D+00
 Coeff:      0.167D+01
 Gap=     0.536 Goal=   None    Shift=    0.000
 Gap=     0.413 Goal=   None    Shift=    0.000
 RMSDP=4.54D-05 MaxDP=2.53D-04 DE=-1.04D-06 OVMax= 3.15D-04

 Cycle   8  Pass 1  IDiag  3:
 E= 0.531871561911146E-02 Delta-E=       -0.000000132449 Rises=F Damp=F
 DIIS: error= 1.48D-05 at cycle   8 NSaved=   8.
 NSaved= 8 IEnMin= 8 EnMin= 0.531871561911146E-02 IErMin= 8 ErrMin= 1.48D-05
 ErrMax= 1.48D-05  0.00D+00 EMaxC= 1.00D-01 BMatC= 9.77D-09 BMatP= 6.84D-08
 IDIUse=1 WtCom= 1.00D+00 WtEn= 0.00D+00
 Coeff-Com: -0.949D-03 0.248D-02-0.103D-01 0.511D-01-0.172D+00 0.571D+00
 Coeff-Com: -0.134D+01 0.190D+01
 Coeff:     -0.949D-03 0.248D-02-0.103D-01 0.511D-01-0.172D+00 0.571D+00
 Coeff:     -0.134D+01 0.190D+01
 Gap=     0.536 Goal=   None    Shift=    0.000
 Gap=     0.413 Goal=   None    Shift=    0.000
 RMSDP=2.12D-05 MaxDP=1.43D-04 DE=-1.32D-07 OVMax= 1.92D-04

 Cycle   9  Pass 1  IDiag  3:
 E= 0.531869059457790E-02 Delta-E=       -0.000000025025 Rises=F Damp=F
 DIIS: error= 5.96D-06 at cycle   9 NSaved=   9.
 NSaved= 9 IEnMin= 9 EnMin= 0.531869059457790E-02 IErMin= 9 ErrMin= 5.96D-06
 ErrMax= 5.96D-06  0.00D+00 EMaxC= 1.00D-01 BMatC= 1.69D-09 BMatP= 9.77D-09
 IDIUse=1 WtCom= 1.00D+00 WtEn= 0.00D+00
 Coeff-Com:  0.401D-04-0.216D-03 0.228D-02-0.159D-01 0.652D-01-0.256D+00
 Coeff-Com:  0.705D+00-0.149D+01 0.199D+01
 Coeff:      0.401D-04-0.216D-03 0.228D-02-0.159D-01 0.652D-01-0.256D+00
 Coeff:      0.705D+00-0.149D+01 0.199D+01
 Gap=     0.536 Goal=   None    Shift=    0.000
 Gap=     0.413 Goal=   None    Shift=    0.000
 RMSDP=1.18D-05 MaxDP=7.79D-05 DE=-2.50D-08 OVMax= 1.11D-04

 Cycle  10  Pass 1  IDiag  3:
 E= 0.531868558130810E-02 Delta-E=       -0.000000005013 Rises=F Damp=F
 DIIS: error= 2.35D-06 at cycle  10 NSaved=  10.
 NSaved=10 IEnMin=10 EnMin= 0.531868558130810E-02 IErMin=10 ErrMin= 2.35D-06
 ErrMax= 2.35D-06  0.00D+00 EMaxC= 1.00D-01 BMatC= 1.39D-10 BMatP= 1.69D-09
 IDIUse=1 WtCom= 1.00D+00 WtEn= 0.00D+00
 Coeff-Com:  0.144D-03-0.265D-03-0.219D-03 0.528D-02-0.282D-01 0.130D+00
 Coeff-Com: -0.393D+00 0.946D+00-0.150D+01 0.185D+01
 Coeff:      0.144D-03-0.265D-03-0.219D-03 0.528D-02-0.282D-01 0.130D+00
 Coeff:     -0.393D+00 0.946D+00-0.150D+01 0.185D+01
 Gap=     0.536 Goal=   None    Shift=    0.000
 Gap=     0.413 Goal=   None    Shift=    0.000
 RMSDP=2.82D-06 MaxDP=1.83D-05 DE=-5.01D-09 OVMax= 2.41D-05

 Cycle  11  Pass 1  IDiag  3:
 E= 0.531868523933099E-02 Delta-E=       -0.000000000342 Rises=F Damp=F
 DIIS: error= 5.27D-07 at cycle  11 NSaved=  11.
 NSaved=11 IEnMin=11 EnMin= 0.531868523933099E-02 IErMin=11 ErrMin= 5.27D-07
 ErrMax= 5.27D-07  0.00D+00 EMaxC= 1.00D-01 BMatC= 1.26D-11 BMatP= 1.39D-10
 IDIUse=1 WtCom= 1.00D+00 WtEn= 0.00D+00
 Coeff-Com:  0.121D-03-0.233D-03 0.536D-03-0.338D-02 0.149D-01-0.624D-01
 Coeff-Com:  0.184D+00-0.446D+00 0.725D+00-0.111D+01 0.170D+01
 Coeff:      0.121D-03-0.233D-03 0.536D-03-0.338D-02 0.149D-01-0.624D-01
 Coeff:      0.184D+00-0.446D+00 0.725D+00-0.111D+01 0.170D+01
 Gap=     0.536 Goal=   None    Shift=    0.000
 Gap=     0.413 Goal=   None    Shift=    0.000
 RMSDP=8.12D-07 MaxDP=4.44D-06 DE=-3.42D-10 OVMax= 6.39D-06

 Cycle  12  Pass 1  IDiag  3:
 E= 0.531868521016321E-02 Delta-E=       -0.000000000029 Rises=F Damp=F
 DIIS: error= 2.06D-07 at cycle  12 NSaved=  12.
 NSaved=12 IEnMin=12 EnMin= 0.531868521016321E-02 IErMin=12 ErrMin= 2.06D-07
 ErrMax= 2.06D-07  0.00D+00 EMaxC= 1.00D-01 BMatC= 1.46D-12 BMatP= 1.26D-11
 IDIUse=1 WtCom= 1.00D+00 WtEn= 0.00D+00
 Coeff-Com:  0.260D-04-0.426D-04-0.127D-03 0.161D-02-0.783D-02 0.341D-01
 Coeff-Com: -0.102D+00 0.245D+00-0.398D+00 0.630D+00-0.117D+01 0.176D+01
 Coeff:      0.260D-04-0.426D-04-0.127D-03 0.161D-02-0.783D-02 0.341D-01
 Coeff:     -0.102D+00 0.245D+00-0.398D+00 0.630D+00-0.117D+01 0.176D+01
 Gap=     0.536 Goal=   None    Shift=    0.000
 Gap=     0.413 Goal=   None    Shift=    0.000
 RMSDP=2.61D-07 MaxDP=1.80D-06 DE=-2.92D-11 OVMax= 2.10D-06

 Cycle  13  Pass 1  IDiag  3:
 E= 0.531868520631917E-02 Delta-E=       -0.000000000004 Rises=F Damp=F
 DIIS: error= 1.53D-07 at cycle  13 NSaved=  13.
 NSaved=13 IEnMin=13 EnMin= 0.531868520631917E-02 IErMin=13 ErrMin= 1.53D-07
 ErrMax= 1.53D-07  0.00D+00 EMaxC= 1.00D-01 BMatC= 3.49D-13 BMatP= 1.46D-12
 IDIUse=1 WtCom= 1.00D+00 WtEn= 0.00D+00
 Coeff-Com: -0.224D-04 0.389D-04 0.525D-04-0.855D-03 0.429D-02-0.190D-01
 Coeff-Com:  0.572D-01-0.140D+00 0.229D+00-0.378D+00 0.752D+00-0.152D+01
 Coeff-Com:  0.202D+01
 Coeff:     -0.224D-04 0.389D-04 0.525D-04-0.855D-03 0.429D-02-0.190D-01
 Coeff:      0.572D-01-0.140D+00 0.229D+00-0.378D+00 0.752D+00-0.152D+01
 Coeff:      0.202D+01
 Gap=     0.536 Goal=   None    Shift=    0.000
 Gap=     0.413 Goal=   None    Shift=    0.000
 RMSDP=1.76D-07 MaxDP=1.65D-06 DE=-3.84D-12 OVMax= 1.95D-06

 Cycle  14  Pass 1  IDiag  3:
 E= 0.531868520494072E-02 Delta-E=       -0.000000000001 Rises=F Damp=F
 DIIS: error= 1.05D-07 at cycle  14 NSaved=  14.
 NSaved=14 IEnMin=14 EnMin= 0.531868520494072E-02 IErMin=14 ErrMin= 1.05D-07
 ErrMax= 1.05D-07  0.00D+00 EMaxC= 1.00D-01 BMatC= 1.39D-13 BMatP= 3.49D-13
 IDIUse=1 WtCom= 1.00D+00 WtEn= 0.00D+00
 Coeff-Com:  0.293D-05-0.304D-05-0.781D-04 0.792D-03-0.377D-02 0.164D-01
 Coeff-Com: -0.494D-01 0.122D+00-0.203D+00 0.350D+00-0.728D+00 0.163D+01
 Coeff-Com: -0.271D+01 0.258D+01
 Coeff:      0.293D-05-0.304D-05-0.781D-04 0.792D-03-0.377D-02 0.164D-01
 Coeff:     -0.494D-01 0.122D+00-0.203D+00 0.350D+00-0.728D+00 0.163D+01
 Coeff:     -0.271D+01 0.258D+01
 Gap=     0.536 Goal=   None    Shift=    0.000
 Gap=     0.413 Goal=   None    Shift=    0.000
 RMSDP=1.52D-07 MaxDP=1.58D-06 DE=-1.38D-12 OVMax= 1.84D-06

 Cycle  15  Pass 1  IDiag  3:
 E= 0.531868520413070E-02 Delta-E=       -0.000000000001 Rises=F Damp=F
 DIIS: error= 6.02D-08 at cycle  15 NSaved=  15.
 NSaved=15 IEnMin=15 EnMin= 0.531868520413070E-02 IErMin=15 ErrMin= 6.02D-08
 ErrMax= 6.02D-08  0.00D+00 EMaxC= 1.00D-01 BMatC= 4.90D-14 BMatP= 1.39D-13
 IDIUse=1 WtCom= 1.00D+00 WtEn= 0.00D+00
 Coeff-Com:  0.262D-05-0.578D-05 0.377D-04-0.315D-03 0.145D-02-0.631D-02
 Coeff-Com:  0.192D-01-0.488D-01 0.832D-01-0.155D+00 0.340D+00-0.845D+00
 Coeff-Com:  0.166D+01-0.265D+01 0.260D+01
 Coeff:      0.262D-05-0.578D-05 0.377D-04-0.315D-03 0.145D-02-0.631D-02
 Coeff:      0.192D-01-0.488D-01 0.832D-01-0.155D+00 0.340D+00-0.845D+00
 Coeff:      0.166D+01-0.265D+01 0.260D+01
 Gap=     0.536 Goal=   None    Shift=    0.000
 Gap=     0.413 Goal=   None    Shift=    0.000
 RMSDP=1.56D-07 MaxDP=1.63D-06 DE=-8.10D-13 OVMax= 1.89D-06

 Cycle  16  Pass 1  IDiag  3:
 E= 0.531868520377543E-02 Delta-E=       -0.000000000000 Rises=F Damp=F
 DIIS: error= 1.29D-08 at cycle  16 NSaved=  16.
 NSaved=16 IEnMin=16 EnMin= 0.531868520377543E-02 IErMin=16 ErrMin= 1.29D-08
 ErrMax= 1.29D-08  0.00D+00 EMaxC= 1.00D-01 BMatC= 4.41D-15 BMatP= 4.90D-14
 IDIUse=1 WtCom= 1.00D+00 WtEn= 0.00D+00
 Large coefficients: NSaved= 16 BigCof=    0.00 CofMax=   10.00 Det=-7.72D-16
 Inversion failed.  Reducing to 15 matrices.
 Coeff-Com:  0.140D-07 0.534D-06-0.119D-04 0.690D-04-0.281D-03 0.687D-03
 Coeff-Com: -0.913D-03 0.514D-03 0.629D-02-0.291D-01 0.117D+00-0.306D+00
 Coeff-Com:  0.777D+00-0.121D+01 0.165D+01
 Coeff:      0.140D-07 0.534D-06-0.119D-04 0.690D-04-0.281D-03 0.687D-03
 Coeff:     -0.913D-03 0.514D-03 0.629D-02-0.291D-01 0.117D+00-0.306D+00
 Coeff:      0.777D+00-0.121D+01 0.165D+01
 Gap=     0.536 Goal=   None    Shift=    0.000
 Gap=     0.413 Goal=   None    Shift=    0.000
 RMSDP=3.78D-08 MaxDP=3.89D-07 DE=-3.55D-13 OVMax= 4.52D-07

 Cycle  17  Pass 1  IDiag  3:
 E= 0.531868520378964E-02 Delta-E=        0.000000000000 Rises=F Damp=F
 DIIS: error= 2.41D-09 at cycle  17 NSaved=  16.
 NSaved=16 IEnMin=15 EnMin= 0.531868520377543E-02 IErMin=16 ErrMin= 2.41D-09
 ErrMax= 2.41D-09  0.00D+00 EMaxC= 1.00D-01 BMatC= 2.61D-16 BMatP= 4.41D-15
 IDIUse=1 WtCom= 1.00D+00 WtEn= 0.00D+00
 Large coefficients: NSaved= 16 BigCof=    0.00 CofMax=   10.00 Det=-1.67D-16
 Inversion failed.  Reducing to 15 matrices.
 Coeff-Com:  0.159D-07 0.247D-05-0.166D-04 0.574D-04-0.781D-04-0.272D-03
 Coeff-Com:  0.104D-02-0.538D-02 0.194D-01-0.709D-01 0.175D+00-0.415D+00
 Coeff-Com:  0.632D+00-0.952D+00 0.162D+01
 Coeff:      0.159D-07 0.247D-05-0.166D-04 0.574D-04-0.781D-04-0.272D-03
 Coeff:      0.104D-02-0.538D-02 0.194D-01-0.709D-01 0.175D+00-0.415D+00
 Coeff:      0.632D+00-0.952D+00 0.162D+01
 Gap=     0.536 Goal=   None    Shift=    0.000
 Gap=     0.413 Goal=   None    Shift=    0.000
 RMSDP=4.46D-09 MaxDP=4.13D-08 DE= 1.42D-14 OVMax= 4.77D-08

 Cycle  18  Pass 2  IDiag  1:
 SCF Done:  E(UAM1) =  0.531868520379E-02 A.U. after   18 cycles
            NFock= 17  Conv=0.45D-08     -V/T= 1.0002
 <Sx>= 0.0000 <Sy>= 0.0000 <Sz>= 0.5000 <S**2>= 0.7814 S= 0.5156
 <L.S>= 0.000000000000E+00
 KE=-3.044860626112D+01 PE=-3.906797971221D+01 EE= 2.959146001489D+01
 Annihilation of the first spin contaminant:
 S**2 before annihilation     0.7814,   after     0.7502
 Leave Link  502 at Wed Oct 28 14:27:04 2020, MaxMem=  2684354560 cpu:               1.2 elap:               0.1
 (Enter /udrive/faculty/rpeverati/g16/g16/l508.exe)
 QCSCF skips out because SCF is already converged.
 Leave Link  508 at Wed Oct 28 14:27:04 2020, MaxMem=  2684354560 cpu:               0.1 elap:               0.1
 (Enter /udrive/faculty/rpeverati/g16/g16/l601.exe)
 Copying SCF densities to generalized density rwf, IOpCl= 1 IROHF=0.

 **********************************************************************

            Population analysis using the SCF density.

 **********************************************************************

 Orbital symmetries:
 Alpha Orbitals:
       Occupied  (A) (A) (A) (A) (A) (A) (A) (A)
       Virtual   (A) (A) (A) (A) (A)
 Beta  Orbitals:
       Occupied  (A) (A) (A) (A) (A) (A) (A)
       Virtual   (A) (A) (A) (A) (A) (A)
 The electronic state is 2-A.
 Alpha  occ. eigenvalues --   -1.31388  -1.08532  -0.61836  -0.57812  -0.52299
 Alpha  occ. eigenvalues --   -0.52193  -0.45323  -0.39213
 Alpha virt. eigenvalues --    0.14337   0.15285   0.15540   0.16682   0.20661
  Beta  occ. eigenvalues --   -1.24078  -1.04761  -0.59200  -0.51586  -0.51475
  Beta  occ. eigenvalues --   -0.50186  -0.43485
  Beta virt. eigenvalues --   -0.02206   0.16219   0.16340   0.16477   0.19244
  Beta virt. eigenvalues --    0.21755
          Condensed to atoms (all electrons):
               1          2          3          4          5          6
     1  C    4.248339   0.000000   0.000000   0.000000   0.000000   0.000000
     2  O    0.000000   6.352178   0.000000   0.000000   0.000000   0.000000
     3  H    0.000000   0.000000   0.835075   0.000000   0.000000   0.000000
     4  H    0.000000   0.000000   0.000000   0.910103   0.000000   0.000000
     5  H    0.000000   0.000000   0.000000   0.000000   0.918677   0.000000
     6  H    0.000000   0.000000   0.000000   0.000000   0.000000   0.908274
     7  H    0.000000   0.000000   0.000000   0.000000   0.000000   0.000000
               7
     1  C    0.000000
     2  O    0.000000
     3  H    0.000000
     4  H    0.000000
     5  H    0.000000
     6  H    0.000000
     7  H    0.827355
          Atomic-Atomic Spin Densities.
               1          2          3          4          5          6
     1  C    0.586564   0.000000   0.000000   0.000000   0.000000   0.000000
     2  O    0.000000   0.639694   0.000000   0.000000   0.000000   0.000000
     3  H    0.000000   0.000000  -0.144574   0.000000   0.000000   0.000000
     4  H    0.000000   0.000000   0.000000  -0.020288   0.000000   0.000000
     5  H    0.000000   0.000000   0.000000   0.000000  -0.020140   0.000000
     6  H    0.000000   0.000000   0.000000   0.000000   0.000000  -0.020588
     7  H    0.000000   0.000000   0.000000   0.000000   0.000000   0.000000
               7
     1  C    0.000000
     2  O    0.000000
     3  H    0.000000
     4  H    0.000000
     5  H    0.000000
     6  H    0.000000
     7  H   -0.020668
 Mulliken charges and spin densities:
               1          2
     1  C   -0.248339   0.586564
     2  O   -0.352178   0.639694
     3  H    0.164925  -0.144574
     4  H    0.089897  -0.020288
     5  H    0.081323  -0.020140
     6  H    0.091726  -0.020588
     7  H    0.172645  -0.020668
 Sum of Mulliken charges =  -0.00000   1.00000
 Mulliken charges and spin densities with hydrogens summed into heavy atoms:
               1          2
     1  C    0.179533   0.380974
     2  O   -0.179533   0.619026
 Charge=              0.0000 electrons
 Dipole moment (field-independent basis, Debye):
    X=             -1.6630    Y=              1.3339    Z=              0.0004  Tot=              2.1319
 N-N= 3.993044464364D+01 E-N=-3.906797970171D+01  KE=-3.044860626112D+01
 Leave Link  601 at Wed Oct 28 14:27:04 2020, MaxMem=  2684354560 cpu:               0.6 elap:               0.1
 (Enter /udrive/faculty/rpeverati/g16/g16/l701.exe)
 ... and contract with generalized density number  0.
 Compute integral first derivatives.
 Leave Link  701 at Wed Oct 28 14:27:04 2020, MaxMem=  2684354560 cpu:               1.1 elap:               0.1
 (Enter /udrive/faculty/rpeverati/g16/g16/l702.exe)
 L702 exits ... SP integral derivatives will be done elsewhere.
 Leave Link  702 at Wed Oct 28 14:27:04 2020, MaxMem=  2684354560 cpu:               0.6 elap:               0.1
 (Enter /udrive/faculty/rpeverati/g16/g16/l703.exe)
 Integral derivatives from FoFJK, PRISM(SPDF).
 Compute integral first derivatives, UseDBF=F ICtDFT=           0.
 Calling FoFJK, ICntrl=      2127 FMM=F ISym2X=0 I1Cent= 0 IOpClX= 1 NMat=1 NMatS=1 NMatT=0.
 FoFJK:  IHMeth= 8 ICntrl=    2127 DoSepK=F KAlg= 0 I1Cent=           0 FoldK=F
 IRaf=         0 NMat=       1 IRICut=       1 DoRegI=T DoRafI=F ISym2E= 0 IDoP0=3 IntGTp=3.
 FoFCou: FMM=F IPFlag=           0 FMFlag=      100000 FMFlg1=         800
         NFxFlg=           0 DoJE=F BraDBF=F KetDBF=F FulRan=T
         wScrn=  0.000000 ICntrl=      2127 IOpCl=  1 I1Cent=           0 NGrid=           0
         NMat0=    1 NMatS0=      1 NMatT0=    0 NMatD0=    1 NMtDS0=    0 NMtDT0=    0
 Symmetry not used in FoFCou.
 Leave Link  703 at Wed Oct 28 14:27:04 2020, MaxMem=  2684354560 cpu:               0.6 elap:               0.1
 (Enter /udrive/faculty/rpeverati/g16/g16/l716.exe)
 Dipole        =-6.54288833D-01 5.24802575D-01 1.41978795D-04
 ***** Axes restored to original set *****
 -------------------------------------------------------------------
 Center     Atomic                   Forces (Hartrees/Bohr)
 Number     Number              X              Y              Z
 -------------------------------------------------------------------
      1        6          -0.002696077    0.000135301   -0.000448376
      2        8          -0.019775060    0.016113568    0.000042987
      3        1           0.025909573   -0.005182648    0.000115810
      4        1          -0.003383986   -0.003705048    0.014738841
      5        1          -0.000776011    0.014559548   -0.003801522
      6        1          -0.004345472   -0.010791562   -0.010641747
      7        1           0.005067033   -0.011129159   -0.000005993
 -------------------------------------------------------------------
 Cartesian Forces:  Max     0.025909573 RMS     0.010290857
 Leave Link  716 at Wed Oct 28 14:27:04 2020, MaxMem=  2684354560 cpu:               0.6 elap:               0.1
 (Enter /udrive/faculty/rpeverati/g16/g16/l103.exe)

 GradGradGradGradGradGradGradGradGradGradGradGradGradGradGradGradGradGrad
 Berny optimization.
 Optmz: redundant internal coordinate code flag= 1
 FormGI is forming the generalized inverse of G from B-inverse, IUseBI=4.
 Internal  Forces:  Max     0.015750485 RMS     0.008311063
 Numerically estimating second derivatives.
 Iteration  1 RMS(Cart)=  0.00091375 RMS(Int)=  0.00066110
 Iteration  2 RMS(Cart)=  0.00000010 RMS(Int)=  0.00066110
 Largest change from initial coordinates is atom    7       0.001 Angstoms.
 GradGradGradGradGradGradGradGradGradGradGradGradGradGradGradGradGradGrad

 Leave Link  103 at Wed Oct 28 14:27:04 2020, MaxMem=  2684354560 cpu:               0.4 elap:               0.1
 (Enter /udrive/faculty/rpeverati/g16/g16/l202.exe)
                          Input orientation:                          
 ---------------------------------------------------------------------
 Center     Atomic      Atomic             Coordinates (Angstroms)
 Number     Number       Type             X           Y           Z
 ---------------------------------------------------------------------
      1          6           0       -1.210850    0.007991    0.000408
      2          8           0        1.292830   -0.108758    0.000132
      3          1           0        0.009219   -0.118123    0.002800
      4          1           0       -1.524933   -0.233183    1.010070
      5          1           0       -1.429854    1.033294   -0.278084
      6          1           0       -1.552196   -0.710037   -0.737700
      7          1           0        1.415470    0.849837   -0.000592
 ---------------------------------------------------------------------
                    Distance matrix (angstroms):
                    1          2          3          4          5
     1  C    0.000000
     2  O    2.506401   0.000000
     3  H    1.226572   1.283648   0.000000
     4  H    1.084542   2.995872   1.838873   0.000000
     5  H    1.084789   2.965585   1.864293   1.808962   0.000000
     6  H    1.084843   3.000017   1.826669   1.811859   1.807047
     7  H    2.757945   0.966408   1.707190   3.292467   2.864704
                    6          7
     6  H    0.000000
     7  H    3.432721   0.000000
 Stoichiometry    CH5O(2)
 Framework group  C1[X(CH5O)]
 Deg. of freedom    15
 Full point group                 C1      NOp   1
 RotChk:  IX=0 Diff= 4.08D-05
 Largest Abelian subgroup         C1      NOp   1
 Largest concise Abelian subgroup C1      NOp   1
                         Standard orientation:                         
 ---------------------------------------------------------------------
 Center     Atomic      Atomic             Coordinates (Angstroms)
 Number     Number       Type             X           Y           Z
 ---------------------------------------------------------------------
      1          6           0       -1.210600    0.007973    0.000408
      2          8           0        1.293083   -0.108703    0.000132
      3          1           0        0.009472   -0.118106    0.002800
      4          1           0       -1.524676   -0.233210    1.010070
      5          1           0       -1.429634    1.033270   -0.278083
      6          1           0       -1.551925   -0.710065   -0.737700
      7          1           0        1.415696    0.849895   -0.000592
 ---------------------------------------------------------------------
 Rotational constants (GHZ):         120.8641612           9.2597610           9.1141234
 Leave Link  202 at Wed Oct 28 14:27:05 2020, MaxMem=  2684354560 cpu:               0.2 elap:               0.1
 (Enter /udrive/faculty/rpeverati/g16/g16/l301.exe)
 Standard basis: VSTO-6G (5D, 7F)
 Ernie: Thresh=  0.10000D-02 Tol=  0.10000D-05 Strict=F.
  NNHCO=     0 NNPyr=     0 NCTC=     0               EPep=         0.000000000
    EC=        20.066029798  ECS=         0.740065593   EG=         0.198625476
   EHC=         0.000000000  EAt=       -18.150397285  AtH=         0.782392968
 EPDDG=         0.000000000  ECC=        21.004720866 EAtT=        18.932790253
 There are    13 symmetry adapted cartesian basis functions of A   symmetry.
 There are    13 symmetry adapted basis functions of A   symmetry.
    13 basis functions,    78 primitive gaussians,    13 cartesian basis functions
     8 alpha electrons        7 beta electrons
       nuclear repulsion energy        39.9375111189 Hartrees.
 IExCor=    0 DFT=F Ex=HF Corr=None ExCW=0 ScaHFX=  1.000000
 ScaDFX=  1.000000  1.000000  1.000000  1.000000 ScalE2=  1.000000  1.000000
 IRadAn=      5 IRanWt=     -1 IRanGd=            0 ICorTp=0 IEmpDi=  4
 Integral buffers will be    131072 words long.
 Regular integral format.
 Two-electron integral symmetry is turned off.
 Leave Link  301 at Wed Oct 28 14:27:05 2020, MaxMem=  2684354560 cpu:               1.0 elap:               0.1
 (Enter /udrive/faculty/rpeverati/g16/g16/l302.exe)
 Do NDO integrals.
 NPDir=0 NMtPBC=     1 NCelOv=     1 NCel=       1 NClECP=     1 NCelD=      1
         NCelK=      1 NCelE2=     1 NClLst=     1 CellRange=     0.0.
 One-electron integrals computed using PRISM.
 NBasis=    13 RedAO= F EigKep=  0.00D+00  NBF=    13
 NBsUse=    13 1.00D-04 EigRej=  0.00D+00 NBFU=    13
 Leave Link  302 at Wed Oct 28 14:27:05 2020, MaxMem=  2684354560 cpu:               1.3 elap:               0.1
 (Enter /udrive/faculty/rpeverati/g16/g16/l303.exe)
 DipDrv:  MaxL=1.
 Leave Link  303 at Wed Oct 28 14:27:05 2020, MaxMem=  2684354560 cpu:               0.6 elap:               0.1
 (Enter /udrive/faculty/rpeverati/g16/g16/l401.exe)
 Initial guess from the checkpoint file:  "MN_81_RKT04_BH76_AM1_SE.chk"
 SCF N**3 symmetry information disabled.
 B after Tr=    -0.000000   -0.000000    0.000000
         Rot=    1.000000   -0.000000   -0.000000    0.000010 Ang=  -0.00 deg.
 Guess basis will be translated and rotated to current coordinates.
 JPrj=0 DoOrth=T DoCkMO=T.
 Initial guess <Sx>= 0.0000 <Sy>= 0.0000 <Sz>= 0.5000 <S**2>= 0.7814 S= 0.5156
 Leave Link  401 at Wed Oct 28 14:27:05 2020, MaxMem=  2684354560 cpu:               1.4 elap:               0.2
 (Enter /udrive/faculty/rpeverati/g16/g16/l502.exe)
 Keep J ints in memory in canonical form, NReq=859516.
 FoFCou: FMM=F IPFlag=           0 FMFlag=           0 FMFlg1=           0
         NFxFlg=           0 DoJE=F BraDBF=F KetDBF=F FulRan=T
         wScrn=  0.000000 ICntrl=       600 IOpCl=  2 I1Cent=           0 NGrid=           0
         NMat0=    1 NMatS0=     25 NMatT0=    0 NMatD0=    1 NMtDS0=    0 NMtDT0=    0
 Symmetry not used in FoFCou.
 Two-electron integral symmetry not used.
 UHF open shell SCF:
 Using DIIS extrapolation, IDIIS=  1040.
 Overlap will be assumed to be unity.
 NGot=  2684354560 LenX=  2684293739 LenY=  2684292857
 Requested convergence on RMS density matrix=1.00D-08 within 120 cycles.
 Requested convergence on MAX density matrix=1.00D-06.
 Requested convergence on             energy=1.00D-06.
 No special actions if energy rises.

 Cycle   1  Pass 1  IDiag  1:
 E= 0.531340600512920E-02
 DIIS: error= 5.43D-05 at cycle   1 NSaved=   1.
 NSaved= 1 IEnMin= 1 EnMin= 0.531340600512920E-02 IErMin= 1 ErrMin= 5.43D-05
 ErrMax= 5.43D-05  0.00D+00 EMaxC= 1.00D-01 BMatC= 1.38D-07 BMatP= 1.38D-07
 IDIUse=1 WtCom= 1.00D+00 WtEn= 0.00D+00
 Coeff-Com:  0.100D+01
 Coeff:      0.100D+01
 RMSDP=2.17D-05 MaxDP=1.24D-04              OVMax= 0.00D+00

 Cycle   2  Pass 1  IDiag  3:
 E= 0.531331304534888E-02 Delta-E=       -0.000000092960 Rises=F Damp=F
 DIIS: error= 2.11D-05 at cycle   2 NSaved=   2.
 NSaved= 2 IEnMin= 2 EnMin= 0.531331304534888E-02 IErMin= 2 ErrMin= 2.11D-05
 ErrMax= 2.11D-05  0.00D+00 EMaxC= 1.00D-01 BMatC= 1.47D-08 BMatP= 1.38D-07
 IDIUse=1 WtCom= 1.00D+00 WtEn= 0.00D+00
 Coeff-Com: -0.337D+00 0.134D+01
 Coeff:     -0.337D+00 0.134D+01
 Gap=     0.536 Goal=   None    Shift=    0.000
 Gap=     0.413 Goal=   None    Shift=    0.000
 RMSDP=1.25D-05 MaxDP=8.91D-05 DE=-9.30D-08 OVMax= 7.60D-05

 Cycle   3  Pass 1  IDiag  3:
 E= 0.531329507360567E-02 Delta-E=       -0.000000017972 Rises=F Damp=F
 DIIS: error= 9.26D-06 at cycle   3 NSaved=   3.
 NSaved= 3 IEnMin= 3 EnMin= 0.531329507360567E-02 IErMin= 3 ErrMin= 9.26D-06
 ErrMax= 9.26D-06  0.00D+00 EMaxC= 1.00D-01 BMatC= 2.13D-09 BMatP= 1.47D-08
 IDIUse=1 WtCom= 1.00D+00 WtEn= 0.00D+00
 Coeff-Com:  0.299D+00-0.135D+01 0.205D+01
 Coeff:      0.299D+00-0.135D+01 0.205D+01
 Gap=     0.536 Goal=   None    Shift=    0.000
 Gap=     0.413 Goal=   None    Shift=    0.000
 RMSDP=9.11D-06 MaxDP=7.15D-05 DE=-1.80D-08 OVMax= 7.03D-05

 Cycle   4  Pass 1  IDiag  3:
 E= 0.531329032483541E-02 Delta-E=       -0.000000004749 Rises=F Damp=F
 DIIS: error= 2.48D-06 at cycle   4 NSaved=   4.
 NSaved= 4 IEnMin= 4 EnMin= 0.531329032483541E-02 IErMin= 4 ErrMin= 2.48D-06
 ErrMax= 2.48D-06  0.00D+00 EMaxC= 1.00D-01 BMatC= 2.56D-10 BMatP= 2.13D-09
 IDIUse=1 WtCom= 1.00D+00 WtEn= 0.00D+00
 Coeff-Com: -0.308D+00 0.141D+01-0.231D+01 0.222D+01
 Coeff:     -0.308D+00 0.141D+01-0.231D+01 0.222D+01
 Gap=     0.536 Goal=   None    Shift=    0.000
 Gap=     0.413 Goal=   None    Shift=    0.000
 RMSDP=4.21D-06 MaxDP=2.89D-05 DE=-4.75D-09 OVMax= 4.06D-05

 Cycle   5  Pass 1  IDiag  3:
 E= 0.531328954036070E-02 Delta-E=       -0.000000000784 Rises=F Damp=F
 DIIS: error= 1.14D-06 at cycle   5 NSaved=   5.
 NSaved= 5 IEnMin= 5 EnMin= 0.531328954036070E-02 IErMin= 5 ErrMin= 1.14D-06
 ErrMax= 1.14D-06  0.00D+00 EMaxC= 1.00D-01 BMatC= 3.59D-11 BMatP= 2.56D-10
 IDIUse=1 WtCom= 1.00D+00 WtEn= 0.00D+00
 Coeff-Com:  0.206D+00-0.944D+00 0.158D+01-0.187D+01 0.203D+01
 Coeff:      0.206D+00-0.944D+00 0.158D+01-0.187D+01 0.203D+01
 Gap=     0.536 Goal=   None    Shift=    0.000
 Gap=     0.413 Goal=   None    Shift=    0.000
 RMSDP=1.91D-06 MaxDP=1.26D-05 DE=-7.84D-10 OVMax= 1.68D-05

 Cycle   6  Pass 1  IDiag  3:
 E= 0.531328943025500E-02 Delta-E=       -0.000000000110 Rises=F Damp=F
 DIIS: error= 2.29D-07 at cycle   6 NSaved=   6.
 NSaved= 6 IEnMin= 6 EnMin= 0.531328943025500E-02 IErMin= 6 ErrMin= 2.29D-07
 ErrMax= 2.29D-07  0.00D+00 EMaxC= 1.00D-01 BMatC= 2.14D-12 BMatP= 3.59D-11
 IDIUse=1 WtCom= 1.00D+00 WtEn= 0.00D+00
 Coeff-Com: -0.974D-01 0.446D+00-0.748D+00 0.925D+00-0.118D+01 0.165D+01
 Coeff:     -0.974D-01 0.446D+00-0.748D+00 0.925D+00-0.118D+01 0.165D+01
 Gap=     0.536 Goal=   None    Shift=    0.000
 Gap=     0.413 Goal=   None    Shift=    0.000
 RMSDP=2.97D-07 MaxDP=2.30D-06 DE=-1.10D-10 OVMax= 2.58D-06

 Cycle   7  Pass 1  IDiag  3:
 E= 0.531328942612674E-02 Delta-E=       -0.000000000004 Rises=F Damp=F
 DIIS: error= 5.37D-08 at cycle   7 NSaved=   7.
 NSaved= 7 IEnMin= 7 EnMin= 0.531328942612674E-02 IErMin= 7 ErrMin= 5.37D-08
 ErrMax= 5.37D-08  0.00D+00 EMaxC= 1.00D-01 BMatC= 2.47D-13 BMatP= 2.14D-12
 IDIUse=1 WtCom= 1.00D+00 WtEn= 0.00D+00
 Coeff-Com:  0.620D-01-0.284D+00 0.477D+00-0.595D+00 0.787D+00-0.133D+01
 Coeff-Com:  0.189D+01
 Coeff:      0.620D-01-0.284D+00 0.477D+00-0.595D+00 0.787D+00-0.133D+01
 Coeff:      0.189D+01
 Gap=     0.536 Goal=   None    Shift=    0.000
 Gap=     0.413 Goal=   None    Shift=    0.000
 RMSDP=8.63D-08 MaxDP=4.56D-07 DE=-4.13D-12 OVMax= 3.08D-07

 Cycle   8  Pass 1  IDiag  3:
 E= 0.531328942565779E-02 Delta-E=       -0.000000000000 Rises=F Damp=F
 DIIS: error= 1.65D-08 at cycle   8 NSaved=   8.
 NSaved= 8 IEnMin= 8 EnMin= 0.531328942565779E-02 IErMin= 8 ErrMin= 1.65D-08
 ErrMax= 1.65D-08  0.00D+00 EMaxC= 1.00D-01 BMatC= 1.99D-14 BMatP= 2.47D-13
 IDIUse=1 WtCom= 1.00D+00 WtEn= 0.00D+00
 Coeff-Com: -0.332D-01 0.152D+00-0.256D+00 0.319D+00-0.424D+00 0.734D+00
 Coeff-Com: -0.125D+01 0.175D+01
 Coeff:     -0.332D-01 0.152D+00-0.256D+00 0.319D+00-0.424D+00 0.734D+00
 Coeff:     -0.125D+01 0.175D+01
 Gap=     0.536 Goal=   None    Shift=    0.000
 Gap=     0.413 Goal=   None    Shift=    0.000
 RMSDP=2.70D-08 MaxDP=1.46D-07 DE=-4.69D-13 OVMax= 1.30D-07

 Cycle   9  Pass 1  IDiag  3:
 E= 0.531328942565068E-02 Delta-E=       -0.000000000000 Rises=F Damp=F
 DIIS: error= 9.41D-09 at cycle   9 NSaved=   9.
 NSaved= 9 IEnMin= 9 EnMin= 0.531328942565068E-02 IErMin= 9 ErrMin= 9.41D-09
 ErrMax= 9.41D-09  0.00D+00 EMaxC= 1.00D-01 BMatC= 1.87D-15 BMatP= 1.99D-14
 IDIUse=1 WtCom= 1.00D+00 WtEn= 0.00D+00
 Coeff-Com:  0.186D-01-0.850D-01 0.143D+00-0.178D+00 0.237D+00-0.411D+00
 Coeff-Com:  0.725D+00-0.120D+01 0.175D+01
 Coeff:      0.186D-01-0.850D-01 0.143D+00-0.178D+00 0.237D+00-0.411D+00
 Coeff:      0.725D+00-0.120D+01 0.175D+01
 Gap=     0.536 Goal=   None    Shift=    0.000
 Gap=     0.413 Goal=   None    Shift=    0.000
 RMSDP=9.16D-09 MaxDP=8.06D-08 DE=-7.11D-15 OVMax= 9.38D-08

 Cycle  10  Pass 2  IDiag  1:
 SCF Done:  E(UAM1) =  0.531328942565E-02 A.U. after   10 cycles
            NFock=  9  Conv=0.92D-08     -V/T= 1.0002
 <Sx>= 0.0000 <Sy>= 0.0000 <Sz>= 0.5000 <S**2>= 0.7813 S= 0.5155
 <L.S>= 0.000000000000E+00
 KE=-3.044964965642D+01 PE=-3.908022829763D+01 EE= 2.959768012459D+01
 Annihilation of the first spin contaminant:
 S**2 before annihilation     0.7813,   after     0.7502
 Leave Link  502 at Wed Oct 28 14:27:05 2020, MaxMem=  2684354560 cpu:               0.9 elap:               0.1
 (Enter /udrive/faculty/rpeverati/g16/g16/l508.exe)
 QCSCF skips out because SCF is already converged.
 Leave Link  508 at Wed Oct 28 14:27:05 2020, MaxMem=  2684354560 cpu:               0.1 elap:               0.1
 (Enter /udrive/faculty/rpeverati/g16/g16/l701.exe)
 ... and contract with generalized density number  0.
 Compute integral first derivatives.
 Leave Link  701 at Wed Oct 28 14:27:06 2020, MaxMem=  2684354560 cpu:               1.1 elap:               0.1
 (Enter /udrive/faculty/rpeverati/g16/g16/l702.exe)
 L702 exits ... SP integral derivatives will be done elsewhere.
 Leave Link  702 at Wed Oct 28 14:27:06 2020, MaxMem=  2684354560 cpu:               0.6 elap:               0.1
 (Enter /udrive/faculty/rpeverati/g16/g16/l703.exe)
 Integral derivatives from FoFJK, PRISM(SPDF).
 Compute integral first derivatives, UseDBF=F ICtDFT=           0.
 Calling FoFJK, ICntrl=      2127 FMM=F ISym2X=0 I1Cent= 0 IOpClX= 1 NMat=1 NMatS=1 NMatT=0.
 FoFJK:  IHMeth= 8 ICntrl=    2127 DoSepK=F KAlg= 0 I1Cent=           0 FoldK=F
 IRaf=         0 NMat=       1 IRICut=       1 DoRegI=T DoRafI=F ISym2E= 0 IDoP0=3 IntGTp=3.
 FoFCou: FMM=F IPFlag=           0 FMFlag=      100000 FMFlg1=         800
         NFxFlg=           0 DoJE=F BraDBF=F KetDBF=F FulRan=T
         wScrn=  0.000000 ICntrl=      2127 IOpCl=  1 I1Cent=           0 NGrid=           0
         NMat0=    1 NMatS0=      1 NMatT0=    0 NMatD0=    1 NMtDS0=    0 NMtDT0=    0
 Symmetry not used in FoFCou.
 Leave Link  703 at Wed Oct 28 14:27:06 2020, MaxMem=  2684354560 cpu:               0.6 elap:               0.1
 (Enter /udrive/faculty/rpeverati/g16/g16/l716.exe)
 Dipole        =-6.54357110D-01 5.24757727D-01 1.45224320D-04
 ***** Axes restored to original set *****
 -------------------------------------------------------------------
 Center     Atomic                   Forces (Hartrees/Bohr)
 Number     Number              X              Y              Z
 -------------------------------------------------------------------
      1        6          -0.003110980    0.000177531   -0.000448882
      2        8          -0.019638573    0.016117714    0.000042938
      3        1           0.026229172   -0.005252691    0.000116976
      4        1          -0.003408168   -0.003705024    0.014753412
      5        1          -0.000797296    0.014573912   -0.003804796
      6        1          -0.004371122   -0.010799199   -0.010653608
      7        1           0.005096967   -0.011112242   -0.000006039
 -------------------------------------------------------------------
 Cartesian Forces:  Max     0.026229172 RMS     0.010328297
 Leave Link  716 at Wed Oct 28 14:27:06 2020, MaxMem=  2684354560 cpu:               0.5 elap:               0.1
 (Enter /udrive/faculty/rpeverati/g16/g16/l103.exe)

 GradGradGradGradGradGradGradGradGradGradGradGradGradGradGradGradGradGrad
 Berny optimization.
 Optmz: redundant internal coordinate code flag= 1
 Red2BG:  D1=  1.61D-01 OD1=  1.11D-03 B2RMS=  0.00D+00 IAprox=0
 FormGI is forming the generalized inverse of G from B-inverse, IUseBI=4.
 Internal  Forces:  Max     0.015771593 RMS     0.008342369
 Numerically estimating second derivatives.
 Iteration  1 RMS(Cart)=  0.00062982 RMS(Int)=  0.00066020
 Iteration  2 RMS(Cart)=  0.00000023 RMS(Int)=  0.00066020
 Largest change from initial coordinates is atom    3       0.000 Angstoms.
 GradGradGradGradGradGradGradGradGradGradGradGradGradGradGradGradGradGrad

 Leave Link  103 at Wed Oct 28 14:27:06 2020, MaxMem=  2684354560 cpu:               0.4 elap:               0.1
 (Enter /udrive/faculty/rpeverati/g16/g16/l202.exe)
                          Input orientation:                          
 ---------------------------------------------------------------------
 Center     Atomic      Atomic             Coordinates (Angstroms)
 Number     Number       Type             X           Y           Z
 ---------------------------------------------------------------------
      1          6           0       -1.211378    0.008030    0.000407
      2          8           0        1.293187   -0.108822    0.000134
      3          1           0        0.010466   -0.117960    0.002798
      4          1           0       -1.525401   -0.233195    1.010076
      5          1           0       -1.430623    1.033283   -0.278079
      6          1           0       -1.552558   -0.710066   -0.737712
      7          1           0        1.415992    0.849750   -0.000590
 ---------------------------------------------------------------------
                    Distance matrix (angstroms):
                    1          2          3          4          5
     1  C    0.000000
     2  O    2.507290   0.000000
     3  H    1.228325   1.282756   0.000000
     4  H    1.084542   2.996646   1.840319   0.000000
     5  H    1.084789   2.966640   1.865742   1.808948   0.000000
     6  H    1.084843   3.000696   1.828110   1.811879   1.807041
     7  H    2.758908   0.966408   1.706452   3.293328   2.865991
                    6          7
     6  H    0.000000
     7  H    3.433463   0.000000
 Stoichiometry    CH5O(2)
 Framework group  C1[X(CH5O)]
 Deg. of freedom    15
 Full point group                 C1      NOp   1
 RotChk:  IX=0 Diff= 7.27D-05
 Largest Abelian subgroup         C1      NOp   1
 Largest concise Abelian subgroup C1      NOp   1
                         Standard orientation:                         
 ---------------------------------------------------------------------
 Center     Atomic      Atomic             Coordinates (Angstroms)
 Number     Number       Type             X           Y           Z
 ---------------------------------------------------------------------
      1          6           0       -1.211121    0.007964    0.000406
      2          8           0        1.293454   -0.108688    0.000134
      3          1           0        0.010733   -0.117928    0.002797
      4          1           0       -1.525125   -0.233286    1.010076
      5          1           0       -1.430449    1.033199   -0.278080
      6          1           0       -1.552243   -0.710159   -0.737712
      7          1           0        1.416182    0.849895   -0.000590
 ---------------------------------------------------------------------
 Rotational constants (GHZ):         120.8650262           9.2535479           9.1081179
 Leave Link  202 at Wed Oct 28 14:27:06 2020, MaxMem=  2684354560 cpu:               0.1 elap:               0.1
 (Enter /udrive/faculty/rpeverati/g16/g16/l301.exe)
 Standard basis: VSTO-6G (5D, 7F)
 Ernie: Thresh=  0.10000D-02 Tol=  0.10000D-05 Strict=F.
  NNHCO=     0 NNPyr=     0 NCTC=     0               EPep=         0.000000000
    EC=        20.063041980  ECS=         0.739716631   EG=         0.198695636
   EHC=         0.000000000  EAt=       -18.150397285  AtH=         0.782392968
 EPDDG=         0.000000000  ECC=        21.001454248 EAtT=        18.932790253
 There are    13 symmetry adapted cartesian basis functions of A   symmetry.
 There are    13 symmetry adapted basis functions of A   symmetry.
    13 basis functions,    78 primitive gaussians,    13 cartesian basis functions
     8 alpha electrons        7 beta electrons
       nuclear repulsion energy        39.9342445006 Hartrees.
 IExCor=    0 DFT=F Ex=HF Corr=None ExCW=0 ScaHFX=  1.000000
 ScaDFX=  1.000000  1.000000  1.000000  1.000000 ScalE2=  1.000000  1.000000
 IRadAn=      5 IRanWt=     -1 IRanGd=            0 ICorTp=0 IEmpDi=  4
 Integral buffers will be    131072 words long.
 Regular integral format.
 Two-electron integral symmetry is turned off.
 Leave Link  301 at Wed Oct 28 14:27:06 2020, MaxMem=  2684354560 cpu:               0.9 elap:               0.1
 (Enter /udrive/faculty/rpeverati/g16/g16/l302.exe)
 Do NDO integrals.
 NPDir=0 NMtPBC=     1 NCelOv=     1 NCel=       1 NClECP=     1 NCelD=      1
         NCelK=      1 NCelE2=     1 NClLst=     1 CellRange=     0.0.
 One-electron integrals computed using PRISM.
 NBasis=    13 RedAO= F EigKep=  0.00D+00  NBF=    13
 NBsUse=    13 1.00D-04 EigRej=  0.00D+00 NBFU=    13
 Leave Link  302 at Wed Oct 28 14:27:07 2020, MaxMem=  2684354560 cpu:               1.3 elap:               0.2
 (Enter /udrive/faculty/rpeverati/g16/g16/l303.exe)
 DipDrv:  MaxL=1.
 Leave Link  303 at Wed Oct 28 14:27:07 2020, MaxMem=  2684354560 cpu:               0.6 elap:               0.1
 (Enter /udrive/faculty/rpeverati/g16/g16/l401.exe)
 Initial guess from the checkpoint file:  "MN_81_RKT04_BH76_AM1_SE.chk"
 SCF N**3 symmetry information disabled.
 B after Tr=     0.000000    0.000000   -0.000000
         Rot=    1.000000    0.000000    0.000000   -0.000018 Ang=   0.00 deg.
 Guess basis will be translated and rotated to current coordinates.
 JPrj=0 DoOrth=T DoCkMO=T.
 Initial guess <Sx>= 0.0000 <Sy>= 0.0000 <Sz>= 0.5000 <S**2>= 0.7813 S= 0.5155
 Leave Link  401 at Wed Oct 28 14:27:07 2020, MaxMem=  2684354560 cpu:               1.4 elap:               0.2
 (Enter /udrive/faculty/rpeverati/g16/g16/l502.exe)
 Keep J ints in memory in canonical form, NReq=859516.
 FoFCou: FMM=F IPFlag=           0 FMFlag=           0 FMFlg1=           0
         NFxFlg=           0 DoJE=F BraDBF=F KetDBF=F FulRan=T
         wScrn=  0.000000 ICntrl=       600 IOpCl=  2 I1Cent=           0 NGrid=           0
         NMat0=    1 NMatS0=     25 NMatT0=    0 NMatD0=    1 NMtDS0=    0 NMtDT0=    0
 Symmetry not used in FoFCou.
 Two-electron integral symmetry not used.
 UHF open shell SCF:
 Using DIIS extrapolation, IDIIS=  1040.
 Overlap will be assumed to be unity.
 NGot=  2684354560 LenX=  2684293739 LenY=  2684292857
 Requested convergence on RMS density matrix=1.00D-08 within 120 cycles.
 Requested convergence on MAX density matrix=1.00D-06.
 Requested convergence on             energy=1.00D-06.
 No special actions if energy rises.

 Cycle   1  Pass 1  IDiag  1:
 E= 0.525201410012954E-02
 DIIS: error= 1.17D-04 at cycle   1 NSaved=   1.
 NSaved= 1 IEnMin= 1 EnMin= 0.525201410012954E-02 IErMin= 1 ErrMin= 1.17D-04
 ErrMax= 1.17D-04  0.00D+00 EMaxC= 1.00D-01 BMatC= 8.70D-07 BMatP= 8.70D-07
 IDIUse=3 WtCom= 9.99D-01 WtEn= 1.17D-03
 Coeff-Com:  0.100D+01
 Coeff-En:   0.100D+01
 Coeff:      0.100D+01
 RMSDP=6.74D-05 MaxDP=4.05D-04              OVMax= 0.00D+00

 Cycle   2  Pass 1  IDiag  3:
 E= 0.525118711177441E-02 Delta-E=       -0.000000826988 Rises=F Damp=F
 DIIS: error= 7.27D-05 at cycle   2 NSaved=   2.
 NSaved= 2 IEnMin= 2 EnMin= 0.525118711177441E-02 IErMin= 2 ErrMin= 7.27D-05
 ErrMax= 7.27D-05  0.00D+00 EMaxC= 1.00D-01 BMatC= 2.36D-07 BMatP= 8.70D-07
 IDIUse=1 WtCom= 1.00D+00 WtEn= 0.00D+00
 Coeff-Com: -0.550D+00 0.155D+01
 Coeff:     -0.550D+00 0.155D+01
 Gap=     0.535 Goal=   None    Shift=    0.000
 Gap=     0.413 Goal=   None    Shift=    0.000
 RMSDP=7.18D-05 MaxDP=4.85D-04 DE=-8.27D-07 OVMax= 6.37D-04

 Cycle   3  Pass 1  IDiag  3:
 E= 0.525070481959489E-02 Delta-E=       -0.000000482292 Rises=F Damp=F
 DIIS: error= 4.41D-05 at cycle   3 NSaved=   3.
 NSaved= 3 IEnMin= 3 EnMin= 0.525070481959489E-02 IErMin= 3 ErrMin= 4.41D-05
 ErrMax= 4.41D-05  0.00D+00 EMaxC= 1.00D-01 BMatC= 7.30D-08 BMatP= 2.36D-07
 IDIUse=1 WtCom= 1.00D+00 WtEn= 0.00D+00
 Coeff-Com:  0.661D+00-0.258D+01 0.292D+01
 Coeff:      0.661D+00-0.258D+01 0.292D+01
 Gap=     0.535 Goal=   None    Shift=    0.000
 Gap=     0.413 Goal=   None    Shift=    0.000
 RMSDP=9.89D-05 MaxDP=6.78D-04 DE=-4.82D-07 OVMax= 8.87D-04

 Cycle   4  Pass 1  IDiag  3:
 E= 0.525044099510552E-02 Delta-E=       -0.000000263824 Rises=F Damp=F
 DIIS: error= 8.39D-06 at cycle   4 NSaved=   4.
 NSaved= 4 IEnMin= 4 EnMin= 0.525044099510552E-02 IErMin= 4 ErrMin= 8.39D-06
 ErrMax= 8.39D-06  0.00D+00 EMaxC= 1.00D-01 BMatC= 2.60D-09 BMatP= 7.30D-08
 IDIUse=1 WtCom= 1.00D+00 WtEn= 0.00D+00
 Coeff-Com: -0.447D+00 0.177D+01-0.210D+01 0.177D+01
 Coeff:     -0.447D+00 0.177D+01-0.210D+01 0.177D+01
 Gap=     0.535 Goal=   None    Shift=    0.000
 Gap=     0.413 Goal=   None    Shift=    0.000
 RMSDP=1.12D-05 MaxDP=7.73D-05 DE=-2.64D-07 OVMax= 9.35D-05

 Cycle   5  Pass 1  IDiag  3:
 E= 0.525043560877947E-02 Delta-E=       -0.000000005386 Rises=F Damp=F
 DIIS: error= 1.79D-06 at cycle   5 NSaved=   5.
 NSaved= 5 IEnMin= 5 EnMin= 0.525043560877947E-02 IErMin= 5 ErrMin= 1.79D-06
 ErrMax= 1.79D-06  0.00D+00 EMaxC= 1.00D-01 BMatC= 2.86D-10 BMatP= 2.60D-09
 IDIUse=1 WtCom= 1.00D+00 WtEn= 0.00D+00
 Coeff-Com:  0.284D+00-0.113D+01 0.134D+01-0.132D+01 0.182D+01
 Coeff:      0.284D+00-0.113D+01 0.134D+01-0.132D+01 0.182D+01
 Gap=     0.535 Goal=   None    Shift=    0.000
 Gap=     0.413 Goal=   None    Shift=    0.000
 RMSDP=2.95D-06 MaxDP=1.61D-05 DE=-5.39D-09 OVMax= 1.42D-05

 Cycle   6  Pass 1  IDiag  3:
 E= 0.525043509032486E-02 Delta-E=       -0.000000000518 Rises=F Damp=F
 DIIS: error= 5.91D-07 at cycle   6 NSaved=   6.
 NSaved= 6 IEnMin= 6 EnMin= 0.525043509032486E-02 IErMin= 6 ErrMin= 5.91D-07
 ErrMax= 5.91D-07  0.00D+00 EMaxC= 1.00D-01 BMatC= 2.52D-11 BMatP= 2.86D-10
 IDIUse=1 WtCom= 1.00D+00 WtEn= 0.00D+00
 Coeff-Com: -0.206D+00 0.818D+00-0.973D+00 0.959D+00-0.152D+01 0.192D+01
 Coeff:     -0.206D+00 0.818D+00-0.973D+00 0.959D+00-0.152D+01 0.192D+01
 Gap=     0.535 Goal=   None    Shift=    0.000
 Gap=     0.413 Goal=   None    Shift=    0.000
 RMSDP=9.46D-07 MaxDP=5.57D-06 DE=-5.18D-10 OVMax= 3.74D-06

 Cycle   7  Pass 1  IDiag  3:
 E= 0.525043504428169E-02 Delta-E=       -0.000000000046 Rises=F Damp=F
 DIIS: error= 1.03D-07 at cycle   7 NSaved=   7.
 NSaved= 7 IEnMin= 7 EnMin= 0.525043504428169E-02 IErMin= 7 ErrMin= 1.03D-07
 ErrMax= 1.03D-07  0.00D+00 EMaxC= 1.00D-01 BMatC= 9.24D-13 BMatP= 2.52D-11
 IDIUse=1 WtCom= 1.00D+00 WtEn= 0.00D+00
 Coeff-Com:  0.102D+00-0.404D+00 0.481D+00-0.476D+00 0.769D+00-0.109D+01
 Coeff-Com:  0.162D+01
 Coeff:      0.102D+00-0.404D+00 0.481D+00-0.476D+00 0.769D+00-0.109D+01
 Coeff:      0.162D+01
 Gap=     0.535 Goal=   None    Shift=    0.000
 Gap=     0.413 Goal=   None    Shift=    0.000
 RMSDP=1.55D-07 MaxDP=9.13D-07 DE=-4.60D-11 OVMax= 7.63D-07

 Cycle   8  Pass 1  IDiag  3:
 E= 0.525043504281797E-02 Delta-E=       -0.000000000001 Rises=F Damp=F
 DIIS: error= 2.72D-08 at cycle   8 NSaved=   8.
 NSaved= 8 IEnMin= 8 EnMin= 0.525043504281797E-02 IErMin= 8 ErrMin= 2.72D-08
 ErrMax= 2.72D-08  0.00D+00 EMaxC= 1.00D-01 BMatC= 6.05D-14 BMatP= 9.24D-13
 IDIUse=1 WtCom= 1.00D+00 WtEn= 0.00D+00
 Coeff-Com: -0.495D-01 0.197D+00-0.234D+00 0.231D+00-0.373D+00 0.545D+00
 Coeff-Com: -0.966D+00 0.165D+01
 Coeff:     -0.495D-01 0.197D+00-0.234D+00 0.231D+00-0.373D+00 0.545D+00
 Coeff:     -0.966D+00 0.165D+01
 Gap=     0.535 Goal=   None    Shift=    0.000
 Gap=     0.413 Goal=   None    Shift=    0.000
 RMSDP=4.16D-08 MaxDP=2.10D-07 DE=-1.46D-12 OVMax= 1.78D-07

 Cycle   9  Pass 1  IDiag  3:
 E= 0.525043504268297E-02 Delta-E=       -0.000000000000 Rises=F Damp=F
 DIIS: error= 2.06D-08 at cycle   9 NSaved=   9.
 NSaved= 9 IEnMin= 9 EnMin= 0.525043504268297E-02 IErMin= 9 ErrMin= 2.06D-08
 ErrMax= 2.06D-08  0.00D+00 EMaxC= 1.00D-01 BMatC= 8.63D-15 BMatP= 6.05D-14
 IDIUse=1 WtCom= 1.00D+00 WtEn= 0.00D+00
 Coeff-Com:  0.283D-01-0.113D+00 0.134D+00-0.132D+00 0.213D+00-0.314D+00
 Coeff-Com:  0.579D+00-0.121D+01 0.182D+01
 Coeff:      0.283D-01-0.113D+00 0.134D+00-0.132D+00 0.213D+00-0.314D+00
 Coeff:      0.579D+00-0.121D+01 0.182D+01
 Gap=     0.535 Goal=   None    Shift=    0.000
 Gap=     0.413 Goal=   None    Shift=    0.000
 RMSDP=2.13D-08 MaxDP=1.83D-07 DE=-1.35D-13 OVMax= 2.12D-07

 Cycle  10  Pass 1  IDiag  3:
 E= 0.525043504264744E-02 Delta-E=       -0.000000000000 Rises=F Damp=F
 DIIS: error= 1.51D-08 at cycle  10 NSaved=  10.
 NSaved=10 IEnMin=10 EnMin= 0.525043504264744E-02 IErMin=10 ErrMin= 1.51D-08
 ErrMax= 1.51D-08  0.00D+00 EMaxC= 1.00D-01 BMatC= 2.86D-15 BMatP= 8.63D-15
 IDIUse=1 WtCom= 1.00D+00 WtEn= 0.00D+00
 Coeff-Com: -0.180D-01 0.715D-01-0.851D-01 0.841D-01-0.135D+00 0.200D+00
 Coeff-Com: -0.374D+00 0.839D+00-0.163D+01 0.205D+01
 Coeff:     -0.180D-01 0.715D-01-0.851D-01 0.841D-01-0.135D+00 0.200D+00
 Coeff:     -0.374D+00 0.839D+00-0.163D+01 0.205D+01
 Gap=     0.535 Goal=   None    Shift=    0.000
 Gap=     0.413 Goal=   None    Shift=    0.000
 RMSDP=1.61D-08 MaxDP=1.64D-07 DE=-3.55D-14 OVMax= 1.93D-07

 Cycle  11  Pass 1  IDiag  3:
 E= 0.525043504265454E-02 Delta-E=        0.000000000000 Rises=F Damp=F
 DIIS: error= 1.03D-08 at cycle  11 NSaved=  11.
 NSaved=11 IEnMin=10 EnMin= 0.525043504264744E-02 IErMin=11 ErrMin= 1.03D-08
 ErrMax= 1.03D-08  0.00D+00 EMaxC= 1.00D-01 BMatC= 1.33D-15 BMatP= 2.86D-15
 IDIUse=1 WtCom= 1.00D+00 WtEn= 0.00D+00
 Coeff-Com:  0.107D-01-0.425D-01 0.506D-01-0.501D-01 0.807D-01-0.121D+00
 Coeff-Com:  0.231D+00-0.578D+00 0.143D+01-0.310D+01 0.309D+01
 Coeff:      0.107D-01-0.425D-01 0.506D-01-0.501D-01 0.807D-01-0.121D+00
 Coeff:      0.231D+00-0.578D+00 0.143D+01-0.310D+01 0.309D+01
 Gap=     0.535 Goal=   None    Shift=    0.000
 Gap=     0.413 Goal=   None    Shift=    0.000
 RMSDP=2.28D-08 MaxDP=2.38D-07 DE= 7.11D-15 OVMax= 2.79D-07

 Cycle  12  Pass 1  IDiag  3:
 E= 0.525043504261902E-02 Delta-E=       -0.000000000000 Rises=F Damp=F
 DIIS: error= 3.44D-09 at cycle  12 NSaved=  12.
 NSaved=12 IEnMin=12 EnMin= 0.525043504261902E-02 IErMin=12 ErrMin= 3.44D-09
 ErrMax= 3.44D-09  0.00D+00 EMaxC= 1.00D-01 BMatC= 2.09D-16 BMatP= 1.33D-15
 IDIUse=1 WtCom= 1.00D+00 WtEn= 0.00D+00
 Coeff-Com: -0.158D-02 0.628D-02-0.750D-02 0.748D-02-0.120D-01 0.188D-01
 Coeff-Com: -0.364D-01 0.106D+00-0.364D+00 0.123D+01-0.185D+01 0.191D+01
 Coeff:     -0.158D-02 0.628D-02-0.750D-02 0.748D-02-0.120D-01 0.188D-01
 Coeff:     -0.364D-01 0.106D+00-0.364D+00 0.123D+01-0.185D+01 0.191D+01
 Gap=     0.535 Goal=   None    Shift=    0.000
 Gap=     0.413 Goal=   None    Shift=    0.000
 RMSDP=9.82D-09 MaxDP=1.02D-07 DE=-3.55D-14 OVMax= 1.19D-07

 Cycle  13  Pass 2  IDiag  1:
 SCF Done:  E(UAM1) =  0.525043504262E-02 A.U. after   13 cycles
            NFock= 12  Conv=0.98D-08     -V/T= 1.0002
 <Sx>= 0.0000 <Sy>= 0.0000 <Sz>= 0.5000 <S**2>= 0.7815 S= 0.5156
 <L.S>= 0.000000000000E+00
 KE=-3.045112133546D+01 PE=-3.907311341585D+01 EE= 2.959524068578D+01
 Annihilation of the first spin contaminant:
 S**2 before annihilation     0.7815,   after     0.7502
 Leave Link  502 at Wed Oct 28 14:27:07 2020, MaxMem=  2684354560 cpu:               1.0 elap:               0.2
 (Enter /udrive/faculty/rpeverati/g16/g16/l508.exe)
 QCSCF skips out because SCF is already converged.
 Leave Link  508 at Wed Oct 28 14:27:07 2020, MaxMem=  2684354560 cpu:               0.1 elap:               0.1
 (Enter /udrive/faculty/rpeverati/g16/g16/l701.exe)
 ... and contract with generalized density number  0.
 Compute integral first derivatives.
 Leave Link  701 at Wed Oct 28 14:27:07 2020, MaxMem=  2684354560 cpu:               1.2 elap:               0.1
 (Enter /udrive/faculty/rpeverati/g16/g16/l702.exe)
 L702 exits ... SP integral derivatives will be done elsewhere.
 Leave Link  702 at Wed Oct 28 14:27:07 2020, MaxMem=  2684354560 cpu:               0.5 elap:               0.1
 (Enter /udrive/faculty/rpeverati/g16/g16/l703.exe)
 Integral derivatives from FoFJK, PRISM(SPDF).
 Compute integral first derivatives, UseDBF=F ICtDFT=           0.
 Calling FoFJK, ICntrl=      2127 FMM=F ISym2X=0 I1Cent= 0 IOpClX= 1 NMat=1 NMatS=1 NMatT=0.
 FoFJK:  IHMeth= 8 ICntrl=    2127 DoSepK=F KAlg= 0 I1Cent=           0 FoldK=F
 IRaf=         0 NMat=       1 IRICut=       1 DoRegI=T DoRafI=F ISym2E= 0 IDoP0=3 IntGTp=3.
 FoFCou: FMM=F IPFlag=           0 FMFlag=      100000 FMFlg1=         800
         NFxFlg=           0 DoJE=F BraDBF=F KetDBF=F FulRan=T
         wScrn=  0.000000 ICntrl=      2127 IOpCl=  1 I1Cent=           0 NGrid=           0
         NMat0=    1 NMatS0=      1 NMatT0=    0 NMatD0=    1 NMtDS0=    0 NMtDT0=    0
 Symmetry not used in FoFCou.
 Leave Link  703 at Wed Oct 28 14:27:07 2020, MaxMem=  2684354560 cpu:               0.6 elap:               0.1
 (Enter /udrive/faculty/rpeverati/g16/g16/l716.exe)
 Dipole        =-6.56955621D-01 5.24824502D-01 1.43861314D-04
 ***** Axes restored to original set *****
 -------------------------------------------------------------------
 Center     Atomic                   Forces (Hartrees/Bohr)
 Number     Number              X              Y              Z
 -------------------------------------------------------------------
      1        6          -0.003125597    0.000182895   -0.000449089
      2        8          -0.020176951    0.016109579    0.000043973
      3        1           0.026510045   -0.005235274    0.000114681
      4        1          -0.003313616   -0.003711211    0.014732918
      5        1          -0.000715636    0.014550948   -0.003800808
      6        1          -0.004270866   -0.010793879   -0.010635624
      7        1           0.005092622   -0.011103057   -0.000006051
 -------------------------------------------------------------------
 Cartesian Forces:  Max     0.026510045 RMS     0.010402417
 Leave Link  716 at Wed Oct 28 14:27:08 2020, MaxMem=  2684354560 cpu:               0.6 elap:               0.1
 (Enter /udrive/faculty/rpeverati/g16/g16/l103.exe)

 GradGradGradGradGradGradGradGradGradGradGradGradGradGradGradGradGradGrad
 Berny optimization.
 Optmz: redundant internal coordinate code flag= 1
 Red2BG:  D1=  1.61D-01 OD1=  1.67D-03 B2RMS=  0.00D+00 IAprox=0
 FormGI is forming the generalized inverse of G from B-inverse, IUseBI=4.
 Internal  Forces:  Max     0.015724418 RMS     0.008359630
 Search for a saddle point.
 Step number   1 out of a maximum of   50
 All quantities printed in internal units (Hartrees-Bohrs-Radians)
 Swapping is turned off.
 Second derivative matrix not updated -- first step.
 The second derivative matrix:
                          R1        R2        R3        R4        R5
           R1           0.12587
           R2           0.04001   0.09498
           R3           0.00066   0.00547   0.35451
           R4           0.00083   0.00488   0.00000   0.35422
           R5           0.00060   0.00572   0.00000   0.00000   0.35415
           R6          -0.05771   0.10900  -0.00490  -0.00413  -0.00521
           R7           0.00605   0.00005  -0.00000  -0.00000  -0.00000
           A1          -0.00466   0.01092   0.00001   0.00001   0.00001
           A2          -0.00262   0.01077  -0.00003  -0.00002  -0.00003
           A3          -0.00544   0.01130   0.00002   0.00002   0.00002
           A4           0.00350  -0.00834  -0.00004  -0.00004  -0.00004
           A5           0.00374  -0.01072   0.00006   0.00005   0.00006
           A6           0.00351  -0.00888  -0.00002  -0.00002  -0.00002
           A7           0.01174   0.00312   0.00000   0.00000   0.00000
           A8          -0.00306  -0.01049   0.00069   0.00062   0.00073
           A9           0.00003   0.00019  -0.00001  -0.00001  -0.00001
           D1          -0.00009   0.00180  -0.00009  -0.00008  -0.00009
           D2           0.00003  -0.00038   0.00002   0.00002   0.00002
           D3           0.00008  -0.00141   0.00007   0.00006   0.00007
                          R6        R7        A1        A2        A3
           R6          -0.01526
           R7           0.00600   0.54118
           A1          -0.01586  -0.00000   0.16004
           A2          -0.01333   0.00000  -0.00004   0.15990
           A3          -0.01711  -0.00000   0.00006  -0.00002   0.16008
           A4           0.01238   0.00001  -0.00011  -0.00004  -0.00013
           A5           0.01408  -0.00001   0.00011   0.00017   0.00010
           A6           0.01272   0.00000  -0.00006   0.00001  -0.00007
           A7           0.00858  -0.00000   0.00000  -0.00001   0.00001
           A8          -0.00082   0.00001   0.00139   0.00133   0.00146
           A9           0.00000  -0.00000  -0.00003  -0.00003  -0.00003
           D1          -0.00108   0.00001  -0.00019  -0.00018  -0.00020
           D2           0.00022  -0.00000   0.00004   0.00004   0.00005
           D3           0.00086  -0.00001   0.00014   0.00014   0.00015
                          A4        A5        A6        A7        A8
           A4           0.16014
           A5          -0.00002   0.15977
           A6           0.00010  -0.00007   0.16006
           A7          -0.00001   0.00002  -0.00001   0.16000
           A8          -0.00111  -0.00128  -0.00115   0.00040   0.00176
           A9           0.00002   0.00002   0.00002  -0.00001   0.00001
           D1           0.00015   0.00018   0.00015  -0.00003   0.00011
           D2          -0.00003  -0.00004  -0.00004   0.00001  -0.00002
           D3          -0.00011  -0.00014  -0.00012   0.00002  -0.00009
                          A9        D1        D2        D3
           A9           0.00230
           D1          -0.00000   0.00228
           D2           0.00000   0.00000   0.00230
           D3           0.00000   0.00002  -0.00000   0.00229
 ITU=  0
 Eigenvectors of the second derivative matrix:
                           1         2         3         4         5
     Eigenvalues --    -0.11165   0.00230   0.00230   0.00277   0.10692
   1         R1         0.28920   0.00100   0.00001  -0.10466   0.02145
   2         R2        -0.50219   0.00002   0.00003   0.02351   0.01412
   3         R3         0.01392  -0.00002  -0.00000   0.00181  -0.00072
   4         R4         0.01187  -0.00002  -0.00000   0.00169  -0.00066
   5         R5         0.01478  -0.00002  -0.00000   0.00186  -0.00074
   6         R6         0.79691  -0.00012  -0.00004  -0.00075  -0.00438
   7         R7        -0.00997  -0.00001   0.00000   0.00119  -0.00023
   8         A1         0.07212  -0.00006  -0.00001   0.00423   0.19324
   9         A2         0.06147  -0.00007  -0.00001   0.00488  -0.25550
  10         A3         0.07748  -0.00006  -0.00001   0.00411   0.07659
  11         A4        -0.05648   0.00005   0.00001  -0.00386  -0.14935
  12         A5        -0.06403   0.00005   0.00001  -0.00351   0.58582
  13         A6        -0.05812   0.00005   0.00001  -0.00383  -0.43487
  14         A7        -0.03183  -0.00009   0.00000   0.00993  -0.00576
  15         A8        -0.03957   0.02607   0.00996  -0.97754   0.08933
  16         A9         0.00093   0.86961   0.48110   0.02671  -0.03336
  17         D1         0.01141  -0.30123   0.49635   0.13689   0.32747
  18         D2        -0.00256  -0.20021   0.53927  -0.03363   0.12877
  19         D3        -0.00891  -0.33508   0.48090  -0.11004  -0.45087
                           6         7         8         9        10
     Eigenvalues --     0.10729   0.14564   0.16000   0.16000   0.16722
   1         R1        -0.01230   0.56976  -0.00000  -0.00000  -0.14943
   2         R2        -0.00811   0.47627  -0.00000  -0.00000  -0.00827
   3         R3         0.00039  -0.01168   0.00000   0.00000  -0.00308
   4         R4         0.00036  -0.01120   0.00000   0.00000  -0.00238
   5         R5         0.00041  -0.01192   0.00000   0.00000  -0.00337
   6         R6         0.00205   0.10211  -0.00000  -0.00000  -0.14412
   7         R7         0.00017  -0.01032   0.00000   0.00000   0.00473
   8         A1         0.16977  -0.06884   0.69469   0.28208   0.40231
   9         A2         0.06980  -0.12431  -0.06649  -0.76111   0.31928
  10         A3        -0.24476  -0.05311  -0.61066   0.40644   0.44046
  11         A4         0.59507   0.09330  -0.25140   0.20655  -0.30190
  12         A5        -0.16556   0.03505  -0.03915  -0.30648  -0.36682
  13         A6        -0.43649   0.07946   0.27401   0.15873  -0.31494
  14         A7         0.00294  -0.62832  -0.01621   0.11897  -0.41671
  15         A8        -0.04905  -0.05923   0.00000   0.00000   0.02107
  16         A9        -0.05269   0.00103  -0.00000  -0.00000  -0.00039
  17         D1        -0.32971  -0.00527   0.00000   0.00000   0.00204
  18         D2         0.45475   0.00155  -0.00000  -0.00000  -0.00046
  19         D3        -0.11591   0.00384   0.00000  -0.00000  -0.00160
                          11        12        13        14        15
     Eigenvalues --     0.17132   0.35419   0.35434   0.35480   0.54132
   1         R1         0.47461   0.00036   0.00563  -0.01404  -0.01366
   2         R2         0.43361   0.00236   0.01103  -0.02911  -0.00363
   3         R3        -0.01333  -0.07171  -0.53991  -0.83835   0.00011
   4         R4        -0.01259  -0.64477   0.66656  -0.37355   0.00007
   5         R5        -0.01368   0.76100   0.51382  -0.39535   0.00013
   6         R6         0.04566  -0.00202  -0.00549   0.01533  -0.01007
   7         R7        -0.00856   0.00005  -0.00001  -0.00003  -0.99985
   8         A1         0.16281   0.00030   0.00097  -0.00263   0.00052
   9         A2         0.22424   0.00025   0.00084  -0.00229   0.00033
  10         A3         0.14804   0.00032   0.00103  -0.00281   0.00052
  11         A4        -0.15522  -0.00026  -0.00085   0.00230  -0.00033
  12         A5        -0.14437  -0.00023  -0.00073   0.00200  -0.00037
  13         A6        -0.15334  -0.00025  -0.00082   0.00223  -0.00046
  14         A7         0.64497  -0.00003   0.00028  -0.00064  -0.00068
  15         A8        -0.02997   0.00023   0.00080  -0.00218   0.00016
  16         A9         0.00049  -0.00000  -0.00002   0.00004   0.00001
  17         D1        -0.00091  -0.00002  -0.00007   0.00018   0.00002
  18         D2         0.00039   0.00000   0.00002  -0.00005  -0.00008
  19         D3         0.00061   0.00001   0.00005  -0.00014   0.00006
 RLam0= 2.67D-03.
 Iter=   1 RLamda= 0.00000000D+00 Sum=-3.58462972D-03.
 Iter=   2 RLamda=-3.58462972D-03 Sum=-3.33672789D-03.
 Iter=   3 RLamda=-3.33672789D-03 Sum=-3.34604740D-03.
 Iter=   4 RLamda=-3.34604740D-03 Sum=-3.34568746D-03.
 Iter=   5 RLamda=-3.34568746D-03 Sum=-3.34570135D-03.
 Iter=   6 RLamda=-3.34570135D-03 Sum=-3.34570081D-03.
 RFO step:  Lambda0=2.673800331D-03 Lambda=-3.34570135D-03.
 Linear search not attempted -- option 19 set.
 Maximum step size (   0.100) exceeded in Quadratic search.
    -- Step size scaled by   0.406
 Iteration  1 RMS(Cart)=  0.02783022 RMS(Int)=  0.00065988
 Iteration  2 RMS(Cart)=  0.00051688 RMS(Int)=  0.00040480
 Iteration  3 RMS(Cart)=  0.00000061 RMS(Int)=  0.00040480
 ITry= 1 IFail=0 DXMaxC= 6.83D-02 DCOld= 1.00D+10 DXMaxT= 1.00D-01 DXLimC= 3.00D+00 Rises=F
 Variable       Old X    -DE/DX   Delta X   Delta X   Delta X     New X
                                 (Linear)    (Quad)   (Total)
    R1        4.73975  -0.00119   0.00000   0.01928   0.01836   4.75811
    R2        2.31954   0.01235   0.00000  -0.02288  -0.02197   2.29758
    R3        2.04949   0.01553   0.00000   0.01876   0.01876   2.06825
    R4        2.04995   0.01489   0.00000   0.01789   0.01789   2.06784
    R5        2.05006   0.01575   0.00000   0.01911   0.01911   2.06916
    R6        2.42740  -0.01349   0.00000   0.05104   0.05195   2.47936
    R7        1.82625  -0.01040   0.00000  -0.00853  -0.00853   1.81772
    A1        1.83733  -0.00135   0.00000   0.00442   0.00430   1.84163
    A2        1.87391  -0.00334   0.00000  -0.00181  -0.00168   1.87223
    A3        1.81962  -0.00022   0.00000   0.00809   0.00803   1.82765
    A4        1.97219   0.00149   0.00000  -0.00297  -0.00290   1.96929
    A5        1.97699   0.00101   0.00000  -0.00404  -0.00434   1.97264
[...]
     Eigenvalues --    -0.08738   0.00004   0.00162   0.00701   0.06949
   1         R1        -0.26532   0.00036  -0.00044   0.47370   0.00062
   2         R2         0.43416  -0.00004   0.00003  -0.05380   0.00025
   3         R3        -0.01544  -0.00042   0.00082   0.00260   0.07318
   4         R4        -0.01548   0.00043  -0.00084   0.00261  -0.07289
   5         R5        -0.01706  -0.00000   0.00001  -0.00055  -0.00026
   6         R6        -0.81740   0.00001   0.00000   0.03123  -0.00043
   7         R7         0.00730   0.00000   0.00000   0.00008   0.00003
   8         A1        -0.06945   0.01211  -0.02368  -0.02045  -0.29254
   9         A2        -0.06945  -0.01220   0.02387  -0.01968   0.29182
  10         A3        -0.08670   0.00011  -0.00022   0.04626   0.00178
  11         A4         0.05446  -0.00002  -0.00003   0.00597  -0.00166
  12         A5         0.07164  -0.00262   0.00872  -0.00535  -0.46516
  13         A6         0.07204   0.00261  -0.00867  -0.00576   0.46604
  14         A7        -0.03520  -0.00000   0.00005  -0.06009  -0.00057
  15         A8         0.19535   0.00066  -0.00159   0.87023   0.00129
  16         A9        -0.00001   0.03047   0.97314   0.00105   0.13435
  17         D1        -0.03348   0.54917   0.08457  -0.06164  -0.26793
  18         D2         0.03427   0.54932   0.08421   0.06300  -0.27042
  19         D3        -0.00069   0.62882  -0.19358  -0.00244   0.47123
                           6         7         8         9        10
     Eigenvalues --     0.07762   0.08562   0.10030   0.10131   0.10650
   1         R1         0.07439  -0.47696   0.00024   0.10502  -0.22139
   2         R2         0.08422  -0.48339  -0.00028   0.06254  -0.22303
   3         R3        -0.04444   0.02772  -0.01512  -0.03796   0.00532
   4         R4        -0.04478   0.02766   0.01521  -0.03842   0.00525
   5         R5         0.06321   0.05349  -0.00003   0.05746   0.05364
   6         R6         0.05117  -0.15648   0.00012   0.03517  -0.04537
   7         R7         0.00001  -0.00859  -0.00003  -0.01305   0.03173
   8         A1        -0.06284   0.19168   0.59864   0.32409   0.26728
   9         A2        -0.06340   0.19205  -0.59711   0.32784   0.26771
  10         A3        -0.09335   0.19858  -0.00129  -0.79363  -0.18032
  11         A4         0.72046  -0.01451  -0.00165  -0.05418  -0.08924
  12         A5        -0.27273  -0.25011  -0.37548   0.08646  -0.11255
  13         A6        -0.26908  -0.24973   0.37700   0.08735  -0.11251
  14         A7        -0.04704   0.44731   0.00051   0.32918  -0.82452
  15         A8        -0.10019   0.25227   0.00065   0.01788   0.06813
  16         A9         0.00044   0.00026   0.03416  -0.00016  -0.00002
  17         D1        -0.37621  -0.06322  -0.00714  -0.06475  -0.03055
  18         D2         0.37478   0.06304  -0.00726   0.06451   0.03060
  19         D3         0.00120   0.00011  -0.01534   0.00038   0.00007
                          11        12        13        14        15
     Eigenvalues --     0.16211   0.34388   0.34400   0.38463   0.46955
   1         R1         0.31595   0.00001  -0.00029   0.02592  -0.00655
   2         R2         0.46942  -0.00002  -0.00033   0.04405  -0.00112
   3         R3         0.00438  -0.69958   0.40413   0.58068  -0.00215
   4         R4         0.00464   0.70669   0.39195   0.58041  -0.00213
   5         R5         0.02370  -0.00696  -0.81666   0.56492  -0.00203
   6         R6        -0.06252  -0.00003   0.00230  -0.00890  -0.00643
   7         R7        -0.00077   0.00001  -0.00001  -0.00422  -0.99934
   8         A1         0.35770  -0.04294   0.04124  -0.02759   0.00191
   9         A2         0.35678   0.04362   0.04062  -0.02757   0.00193
  10         A3         0.32695  -0.00073  -0.06825  -0.02547   0.00216
  11         A4        -0.22449   0.00051   0.05192   0.02086  -0.00152
  12         A5        -0.34519  -0.04047  -0.03252   0.02498  -0.00188
  13         A6        -0.34627   0.03999  -0.03318   0.02500  -0.00187
  14         A7         0.05873  -0.00001  -0.00049   0.00330  -0.03464
  15         A8        -0.13630   0.00010  -0.00390  -0.01414   0.00142
  16         A9        -0.00001   0.01435  -0.00012  -0.00002  -0.00000
  17         D1         0.02886  -0.02838  -0.04002  -0.00303   0.00016
  18         D2        -0.02918  -0.02769   0.04052   0.00306  -0.00015
  19         D3         0.00024   0.04867  -0.00043  -0.00003  -0.00001
 Eigenvalue     1 is  -8.74D-02 should be greater than     0.000000 Eigenvector:
                          R6        R2        R1        A8        A3
   1                   -0.81740   0.43416  -0.26532   0.19535  -0.08670
                          A6        A5        A2        A1        A4
   1                    0.07204   0.07164  -0.06945  -0.06945   0.05446
 Angle between quadratic step and forces=  86.68 degrees.
 Linear search not attempted -- first point.
 Iteration  1 RMS(Cart)=  0.00255908 RMS(Int)=  0.00000598
 Iteration  2 RMS(Cart)=  0.00000734 RMS(Int)=  0.00000022
 Iteration  3 RMS(Cart)=  0.00000000 RMS(Int)=  0.00000022
 ITry= 1 IFail=0 DXMaxC= 5.84D-03 DCOld= 1.00D+10 DXMaxT= 3.00D-01 DXLimC= 3.00D+00 Rises=F
 Variable       Old X    -DE/DX   Delta X   Delta X   Delta X     New X
                                 (Linear)    (Quad)   (Total)
    R1        4.69426   0.00001   0.00000   0.00027   0.00027   4.69453
    R2        2.27503   0.00001   0.00000   0.00004   0.00004   2.27507
    R3        2.08994   0.00000   0.00000   0.00001   0.00001   2.08995
    R4        2.08996  -0.00000   0.00000  -0.00001  -0.00001   2.08995
    R5        2.09180  -0.00000   0.00000  -0.00001  -0.00001   2.09180
    R6        2.55579  -0.00000   0.00000  -0.00003  -0.00003   2.55576
    R7        1.79787  -0.00000   0.00000  -0.00001  -0.00001   1.79786
    A1        1.86873  -0.00000   0.00000  -0.00023  -0.00023   1.86850
    A2        1.86832   0.00000   0.00000   0.00018   0.00018   1.86850
    A3        1.83262   0.00000   0.00000   0.00004   0.00004   1.83265
    A4        1.96081   0.00000   0.00000   0.00001   0.00001   1.96082
    A5        1.96170   0.00000   0.00000   0.00005   0.00005   1.96175
    A6        1.96180  -0.00000   0.00000  -0.00005  -0.00005   1.96175
    A7        1.82071   0.00001   0.00000   0.00010   0.00010   1.82082
    A8        2.66411   0.00000   0.00000   0.00045   0.00045   2.66456
    A9        3.14075   0.00000   0.00000   0.00084   0.00084   3.14159
    D1       -0.99555  -0.00000   0.00000  -0.00594  -0.00595  -1.00149
    D2        1.00775  -0.00000   0.00000  -0.00588  -0.00588   1.00187
    D3       -3.13428   0.00000   0.00000  -0.00710  -0.00710  -3.14138
         Item               Value     Threshold  Converged?
 Maximum Force            0.000014     0.000450     YES
 RMS     Force            0.000004     0.000300     YES
 Maximum Displacement     0.005838     0.001800     NO 
 RMS     Displacement     0.002559     0.001200     NO 
 Predicted change in Energy=-6.393323D-09
                           ----------------------------
                           ! Non-Optimized Parameters !
                           ! (Angstroms and Degrees)  !
 --------------------------                            --------------------------
 ! Name  Definition              Value          Derivative Info.                !
 --------------------------------------------------------------------------------
 ! R1    R(1,2)                  2.4842         -DE/DX =    0.0                 !
 ! R2    R(1,3)                  1.2039         -DE/DX =    0.0                 !
 ! R3    R(1,4)                  1.106          -DE/DX =    0.0                 !
 ! R4    R(1,5)                  1.106          -DE/DX =    0.0                 !
 ! R5    R(1,6)                  1.1069         -DE/DX =    0.0                 !
 ! R6    R(2,3)                  1.3525         -DE/DX =    0.0                 !
 ! R7    R(2,7)                  0.9514         -DE/DX =    0.0                 !
 ! A1    A(3,1,4)              107.0574         -DE/DX =    0.0                 !
 ! A2    A(3,1,5)              107.0569         -DE/DX =    0.0                 !
 ! A3    A(3,1,6)              105.0033         -DE/DX =    0.0                 !
 ! A4    A(4,1,5)              112.3468         -DE/DX =    0.0                 !
 ! A5    A(4,1,6)              112.3998         -DE/DX =    0.0                 !
 ! A6    A(5,1,6)              112.3999         -DE/DX =    0.0                 !
 ! A7    A(3,2,7)              104.3252         -DE/DX =    0.0                 !
 ! A8    L(1,3,2,7,-1)         152.6678         -DE/DX =    0.0                 !
 ! A9    L(1,3,2,7,-2)         180.0001         -DE/DX =    0.0                 !
 ! D1    D(4,1,2,7)            -57.3813         -DE/DX =    0.0                 !
 ! D2    D(5,1,2,7)             57.4028         -DE/DX =    0.0                 !
 ! D3    D(6,1,2,7)           -179.9875         -DE/DX =    0.0                 !
 --------------------------------------------------------------------------------
 GradGradGradGradGradGradGradGradGradGradGradGradGradGradGradGradGradGrad

 Leave Link  103 at Wed Oct 28 14:27:42 2020, MaxMem=  2684354560 cpu:               0.5 elap:               0.1
 (Enter /udrive/faculty/rpeverati/g16/g16/l9999.exe)

 ----------------------------------------------------------------------

 Electric dipole moment (input orientation):
 (Debye = 10**-18 statcoulomb cm , SI units = C m)
                  (au)            (Debye)         (10**-30 SI)
   Tot        0.742470D+00      0.188717D+01      0.629493D+01
   x         -0.576782D+00     -0.146603D+01     -0.489016D+01
   y          0.365025D+00      0.927801D+00      0.309481D+01
   z          0.292133D+00      0.742529D+00      0.247681D+01

 Dipole polarizability, Alpha (input orientation).
 (esu units = cm**3 , SI units = C**2 m**2 J**-1)
 Alpha(0;0):
               (au)            (10**-24 esu)      (10**-40 SI)
   iso        0.181137D+02      0.268417D+01      0.298654D+01
   aniso      0.214574D+02      0.317966D+01      0.353785D+01
   xx         0.318875D+02      0.472525D+01      0.525755D+01
   yx         0.235787D+01      0.349401D+00      0.388761D+00
   yy         0.119981D+02      0.177794D+01      0.197823D+01
   zx         0.693127D+00      0.102711D+00      0.114281D+00
   zy         0.213290D+01      0.316064D+00      0.351668D+00
   zz         0.104553D+02      0.154932D+01      0.172385D+01

 First dipole hyperpolarizability, Beta (input orientation).
 ||, _|_  parallel and perpendicular components, (z) with respect to z axis,
 vector components x,y,z.  Values do not include the 1/n! factor of 1/2.
 (esu units = statvolt**-1 cm**4 , SI units = C**3 m**3 J**-2)
 Beta(0;0,0):
               (au)            (10**-30 esu)      (10**-50 SI)
   || (z)     0.171020D+02      0.147748D+00      0.548352D-01
   _|_(z)     0.570067D+01      0.492493D-01      0.182784D-01
   x          0.734426D+03      0.634487D+01      0.235483D+01
   y          0.162082D+03      0.140026D+01      0.519694D+00
   z          0.855100D+02      0.738740D+00      0.274176D+00
   ||         0.151389D+03      0.130788D+01      0.485407D+00
   xxx        0.257817D+03      0.222734D+01      0.826654D+00
   xxy        0.370820D+02      0.320360D+00      0.118898D+00
   yxy       -0.544538D+01     -0.470439D-01     -0.174599D-01
   yyy        0.170691D+02      0.147464D+00      0.547297D-01
   xxz        0.148285D+02      0.128107D+00      0.475456D-01
   yxz        0.135811D+01      0.117330D-01      0.435460D-02
   yyz       -0.105237D+02     -0.909167D-01     -0.337428D-01
   zxz       -0.756280D+01     -0.653367D-01     -0.242491D-01
   zyz       -0.123687D+00     -0.106856D-02     -0.396585D-03
   zzz        0.241985D+02      0.209057D+00      0.775893D-01

 ----------------------------------------------------------------------

 Dipole orientation:
     6         -1.33476583         -0.57729123          1.68981165
     8          1.21387754          0.84101363         -1.98835809
     1         -0.52908115         -0.12779927         -0.38974810
     1          0.08783116         -1.76552135          2.65529616
     1         -1.61823762          1.25877763          2.64710988
     1         -3.13418405         -1.59339347          1.36537010
     1          2.46935397          1.53917610         -0.90730350

 Electric dipole moment (dipole orientation):
 (Debye = 10**-18 statcoulomb cm , SI units = C m)
                  (au)            (Debye)         (10**-30 SI)
   Tot        0.742470D+00      0.188717D+01      0.629493D+01
   x          0.000000D+00      0.000000D+00      0.000000D+00
   y          0.000000D+00      0.000000D+00      0.000000D+00
   z          0.742470D+00      0.188717D+01      0.629493D+01

 Dipole polarizability, Alpha (dipole orientation).
 (esu units = cm**3 , SI units = C**2 m**2 J**-1)
 Alpha(0;0):
               (au)            (10**-24 esu)      (10**-40 SI)
   iso        0.181137D+02      0.268417D+01      0.298654D+01
   aniso      0.214574D+02      0.317966D+01      0.353785D+01
   xx         0.197110D+02      0.292087D+01      0.324990D+01
   yx         0.599819D+01      0.888839D+00      0.988967D+00
   yy         0.122674D+02      0.181784D+01      0.202262D+01
   zx        -0.829489D+01     -0.122918D+01     -0.136764D+01
   zy        -0.461506D+01     -0.683881D+00     -0.760920D+00
   zz         0.223626D+02      0.331380D+01      0.368710D+01

 First dipole hyperpolarizability, Beta (dipole orientation).
 ||, _|_  parallel and perpendicular components, (z) with respect to z axis,
 vector components x,y,z.  Values do not include the 1/n! factor of 1/2.
 (esu units = statvolt**-1 cm**4 , SI units = C**3 m**3 J**-2)
 Beta(0;0,0):
               (au)            (10**-30 esu)      (10**-50 SI)
   || (z)    -0.914405D+02     -0.789974D+00     -0.293191D+00
   _|_(z)    -0.304802D+02     -0.263325D+00     -0.977304D-01
   x          0.527211D+03      0.455469D+01      0.169043D+01
   y          0.293221D+03      0.253320D+01      0.940173D+00
   z         -0.457202D+03     -0.394987D+01     -0.146596D+01
   ||         0.151389D+03      0.130788D+01      0.485407D+00
   xxx        0.701998D+02      0.606471D+00      0.225086D+00
   xxy        0.289389D+02      0.250009D+00      0.927885D-01
   yxy        0.219504D+02      0.189635D+00      0.703811D-01
   yyy        0.223959D+02      0.193483D+00      0.718092D-01
   xxz       -0.712144D+02     -0.615237D+00     -0.228339D+00
   yxz       -0.504191D+02     -0.435582D+00     -0.161662D+00
   yyz       -0.893119D+01     -0.771586D-01     -0.286366D-01
   zxz        0.835867D+02      0.722124D+00      0.268009D+00
   zyz        0.464057D+02      0.400909D+00      0.148793D+00
   zzz       -0.722552D+02     -0.624229D+00     -0.231676D+00

 ----------------------------------------------------------------------

 Test job not archived.
 1\1\GINC-NODE27\Freq\UAM1\ZDO\C1H5O1(2)\RPEVERATI\28-Oct-2020\0\\#P Fr
 eq AM1 5D 7F Integral=UltraFineGrid SCF=(NoSymm,XQC,MaxCyc=120) IOp(1/
 33=1) Geom=Check Guess=Read\\TS search on BH76.\\0,2\C,-1.1788184796,-
 0.0064666751,-0.0466785476\O,1.3035302956,0.026611692,-0.1337882151\H,
 -0.0170398219,-0.2340325138,-0.2653994682\H,-1.3212758764,-0.068670572
 4,1.0482892496\H,-1.3910928932,1.0045460775,-0.4415663286\H,-1.7326439
 493,-0.7962889724,-0.5895964448\H,1.3370261156,0.7953209478,0.42577317
 29\\Version=ES64L-G16RevA.03\State=2-A\HF=0.0047345\S2=0.773641\S2-1=0
 .\S2A=0.750098\RMSD=5.046e-10\RMSF=5.308e-06\ZeroPoint=0.0505583\Therm
 al=0.0556167\Dipole=-0.5767819,0.3650248,0.2921332\DipoleDeriv=0.56385
 04,0.042372,0.0011858,-0.1497917,-0.1295173,-0.0115248,-0.1396201,-0.0
 201757,-0.1126702,0.3552693,0.0748765,0.0182739,0.1065895,-0.316093,0.
 1011264,0.041521,0.1025634,-0.3881407,-1.0808066,-0.101338,-0.0191652,
 -0.0883209,0.1376873,-0.0038504,-0.0094473,-0.0032637,0.146211,-0.0545
 414,-0.0126659,0.0065085,0.0182469,0.0376345,-0.0081297,-0.0386546,-0.
 0010139,0.0406792,-0.0519458,-0.0019288,-0.0087808,-0.0350397,0.036419
 3,0.0003654,0.0356996,-0.0068329,0.0395746,-0.0443307,-0.0251401,-0.01
 42989,0.0778655,0.0627119,0.0102335,0.0601652,0.0148699,0.0517868,0.31
 2532,0.0238347,0.0162833,0.0704756,0.1711675,-0.0882138,0.0503515,-0.0
 861402,0.2225633\Polar=31.8875444,2.3578746,11.9981441,0.6931269,2.132
 9038,10.4553374\HyperPolar=257.8168113,37.0819985,-5.4453822,17.069101
 3,14.8285095,1.3581112,-10.5237184,-7.5627988,-0.123687,24.1985438\PG=
 C01 [X(C1H5O1)]\NImag=1\\0.30738553,0.03711417,0.51144649,0.03665953,-
 0.00723659,0.51213576,-0.11830039,0.02319393,0.02229033,-0.00315830,-0
 .02585545,0.00394451,0.00390890,-0.01601998,0.30509358,-0.01360571,0.0
 0170655,0.00205763,-0.01151936,0.22263921,0.16402883,-0.00141821,-0.00
 571464,-0.00540205,0.13931870,0.03935889,0.02251418,-0.07049519,0.0454
 5290,-0.03533467,-0.00714054,0.01132857,-0.00581520,-0.00420359,-0.044
 93281,0.04699712,0.03204669,-0.00484202,-0.03337818,0.00197021,-0.0054
 6739,-0.00481775,-0.02841364,0.01511833,0.04139948,-0.03649249,-0.0035
 7401,0.03473680,0.00476900,0.00163131,0.00150167,-0.02084369,-0.000490
 47,0.02247795,0.04170777,-0.00371888,-0.04251139,0.01453029,-0.0009304
 9,-0.00044930,-0.00024658,0.00406473,0.00352498,-0.00345183,0.00319237
 ,0.04259402,0.03280501,0.01486593,-0.30103724,0.00050134,0.00005645,0.
 00013520,0.00808014,-0.00097702,-0.00974444,-0.04026504,-0.01724660,0.
 34875139,-0.04205403,0.04724497,-0.02060580,0.00469928,0.00208623,0.00
 079906,-0.02251024,0.02066400,-0.00619189,0.00524878,-0.00200205,0.000
 64826,0.04818989,0.04538611,-0.26282311,0.08647788,0.00038323,0.000121
 40,-0.00007529,0.00858939,-0.00842441,0.00260026,0.00094195,-0.0044724
 7,0.00860211,-0.05519382,0.30354627,-0.02011240,0.08604375,-0.07514204
 ,-0.00133725,-0.00057581,-0.00032444,0.00285394,-0.00022846,0.00383714
 ,-0.00469442,0.02789421,-0.01653274,0.02273180,-0.10204943,0.08128621,
 -0.09868532,-0.09827695,-0.06813073,0.00809090,0.00109106,0.00042871,-
 0.03573656,-0.01565473,-0.00945668,0.00485395,-0.00041770,-0.00196453,
 0.00570873,-0.00026462,0.00083927,0.11555515,-0.09568806,-0.17483191,-
 0.09119862,-0.00312427,-0.00040086,0.00000761,0.00093947,0.00270637,-0
 .00078035,-0.00190335,0.00135804,-0.00545540,-0.01327553,-0.02805875,-
 0.01094057,0.11319468,0.19945948,-0.06626526,-0.09107572,-0.10447451,-
 0.00263541,-0.00017679,-0.00024198,0.00253088,-0.00001762,0.00363413,-
 0.01417013,-0.02141650,-0.02164171,0.00260174,0.00433918,0.00692712,0.
 07805195,0.10852782,0.11592726,-0.01043346,0.00001193,0.00045121,-0.03
 541509,-0.00229056,-0.00011733,0.01168694,-0.01636827,-0.01243345,0.00
 075620,-0.00018768,0.00019500,0.00071709,0.00015794,-0.00028062,0.0002
 1191,-0.00014258,-0.00011343,0.03247115,-0.00269149,0.00010946,0.00066
 018,-0.01483138,-0.30249382,-0.21982810,-0.00230432,-0.00365423,-0.003
 17719,0.00020237,-0.00004347,0.00015414,0.00047650,0.00011139,-0.00014
 437,0.00032846,-0.00023219,-0.00018048,0.01881894,0.30620227,-0.001528
 27,0.00053955,-0.00016297,-0.00927007,-0.22038480,-0.16083703,-0.00216
 356,-0.00255124,-0.00093033,0.00041350,-0.00006369,0.00007016,0.000016
 96,0.00010492,-0.00005049,0.00023222,-0.00016060,-0.00013007,0.0122987
 0,0.22251592,0.16204014\\0.00001353,-0.00000172,0.00000507,0.00000710,
 -0.00000577,-0.00000324,-0.00001313,0.00000505,-0.00000180,-0.00000233
 ,0.00000058,-0.00000177,0.00000173,0.00000089,-0.00000023,0.00000080,-
 0.00000150,0.00000006,-0.00000771,0.00000246,0.00000191\\\@


 CHEMISTRY BEGAN BY SAYING IT WOULD CHANGE THE BASER
 METALS INTO GOLD.  BY NOT DOING THAT IT HAS DONE MUCH
 GREATER THINGS.  --  RALPH WALDO EMERSON
 Job cpu time:       0 days  0 hours  0 minutes 25.6 seconds.
 Elapsed time:       0 days  0 hours  0 minutes  3.0 seconds.
 File lengths (MBytes):  RWF=      5 Int=      0 D2E=      0 Chk=      2 Scr=      1
 Normal termination of Gaussian 16 at Wed Oct 28 14:27:42 2020.
