 Entering Gaussian System, Link 0=g16
 Input=MN_19_ch3cl_BH76_PBE0_631Gs.in
 Output=MN_19_ch3cl_BH76_PBE0_631Gs.log
 Initial command:
 /udrive/faculty/rpeverati/g16/g16/l1.exe "/udrive/scratch-directories/gaussian09/rpeverati/Gau-627.inp" -scrdir="/udrive/scratch-directories/gaussian09/rpeverati/"
 Entering Link 1 = /udrive/faculty/rpeverati/g16/g16/l1.exe PID=       642.
  
 Copyright (c) 1988,1990,1992,1993,1995,1998,2003,2009,2016,
            Gaussian, Inc.  All Rights Reserved.
  
 This is part of the Gaussian(R) 16 program.  It is based on
 the Gaussian(R) 09 system (copyright 2009, Gaussian, Inc.),
 the Gaussian(R) 03 system (copyright 2003, Gaussian, Inc.),
 the Gaussian(R) 98 system (copyright 1998, Gaussian, Inc.),
 the Gaussian(R) 94 system (copyright 1995, Gaussian, Inc.),
 the Gaussian 92(TM) system (copyright 1992, Gaussian, Inc.),
 the Gaussian 90(TM) system (copyright 1990, Gaussian, Inc.),
 the Gaussian 88(TM) system (copyright 1988, Gaussian, Inc.),
 the Gaussian 86(TM) system (copyright 1986, Carnegie Mellon
 University), and the Gaussian 82(TM) system (copyright 1983,
 Carnegie Mellon University). Gaussian is a federally registered
 trademark of Gaussian, Inc.
  
 This software contains proprietary and confidential information,
 including trade secrets, belonging to Gaussian, Inc.
  
 This software is provided under written license and may be
 used, copied, transmitted, or stored only in accord with that
 written license.
  
 The following legend is applicable only to US Government
 contracts under FAR:
  
                    RESTRICTED RIGHTS LEGEND
  
 Use, reproduction and disclosure by the US Government is
 subject to restrictions as set forth in subparagraphs (a)
 and (c) of the Commercial Computer Software - Restricted
 Rights clause in FAR 52.227-19.
  
 Gaussian, Inc.
 340 Quinnipiac St., Bldg. 40, Wallingford CT 06492
  
  
 ---------------------------------------------------------------
 Warning -- This program may not be used in any manner that
 competes with the business of Gaussian, Inc. or will provide
 assistance to any competitor of Gaussian, Inc.  The licensee
 of this program is prohibited from giving any competitor of
 Gaussian, Inc. access to this program.  By using this program,
 the user acknowledges that Gaussian, Inc. is engaged in the
 business of creating and licensing software in the field of
 computational chemistry and represents and warrants to the
 licensee that it is not a competitor of Gaussian, Inc. and that
 it will not use this program in any manner prohibited above.
 ---------------------------------------------------------------
  

 Cite this work as:
 Gaussian 16, Revision A.03,
 M. J. Frisch, G. W. Trucks, H. B. Schlegel, G. E. Scuseria, 
 M. A. Robb, J. R. Cheeseman, G. Scalmani, V. Barone, 
 G. A. Petersson, H. Nakatsuji, X. Li, M. Caricato, A. V. Marenich, 
 J. Bloino, B. G. Janesko, R. Gomperts, B. Mennucci, H. P. Hratchian, 
 J. V. Ortiz, A. F. Izmaylov, J. L. Sonnenberg, D. Williams-Young, 
 F. Ding, F. Lipparini, F. Egidi, J. Goings, B. Peng, A. Petrone, 
 T. Henderson, D. Ranasinghe, V. G. Zakrzewski, J. Gao, N. Rega, 
 G. Zheng, W. Liang, M. Hada, M. Ehara, K. Toyota, R. Fukuda, 
 J. Hasegawa, M. Ishida, T. Nakajima, Y. Honda, O. Kitao, H. Nakai, 
 T. Vreven, K. Throssell, J. A. Montgomery, Jr., J. E. Peralta, 
 F. Ogliaro, M. J. Bearpark, J. J. Heyd, E. N. Brothers, K. N. Kudin, 
 V. N. Staroverov, T. A. Keith, R. Kobayashi, J. Normand, 
 K. Raghavachari, A. P. Rendell, J. C. Burant, S. S. Iyengar, 
 J. Tomasi, M. Cossi, J. M. Millam, M. Klene, C. Adamo, R. Cammi, 
 J. W. Ochterski, R. L. Martin, K. Morokuma, O. Farkas, 
 J. B. Foresman, and D. J. Fox, Gaussian, Inc., Wallingford CT, 2016.
 
 ******************************************
 Gaussian 16:  ES64L-G16RevA.03 25-Dec-2016
                 7-Oct-2020 
 ******************************************
 %NoSave
 %nproc=12
 Will use up to   12 processors via shared memory.
 %mem=20GB
 %chk=MN_19_ch3cl_BH76_PBE0_631Gs
 ----------------------------------------------------------------------
 #P Opt(MaxCyc=100) PBE1PBE/6-31G* 5D 7F Integral=UltraFineGrid SCF=(No
 Symm,XQC,MaxCyc=120) IOp(1/33=1)
 ----------------------------------------------------------------------
 1/6=100,18=20,19=15,26=4,33=1,38=1/1,3;
 2/9=110,12=2,17=6,18=5,40=1/2;
 3/5=1,6=6,7=1,8=11,11=2,25=1,30=1,71=1,74=-13,75=-5/1,2,3;
 4/9=2/1;
 5/5=2,7=120,8=3,13=1,38=5/2,8;
 6/7=2,8=2,9=2,10=2,28=1/1;
 7//1,2,3,16;
 1/6=100,18=20,19=15,26=4,33=1/3(2);
 2/9=110/2;
 99//99;
 2/9=110/2;
 3/5=1,6=6,7=1,8=11,11=2,25=1,30=1,71=1,74=-13,75=-5/1,2,3;
 4/5=5,9=2,16=3,69=1/1;
 5/5=2,7=120,8=3,13=1,38=5/2,8;
 7//1,2,3,16;
 1/6=100,18=20,19=15,26=4,33=1/3(-5);
 2/9=110/2;
 6/7=2,8=2,9=2,10=2,19=2,28=1/1;
 99/9=1/99;
 Leave Link    1 at Wed Oct  7 13:38:06 2020, MaxMem=  2684354560 cpu:               5.1 elap:               0.6
 (Enter /udrive/faculty/rpeverati/g16/g16/l101.exe)
 ONIOM data not found on unit 2.
 ------------------
 TS search on BH76.
 ------------------
 TstMul:  ICh=     0
 TstMul:  Mul=     1
 TstMul:  ICh=     0
 TstMul:  Mul=     1
 Symbolic Z-matrix:
 Charge =  0 Multiplicity = 1
 C                     0.        0.       -0.14992 
 Cl                    0.        0.        1.6328 
 H                    -0.514    -0.89027  -0.49429 
 H                    -0.514     0.89027  -0.49429 
 H                     1.028     0.       -0.49429 
 
 RdStrC is calling ZToCFu for IStruc=1 NZ=     5.
 PrtBox:  NBox=     1 Levels=  1 BoxLen=    8.00 SMaxX=        4.02
          Shift=            0.971315            1.682367            0.934082
 Box      1 Number                   0 centers from      1 to      5:
 After GenITR:
 ITRead=  0  0  0  0  0
 MicOpt= -1 -1 -1 -1 -1
 ITRead=  0  0  0  0  0
 MicOpt= -1 -1 -1 -1 -1
 NAtoms=      5 NQM=        5 NQMF=       0 NMMI=      0 NMMIF=      0
                NMic=       0 NMicF=      0.
                    Isotopes and Nuclear Properties:
 (Nuclear quadrupole moments (NQMom) in fm**2, nuclear magnetic moments (NMagM)
  in nuclear magnetons)

  Atom         1           2           3           4           5
 IAtWgt=          12          35           1           1           1
 AtmWgt=  12.0000000  34.9688527   1.0078250   1.0078250   1.0078250
 NucSpn=           0           3           1           1           1
 AtZEff=   0.0000000   0.0000000   0.0000000   0.0000000   0.0000000
 NQMom=    0.0000000  -8.1650000   0.0000000   0.0000000   0.0000000
 NMagM=    0.0000000   0.8218740   2.7928460   2.7928460   2.7928460
 AtZNuc=   6.0000000  17.0000000   1.0000000   1.0000000   1.0000000
 No MM parameters found.
 Leave Link  101 at Wed Oct  7 13:38:06 2020, MaxMem=  2684354560 cpu:               4.2 elap:               0.5
 (Enter /udrive/faculty/rpeverati/g16/g16/l103.exe)

 GradGradGradGradGradGradGradGradGradGradGradGradGradGradGradGradGradGrad
 Berny optimization.
 Optmz: redundant internal coordinate code flag= 1
 Initialization pass.
                           ----------------------------
                           !    Initial Parameters    !
                           ! (Angstroms and Degrees)  !
 --------------------------                            --------------------------
 ! Name  Definition              Value          Derivative Info.                !
 --------------------------------------------------------------------------------
 ! R1    R(1,2)                  1.7827         estimate D2E/DX2                !
 ! R2    R(1,3)                  1.0841         estimate D2E/DX2                !
 ! R3    R(1,4)                  1.0841         estimate D2E/DX2                !
 ! R4    R(1,5)                  1.0841         estimate D2E/DX2                !
 ! A1    A(2,1,3)              108.5208         estimate D2E/DX2                !
 ! A2    A(2,1,4)              108.5208         estimate D2E/DX2                !
 ! A3    A(2,1,5)              108.5208         estimate D2E/DX2                !
 ! A4    A(3,1,4)              110.4047         estimate D2E/DX2                !
 ! A5    A(3,1,5)              110.4047         estimate D2E/DX2                !
 ! A6    A(4,1,5)              110.4047         estimate D2E/DX2                !
 ! D1    D(2,1,4,3)           -118.8189         estimate D2E/DX2                !
 ! D2    D(2,1,5,3)            118.8189         estimate D2E/DX2                !
 ! D3    D(2,1,5,4)           -118.8189         estimate D2E/DX2                !
 ! D4    D(3,1,5,4)            122.3622         estimate D2E/DX2                !
 --------------------------------------------------------------------------------
 Maximum allowed force set to 1.00D+20.
 Trust Radius=3.00D-01 FncErr=1.00D-07 GrdErr=1.00D-06 EigMax=2.50D+02 EigMin=1.00D-04
 Number of steps in this run=    100 maximum allowed number of steps=    100.
 GradGradGradGradGradGradGradGradGradGradGradGradGradGradGradGradGradGrad

 Leave Link  103 at Wed Oct  7 13:38:07 2020, MaxMem=  2684354560 cpu:               1.2 elap:               0.4
 (Enter /udrive/faculty/rpeverati/g16/g16/l202.exe)
                          Input orientation:                          
 ---------------------------------------------------------------------
 Center     Atomic      Atomic             Coordinates (Angstroms)
 Number     Number       Type             X           Y           Z
 ---------------------------------------------------------------------
      1          6           0        0.000000    0.000000   -0.149917
      2         17           0        0.000000    0.000000    1.632802
      3          1           0       -0.513998   -0.890270   -0.494295
      4          1           0       -0.513998    0.890270   -0.494295
      5          1           0        1.027996    0.000000   -0.494295
 ---------------------------------------------------------------------
                    Distance matrix (angstroms):
                    1          2          3          4          5
     1  C    0.000000
     2  Cl   1.782719   0.000000
     3  H    1.084145   2.362481   0.000000
     4  H    1.084145   2.362481   1.780540   0.000000
     5  H    1.084145   2.362481   1.780540   1.780540   0.000000
 Stoichiometry    CH3Cl
 Framework group  C3V[C3(CCl),3SGV(H)]
 Deg. of freedom     3
 Full point group                 C3V     NOp   6
 Largest Abelian subgroup         CS      NOp   2
 Largest concise Abelian subgroup CS      NOp   2
                         Standard orientation:                         
 ---------------------------------------------------------------------
 Center     Atomic      Atomic             Coordinates (Angstroms)
 Number     Number       Type             X           Y           Z
 ---------------------------------------------------------------------
      1          6           0        0.000000    0.000000   -1.125888
      2         17           0        0.000000    0.000000    0.656831
      3          1           0        0.000000    1.027996   -1.470266
      4          1           0        0.890270   -0.513998   -1.470266
      5          1           0       -0.890270   -0.513998   -1.470266
 ---------------------------------------------------------------------
 Rotational constants (GHZ):         158.1715438          13.3244403          13.3244403
 Leave Link  202 at Wed Oct  7 13:38:07 2020, MaxMem=  2684354560 cpu:               1.3 elap:               0.3
 (Enter /udrive/faculty/rpeverati/g16/g16/l301.exe)
 Standard basis: 6-31G(d) (5D, 7F)
 Ernie: Thresh=  0.10000D-02 Tol=  0.10000D-05 Strict=F.
 There are    29 symmetry adapted cartesian basis functions of A'  symmetry.
 There are    11 symmetry adapted cartesian basis functions of A"  symmetry.
 There are    27 symmetry adapted basis functions of A'  symmetry.
 There are    11 symmetry adapted basis functions of A"  symmetry.
    38 basis functions,    92 primitive gaussians,    40 cartesian basis functions
    13 alpha electrons       13 beta electrons
       nuclear repulsion energy        51.3784950987 Hartrees.
 IExCor= 1009 DFT=T Ex+Corr=PBE1PBE ExCW=0 ScaHFX=  0.250000
 ScaDFX=  0.750000  0.750000  1.000000  1.000000 ScalE2=  1.000000  1.000000
 IRadAn=      5 IRanWt=     -1 IRanGd=            0 ICorTp=0 IEmpDi=  4
 NAtoms=    5 NActive=    5 NUniq=    3 SFac= 2.78D+00 NAtFMM=   60 NAOKFM=F Big=F
 Integral buffers will be    131072 words long.
 Raffenetti 2 integral format.
 Two-electron integral symmetry is turned on.
 Leave Link  301 at Wed Oct  7 13:38:08 2020, MaxMem=  2684354560 cpu:               1.5 elap:               0.5
 (Enter /udrive/faculty/rpeverati/g16/g16/l302.exe)
 NPDir=0 NMtPBC=     1 NCelOv=     1 NCel=       1 NClECP=     1 NCelD=      1
         NCelK=      1 NCelE2=     1 NClLst=     1 CellRange=     0.0.
 One-electron integrals computed using PRISM.
 One-electron integral symmetry used in STVInt
 NBasis=    38 RedAO= T EigKep=  1.79D-02  NBF=    27    11
 NBsUse=    38 1.00D-06 EigRej= -1.00D+00 NBFU=    27    11
 Precomputing XC quadrature grid using
 IXCGrd= 4 IRadAn=           5 IRanWt=          -1 IRanGd=           0 AccXCQ= 0.00D+00.
 Generated NRdTot=       0 NPtTot=           0 NUsed=           0 NTot=          32
 NSgBfM=    40    40    40    40    40 MxSgAt=     5 MxSgA2=     5.
 Leave Link  302 at Wed Oct  7 13:38:09 2020, MaxMem=  2684354560 cpu:               2.9 elap:               0.5
 (Enter /udrive/faculty/rpeverati/g16/g16/l303.exe)
 DipDrv:  MaxL=1.
 Leave Link  303 at Wed Oct  7 13:38:09 2020, MaxMem=  2684354560 cpu:               0.9 elap:               0.3
 (Enter /udrive/faculty/rpeverati/g16/g16/l401.exe)
 SCF N**3 symmetry information disabled.
 ExpMin= 1.43D-01 ExpMax= 2.52D+04 ExpMxC= 3.78D+03 IAcc=3 IRadAn=         5 AccDes= 0.00D+00
 Harris functional with IExCor= 1009 and IRadAn=       5 diagonalized for initial guess.
 HarFok:  IExCor= 1009 AccDes= 0.00D+00 IRadAn=         5 IDoV= 1 UseB2=F ITyADJ=14
 ICtDFT=  3500011 ScaDFX=  1.000000  1.000000  1.000000  1.000000
 FoFCou: FMM=F IPFlag=           0 FMFlag=      100000 FMFlg1=           0
         NFxFlg=           0 DoJE=T BraDBF=F KetDBF=T FulRan=T
         wScrn=  0.000000 ICntrl=       500 IOpCl=  0 I1Cent=   200000004 NGrid=           0
         NMat0=    1 NMatS0=      1 NMatT0=    0 NMatD0=    1 NMtDS0=    0 NMtDT0=    0
 Petite list used in FoFCou.
 Harris En= -499.794316348368    
 JPrj=0 DoOrth=F DoCkMO=F.
 Initial guess orbital symmetries:
       Occupied  (A1) (A1) (A1) (A1) (E) (E) (A1) (A1) (E) (E)
                 (A1) (E) (E)
       Virtual   (A1) (A1) (E) (E) (A1) (A1) (E) (E) (E) (E) (A1)
                 (E) (E) (A1) (E) (E) (E) (E) (A1) (A1) (E) (E)
                 (A1) (E) (E)
 The electronic state of the initial guess is 1-A1.
 Leave Link  401 at Wed Oct  7 13:38:10 2020, MaxMem=  2684354560 cpu:               5.2 elap:               0.7
 (Enter /udrive/faculty/rpeverati/g16/g16/l502.exe)
 Keep R1 ints in memory in symmetry-blocked form, NReq=10633040.
 FoFCou: FMM=F IPFlag=           0 FMFlag=           0 FMFlg1=           0
         NFxFlg=           0 DoJE=F BraDBF=F KetDBF=F FulRan=T
         wScrn=  0.000000 ICntrl=       600 IOpCl=  0 I1Cent=           0 NGrid=           0
         NMat0=    1 NMatS0=    741 NMatT0=    0 NMatD0=    1 NMtDS0=    0 NMtDT0=    0
 Petite list used in FoFCou.
 Closed shell SCF:
 Using DIIS extrapolation, IDIIS=  1040.
 NGot=  2684354560 LenX=  2684205112 LenY=  2684203071
 Requested convergence on RMS density matrix=1.00D-08 within 120 cycles.
 Requested convergence on MAX density matrix=1.00D-06.
 Requested convergence on             energy=1.00D-06.
 No special actions if energy rises.
 Integral accuracy reduced to 1.0D-05 until final iterations.

 Cycle   1  Pass 0  IDiag  1:
 E= -499.840234478080    
 DIIS: error= 3.89D-02 at cycle   1 NSaved=   1.
 NSaved= 1 IEnMin= 1 EnMin= -499.840234478080     IErMin= 1 ErrMin= 3.89D-02
 ErrMax= 3.89D-02  0.00D+00 EMaxC= 1.00D-01 BMatC= 4.42D-02 BMatP= 4.42D-02
 IDIUse=3 WtCom= 6.11D-01 WtEn= 3.89D-01
 Coeff-Com:  0.100D+01
 Coeff-En:   0.100D+01
 Coeff:      0.100D+01
 Gap=     0.406 Goal=   None    Shift=    0.000
 GapD=    0.406 DampG=2.000 DampE=0.500 DampFc=1.0000 IDamp=-1.
 RMSDP=9.67D-03 MaxDP=1.30D-01              OVMax= 1.74D-01

 Cycle   2  Pass 0  IDiag  1:
 E= -499.828432112968     Delta-E=        0.011802365112 Rises=F Damp=F
 DIIS: error= 4.27D-02 at cycle   2 NSaved=   2.
 NSaved= 2 IEnMin= 1 EnMin= -499.840234478080     IErMin= 1 ErrMin= 3.89D-02
 ErrMax= 4.27D-02  0.00D+00 EMaxC= 1.00D-01 BMatC= 5.10D-02 BMatP= 4.42D-02
 IDIUse=2 WtCom= 0.00D+00 WtEn= 1.00D+00
 Coeff-En:   0.557D+00 0.443D+00
 Coeff:      0.557D+00 0.443D+00
 Gap=     0.368 Goal=   None    Shift=    0.000
 RMSDP=5.33D-03 MaxDP=7.17D-02 DE= 1.18D-02 OVMax= 8.92D-02

 Cycle   3  Pass 0  IDiag  1:
 E= -499.884265122663     Delta-E=       -0.055833009695 Rises=F Damp=F
 DIIS: error= 1.99D-03 at cycle   3 NSaved=   3.
 NSaved= 3 IEnMin= 3 EnMin= -499.884265122663     IErMin= 3 ErrMin= 1.99D-03
 ErrMax= 1.99D-03  0.00D+00 EMaxC= 1.00D-01 BMatC= 2.33D-04 BMatP= 4.42D-02
 IDIUse=3 WtCom= 9.80D-01 WtEn= 1.99D-02
 Coeff-Com:  0.950D-01 0.609D-01 0.844D+00
 Coeff-En:   0.000D+00 0.000D+00 0.100D+01
 Coeff:      0.931D-01 0.597D-01 0.847D+00
 Gap=     0.350 Goal=   None    Shift=    0.000
 RMSDP=4.73D-04 MaxDP=4.32D-03 DE=-5.58D-02 OVMax= 5.44D-03

 Cycle   4  Pass 0  IDiag  1:
 E= -499.884470724352     Delta-E=       -0.000205601689 Rises=F Damp=F
 DIIS: error= 7.06D-04 at cycle   4 NSaved=   4.
 NSaved= 4 IEnMin= 4 EnMin= -499.884470724352     IErMin= 4 ErrMin= 7.06D-04
 ErrMax= 7.06D-04  0.00D+00 EMaxC= 1.00D-01 BMatC= 2.28D-05 BMatP= 2.33D-04
 IDIUse=3 WtCom= 9.93D-01 WtEn= 7.06D-03
 Coeff-Com:  0.229D-02-0.718D-02 0.251D+00 0.754D+00
 Coeff-En:   0.000D+00 0.000D+00 0.000D+00 0.100D+01
 Coeff:      0.228D-02-0.713D-02 0.250D+00 0.755D+00
 Gap=     0.350 Goal=   None    Shift=    0.000
 RMSDP=1.45D-04 MaxDP=9.74D-04 DE=-2.06D-04 OVMax= 1.28D-03

 Cycle   5  Pass 0  IDiag  1:
 E= -499.884493690079     Delta-E=       -0.000022965727 Rises=F Damp=F
 DIIS: error= 6.06D-05 at cycle   5 NSaved=   5.
 NSaved= 5 IEnMin= 5 EnMin= -499.884493690079     IErMin= 5 ErrMin= 6.06D-05
 ErrMax= 6.06D-05  0.00D+00 EMaxC= 1.00D-01 BMatC= 2.85D-07 BMatP= 2.28D-05
 IDIUse=1 WtCom= 1.00D+00 WtEn= 0.00D+00
 Coeff-Com:  0.525D-03-0.250D-02 0.694D-01 0.232D+00 0.700D+00
 Coeff:      0.525D-03-0.250D-02 0.694D-01 0.232D+00 0.700D+00
 Gap=     0.350 Goal=   None    Shift=    0.000
 RMSDP=2.26D-05 MaxDP=3.27D-04 DE=-2.30D-05 OVMax= 1.92D-04

 Cycle   6  Pass 0  IDiag  1:
 E= -499.884493999023     Delta-E=       -0.000000308944 Rises=F Damp=F
 DIIS: error= 1.96D-05 at cycle   6 NSaved=   6.
 NSaved= 6 IEnMin= 6 EnMin= -499.884493999023     IErMin= 6 ErrMin= 1.96D-05
 ErrMax= 1.96D-05  0.00D+00 EMaxC= 1.00D-01 BMatC= 1.28D-08 BMatP= 2.85D-07
 IDIUse=1 WtCom= 1.00D+00 WtEn= 0.00D+00
 Coeff-Com: -0.892D-04-0.786D-03 0.120D-01 0.443D-01 0.214D+00 0.730D+00
 Coeff:     -0.892D-04-0.786D-03 0.120D-01 0.443D-01 0.214D+00 0.730D+00
 Gap=     0.350 Goal=   None    Shift=    0.000
 RMSDP=4.11D-06 MaxDP=4.70D-05 DE=-3.09D-07 OVMax= 4.00D-05

 Initial convergence to 1.0D-05 achieved.  Increase integral accuracy.
 Cycle   7  Pass 1  IDiag  1:
 E= -499.884496547641     Delta-E=       -0.000002548618 Rises=F Damp=F
 DIIS: error= 3.00D-06 at cycle   1 NSaved=   1.
 NSaved= 1 IEnMin= 1 EnMin= -499.884496547641     IErMin= 1 ErrMin= 3.00D-06
 ErrMax= 3.00D-06  0.00D+00 EMaxC= 1.00D-01 BMatC= 5.27D-10 BMatP= 5.27D-10
 IDIUse=1 WtCom= 1.00D+00 WtEn= 0.00D+00
 Coeff-Com:  0.100D+01
 Coeff:      0.100D+01
 Gap=     0.350 Goal=   None    Shift=    0.000
 RMSDP=4.11D-06 MaxDP=4.70D-05 DE=-2.55D-06 OVMax= 1.94D-05

 Cycle   8  Pass 1  IDiag  1:
 E= -499.884496547636     Delta-E=        0.000000000005 Rises=F Damp=F
 DIIS: error= 2.70D-06 at cycle   2 NSaved=   2.
 NSaved= 2 IEnMin= 1 EnMin= -499.884496547641     IErMin= 2 ErrMin= 2.70D-06
 ErrMax= 2.70D-06  0.00D+00 EMaxC= 1.00D-01 BMatC= 5.47D-10 BMatP= 5.27D-10
 IDIUse=1 WtCom= 1.00D+00 WtEn= 0.00D+00
 Coeff-Com:  0.505D+00 0.495D+00
 Coeff:      0.505D+00 0.495D+00
 Gap=     0.350 Goal=   None    Shift=    0.000
 RMSDP=7.91D-07 MaxDP=1.14D-05 DE= 5.46D-12 OVMax= 1.27D-05

 Cycle   9  Pass 1  IDiag  1:
 E= -499.884496548265     Delta-E=       -0.000000000629 Rises=F Damp=F
 DIIS: error= 7.08D-07 at cycle   3 NSaved=   3.
 NSaved= 3 IEnMin= 3 EnMin= -499.884496548265     IErMin= 3 ErrMin= 7.08D-07
 ErrMax= 7.08D-07  0.00D+00 EMaxC= 1.00D-01 BMatC= 1.20D-11 BMatP= 5.27D-10
 IDIUse=1 WtCom= 1.00D+00 WtEn= 0.00D+00
 Coeff-Com:  0.154D+00 0.204D+00 0.642D+00
 Coeff:      0.154D+00 0.204D+00 0.642D+00
 Gap=     0.350 Goal=   None    Shift=    0.000
 RMSDP=7.63D-08 MaxDP=1.06D-06 DE=-6.29D-10 OVMax= 1.06D-06

 Cycle  10  Pass 1  IDiag  1:
 E= -499.884496548278     Delta-E=       -0.000000000012 Rises=F Damp=F
 DIIS: error= 8.49D-08 at cycle   4 NSaved=   4.
 NSaved= 4 IEnMin= 4 EnMin= -499.884496548278     IErMin= 4 ErrMin= 8.49D-08
 ErrMax= 8.49D-08  0.00D+00 EMaxC= 1.00D-01 BMatC= 4.23D-13 BMatP= 1.20D-11
 IDIUse=1 WtCom= 1.00D+00 WtEn= 0.00D+00
 Coeff-Com:  0.363D-02 0.266D-01 0.169D+00 0.801D+00
 Coeff:      0.363D-02 0.266D-01 0.169D+00 0.801D+00
 Gap=     0.350 Goal=   None    Shift=    0.000
 RMSDP=3.06D-08 MaxDP=4.25D-07 DE=-1.24D-11 OVMax= 2.46D-07

 Cycle  11  Pass 1  IDiag  1:
 E= -499.884496548278     Delta-E=       -0.000000000001 Rises=F Damp=F
 DIIS: error= 2.12D-08 at cycle   5 NSaved=   5.
 NSaved= 5 IEnMin= 5 EnMin= -499.884496548278     IErMin= 5 ErrMin= 2.12D-08
 ErrMax= 2.12D-08  0.00D+00 EMaxC= 1.00D-01 BMatC= 2.14D-14 BMatP= 4.23D-13
 IDIUse=1 WtCom= 1.00D+00 WtEn= 0.00D+00
 Coeff-Com: -0.609D-02-0.102D-02 0.762D-02 0.209D+00 0.791D+00
 Coeff:     -0.609D-02-0.102D-02 0.762D-02 0.209D+00 0.791D+00
 Gap=     0.350 Goal=   None    Shift=    0.000
 RMSDP=5.00D-09 MaxDP=3.82D-08 DE=-6.82D-13 OVMax= 4.28D-08

 SCF Done:  E(RPBE1PBE) =  -499.884496548     A.U. after   11 cycles
            NFock= 11  Conv=0.50D-08     -V/T= 2.0016
 KE= 4.990917751293D+02 PE=-1.289543027632D+03 EE= 2.391882608560D+02
 Leave Link  502 at Wed Oct  7 13:38:12 2020, MaxMem=  2684354560 cpu:              11.3 elap:               1.3
 (Enter /udrive/faculty/rpeverati/g16/g16/l508.exe)
 QCSCF skips out because SCF is already converged.
 Leave Link  508 at Wed Oct  7 13:38:12 2020, MaxMem=  2684354560 cpu:               0.3 elap:               0.4
 (Enter /udrive/faculty/rpeverati/g16/g16/l601.exe)
 Copying SCF densities to generalized density rwf, IOpCl= 0 IROHF=0.

 **********************************************************************

            Population analysis using the SCF density.

 **********************************************************************

 Orbital symmetries:
       Occupied  (A1) (A1) (A1) (A1) (E) (E) (A1) (A1) (E) (E)
                 (A1) (E) (E)
       Virtual   (A1) (A1) (E) (E) (A1) (A1) (E) (E) (E) (E) (A1)
                 (E) (E) (A1) (E) (E) (E) (E) (A1) (A1) (E) (E)
                 (A1) (E) (E)
 The electronic state is 1-A1.
 Alpha  occ. eigenvalues -- -101.68748 -10.28079  -9.51816  -7.25365  -7.24352
 Alpha  occ. eigenvalues --   -7.24352  -0.87639  -0.69869  -0.46664  -0.46664
 Alpha  occ. eigenvalues --   -0.42762  -0.30776  -0.30776
 Alpha virt. eigenvalues --    0.04234   0.12223   0.15680   0.15680   0.42559
 Alpha virt. eigenvalues --    0.45601   0.47965   0.47965   0.54249   0.54249
 Alpha virt. eigenvalues --    0.57977   0.85816   0.85816   0.90797   0.91340
 Alpha virt. eigenvalues --    0.91340   0.94854   0.94854   1.06212   1.26864
 Alpha virt. eigenvalues --    1.69408   1.69408   2.16227   2.22991   2.22991
          Condensed to atoms (all electrons):
               1          2          3          4          5
     1  C    5.283800   0.212620   0.373227   0.373227   0.373227
     2  Cl   0.212620  16.996260  -0.045047  -0.045047  -0.045047
     3  H    0.373227  -0.045047   0.496028  -0.027077  -0.027077
     4  H    0.373227  -0.045047  -0.027077   0.496028  -0.027077
     5  H    0.373227  -0.045047  -0.027077  -0.027077   0.496028
 Mulliken charges:
               1
     1  C   -0.616100
     2  Cl  -0.073739
     3  H    0.229946
     4  H    0.229946
     5  H    0.229946
 Sum of Mulliken charges =  -0.00000
 Mulliken charges with hydrogens summed into heavy atoms:
               1
     1  C    0.073739
     2  Cl  -0.073739
 Electronic spatial extent (au):  <R**2>=            130.4913
 Charge=             -0.0000 electrons
 Dipole moment (field-independent basis, Debye):
    X=              0.0000    Y=             -0.0000    Z=             -2.0728  Tot=              2.0728
 Quadrupole moment (field-independent basis, Debye-Ang):
   XX=            -19.7093   YY=            -19.7093   ZZ=            -17.9602
   XY=             -0.0000   XZ=              0.0000   YZ=              0.0000
 Traceless Quadrupole moment (field-independent basis, Debye-Ang):
   XX=             -0.5831   YY=             -0.5831   ZZ=              1.1661
   XY=             -0.0000   XZ=              0.0000   YZ=              0.0000
 Octapole moment (field-independent basis, Debye-Ang**2):
  XXX=              0.0000  YYY=              0.8286  ZZZ=              1.7889  XYY=              0.0000
  XXY=             -0.8286  XXZ=             -0.9974  XZZ=             -0.0000  YZZ=             -0.0000
  YYZ=             -0.9974  XYZ=              0.0000
 Hexadecapole moment (field-independent basis, Debye-Ang**3):
 XXXX=            -27.1425 YYYY=            -27.1425 ZZZZ=           -113.8046 XXXY=              0.0000
 XXXZ=             -0.0000 YYYX=              0.0000 YYYZ=             -1.1973 ZZZX=             -0.0000
 ZZZY=              0.0000 XXYY=             -9.0475 XXZZ=            -23.4013 YYZZ=            -23.4013
 XXYZ=              1.1973 YYXZ=             -0.0000 ZZXY=             -0.0000
 N-N= 5.137849509868D+01 E-N=-1.289543029162D+03  KE= 4.990917751293D+02
 No NMR shielding tensors so no spin-rotation constants.
 Leave Link  601 at Wed Oct  7 13:38:13 2020, MaxMem=  2684354560 cpu:               3.7 elap:               0.6
 (Enter /udrive/faculty/rpeverati/g16/g16/l701.exe)
 ... and contract with generalized density number  0.
 Compute integral first derivatives.
 Leave Link  701 at Wed Oct  7 13:38:14 2020, MaxMem=  2684354560 cpu:               4.0 elap:               0.6
 (Enter /udrive/faculty/rpeverati/g16/g16/l702.exe)
 L702 exits ... SP integral derivatives will be done elsewhere.
 Leave Link  702 at Wed Oct  7 13:38:15 2020, MaxMem=  2684354560 cpu:               0.9 elap:               0.4
 (Enter /udrive/faculty/rpeverati/g16/g16/l703.exe)
 Integral derivatives from FoFJK, PRISM(SPDF).
 Compute integral first derivatives, UseDBF=F ICtDFT=           0.
 Calling FoFJK, ICntrl=      2127 FMM=F ISym2X=1 I1Cent= 0 IOpClX= 0 NMat=1 NMatS=1 NMatT=0.
 FoFJK:  IHMeth= 1 ICntrl=    2127 DoSepK=F KAlg= 0 I1Cent=           0 FoldK=F
 IRaf=         0 NMat=       1 IRICut=       1 DoRegI=T DoRafI=F ISym2E= 1 IDoP0=0 IntGTp=1.
 FoFCou: FMM=F IPFlag=           0 FMFlag=      100000 FMFlg1=         800
         NFxFlg=           0 DoJE=F BraDBF=F KetDBF=F FulRan=T
         wScrn=  0.000000 ICntrl=      2127 IOpCl=  0 I1Cent=           0 NGrid=           0
         NMat0=    1 NMatS0=      1 NMatT0=    0 NMatD0=    1 NMtDS0=    0 NMtDT0=    0
 Petite list used in FoFCou.
 Leave Link  703 at Wed Oct  7 13:38:16 2020, MaxMem=  2684354560 cpu:               7.3 elap:               0.9
 (Enter /udrive/faculty/rpeverati/g16/g16/l716.exe)
 Dipole        = 0.00000000D+00-1.11022302D-16-8.15502714D-01
 ***** Axes restored to original set *****
 -------------------------------------------------------------------
 Center     Atomic                   Forces (Hartrees/Bohr)
 Number     Number              X              Y              Z
 -------------------------------------------------------------------
      1        6          -0.000000000   -0.000000000    0.005501052
      2       17           0.000000000    0.000000000    0.000070261
      3        1          -0.001971060   -0.003413975   -0.001857104
      4        1          -0.001971060    0.003413975   -0.001857104
      5        1           0.003942119    0.000000000   -0.001857104
 -------------------------------------------------------------------
 Cartesian Forces:  Max     0.005501052 RMS     0.002411555
 Leave Link  716 at Wed Oct  7 13:38:17 2020, MaxMem=  2684354560 cpu:               2.2 elap:               0.6
 (Enter /udrive/faculty/rpeverati/g16/g16/l103.exe)

 GradGradGradGradGradGradGradGradGradGradGradGradGradGradGradGradGradGrad
 Berny optimization.
 Optmz: redundant internal coordinate code flag= 1
 FormGI is forming the generalized inverse of G from B-inverse, IUseBI=4.
 Internal  Forces:  Max     0.004327858 RMS     0.002015171
 Search for a local minimum.
 Step number   1 out of a maximum of  100
 All quantities printed in internal units (Hartrees-Bohrs-Radians)
 RMS Force = .20152D-02 SwitMx=.10000D-02 MixMth= 1
 Mixed Optimization -- RFO/linear search
 Second derivative matrix not updated -- first step.
 The second derivative matrix:
                          R1        R2        R3        R4        A1
           R1           0.27527
           R2           0.00000   0.35498
           R3           0.00000   0.00000   0.35498
           R4           0.00000   0.00000   0.00000   0.35498
           A1           0.00000   0.00000   0.00000   0.00000   0.16000
           A2           0.00000   0.00000   0.00000   0.00000   0.00000
           A3           0.00000   0.00000   0.00000   0.00000   0.00000
           A4           0.00000   0.00000   0.00000   0.00000   0.00000
           A5           0.00000   0.00000   0.00000   0.00000   0.00000
           A6           0.00000   0.00000   0.00000   0.00000   0.00000
           D1           0.00000   0.00000   0.00000   0.00000   0.00000
           D2           0.00000   0.00000   0.00000   0.00000   0.00000
           D3           0.00000   0.00000   0.00000   0.00000   0.00000
           D4           0.00000   0.00000   0.00000   0.00000   0.00000
                          A2        A3        A4        A5        A6
           A2           0.16000
           A3           0.00000   0.16000
           A4           0.00000   0.00000   0.16000
           A5           0.00000   0.00000   0.00000   0.16000
           A6           0.00000   0.00000   0.00000   0.00000   0.16000
           D1           0.00000   0.00000   0.00000   0.00000   0.00000
           D2           0.00000   0.00000   0.00000   0.00000   0.00000
           D3           0.00000   0.00000   0.00000   0.00000   0.00000
           D4           0.00000   0.00000   0.00000   0.00000   0.00000
                          D1        D2        D3        D4
           D1           0.00312
           D2           0.00000   0.00312
           D3           0.00000   0.00000   0.00312
           D4           0.00000   0.00000   0.00000   0.00312
 ITU=  0
 Eigenvectors of the second derivative matrix:
                           1         2         3         4         5
     Eigenvalues --     0.05057   0.05680   0.08856   0.16000   0.16000
   1         R1        -0.00000   0.00000   0.00000   0.00000   0.00000
   2         R2        -0.00000   0.00000   0.00000  -0.00000   0.00000
   3         R3         0.00000  -0.00000  -0.00000  -0.00000   0.00000
   4         R4         0.00000   0.00000  -0.00000   0.00000   0.00000
   5         A1         0.45518   0.13556   0.13038   0.07012   0.25399
   6         A2        -0.01140  -0.39984   0.33671   0.24095  -0.32478
   7         A3         0.05103  -0.18061  -0.39073  -0.66714  -0.10035
   8         A4        -0.19737   0.30736   0.35383  -0.39539  -0.19003
   9         A5        -0.05483   0.18203  -0.36377   0.54654  -0.42282
  10         A6        -0.22483  -0.06048  -0.06369   0.19213   0.77785
  11         D1        -0.43150  -0.10205  -0.57150  -0.00000  -0.00000
  12         D2         0.55318   0.16197  -0.29267  -0.00000  -0.00000
  13         D3         0.11479   0.63239  -0.13474  -0.00000  -0.00000
  14         D4        -0.43839   0.47042   0.15793   0.00000   0.00000
                           6         7         8         9
     Eigenvalues --     0.27527   0.35498   0.35498   0.35498
   1         R1         1.00000  -0.00000  -0.00000  -0.00000
   2         R2        -0.00000  -0.67401  -0.52386   0.52085
   3         R3         0.00000   0.73371  -0.55678   0.38946
   4         R4         0.00000   0.08597   0.64464   0.75963
   5         A1         0.00000  -0.00000   0.00000  -0.00000
   6         A2         0.00000   0.00000  -0.00000   0.00000
   7         A3         0.00000  -0.00000   0.00000   0.00000
   8         A4         0.00000   0.00000  -0.00000   0.00000
   9         A5         0.00000  -0.00000  -0.00000   0.00000
  10         A6        -0.00000   0.00000   0.00000  -0.00000
  11         D1        -0.00000  -0.00000   0.00000   0.00000
  12         D2         0.00000  -0.00000   0.00000  -0.00000
  13         D3         0.00000   0.00000   0.00000  -0.00000
  14         D4        -0.00000   0.00000  -0.00000   0.00000
 Iter=   1 RLamda= 0.00000000D+00 Sum=-1.68486666D-04.
 Iter=   2 RLamda=-1.68486666D-04 Sum=-1.68381648D-04.
 Iter=   3 RLamda=-1.68381648D-04 Sum=-1.68381714D-04.
 RFO step:  Lambda=-1.68381648D-04 EMin= 5.05672907D-02
 Linear search not attempted -- first point.
 Iteration  1 RMS(Cart)=  0.00531125 RMS(Int)=  0.00002729
 Iteration  2 RMS(Cart)=  0.00001674 RMS(Int)=  0.00000846
 Iteration  3 RMS(Cart)=  0.00000000 RMS(Int)=  0.00000846
 ITry= 1 IFail=0 DXMaxC= 9.39D-03 DCOld= 1.00D+10 DXMaxT= 3.00D-01 DXLimC= 3.00D+00 Rises=F
 ClnCor:  largest displacement from symmetrization is 1.31D-04 for atom     5.
 Variable       Old X    -DE/DX   Delta X   Delta X   Delta X     New X
                                 (Linear)    (Quad)   (Total)
    R1        3.36885   0.00007   0.00000   0.00026   0.00026   3.36911
    R2        2.04874   0.00433   0.00000   0.01219   0.01218   2.06091
    R3        2.04874   0.00433   0.00000   0.01219   0.01218   2.06091
    R4        2.04874   0.00433   0.00000   0.01219   0.01218   2.06091
    A1        1.89405   0.00011   0.00000   0.00319   0.00322   1.89726
    A2        1.89405   0.00017   0.00000   0.00324   0.00322   1.89726
    A3        1.89405   0.00034   0.00000   0.00330   0.00322   1.89726
    A4        1.92692  -0.00004   0.00000  -0.00306  -0.00312   1.92381
    A5        1.92692  -0.00027   0.00000  -0.00316  -0.00312   1.92381
    A6        1.92692  -0.00030   0.00000  -0.00316  -0.00312   1.92381
    D1       -2.07378  -0.00022   0.00000  -0.00407  -0.00405  -2.07783
    D2        2.07378   0.00019   0.00000   0.00404   0.00405   2.07783
    D3       -2.07378  -0.00024   0.00000  -0.00410  -0.00405  -2.07783
    D4        2.13562  -0.00043   0.00000  -0.00814  -0.00809   2.12753
         Item               Value     Threshold  Converged?
 Maximum Force            0.004328     0.000450     NO 
 RMS     Force            0.002015     0.000300     NO 
 Maximum Displacement     0.009427     0.001800     NO 
 RMS     Displacement     0.005302     0.001200     NO 
 Predicted change in Energy=-8.421561D-05
 Lowest energy point so far.  Saving SCF results.
 Largest change from initial coordinates is atom    5       0.005 Angstoms.
 GradGradGradGradGradGradGradGradGradGradGradGradGradGradGradGradGradGrad

 Leave Link  103 at Wed Oct  7 13:38:18 2020, MaxMem=  2684354560 cpu:               3.2 elap:               0.7
 (Enter /udrive/faculty/rpeverati/g16/g16/l202.exe)
                          Input orientation:                          
 ---------------------------------------------------------------------
 Center     Atomic      Atomic             Coordinates (Angstroms)
 Number     Number       Type             X           Y           Z
 ---------------------------------------------------------------------
      1          6           0       -0.000000    0.000000   -0.146701
      2         17           0       -0.000000   -0.000000    1.636153
      3          1           0       -0.516492   -0.894591   -0.496452
      4          1           0       -0.516492    0.894591   -0.496452
      5          1           0        1.032984   -0.000000   -0.496452
 ---------------------------------------------------------------------
                    Distance matrix (angstroms):
                    1          2          3          4          5
     1  C    0.000000
     2  Cl   1.782854   0.000000
     3  H    1.090588   2.369612   0.000000
     4  H    1.090588   2.369612   1.789181   0.000000
     5  H    1.090588   2.369612   1.789181   1.789181   0.000000
 Stoichiometry    CH3Cl
 Framework group  C3V[C3(CCl),3SGV(H)]
 Deg. of freedom     3
 Full point group                 C3V     NOp   6
 RotChk:  IX=0 Diff= 0.00D+00
 Largest Abelian subgroup         CS      NOp   2
 Largest concise Abelian subgroup CS      NOp   2
                         Standard orientation:                         
 ---------------------------------------------------------------------
 Center     Atomic      Atomic             Coordinates (Angstroms)
 Number     Number       Type             X           Y           Z
 ---------------------------------------------------------------------
      1          6           0        0.000000    0.000000   -1.125356
      2         17           0        0.000000    0.000000    0.657498
      3          1           0        0.000000    1.032984   -1.475108
      4          1           0        0.894591   -0.516492   -1.475108
      5          1           0       -0.894591   -0.516492   -1.475108
 ---------------------------------------------------------------------
 Rotational constants (GHZ):         156.6474705          13.2992232          13.2992232
 Leave Link  202 at Wed Oct  7 13:38:18 2020, MaxMem=  2684354560 cpu:               1.7 elap:               0.4
 (Enter /udrive/faculty/rpeverati/g16/g16/l301.exe)
 Standard basis: 6-31G(d) (5D, 7F)
 Ernie: Thresh=  0.10000D-02 Tol=  0.10000D-05 Strict=F.
 There are    29 symmetry adapted cartesian basis functions of A'  symmetry.
 There are    11 symmetry adapted cartesian basis functions of A"  symmetry.
 There are    27 symmetry adapted basis functions of A'  symmetry.
 There are    11 symmetry adapted basis functions of A"  symmetry.
    38 basis functions,    92 primitive gaussians,    40 cartesian basis functions
    13 alpha electrons       13 beta electrons
       nuclear repulsion energy        51.2856104532 Hartrees.
 IExCor= 1009 DFT=T Ex+Corr=PBE1PBE ExCW=0 ScaHFX=  0.250000
 ScaDFX=  0.750000  0.750000  1.000000  1.000000 ScalE2=  1.000000  1.000000
 IRadAn=      5 IRanWt=     -1 IRanGd=            0 ICorTp=0 IEmpDi=  4
 NAtoms=    5 NActive=    5 NUniq=    3 SFac= 2.78D+00 NAtFMM=   60 NAOKFM=F Big=F
 Integral buffers will be    131072 words long.
 Raffenetti 2 integral format.
 Two-electron integral symmetry is turned on.
 Leave Link  301 at Wed Oct  7 13:38:19 2020, MaxMem=  2684354560 cpu:               1.8 elap:               0.5
 (Enter /udrive/faculty/rpeverati/g16/g16/l302.exe)
 NPDir=0 NMtPBC=     1 NCelOv=     1 NCel=       1 NClECP=     1 NCelD=      1
         NCelK=      1 NCelE2=     1 NClLst=     1 CellRange=     0.0.
 One-electron integrals computed using PRISM.
 One-electron integral symmetry used in STVInt
 NBasis=    38 RedAO= T EigKep=  1.82D-02  NBF=    27    11
 NBsUse=    38 1.00D-06 EigRej= -1.00D+00 NBFU=    27    11
 Precomputing XC quadrature grid using
 IXCGrd= 4 IRadAn=           5 IRanWt=          -1 IRanGd=           0 AccXCQ= 0.00D+00.
 Generated NRdTot=       0 NPtTot=           0 NUsed=           0 NTot=          32
 NSgBfM=    40    40    40    40    40 MxSgAt=     5 MxSgA2=     5.
 Leave Link  302 at Wed Oct  7 13:38:20 2020, MaxMem=  2684354560 cpu:               3.1 elap:               0.6
 (Enter /udrive/faculty/rpeverati/g16/g16/l303.exe)
 DipDrv:  MaxL=1.
 Leave Link  303 at Wed Oct  7 13:38:21 2020, MaxMem=  2684354560 cpu:               1.0 elap:               0.4
 (Enter /udrive/faculty/rpeverati/g16/g16/l401.exe)
 Initial guess from the checkpoint file:  "MN_19_ch3cl_BH76_PBE0_631Gs.chk"
 SCF N**3 symmetry information disabled.
 B after Tr=    -0.000000    0.000000   -0.000000
         Rot=    1.000000   -0.000000    0.000000   -0.000000 Ang=   0.00 deg.
 Guess basis will be translated and rotated to current coordinates.
 JPrj=2 DoOrth=T DoCkMO=T.
 Initial guess orbital symmetries:
       Occupied  (A1) (A1) (A1) (A1) (E) (E) (A1) (A1) (E) (E)
                 (A1) (E) (E)
       Virtual   (A1) (A1) (E) (E) (A1) (A1) (E) (E) (E) (E) (A1)
                 (E) (E) (A1) (E) (E) (E) (E) (A1) (A1) (E) (E)
                 (A1) (E) (E)
 The electronic state of the initial guess is 1-A1.
 Leave Link  401 at Wed Oct  7 13:38:21 2020, MaxMem=  2684354560 cpu:               2.0 elap:               0.6
 (Enter /udrive/faculty/rpeverati/g16/g16/l502.exe)
 Keep R1 ints in memory in symmetry-blocked form, NReq=10633040.
 FoFCou: FMM=F IPFlag=           0 FMFlag=           0 FMFlg1=           0
         NFxFlg=           0 DoJE=F BraDBF=F KetDBF=F FulRan=T
         wScrn=  0.000000 ICntrl=       600 IOpCl=  0 I1Cent=           0 NGrid=           0
         NMat0=    1 NMatS0=    741 NMatT0=    0 NMatD0=    1 NMtDS0=    0 NMtDT0=    0
 Petite list used in FoFCou.
 Closed shell SCF:
 Using DIIS extrapolation, IDIIS=  1040.
 NGot=  2684354560 LenX=  2684205112 LenY=  2684203071
 Requested convergence on RMS density matrix=1.00D-08 within 120 cycles.
 Requested convergence on MAX density matrix=1.00D-06.
 Requested convergence on             energy=1.00D-06.
 No special actions if energy rises.

 Cycle   1  Pass 1  IDiag  1:
 E= -499.884558029197    
 DIIS: error= 8.42D-04 at cycle   1 NSaved=   1.
 NSaved= 1 IEnMin= 1 EnMin= -499.884558029197     IErMin= 1 ErrMin= 8.42D-04
 ErrMax= 8.42D-04  0.00D+00 EMaxC= 1.00D-01 BMatC= 1.64D-05 BMatP= 1.64D-05
 IDIUse=3 WtCom= 9.92D-01 WtEn= 8.42D-03
 Coeff-Com:  0.100D+01
 Coeff-En:   0.100D+01
 Coeff:      0.100D+01
 Gap=     0.350 Goal=   None    Shift=    0.000
 RMSDP=1.70D-04 MaxDP=2.19D-03              OVMax= 2.29D-03

 Cycle   2  Pass 1  IDiag  1:
 E= -499.884567456783     Delta-E=       -0.000009427587 Rises=F Damp=F
 DIIS: error= 7.06D-04 at cycle   2 NSaved=   2.
 NSaved= 2 IEnMin= 2 EnMin= -499.884567456783     IErMin= 2 ErrMin= 7.06D-04
 ErrMax= 7.06D-04  0.00D+00 EMaxC= 1.00D-01 BMatC= 1.23D-05 BMatP= 1.64D-05
 IDIUse=3 WtCom= 9.93D-01 WtEn= 7.06D-03
 Coeff-Com:  0.457D+00 0.543D+00
 Coeff-En:   0.295D+00 0.705D+00
 Coeff:      0.456D+00 0.544D+00
 Gap=     0.350 Goal=   None    Shift=    0.000
 RMSDP=9.16D-05 MaxDP=1.04D-03 DE=-9.43D-06 OVMax= 1.60D-03

 Cycle   3  Pass 1  IDiag  1:
 E= -499.884579545373     Delta-E=       -0.000012088589 Rises=F Damp=F
 DIIS: error= 1.40D-04 at cycle   3 NSaved=   3.
 NSaved= 3 IEnMin= 3 EnMin= -499.884579545373     IErMin= 3 ErrMin= 1.40D-04
 ErrMax= 1.40D-04  0.00D+00 EMaxC= 1.00D-01 BMatC= 7.02D-07 BMatP= 1.23D-05
 IDIUse=3 WtCom= 9.99D-01 WtEn= 1.40D-03
 Coeff-Com:  0.924D-02 0.188D+00 0.803D+00
 Coeff-En:   0.000D+00 0.000D+00 0.100D+01
 Coeff:      0.922D-02 0.188D+00 0.803D+00
 Gap=     0.350 Goal=   None    Shift=    0.000
 RMSDP=2.67D-05 MaxDP=3.09D-04 DE=-1.21D-05 OVMax= 3.68D-04

 Cycle   4  Pass 1  IDiag  1:
 E= -499.884580259544     Delta-E=       -0.000000714171 Rises=F Damp=F
 DIIS: error= 1.96D-05 at cycle   4 NSaved=   4.
 NSaved= 4 IEnMin= 4 EnMin= -499.884580259544     IErMin= 4 ErrMin= 1.96D-05
 ErrMax= 1.96D-05  0.00D+00 EMaxC= 1.00D-01 BMatC= 2.68D-08 BMatP= 7.02D-07
 IDIUse=1 WtCom= 1.00D+00 WtEn= 0.00D+00
 Coeff-Com: -0.697D-02 0.541D-01 0.295D+00 0.658D+00
 Coeff:     -0.697D-02 0.541D-01 0.295D+00 0.658D+00
 Gap=     0.350 Goal=   None    Shift=    0.000
 RMSDP=7.13D-06 MaxDP=8.12D-05 DE=-7.14D-07 OVMax= 8.18D-05

 Cycle   5  Pass 1  IDiag  1:
 E= -499.884580292026     Delta-E=       -0.000000032483 Rises=F Damp=F
 DIIS: error= 2.38D-06 at cycle   5 NSaved=   5.
 NSaved= 5 IEnMin= 5 EnMin= -499.884580292026     IErMin= 5 ErrMin= 2.38D-06
 ErrMax= 2.38D-06  0.00D+00 EMaxC= 1.00D-01 BMatC= 2.83D-10 BMatP= 2.68D-08
 IDIUse=1 WtCom= 1.00D+00 WtEn= 0.00D+00
 Coeff-Com: -0.182D-02 0.692D-02 0.385D-01 0.131D+00 0.825D+00
 Coeff:     -0.182D-02 0.692D-02 0.385D-01 0.131D+00 0.825D+00
 Gap=     0.350 Goal=   None    Shift=    0.000
 RMSDP=8.05D-07 MaxDP=1.16D-05 DE=-3.25D-08 OVMax= 7.22D-06

 Cycle   6  Pass 1  IDiag  1:
 E= -499.884580292347     Delta-E=       -0.000000000320 Rises=F Damp=F
 DIIS: error= 7.49D-07 at cycle   6 NSaved=   6.
 NSaved= 6 IEnMin= 6 EnMin= -499.884580292347     IErMin= 6 ErrMin= 7.49D-07
 ErrMax= 7.49D-07  0.00D+00 EMaxC= 1.00D-01 BMatC= 3.68D-11 BMatP= 2.83D-10
 IDIUse=1 WtCom= 1.00D+00 WtEn= 0.00D+00
 Coeff-Com: -0.148D-03-0.149D-02-0.807D-02-0.120D-02 0.292D+00 0.719D+00
 Coeff:     -0.148D-03-0.149D-02-0.807D-02-0.120D-02 0.292D+00 0.719D+00
 Gap=     0.350 Goal=   None    Shift=    0.000
 RMSDP=1.87D-07 MaxDP=2.25D-06 DE=-3.20D-10 OVMax= 1.72D-06

 Cycle   7  Pass 1  IDiag  1:
 E= -499.884580292389     Delta-E=       -0.000000000042 Rises=F Damp=F
 DIIS: error= 4.44D-08 at cycle   7 NSaved=   7.
 NSaved= 7 IEnMin= 7 EnMin= -499.884580292389     IErMin= 7 ErrMin= 4.44D-08
 ErrMax= 4.44D-08  0.00D+00 EMaxC= 1.00D-01 BMatC= 9.37D-14 BMatP= 3.68D-11
 IDIUse=1 WtCom= 1.00D+00 WtEn= 0.00D+00
 Coeff-Com:  0.220D-04-0.173D-03-0.831D-03-0.200D-02 0.760D-02 0.538D-01
 Coeff-Com:  0.942D+00
 Coeff:      0.220D-04-0.173D-03-0.831D-03-0.200D-02 0.760D-02 0.538D-01
 Coeff:      0.942D+00
 Gap=     0.350 Goal=   None    Shift=    0.000
 RMSDP=1.41D-08 MaxDP=1.20D-07 DE=-4.21D-11 OVMax= 2.13D-07

 Cycle   8  Pass 1  IDiag  1:
 E= -499.884580292388     Delta-E=        0.000000000001 Rises=F Damp=F
 DIIS: error= 6.98D-09 at cycle   8 NSaved=   8.
 NSaved= 8 IEnMin= 7 EnMin= -499.884580292389     IErMin= 8 ErrMin= 6.98D-09
 ErrMax= 6.98D-09  0.00D+00 EMaxC= 1.00D-01 BMatC= 2.17D-15 BMatP= 9.37D-14
 IDIUse=1 WtCom= 1.00D+00 WtEn= 0.00D+00
 Coeff-Com:  0.448D-05-0.642D-05-0.434D-04-0.230D-03-0.245D-02 0.327D-03
 Coeff-Com:  0.136D+00 0.866D+00
 Coeff:      0.448D-05-0.642D-05-0.434D-04-0.230D-03-0.245D-02 0.327D-03
 Coeff:      0.136D+00 0.866D+00
 Gap=     0.350 Goal=   None    Shift=    0.000
 RMSDP=1.50D-09 MaxDP=1.06D-08 DE= 6.82D-13 OVMax= 1.30D-08

 SCF Done:  E(RPBE1PBE) =  -499.884580292     A.U. after    8 cycles
            NFock=  8  Conv=0.15D-08     -V/T= 2.0016
 KE= 4.990637664790D+02 PE=-1.289335195149D+03 EE= 2.391012379246D+02
 Leave Link  502 at Wed Oct  7 13:38:23 2020, MaxMem=  2684354560 cpu:              11.6 elap:               1.3
 (Enter /udrive/faculty/rpeverati/g16/g16/l508.exe)
 QCSCF skips out because SCF is already converged.
 Leave Link  508 at Wed Oct  7 13:38:23 2020, MaxMem=  2684354560 cpu:               0.3 elap:               0.4
 (Enter /udrive/faculty/rpeverati/g16/g16/l701.exe)
 ... and contract with generalized density number  0.
 Compute integral first derivatives.
 Leave Link  701 at Wed Oct  7 13:38:24 2020, MaxMem=  2684354560 cpu:               4.1 elap:               0.7
 (Enter /udrive/faculty/rpeverati/g16/g16/l702.exe)
 L702 exits ... SP integral derivatives will be done elsewhere.
 Leave Link  702 at Wed Oct  7 13:38:25 2020, MaxMem=  2684354560 cpu:               0.9 elap:               0.4
 (Enter /udrive/faculty/rpeverati/g16/g16/l703.exe)
 Integral derivatives from FoFJK, PRISM(SPDF).
 Compute integral first derivatives, UseDBF=F ICtDFT=           0.
 Calling FoFJK, ICntrl=      2127 FMM=F ISym2X=1 I1Cent= 0 IOpClX= 0 NMat=1 NMatS=1 NMatT=0.
 FoFJK:  IHMeth= 1 ICntrl=    2127 DoSepK=F KAlg= 0 I1Cent=           0 FoldK=F
 IRaf=         0 NMat=       1 IRICut=       1 DoRegI=T DoRafI=F ISym2E= 1 IDoP0=0 IntGTp=1.
 FoFCou: FMM=F IPFlag=           0 FMFlag=      100000 FMFlg1=         800
         NFxFlg=           0 DoJE=F BraDBF=F KetDBF=F FulRan=T
         wScrn=  0.000000 ICntrl=      2127 IOpCl=  0 I1Cent=           0 NGrid=           0
         NMat0=    1 NMatS0=      1 NMatT0=    0 NMatD0=    1 NMtDS0=    0 NMtDT0=    0
 Petite list used in FoFCou.
 Leave Link  703 at Wed Oct  7 13:38:26 2020, MaxMem=  2684354560 cpu:               7.9 elap:               0.9
 (Enter /udrive/faculty/rpeverati/g16/g16/l716.exe)
 Dipole        =-2.22044605D-16-1.11022302D-16-8.12267049D-01
 ***** Axes restored to original set *****
 -------------------------------------------------------------------
 Center     Atomic                   Forces (Hartrees/Bohr)
 Number     Number              X              Y              Z
 -------------------------------------------------------------------
      1        6           0.000000000   -0.000000000    0.001086716
      2       17          -0.000000000   -0.000000000   -0.000674483
      3        1           0.000065907    0.000114154   -0.000137411
      4        1           0.000065907   -0.000114154   -0.000137411
      5        1          -0.000131813   -0.000000000   -0.000137411
 -------------------------------------------------------------------
 Cartesian Forces:  Max     0.001086716 RMS     0.000341042
 Leave Link  716 at Wed Oct  7 13:38:27 2020, MaxMem=  2684354560 cpu:               1.1 elap:               0.4
 (Enter /udrive/faculty/rpeverati/g16/g16/l103.exe)

 GradGradGradGradGradGradGradGradGradGradGradGradGradGradGradGradGradGrad
 Berny optimization.
 Optmz: redundant internal coordinate code flag= 1
 Using GEDIIS/GDIIS optimizer.
 Red2BG:  D1=  5.34D-01 OD1=  3.17D-02 B2RMS=  0.00D+00 IAprox=0
 FormGI is forming the generalized inverse of G from B-inverse, IUseBI=4.
 Internal  Forces:  Max     0.000674483 RMS     0.000198433
 Search for a local minimum.
 Step number   2 out of a maximum of  100
 All quantities printed in internal units (Hartrees-Bohrs-Radians)
 RMS Force = .19843D-03 SwitMx=.10000D-02 MixMth= 2
 Mixed Optimization -- En-DIIS/RFO-DIIS
 Update second derivatives using D2CorX and points    1    2
 DE= -8.37D-05 DEPred=-8.42D-05 R= 9.94D-01
 TightC=F SS=  1.41D+00  RLast= 2.49D-02 DXNew= 5.0454D-01 7.4679D-02
 Trust test= 9.94D-01 RLast= 2.49D-02 DXMaxT set to 3.00D-01
 The second derivative matrix:
                          R1        R2        R3        R4        A1
           R1           0.27854
           R2           0.01775   0.35951
           R3           0.01775   0.00453   0.35951
           R4           0.01775   0.00453   0.00453   0.35951
           A1           0.00011  -0.01135  -0.01135  -0.01135   0.15845
           A2           0.00029  -0.01024  -0.01024  -0.01024  -0.00153
           A3           0.00079  -0.00731  -0.00731  -0.00731  -0.00148
           A4           0.00011   0.01224   0.01224   0.01224   0.00152
           A5          -0.00057   0.00820   0.00820   0.00820   0.00145
           A6          -0.00067   0.00761   0.00761   0.00761   0.00144
           D1          -0.00064  -0.00349  -0.00349  -0.00349  -0.00002
           D2           0.00054   0.00292   0.00292   0.00292   0.00001
           D3          -0.00071  -0.00392  -0.00392  -0.00392  -0.00003
           D4          -0.00125  -0.00683  -0.00683  -0.00683  -0.00005
                          A2        A3        A4        A5        A6
           A2           0.15850
           A3          -0.00143   0.15873
           A4           0.00151   0.00150   0.15852
           A5           0.00141   0.00129  -0.00146   0.15871
           A6           0.00139   0.00126  -0.00145  -0.00127   0.15876
           D1          -0.00006  -0.00016  -0.00002   0.00012   0.00013
           D2           0.00005   0.00013   0.00002  -0.00009  -0.00011
           D3          -0.00007  -0.00018  -0.00002   0.00013   0.00015
           D4          -0.00012  -0.00031  -0.00004   0.00022   0.00026
                          D1        D2        D3        D4
           D1           0.00325
           D2          -0.00011   0.00321
           D3           0.00014  -0.00012   0.00328
           D4           0.00024  -0.00021   0.00027   0.00360
 ITU=  1  0
 Use linear search instead of GDIIS.
 Eigenvectors of the second derivative matrix:
                           1         2         3         4         5
     Eigenvalues --     0.04964   0.05608   0.08819   0.15934   0.16000
   1         R1        -0.00978   0.00732  -0.00172   0.01565  -0.00001
   2         R2         0.01557  -0.01129   0.00241  -0.01591  -0.00001
   3         R3         0.01557  -0.01129   0.00241  -0.01591  -0.00001
   4         R4         0.01557  -0.01129   0.00241  -0.01591  -0.00001
   5         A1         0.43798   0.18125   0.12953   0.17616   0.19955
   6         A2         0.03081  -0.39818   0.33512   0.07842  -0.39937
   7         A3         0.07257  -0.17636  -0.38738  -0.64542   0.20008
   8         A4        -0.22644   0.28424   0.35465  -0.43702   0.00028
   9         A5        -0.07699   0.17855  -0.36507   0.30643  -0.61697
  10         A6        -0.22232  -0.08083  -0.06462   0.51016   0.61644
  11         D1        -0.41867  -0.14651  -0.57212  -0.00386   0.00000
  12         D2         0.53259   0.21915  -0.29433   0.00274  -0.00000
  13         D3         0.04981   0.64078  -0.13416  -0.00419   0.00000
  14         D4        -0.48279   0.42162   0.16017  -0.00693   0.00000
                           6         7         8         9
     Eigenvalues --     0.26920   0.35498   0.35498   0.37843
   1         R1         0.95579   0.00000   0.00000   0.29338
   2         R2        -0.16879  -0.48167  -0.65929   0.55156
   3         R3        -0.16879  -0.33013   0.74678   0.55156
   4         R4        -0.16879   0.81180  -0.08749   0.55156
   5         A1         0.00157  -0.00000  -0.00000  -0.00366
   6         A2         0.00476  -0.00000  -0.00000  -0.00677
   7         A3         0.01727  -0.00000  -0.00000  -0.01729
   8         A4         0.00356   0.00000  -0.00000  -0.00085
   9         A5        -0.01172   0.00000   0.00000   0.01266
  10         A6        -0.01476   0.00000   0.00000   0.01511
  11         D1        -0.00692   0.00000   0.00000   0.00909
  12         D2         0.00550  -0.00000  -0.00000  -0.00750
  13         D3        -0.00759   0.00000   0.00000   0.00985
  14         D4        -0.01309   0.00000   0.00000   0.01735
 Iter=   1 RLamda= 0.00000000D+00 Sum=-2.89413471D-06.
 Iter=   2 RLamda=-2.89413471D-06 Sum=-2.89405279D-06.
 RFO step:  Lambda=-2.89413471D-06 EMin= 4.96408178D-02
 Quartic linear search produced a step of  0.00190.
 Iteration  1 RMS(Cart)=  0.00066185 RMS(Int)=  0.00000141
 Iteration  2 RMS(Cart)=  0.00000081 RMS(Int)=  0.00000109
 ITry= 1 IFail=0 DXMaxC= 1.85D-03 DCOld= 1.00D+10 DXMaxT= 3.00D-01 DXLimC= 3.00D+00 Rises=F
 ClnCor:  largest displacement from symmetrization is 4.33D-05 for atom     5.
 Variable       Old X    -DE/DX   Delta X   Delta X   Delta X     New X
                                 (Linear)    (Quad)   (Total)
    R1        3.36911  -0.00067   0.00000  -0.00245  -0.00245   3.36665
    R2        2.06091  -0.00008   0.00002  -0.00004  -0.00002   2.06089
    R3        2.06091  -0.00008   0.00002  -0.00004  -0.00002   2.06089
    R4        2.06091  -0.00008   0.00002  -0.00004  -0.00002   2.06089
    A1        1.89726   0.00004   0.00001   0.00114   0.00115   1.89842
    A2        1.89726   0.00006   0.00001   0.00115   0.00115   1.89842
    A3        1.89726   0.00012   0.00001   0.00117   0.00115   1.89842
    A4        1.92381  -0.00001  -0.00001  -0.00110  -0.00112   1.92269
    A5        1.92381  -0.00009  -0.00001  -0.00113  -0.00112   1.92269
    A6        1.92381  -0.00010  -0.00001  -0.00113  -0.00112   1.92269
    D1       -2.07783  -0.00008  -0.00001  -0.00144  -0.00144  -2.07927
    D2        2.07783   0.00006   0.00001   0.00143   0.00144   2.07927
    D3       -2.07783  -0.00008  -0.00001  -0.00145  -0.00144  -2.07927
    D4        2.12753  -0.00015  -0.00002  -0.00288  -0.00288   2.12464
         Item               Value     Threshold  Converged?
 Maximum Force            0.000674     0.000450     NO 
 RMS     Force            0.000198     0.000300     YES
 Maximum Displacement     0.001845     0.001800     NO 
 RMS     Displacement     0.000659     0.001200     YES
 Predicted change in Energy=-1.445536D-06
 Lowest energy point so far.  Saving SCF results.
 Largest change from initial coordinates is atom    5       0.007 Angstoms.
 GradGradGradGradGradGradGradGradGradGradGradGradGradGradGradGradGradGrad

 Leave Link  103 at Wed Oct  7 13:38:28 2020, MaxMem=  2684354560 cpu:               2.3 elap:               0.6
 (Enter /udrive/faculty/rpeverati/g16/g16/l202.exe)
                          Input orientation:                          
 ---------------------------------------------------------------------
 Center     Atomic      Atomic             Coordinates (Angstroms)
 Number     Number       Type             X           Y           Z
 ---------------------------------------------------------------------
      1          6           0       -0.000000    0.000000   -0.145724
      2         17           0        0.000000   -0.000000    1.635833
      3          1           0       -0.516285   -0.894232   -0.496661
      4          1           0       -0.516285    0.894232   -0.496661
      5          1           0        1.032570   -0.000000   -0.496661
 ---------------------------------------------------------------------
                    Distance matrix (angstroms):
                    1          2          3          4          5
     1  C    0.000000
     2  Cl   1.781557   0.000000
     3  H    1.090577   2.369331   0.000000
     4  H    1.090577   2.369331   1.788464   0.000000
     5  H    1.090577   2.369331   1.788464   1.788464   0.000000
 Stoichiometry    CH3Cl
 Framework group  C3V[C3(CCl),3SGV(H)]
 Deg. of freedom     3
 Full point group                 C3V     NOp   6
 RotChk:  IX=0 Diff= 0.00D+00
 Largest Abelian subgroup         CS      NOp   2
 Largest concise Abelian subgroup CS      NOp   2
                         Standard orientation:                         
 ---------------------------------------------------------------------
 Center     Atomic      Atomic             Coordinates (Angstroms)
 Number     Number       Type             X           Y           Z
 ---------------------------------------------------------------------
      1          6           0        0.000000    0.000000   -1.124371
      2         17           0        0.000000    0.000000    0.657185
      3          1           0        0.000000    1.032570   -1.475308
      4          1           0        0.894232   -0.516285   -1.475308
      5          1           0       -0.894232   -0.516285   -1.475308
 ---------------------------------------------------------------------
 Rotational constants (GHZ):         156.7732193          13.3134105          13.3134105
 Leave Link  202 at Wed Oct  7 13:38:28 2020, MaxMem=  2684354560 cpu:               1.1 elap:               0.5
 (Enter /udrive/faculty/rpeverati/g16/g16/l301.exe)
 Standard basis: 6-31G(d) (5D, 7F)
 Ernie: Thresh=  0.10000D-02 Tol=  0.10000D-05 Strict=F.
 There are    29 symmetry adapted cartesian basis functions of A'  symmetry.
 There are    11 symmetry adapted cartesian basis functions of A"  symmetry.
 There are    27 symmetry adapted basis functions of A'  symmetry.
 There are    11 symmetry adapted basis functions of A"  symmetry.
    38 basis functions,    92 primitive gaussians,    40 cartesian basis functions
    13 alpha electrons       13 beta electrons
       nuclear repulsion energy        51.3094476570 Hartrees.
 IExCor= 1009 DFT=T Ex+Corr=PBE1PBE ExCW=0 ScaHFX=  0.250000
 ScaDFX=  0.750000  0.750000  1.000000  1.000000 ScalE2=  1.000000  1.000000
 IRadAn=      5 IRanWt=     -1 IRanGd=            0 ICorTp=0 IEmpDi=  4
 NAtoms=    5 NActive=    5 NUniq=    3 SFac= 2.78D+00 NAtFMM=   60 NAOKFM=F Big=F
 Integral buffers will be    131072 words long.
 Raffenetti 2 integral format.
 Two-electron integral symmetry is turned on.
 Leave Link  301 at Wed Oct  7 13:38:29 2020, MaxMem=  2684354560 cpu:               1.8 elap:               0.6
 (Enter /udrive/faculty/rpeverati/g16/g16/l302.exe)
 NPDir=0 NMtPBC=     1 NCelOv=     1 NCel=       1 NClECP=     1 NCelD=      1
         NCelK=      1 NCelE2=     1 NClLst=     1 CellRange=     0.0.
 One-electron integrals computed using PRISM.
 One-electron integral symmetry used in STVInt
 NBasis=    38 RedAO= T EigKep=  1.81D-02  NBF=    27    11
 NBsUse=    38 1.00D-06 EigRej= -1.00D+00 NBFU=    27    11
 Precomputing XC quadrature grid using
 IXCGrd= 4 IRadAn=           5 IRanWt=          -1 IRanGd=           0 AccXCQ= 0.00D+00.
 Generated NRdTot=       0 NPtTot=           0 NUsed=           0 NTot=          32
 NSgBfM=    40    40    40    40    40 MxSgAt=     5 MxSgA2=     5.
 Leave Link  302 at Wed Oct  7 13:38:30 2020, MaxMem=  2684354560 cpu:               3.6 elap:               0.6
 (Enter /udrive/faculty/rpeverati/g16/g16/l303.exe)
 DipDrv:  MaxL=1.
 Leave Link  303 at Wed Oct  7 13:38:30 2020, MaxMem=  2684354560 cpu:               0.9 elap:               0.3
 (Enter /udrive/faculty/rpeverati/g16/g16/l401.exe)
 Initial guess from the checkpoint file:  "MN_19_ch3cl_BH76_PBE0_631Gs.chk"
 SCF N**3 symmetry information disabled.
 B after Tr=    -0.000000    0.000000    0.000000
         Rot=    1.000000    0.000000   -0.000000    0.000000 Ang=   0.00 deg.
 Guess basis will be translated and rotated to current coordinates.
 JPrj=2 DoOrth=T DoCkMO=T.
 Initial guess orbital symmetries:
       Occupied  (A1) (A1) (A1) (A1) (E) (E) (A1) (A1) (E) (E)
                 (A1) (E) (E)
       Virtual   (A1) (A1) (E) (E) (A1) (A1) (E) (E) (E) (E) (A1)
                 (E) (E) (A1) (E) (E) (E) (E) (A1) (A1) (E) (E)
                 (A1) (E) (E)
 The electronic state of the initial guess is 1-A1.
 Leave Link  401 at Wed Oct  7 13:38:31 2020, MaxMem=  2684354560 cpu:               1.7 elap:               0.5
 (Enter /udrive/faculty/rpeverati/g16/g16/l502.exe)
 Keep R1 ints in memory in symmetry-blocked form, NReq=10633040.
 FoFCou: FMM=F IPFlag=           0 FMFlag=           0 FMFlg1=           0
         NFxFlg=           0 DoJE=F BraDBF=F KetDBF=F FulRan=T
         wScrn=  0.000000 ICntrl=       600 IOpCl=  0 I1Cent=           0 NGrid=           0
         NMat0=    1 NMatS0=    741 NMatT0=    0 NMatD0=    1 NMtDS0=    0 NMtDT0=    0
 Petite list used in FoFCou.
 Closed shell SCF:
 Using DIIS extrapolation, IDIIS=  1040.
 NGot=  2684354560 LenX=  2684205112 LenY=  2684203071
 Requested convergence on RMS density matrix=1.00D-08 within 120 cycles.
 Requested convergence on MAX density matrix=1.00D-06.
 Requested convergence on             energy=1.00D-06.
 No special actions if energy rises.

 Cycle   1  Pass 1  IDiag  1:
 E= -499.884581660698    
 DIIS: error= 8.08D-05 at cycle   1 NSaved=   1.
 NSaved= 1 IEnMin= 1 EnMin= -499.884581660698     IErMin= 1 ErrMin= 8.08D-05
 ErrMax= 8.08D-05  0.00D+00 EMaxC= 1.00D-01 BMatC= 3.67D-07 BMatP= 3.67D-07
 IDIUse=1 WtCom= 1.00D+00 WtEn= 0.00D+00
 Coeff-Com:  0.100D+01
 Coeff:      0.100D+01
 Gap=     0.350 Goal=   None    Shift=    0.000
 RMSDP=2.95D-05 MaxDP=2.49D-04              OVMax= 3.67D-04

 Cycle   2  Pass 1  IDiag  1:
 E= -499.884582285873     Delta-E=       -0.000000625175 Rises=F Damp=F
 DIIS: error= 3.01D-05 at cycle   2 NSaved=   2.
 NSaved= 2 IEnMin= 2 EnMin= -499.884582285873     IErMin= 2 ErrMin= 3.01D-05
 ErrMax= 3.01D-05  0.00D+00 EMaxC= 1.00D-01 BMatC= 3.12D-08 BMatP= 3.67D-07
 IDIUse=1 WtCom= 1.00D+00 WtEn= 0.00D+00
 Coeff-Com:  0.951D-01 0.905D+00
 Coeff:      0.951D-01 0.905D+00
 Gap=     0.350 Goal=   None    Shift=    0.000
 RMSDP=8.77D-06 MaxDP=1.01D-04 DE=-6.25D-07 OVMax= 1.41D-04

 Cycle   3  Pass 1  IDiag  1:
 E= -499.884582289329     Delta-E=       -0.000000003456 Rises=F Damp=F
 DIIS: error= 3.12D-05 at cycle   3 NSaved=   3.
 NSaved= 3 IEnMin= 3 EnMin= -499.884582289329     IErMin= 2 ErrMin= 3.01D-05
 ErrMax= 3.12D-05  0.00D+00 EMaxC= 1.00D-01 BMatC= 3.10D-08 BMatP= 3.12D-08
 IDIUse=1 WtCom= 1.00D+00 WtEn= 0.00D+00
 Coeff-Com: -0.220D-01 0.504D+00 0.518D+00
 Coeff:     -0.220D-01 0.504D+00 0.518D+00
 Gap=     0.350 Goal=   None    Shift=    0.000
 RMSDP=4.47D-06 MaxDP=5.25D-05 DE=-3.46D-09 OVMax= 7.69D-05

 Cycle   4  Pass 1  IDiag  1:
 E= -499.884582322319     Delta-E=       -0.000000032990 Rises=F Damp=F
 DIIS: error= 1.76D-06 at cycle   4 NSaved=   4.
 NSaved= 4 IEnMin= 4 EnMin= -499.884582322319     IErMin= 4 ErrMin= 1.76D-06
 ErrMax= 1.76D-06  0.00D+00 EMaxC= 1.00D-01 BMatC= 1.46D-10 BMatP= 3.10D-08
 IDIUse=1 WtCom= 1.00D+00 WtEn= 0.00D+00
 Coeff-Com: -0.910D-02 0.891D-01 0.123D+00 0.797D+00
 Coeff:     -0.910D-02 0.891D-01 0.123D+00 0.797D+00
 Gap=     0.350 Goal=   None    Shift=    0.000
 RMSDP=3.68D-07 MaxDP=4.51D-06 DE=-3.30D-08 OVMax= 3.34D-06

 Cycle   5  Pass 1  IDiag  1:
 E= -499.884582322463     Delta-E=       -0.000000000144 Rises=F Damp=F
 DIIS: error= 3.04D-07 at cycle   5 NSaved=   5.
 NSaved= 5 IEnMin= 5 EnMin= -499.884582322463     IErMin= 5 ErrMin= 3.04D-07
 ErrMax= 3.04D-07  0.00D+00 EMaxC= 1.00D-01 BMatC= 4.56D-12 BMatP= 1.46D-10
 IDIUse=1 WtCom= 1.00D+00 WtEn= 0.00D+00
 Coeff-Com: -0.169D-02 0.982D-02 0.187D-01 0.192D+00 0.782D+00
 Coeff:     -0.169D-02 0.982D-02 0.187D-01 0.192D+00 0.782D+00
 Gap=     0.350 Goal=   None    Shift=    0.000
 RMSDP=7.57D-08 MaxDP=9.80D-07 DE=-1.44D-10 OVMax= 7.08D-07

 Cycle   6  Pass 1  IDiag  1:
 E= -499.884582322468     Delta-E=       -0.000000000005 Rises=F Damp=F
 DIIS: error= 7.82D-08 at cycle   6 NSaved=   6.
 NSaved= 6 IEnMin= 6 EnMin= -499.884582322468     IErMin= 6 ErrMin= 7.82D-08
 ErrMax= 7.82D-08  0.00D+00 EMaxC= 1.00D-01 BMatC= 3.91D-13 BMatP= 4.56D-12
 IDIUse=1 WtCom= 1.00D+00 WtEn= 0.00D+00
 Coeff-Com:  0.140D-04-0.219D-02-0.102D-02 0.115D-01 0.245D+00 0.746D+00
 Coeff:      0.140D-04-0.219D-02-0.102D-02 0.115D-01 0.245D+00 0.746D+00
 Gap=     0.350 Goal=   None    Shift=    0.000
 RMSDP=2.21D-08 MaxDP=3.05D-07 DE=-4.77D-12 OVMax= 2.30D-07

 Cycle   7  Pass 1  IDiag  1:
 E= -499.884582322469     Delta-E=       -0.000000000001 Rises=F Damp=F
 DIIS: error= 1.18D-08 at cycle   7 NSaved=   7.
 NSaved= 7 IEnMin= 7 EnMin= -499.884582322469     IErMin= 7 ErrMin= 1.18D-08
 ErrMax= 1.18D-08  0.00D+00 EMaxC= 1.00D-01 BMatC= 6.45D-15 BMatP= 3.91D-13
 IDIUse=1 WtCom= 1.00D+00 WtEn= 0.00D+00
 Coeff-Com:  0.280D-04-0.838D-03-0.515D-03 0.204D-02 0.728D-01 0.247D+00
 Coeff-Com:  0.680D+00
 Coeff:      0.280D-04-0.838D-03-0.515D-03 0.204D-02 0.728D-01 0.247D+00
 Coeff:      0.680D+00
 Gap=     0.350 Goal=   None    Shift=    0.000
 RMSDP=3.48D-09 MaxDP=3.60D-08 DE=-7.96D-13 OVMax= 3.11D-08

 SCF Done:  E(RPBE1PBE) =  -499.884582322     A.U. after    7 cycles
            NFock=  7  Conv=0.35D-08     -V/T= 2.0016
 KE= 4.990653899326D+02 PE=-1.289383002494D+03 EE= 2.391235825822D+02
 Leave Link  502 at Wed Oct  7 13:38:33 2020, MaxMem=  2684354560 cpu:              10.6 elap:               1.2
 (Enter /udrive/faculty/rpeverati/g16/g16/l508.exe)
 QCSCF skips out because SCF is already converged.
 Leave Link  508 at Wed Oct  7 13:38:33 2020, MaxMem=  2684354560 cpu:               0.3 elap:               0.5
 (Enter /udrive/faculty/rpeverati/g16/g16/l701.exe)
 ... and contract with generalized density number  0.
 Compute integral first derivatives.
 Leave Link  701 at Wed Oct  7 13:38:34 2020, MaxMem=  2684354560 cpu:               3.8 elap:               0.7
 (Enter /udrive/faculty/rpeverati/g16/g16/l702.exe)
 L702 exits ... SP integral derivatives will be done elsewhere.
 Leave Link  702 at Wed Oct  7 13:38:35 2020, MaxMem=  2684354560 cpu:               0.9 elap:               0.4
 (Enter /udrive/faculty/rpeverati/g16/g16/l703.exe)
 Integral derivatives from FoFJK, PRISM(SPDF).
 Compute integral first derivatives, UseDBF=F ICtDFT=           0.
 Calling FoFJK, ICntrl=      2127 FMM=F ISym2X=1 I1Cent= 0 IOpClX= 0 NMat=1 NMatS=1 NMatT=0.
 FoFJK:  IHMeth= 1 ICntrl=    2127 DoSepK=F KAlg= 0 I1Cent=           0 FoldK=F
 IRaf=         0 NMat=       1 IRICut=       1 DoRegI=T DoRafI=F ISym2E= 1 IDoP0=0 IntGTp=1.
 FoFCou: FMM=F IPFlag=           0 FMFlag=      100000 FMFlg1=         800
         NFxFlg=           0 DoJE=F BraDBF=F KetDBF=F FulRan=T
         wScrn=  0.000000 ICntrl=      2127 IOpCl=  0 I1Cent=           0 NGrid=           0
         NMat0=    1 NMatS0=      1 NMatT0=    0 NMatD0=    1 NMtDS0=    0 NMtDT0=    0
 Petite list used in FoFCou.
 Leave Link  703 at Wed Oct  7 13:38:36 2020, MaxMem=  2684354560 cpu:               7.2 elap:               0.9
 (Enter /udrive/faculty/rpeverati/g16/g16/l716.exe)
 Dipole        =-2.22044605D-16-1.11022302D-16-8.10787153D-01
 ***** Axes restored to original set *****
 -------------------------------------------------------------------
 Center     Atomic                   Forces (Hartrees/Bohr)
 Number     Number              X              Y              Z
 -------------------------------------------------------------------
      1        6           0.000000000   -0.000000000    0.000440298
      2       17           0.000000000   -0.000000000   -0.000276574
      3        1           0.000027427    0.000047505   -0.000054575
      4        1           0.000027427   -0.000047505   -0.000054575
      5        1          -0.000054854   -0.000000000   -0.000054575
 -------------------------------------------------------------------
 Cartesian Forces:  Max     0.000440298 RMS     0.000138640
 Leave Link  716 at Wed Oct  7 13:38:37 2020, MaxMem=  2684354560 cpu:               2.1 elap:               0.5
 (Enter /udrive/faculty/rpeverati/g16/g16/l103.exe)

 GradGradGradGradGradGradGradGradGradGradGradGradGradGradGradGradGradGrad
 Berny optimization.
 Optmz: redundant internal coordinate code flag= 1
 Using GEDIIS/GDIIS optimizer.
 Red2BG:  D1=  5.34D-01 OD1=  4.93D-03 B2RMS=  0.00D+00 IAprox=0
 FormGI is forming the generalized inverse of G from B-inverse, IUseBI=4.
 Internal  Forces:  Max     0.000276574 RMS     0.000081270
 Search for a local minimum.
 Step number   3 out of a maximum of  100
 All quantities printed in internal units (Hartrees-Bohrs-Radians)
 RMS Force = .81270D-04 SwitMx=.10000D-02 MixMth= 2
 Mixed Optimization -- En-DIIS/RFO-DIIS
 Swapping is turned off.
 Update second derivatives using D2CorX and points    1    2    3
 DE= -2.03D-06 DEPred=-1.45D-06 R= 1.40D+00
 TightC=F SS=  1.41D+00  RLast= 5.32D-03 DXNew= 5.0454D-01 1.5955D-02
 Trust test= 1.40D+00 RLast= 5.32D-03 DXMaxT set to 3.00D-01
 The second derivative matrix:
                          R1        R2        R3        R4        A1
           R1           0.21295
           R2           0.00956   0.35902
           R3           0.00956   0.00404   0.35902
           R4           0.00956   0.00404   0.00404   0.35902
           A1           0.03539  -0.00911  -0.00911  -0.00911   0.14813
           A2           0.03261  -0.00802  -0.00802  -0.00802  -0.01170
           A3           0.02526  -0.00510  -0.00510  -0.00510  -0.01126
           A4          -0.03751   0.01005   0.01005   0.01005   0.01172
           A5          -0.02738   0.00604   0.00604   0.00604   0.01111
           A6          -0.02590   0.00546   0.00546   0.00546   0.01102
           D1           0.00858  -0.00352  -0.00352  -0.00352  -0.00028
           D2          -0.00708   0.00295   0.00295   0.00295   0.00019
           D3           0.00958  -0.00394  -0.00394  -0.00394  -0.00034
           D4           0.01666  -0.00689  -0.00689  -0.00689  -0.00052
                          A2        A3        A4        A5        A6
           A2           0.14858
           A3          -0.01066   0.15092
           A4           0.01169   0.01161   0.14858
           A5           0.01065   0.00943  -0.01131   0.15037
           A6           0.01050   0.00911  -0.01130  -0.00939   0.15089
           D1          -0.00068  -0.00176  -0.00018   0.00130   0.00151
           D2           0.00053   0.00144   0.00020  -0.00105  -0.00123
           D3          -0.00079  -0.00197  -0.00017   0.00146   0.00170
           D4          -0.00131  -0.00341  -0.00037   0.00251   0.00293
                          D1        D2        D3        D4
           D1           0.00451
           D2          -0.00117   0.00411
           D3           0.00154  -0.00129   0.00482
           D4           0.00271  -0.00228   0.00299   0.00840
 ITU=  1  1  0
 Eigenvectors of the second derivative matrix:
                           1         2         3         4         5
     Eigenvalues --     0.03996   0.05449   0.08794   0.15500   0.16000
   1         R1        -0.14234   0.03372  -0.01718   0.19385  -0.00002
   2         R2         0.01309  -0.00294   0.00148  -0.01419  -0.00002
   3         R3         0.01309  -0.00294   0.00148  -0.01419  -0.00002
   4         R4         0.01309  -0.00294   0.00148  -0.01419  -0.00002
   5         A1         0.32241   0.34139   0.12190   0.19259   0.19999
   6         A2         0.18755  -0.35390   0.32598   0.10139  -0.40014
   7         A3         0.15625  -0.13745  -0.38594  -0.62438   0.20031
   8         A4        -0.28781   0.16251   0.36780  -0.44854   0.00017
   9         A5        -0.16361   0.13971  -0.36271   0.28184  -0.61651
  10         A6        -0.19726  -0.15620  -0.06541   0.48842   0.61619
  11         D1        -0.33669  -0.29703  -0.56583  -0.03038   0.00000
  12         D2         0.39134   0.41548  -0.30202   0.02148  -0.00000
  13         D3        -0.20688   0.60816  -0.12338  -0.03290   0.00000
  14         D4        -0.59822   0.19268   0.17865  -0.05438   0.00000
                           6         7         8         9
     Eigenvalues --     0.21748   0.35498   0.35498   0.36888
   1         R1         0.96433   0.00000   0.00000   0.10395
   2         R2        -0.05698  -0.11377  -0.80853   0.57420
   3         R3        -0.05698   0.75709   0.30574   0.57420
   4         R4        -0.05698  -0.64332   0.50279   0.57420
   5         A1        -0.00075  -0.00000  -0.00000  -0.00122
   6         A2         0.02568  -0.00000  -0.00000  -0.00189
   7         A3         0.14696  -0.00000  -0.00000  -0.00410
   8         A4         0.04853  -0.00000  -0.00000   0.00018
   9         A5        -0.09250   0.00000   0.00000   0.00314
  10         A6        -0.12339   0.00000   0.00000   0.00371
  11         D1        -0.04356   0.00000   0.00000   0.00254
  12         D2         0.03377  -0.00000  -0.00000  -0.00213
  13         D3        -0.04767   0.00000   0.00000   0.00261
  14         D4        -0.08144   0.00000   0.00000   0.00474
 DoSqrt=T IScMMF=    -3 MM Scaling Factor =       0.00000
 En-DIIS/RFO-DIIS/Sim-DIIS IScMMF=       -3 using points:     3    2
 Iter=   1 RLamda=-1.00409819D-02 Sum=-6.97127090D-07.
 Iter=   2 RLamda=-6.97127090D-07 Sum=-8.04911599D-07.
 Iter=   3 RLamda=-8.04911599D-07 Sum=-8.04910187D-07.
 RFO step:  Lambda=-8.04911599D-07.
 NNeg= 0 NGDIIS= 2 SimSw=  2.50D-03 Rises=F DC= -2.03D-06 SmlDif=  1.00D-05
 NRisDI= 0 DoIntr=F SqrtH=F CThrHd= 10.0 CDAdj=  3.0
 RMS Error=  0.9671710586D-03 NUsed= 2 OKEnD=F EnDIS=F
 Total RFO-DIIS matrix:
                 1             2             3 
      1   0.000000D+00 -0.100000D+01 -0.100000D+01
      2  -0.100000D+01  0.130959D-04  0.323345D-04
      3  -0.100000D+01  0.323345D-04  0.798376D-04
 InvSVX:  RCond= 7.07D-06 Info=           0 Equed=N FErr=  3.06D-15 BErr=  6.23D-17
 DidBck=F Rises=F RFO-DIIS coefs:    1.68066   -0.68066
 Iteration  1 RMS(Cart)=  0.00045049 RMS(Int)=  0.00000127
 Iteration  2 RMS(Cart)=  0.00000037 RMS(Int)=  0.00000121
 ITry= 1 IFail=0 DXMaxC= 1.25D-03 DCOld= 1.00D+10 DXMaxT= 3.00D-01 DXLimC= 3.00D+00 Rises=F
 ClnCor:  largest displacement from symmetrization is 1.14D-06 for atom     5.
 Variable       Old X    -DE/DX   Delta X   Delta X   Delta X     New X
                                 (Linear)    (Quad)   (Total)
    R1        3.36665  -0.00028  -0.00167  -0.00002  -0.00169   3.36496
    R2        2.06089  -0.00003  -0.00002  -0.00001  -0.00002   2.06087
    R3        2.06089  -0.00003  -0.00002  -0.00001  -0.00002   2.06087
    R4        2.06089  -0.00003  -0.00002  -0.00001  -0.00002   2.06087
    A1        1.89842   0.00002   0.00078  -0.00000   0.00078   1.89920
    A2        1.89842   0.00002   0.00078  -0.00000   0.00078   1.89920
    A3        1.89842   0.00005   0.00078  -0.00000   0.00078   1.89920
    A4        1.92269  -0.00001  -0.00076   0.00000  -0.00076   1.92193
    A5        1.92269  -0.00004  -0.00076   0.00000  -0.00076   1.92193
    A6        1.92269  -0.00004  -0.00076   0.00000  -0.00076   1.92193
    D1       -2.07927  -0.00003  -0.00098   0.00000  -0.00098  -2.08025
    D2        2.07927   0.00003   0.00098  -0.00000   0.00098   2.08025
    D3       -2.07927  -0.00003  -0.00098   0.00000  -0.00098  -2.08025
    D4        2.12464  -0.00006  -0.00196   0.00001  -0.00195   2.12269
         Item               Value     Threshold  Converged?
 Maximum Force            0.000277     0.000450     YES
 RMS     Force            0.000081     0.000300     YES
 Maximum Displacement     0.001248     0.001800     YES
 RMS     Displacement     0.000451     0.001200     YES
 Predicted change in Energy=-4.024633D-07
 Optimization completed.
    -- Stationary point found.
                           ----------------------------
                           !   Optimized Parameters   !
                           ! (Angstroms and Degrees)  !
 --------------------------                            --------------------------
 ! Name  Definition              Value          Derivative Info.                !
 --------------------------------------------------------------------------------
 ! R1    R(1,2)                  1.7816         -DE/DX =   -0.0003              !
 ! R2    R(1,3)                  1.0906         -DE/DX =    0.0                 !
 ! R3    R(1,4)                  1.0906         -DE/DX =    0.0                 !
 ! R4    R(1,5)                  1.0906         -DE/DX =    0.0                 !
 ! A1    A(2,1,3)              108.7712         -DE/DX =    0.0                 !
 ! A2    A(2,1,4)              108.7712         -DE/DX =    0.0                 !
 ! A3    A(2,1,5)              108.7712         -DE/DX =    0.0                 !
 ! A4    A(3,1,4)              110.1621         -DE/DX =    0.0                 !
 ! A5    A(3,1,5)              110.1621         -DE/DX =    0.0                 !
 ! A6    A(4,1,5)              110.1621         -DE/DX =    0.0                 !
 ! D1    D(2,1,4,3)           -119.1334         -DE/DX =    0.0                 !
 ! D2    D(2,1,5,3)            119.1334         -DE/DX =    0.0                 !
 ! D3    D(2,1,5,4)           -119.1334         -DE/DX =    0.0                 !
 ! D4    D(3,1,5,4)            121.7332         -DE/DX =   -0.0001              !
 --------------------------------------------------------------------------------
 Lowest energy point so far.  Saving SCF results.
 Largest change from initial coordinates is atom    5       0.007 Angstoms.
 GradGradGradGradGradGradGradGradGradGradGradGradGradGradGradGradGradGrad

 Leave Link  103 at Wed Oct  7 13:38:38 2020, MaxMem=  2684354560 cpu:               2.0 elap:               0.5
 (Enter /udrive/faculty/rpeverati/g16/g16/l202.exe)
                          Input orientation:                          
 ---------------------------------------------------------------------
 Center     Atomic      Atomic             Coordinates (Angstroms)
 Number     Number       Type             X           Y           Z
 ---------------------------------------------------------------------
      1          6           0        0.000000   -0.000000   -0.145724
      2         17           0        0.000000   -0.000000    1.635833
      3          1           0       -0.516285   -0.894232   -0.496661
      4          1           0       -0.516285    0.894232   -0.496661
      5          1           0        1.032570   -0.000000   -0.496661
 ---------------------------------------------------------------------
                    Distance matrix (angstroms):
                    1          2          3          4          5
     1  C    0.000000
     2  Cl   1.781557   0.000000
     3  H    1.090577   2.369331   0.000000
     4  H    1.090577   2.369331   1.788464   0.000000
     5  H    1.090577   2.369331   1.788464   1.788464   0.000000
 Stoichiometry    CH3Cl
 Framework group  C3V[C3(CCl),3SGV(H)]
 Deg. of freedom     3
 Full point group                 C3V     NOp   6
 RotChk:  IX=0 Diff= 0.00D+00
 Largest Abelian subgroup         CS      NOp   2
 Largest concise Abelian subgroup CS      NOp   2
                         Standard orientation:                         
 ---------------------------------------------------------------------
 Center     Atomic      Atomic             Coordinates (Angstroms)
 Number     Number       Type             X           Y           Z
 ---------------------------------------------------------------------
      1          6           0        0.000000    0.000000   -1.124371
      2         17           0        0.000000    0.000000    0.657185
      3          1           0        0.000000    1.032570   -1.475308
      4          1           0        0.894232   -0.516285   -1.475308
      5          1           0       -0.894232   -0.516285   -1.475308
 ---------------------------------------------------------------------
 Rotational constants (GHZ):         156.7732193          13.3134105          13.3134105
 Leave Link  202 at Wed Oct  7 13:38:38 2020, MaxMem=  2684354560 cpu:               1.1 elap:               0.5
 (Enter /udrive/faculty/rpeverati/g16/g16/l601.exe)
 Copying SCF densities to generalized density rwf, IOpCl= 0 IROHF=0.

 **********************************************************************

            Population analysis using the SCF density.

 **********************************************************************

 Orbital symmetries:
       Occupied  (A1) (A1) (A1) (A1) (E) (E) (A1) (A1) (E) (E)
                 (A1) (E) (E)
       Virtual   (A1) (A1) (E) (E) (A1) (A1) (E) (E) (E) (E) (A1)
                 (E) (E) (A1) (E) (E) (E) (E) (A1) (A1) (E) (E)
                 (A1) (E) (E)
 The electronic state is 1-A1.
 Alpha  occ. eigenvalues -- -101.68789 -10.28255  -9.51856  -7.25406  -7.24392
 Alpha  occ. eigenvalues --   -7.24392  -0.87635  -0.69732  -0.46494  -0.46494
 Alpha  occ. eigenvalues --   -0.42820  -0.30781  -0.30781
 Alpha virt. eigenvalues --    0.04232   0.12134   0.15487   0.15487   0.42508
 Alpha virt. eigenvalues --    0.45569   0.47948   0.47948   0.54433   0.54433
 Alpha virt. eigenvalues --    0.58022   0.85543   0.85543   0.90431   0.91163
 Alpha virt. eigenvalues --    0.91163   0.94833   0.94833   1.06022   1.26600
 Alpha virt. eigenvalues --    1.69497   1.69497   2.16098   2.22182   2.22182
          Condensed to atoms (all electrons):
               1          2          3          4          5
     1  C    5.286003   0.212140   0.372289   0.372289   0.372289
     2  Cl   0.212140  16.993367  -0.044795  -0.044795  -0.044795
     3  H    0.372289  -0.044795   0.498087  -0.027147  -0.027147
     4  H    0.372289  -0.044795  -0.027147   0.498087  -0.027147
     5  H    0.372289  -0.044795  -0.027147  -0.027147   0.498087
 Mulliken charges:
               1
     1  C   -0.615011
     2  Cl  -0.071123
     3  H    0.228712
     4  H    0.228712
     5  H    0.228712
 Sum of Mulliken charges =  -0.00000
 Mulliken charges with hydrogens summed into heavy atoms:
               1
     1  C    0.071123
     2  Cl  -0.071123
 Electronic spatial extent (au):  <R**2>=            130.7286
 Charge=             -0.0000 electrons
 Dipole moment (field-independent basis, Debye):
    X=             -0.0000    Y=             -0.0000    Z=             -2.0608  Tot=              2.0608
 Quadrupole moment (field-independent basis, Debye-Ang):
   XX=            -19.7240   YY=            -19.7240   ZZ=            -17.9603
   XY=             -0.0000   XZ=              0.0000   YZ=              0.0000
 Traceless Quadrupole moment (field-independent basis, Debye-Ang):
   XX=             -0.5879   YY=             -0.5879   ZZ=              1.1758
   XY=             -0.0000   XZ=              0.0000   YZ=              0.0000
 Octapole moment (field-independent basis, Debye-Ang**2):
  XXX=             -0.0000  YYY=              0.8372  ZZZ=              1.8486  XYY=              0.0000
  XXY=             -0.8372  XXZ=             -0.9762  XZZ=             -0.0000  YZZ=             -0.0000
  YYZ=             -0.9762  XYZ=              0.0000
 Hexadecapole moment (field-independent basis, Debye-Ang**3):
 XXXX=            -27.2579 YYYY=            -27.2579 ZZZZ=           -114.0562 XXXY=              0.0000
 XXXZ=              0.0000 YYYX=              0.0000 YYYZ=             -1.2169 ZZZX=             -0.0000
 ZZZY=              0.0000 XXYY=             -9.0860 XXZZ=            -23.4476 YYZZ=            -23.4476
 XXYZ=              1.2169 YYXZ=             -0.0000 ZZXY=             -0.0000
 N-N= 5.130944765701D+01 E-N=-1.289383001141D+03  KE= 4.990653899326D+02
 No NMR shielding tensors so no spin-rotation constants.
 Leave Link  601 at Wed Oct  7 13:38:39 2020, MaxMem=  2684354560 cpu:               4.3 elap:               0.7
 (Enter /udrive/faculty/rpeverati/g16/g16/l9999.exe)

 Test job not archived.
 1\1\GINC-NODE33\FOpt\RPBE1PBE\6-31G(d)\C1H3Cl1\RPEVERATI\07-Oct-2020\0
 \\#P Opt(MaxCyc=100) PBE1PBE/6-31G* 5D 7F Integral=UltraFineGrid SCF=(
 NoSymm,XQC,MaxCyc=120) IOp(1/33=1)\\TS search on BH76.\\0,1\C,0.,0.,-0
 .1457240669\Cl,0.,0.,1.6358328791\H,-0.5162849519,-0.8942317679,-0.496
 6607636\H,-0.5162849519,0.8942317679,-0.4966607636\H,1.0325699038,0.,-
 0.4966607636\\Version=ES64L-G16RevA.03\State=1-A1\HF=-499.8845823\RMSD
 =3.481e-09\RMSF=1.386e-04\Dipole=0.,0.,-0.8107872\Quadrupole=-0.437087
 8,-0.4370878,0.8741755,0.,0.,0.\PG=C03V [C3(C1Cl1),3SGV(H1)]\\@


 THERE IS SOMETHING FASCINATING ABOUT SCIENCE.
 ONE GETS SUCH WHOLESALE CONJECTURE OUT OF SUCH TRIFLING INVESTMENTS.

                                                       -- MARK TWAIN
 Job cpu time:       0 days  0 hours  2 minutes 17.5 seconds.
 Elapsed time:       0 days  0 hours  0 minutes 25.8 seconds.
 File lengths (MBytes):  RWF=      5 Int=      0 D2E=      0 Chk=      1 Scr=      1
 Normal termination of Gaussian 16 at Wed Oct  7 13:38:40 2020.
