 Entering Gaussian System, Link 0=g16
 Input=MN_15_C2H6_BH76_PBE0_631Gs.in
 Output=MN_15_C2H6_BH76_PBE0_631Gs.log
 Initial command:
 /udrive/faculty/rpeverati/g16/g16/l1.exe "/udrive/scratch-directories/gaussian09/rpeverati/Gau-2740.inp" -scrdir="/udrive/scratch-directories/gaussian09/rpeverati/"
 Entering Link 1 = /udrive/faculty/rpeverati/g16/g16/l1.exe PID=      2741.
  
 Copyright (c) 1988,1990,1992,1993,1995,1998,2003,2009,2016,
            Gaussian, Inc.  All Rights Reserved.
  
 This is part of the Gaussian(R) 16 program.  It is based on
 the Gaussian(R) 09 system (copyright 2009, Gaussian, Inc.),
 the Gaussian(R) 03 system (copyright 2003, Gaussian, Inc.),
 the Gaussian(R) 98 system (copyright 1998, Gaussian, Inc.),
 the Gaussian(R) 94 system (copyright 1995, Gaussian, Inc.),
 the Gaussian 92(TM) system (copyright 1992, Gaussian, Inc.),
 the Gaussian 90(TM) system (copyright 1990, Gaussian, Inc.),
 the Gaussian 88(TM) system (copyright 1988, Gaussian, Inc.),
 the Gaussian 86(TM) system (copyright 1986, Carnegie Mellon
 University), and the Gaussian 82(TM) system (copyright 1983,
 Carnegie Mellon University). Gaussian is a federally registered
 trademark of Gaussian, Inc.
  
 This software contains proprietary and confidential information,
 including trade secrets, belonging to Gaussian, Inc.
  
 This software is provided under written license and may be
 used, copied, transmitted, or stored only in accord with that
 written license.
  
 The following legend is applicable only to US Government
 contracts under FAR:
  
                    RESTRICTED RIGHTS LEGEND
  
 Use, reproduction and disclosure by the US Government is
 subject to restrictions as set forth in subparagraphs (a)
 and (c) of the Commercial Computer Software - Restricted
 Rights clause in FAR 52.227-19.
  
 Gaussian, Inc.
 340 Quinnipiac St., Bldg. 40, Wallingford CT 06492
  
  
 ---------------------------------------------------------------
 Warning -- This program may not be used in any manner that
 competes with the business of Gaussian, Inc. or will provide
 assistance to any competitor of Gaussian, Inc.  The licensee
 of this program is prohibited from giving any competitor of
 Gaussian, Inc. access to this program.  By using this program,
 the user acknowledges that Gaussian, Inc. is engaged in the
 business of creating and licensing software in the field of
 computational chemistry and represents and warrants to the
 licensee that it is not a competitor of Gaussian, Inc. and that
 it will not use this program in any manner prohibited above.
 ---------------------------------------------------------------
  

 Cite this work as:
 Gaussian 16, Revision A.03,
 M. J. Frisch, G. W. Trucks, H. B. Schlegel, G. E. Scuseria, 
 M. A. Robb, J. R. Cheeseman, G. Scalmani, V. Barone, 
 G. A. Petersson, H. Nakatsuji, X. Li, M. Caricato, A. V. Marenich, 
 J. Bloino, B. G. Janesko, R. Gomperts, B. Mennucci, H. P. Hratchian, 
 J. V. Ortiz, A. F. Izmaylov, J. L. Sonnenberg, D. Williams-Young, 
 F. Ding, F. Lipparini, F. Egidi, J. Goings, B. Peng, A. Petrone, 
 T. Henderson, D. Ranasinghe, V. G. Zakrzewski, J. Gao, N. Rega, 
 G. Zheng, W. Liang, M. Hada, M. Ehara, K. Toyota, R. Fukuda, 
 J. Hasegawa, M. Ishida, T. Nakajima, Y. Honda, O. Kitao, H. Nakai, 
 T. Vreven, K. Throssell, J. A. Montgomery, Jr., J. E. Peralta, 
 F. Ogliaro, M. J. Bearpark, J. J. Heyd, E. N. Brothers, K. N. Kudin, 
 V. N. Staroverov, T. A. Keith, R. Kobayashi, J. Normand, 
 K. Raghavachari, A. P. Rendell, J. C. Burant, S. S. Iyengar, 
 J. Tomasi, M. Cossi, J. M. Millam, M. Klene, C. Adamo, R. Cammi, 
 J. W. Ochterski, R. L. Martin, K. Morokuma, O. Farkas, 
 J. B. Foresman, and D. J. Fox, Gaussian, Inc., Wallingford CT, 2016.
 
 ******************************************
 Gaussian 16:  ES64L-G16RevA.03 25-Dec-2016
                 7-Oct-2020 
 ******************************************
 %NoSave
 %nproc=12
 Will use up to   12 processors via shared memory.
 %mem=20GB
 %chk=MN_15_C2H6_BH76_PBE0_631Gs
 ----------------------------------------------------------------------
 #P Opt(MaxCyc=100) PBE1PBE/6-31G* 5D 7F Integral=UltraFineGrid SCF=(No
 Symm,XQC,MaxCyc=120) IOp(1/33=1)
 ----------------------------------------------------------------------
 1/6=100,18=20,19=15,26=4,33=1,38=1/1,3;
 2/9=110,12=2,17=6,18=5,40=1/2;
 3/5=1,6=6,7=1,8=11,11=2,25=1,30=1,71=1,74=-13,75=-5/1,2,3;
 4/9=2/1;
 5/5=2,7=120,8=3,13=1,38=5/2,8;
 6/7=2,8=2,9=2,10=2,28=1/1;
 7//1,2,3,16;
 1/6=100,18=20,19=15,26=4,33=1/3(2);
 2/9=110/2;
 99//99;
 2/9=110/2;
 3/5=1,6=6,7=1,8=11,11=2,25=1,30=1,71=1,74=-13,75=-5/1,2,3;
 4/5=5,9=2,16=3,69=1/1;
 5/5=2,7=120,8=3,13=1,38=5/2,8;
 7//1,2,3,16;
 1/6=100,18=20,19=15,26=4,33=1/3(-5);
 2/9=110/2;
 6/7=2,8=2,9=2,10=2,19=2,28=1/1;
 99/9=1/99;
 Leave Link    1 at Wed Oct  7 13:37:36 2020, MaxMem=  2684354560 cpu:               8.9 elap:               0.9
 (Enter /udrive/faculty/rpeverati/g16/g16/l101.exe)
 ONIOM data not found on unit 2.
 ------------------
 TS search on BH76.
 ------------------
 TstMul:  ICh=     0
 TstMul:  Mul=     1
 TstMul:  ICh=     0
 TstMul:  Mul=     1
 Symbolic Z-matrix:
 Charge =  0 Multiplicity = 1
 C                    -0.76309   0.        0. 
 C                     0.76309   0.        0. 
 H                     1.15831  -0.44364  -0.9141 
 H                    -1.15831  -1.01333  -0.07464 
 H                     1.15831  -0.56981   0.84125 
 H                     1.15831   1.01345   0.07285 
 H                    -1.15831   0.44202   0.91488 
 H                    -1.15831   0.57131  -0.84024 
 
 RdStrC is calling ZToCFu for IStruc=1 NZ=     8.
 PrtBox:  NBox=     1 Levels=  1 BoxLen=    8.00 SMaxX=        4.38
          Shift=            2.188890            1.914910            1.727390
 Box      1 Number                   0 centers from      1 to      8:
 After GenITR:
 ITRead=  0  0  0  0  0  0  0  0
 MicOpt= -1 -1 -1 -1 -1 -1 -1 -1
 ITRead=  0  0  0  0  0  0  0  0
 MicOpt= -1 -1 -1 -1 -1 -1 -1 -1
 NAtoms=      8 NQM=        8 NQMF=       0 NMMI=      0 NMMIF=      0
                NMic=       0 NMicF=      0.
                    Isotopes and Nuclear Properties:
 (Nuclear quadrupole moments (NQMom) in fm**2, nuclear magnetic moments (NMagM)
  in nuclear magnetons)

  Atom         1           2           3           4           5           6           7           8
 IAtWgt=          12          12           1           1           1           1           1           1
 AtmWgt=  12.0000000  12.0000000   1.0078250   1.0078250   1.0078250   1.0078250   1.0078250   1.0078250
 NucSpn=           0           0           1           1           1           1           1           1
 AtZEff=   0.0000000   0.0000000   0.0000000   0.0000000   0.0000000   0.0000000   0.0000000   0.0000000
 NQMom=    0.0000000   0.0000000   0.0000000   0.0000000   0.0000000   0.0000000   0.0000000   0.0000000
 NMagM=    0.0000000   0.0000000   2.7928460   2.7928460   2.7928460   2.7928460   2.7928460   2.7928460
 AtZNuc=   6.0000000   6.0000000   1.0000000   1.0000000   1.0000000   1.0000000   1.0000000   1.0000000
 No MM parameters found.
 Leave Link  101 at Wed Oct  7 13:37:38 2020, MaxMem=  2684354560 cpu:              13.7 elap:               1.4
 (Enter /udrive/faculty/rpeverati/g16/g16/l103.exe)

 GradGradGradGradGradGradGradGradGradGradGradGradGradGradGradGradGradGrad
 Berny optimization.
 Optmz: redundant internal coordinate code flag= 1
 Initialization pass.
                           ----------------------------
                           !    Initial Parameters    !
                           ! (Angstroms and Degrees)  !
 --------------------------                            --------------------------
 ! Name  Definition              Value          Derivative Info.                !
 --------------------------------------------------------------------------------
 ! R1    R(1,2)                  1.5262         estimate D2E/DX2                !
 ! R2    R(1,4)                  1.0902         estimate D2E/DX2                !
 ! R3    R(1,7)                  1.0902         estimate D2E/DX2                !
 ! R4    R(1,8)                  1.0902         estimate D2E/DX2                !
 ! R5    R(2,3)                  1.0902         estimate D2E/DX2                !
 ! R6    R(2,5)                  1.0902         estimate D2E/DX2                !
 ! R7    R(2,6)                  1.0902         estimate D2E/DX2                !
 ! A1    A(2,1,4)              111.2543         estimate D2E/DX2                !
 ! A2    A(2,1,7)              111.2543         estimate D2E/DX2                !
 ! A3    A(2,1,8)              111.2543         estimate D2E/DX2                !
 ! A4    A(4,1,7)              107.6307         estimate D2E/DX2                !
 ! A5    A(4,1,8)              107.6309         estimate D2E/DX2                !
 ! A6    A(7,1,8)              107.6307         estimate D2E/DX2                !
 ! A7    A(1,2,3)              111.2544         estimate D2E/DX2                !
 ! A8    A(1,2,5)              111.2543         estimate D2E/DX2                !
 ! A9    A(1,2,6)              111.2543         estimate D2E/DX2                !
 ! A10   A(3,2,5)              107.6306         estimate D2E/DX2                !
 ! A11   A(3,2,6)              107.631          estimate D2E/DX2                !
 ! A12   A(5,2,6)              107.6306         estimate D2E/DX2                !
 ! D1    D(4,1,2,3)             59.8984         estimate D2E/DX2                !
 ! D2    D(4,1,2,5)            -60.1015         estimate D2E/DX2                !
 ! D3    D(4,1,2,6)            179.8987         estimate D2E/DX2                !
 ! D4    D(7,1,2,3)            179.8983         estimate D2E/DX2                !
 ! D5    D(7,1,2,5)             59.8985         estimate D2E/DX2                !
 ! D6    D(7,1,2,6)            -60.1014         estimate D2E/DX2                !
 ! D7    D(8,1,2,3)            -60.1018         estimate D2E/DX2                !
 ! D8    D(8,1,2,5)            179.8984         estimate D2E/DX2                !
 ! D9    D(8,1,2,6)             59.8985         estimate D2E/DX2                !
 --------------------------------------------------------------------------------
 Maximum allowed force set to 1.00D+20.
 Trust Radius=3.00D-01 FncErr=1.00D-07 GrdErr=1.00D-06 EigMax=2.50D+02 EigMin=1.00D-04
 Number of steps in this run=    100 maximum allowed number of steps=    100.
 GradGradGradGradGradGradGradGradGradGradGradGradGradGradGradGradGradGrad

 Leave Link  103 at Wed Oct  7 13:37:39 2020, MaxMem=  2684354560 cpu:               2.0 elap:               0.6
 (Enter /udrive/faculty/rpeverati/g16/g16/l202.exe)
                          Input orientation:                          
 ---------------------------------------------------------------------
 Center     Atomic      Atomic             Coordinates (Angstroms)
 Number     Number       Type             X           Y           Z
 ---------------------------------------------------------------------
      1          6           0       -0.763095    0.000000    0.000000
      2          6           0        0.763095    0.000000    0.000000
      3          1           0        1.158311   -0.443642   -0.914095
      4          1           0       -1.158311   -1.013327   -0.074640
      5          1           0        1.158311   -0.569813    0.841254
      6          1           0        1.158311    1.013454    0.072848
      7          1           0       -1.158311    0.442020    0.914884
      8          1           0       -1.158311    0.571305   -0.840243
 ---------------------------------------------------------------------
                    Distance matrix (angstroms):
                    1          2          3          4          5
     1  C    0.000000
     2  C    1.526189   0.000000
     3  H    2.173520   1.090222   0.000000
     4  H    1.090228   2.173523   2.529024   0.000000
     5  H    2.173521   1.090225   1.759878   2.530277   0.000000
     6  H    2.173521   1.090225   1.759882   3.081611   1.759881
     7  H    1.090225   2.173521   3.081606   1.759884   2.529024
     8  H    1.090227   2.173522   2.530278   1.759888   3.081610
                    6          7          8
     6  H    0.000000
     7  H    2.530276   0.000000
     8  H    2.529025   1.759883   0.000000
 This structure is nearly, but not quite of a higher symmetry.
 Consider Symm=Loose if the higher symmetry is desired.
 Stoichiometry    C2H6
 Framework group  C1[X(C2H6)]
 Deg. of freedom    18
 Full point group                 C1      NOp   1
 Largest Abelian subgroup         C1      NOp   1
 Largest concise Abelian subgroup C1      NOp   1
                         Standard orientation:                         
 ---------------------------------------------------------------------
 Center     Atomic      Atomic             Coordinates (Angstroms)
 Number     Number       Type             X           Y           Z
 ---------------------------------------------------------------------
      1          6           0       -0.006005   -0.067296    0.760098
      2          6           0        0.006004    0.067297   -0.760098
      3          1           0       -0.940642   -0.256750   -1.193040
      4          1           0       -0.173176   -1.100868    1.064042
      5          1           0        0.796589   -0.537953   -1.204214
      6          1           0        0.171402    1.101153   -1.064031
      7          1           0        0.941283    0.255071    1.192897
      8          1           0       -0.795451    0.539344    1.204346
 ---------------------------------------------------------------------
 Rotational constants (GHZ):          80.9533118          20.0467411          20.0467273
 Leave Link  202 at Wed Oct  7 13:37:40 2020, MaxMem=  2684354560 cpu:               1.0 elap:               0.4
 (Enter /udrive/faculty/rpeverati/g16/g16/l301.exe)
 Standard basis: 6-31G(d) (5D, 7F)
 Ernie: Thresh=  0.10000D-02 Tol=  0.10000D-05 Strict=F.
 There are    42 symmetry adapted cartesian basis functions of A   symmetry.
 There are    40 symmetry adapted basis functions of A   symmetry.
    40 basis functions,    80 primitive gaussians,    42 cartesian basis functions
     9 alpha electrons        9 beta electrons
       nuclear repulsion energy        42.2953063605 Hartrees.
 IExCor= 1009 DFT=T Ex+Corr=PBE1PBE ExCW=0 ScaHFX=  0.250000
 ScaDFX=  0.750000  0.750000  1.000000  1.000000 ScalE2=  1.000000  1.000000
 IRadAn=      5 IRanWt=     -1 IRanGd=            0 ICorTp=0 IEmpDi=  4
 NAtoms=    8 NActive=    8 NUniq=    8 SFac= 1.00D+00 NAtFMM=   60 NAOKFM=F Big=F
 Integral buffers will be    131072 words long.
 Raffenetti 2 integral format.
 Two-electron integral symmetry is turned on.
 Leave Link  301 at Wed Oct  7 13:37:41 2020, MaxMem=  2684354560 cpu:               1.8 elap:               0.5
 (Enter /udrive/faculty/rpeverati/g16/g16/l302.exe)
 NPDir=0 NMtPBC=     1 NCelOv=     1 NCel=       1 NClECP=     1 NCelD=      1
         NCelK=      1 NCelE2=     1 NClLst=     1 CellRange=     0.0.
 One-electron integrals computed using PRISM.
 One-electron integral symmetry used in STVInt
 NBasis=    40 RedAO= T EigKep=  9.35D-03  NBF=    40
 NBsUse=    40 1.00D-06 EigRej= -1.00D+00 NBFU=    40
 Precomputing XC quadrature grid using
 IXCGrd= 4 IRadAn=           5 IRanWt=          -1 IRanGd=           0 AccXCQ= 0.00D+00.
 Generated NRdTot=       0 NPtTot=           0 NUsed=           0 NTot=          32
 NSgBfM=    42    42    42    42    42 MxSgAt=     8 MxSgA2=     8.
 Leave Link  302 at Wed Oct  7 13:37:42 2020, MaxMem=  2684354560 cpu:               3.4 elap:               0.7
 (Enter /udrive/faculty/rpeverati/g16/g16/l303.exe)
 DipDrv:  MaxL=1.
 Leave Link  303 at Wed Oct  7 13:37:43 2020, MaxMem=  2684354560 cpu:               1.5 elap:               0.5
 (Enter /udrive/faculty/rpeverati/g16/g16/l401.exe)
 SCF N**3 symmetry information disabled.
 ExpMin= 1.61D-01 ExpMax= 3.05D+03 ExpMxC= 4.57D+02 IAcc=3 IRadAn=         5 AccDes= 0.00D+00
 Harris functional with IExCor= 1009 and IRadAn=       5 diagonalized for initial guess.
 HarFok:  IExCor= 1009 AccDes= 0.00D+00 IRadAn=         5 IDoV= 1 UseB2=F ITyADJ=14
 ICtDFT=  3500011 ScaDFX=  1.000000  1.000000  1.000000  1.000000
 FoFCou: FMM=F IPFlag=           0 FMFlag=      100000 FMFlg1=           0
         NFxFlg=           0 DoJE=T BraDBF=F KetDBF=T FulRan=T
         wScrn=  0.000000 ICntrl=       500 IOpCl=  0 I1Cent=   200000004 NGrid=           0
         NMat0=    1 NMatS0=      1 NMatT0=    0 NMatD0=    1 NMtDS0=    0 NMtDT0=    0
 Petite list used in FoFCou.
 Harris En= -79.8007053797399    
 JPrj=0 DoOrth=F DoCkMO=F.
 Leave Link  401 at Wed Oct  7 13:37:44 2020, MaxMem=  2684354560 cpu:               5.5 elap:               0.9
 (Enter /udrive/faculty/rpeverati/g16/g16/l502.exe)
 Keep R1 ints in memory in canonical form, NReq=10695154.
 FoFCou: FMM=F IPFlag=           0 FMFlag=           0 FMFlg1=           0
         NFxFlg=           0 DoJE=F BraDBF=F KetDBF=F FulRan=T
         wScrn=  0.000000 ICntrl=       600 IOpCl=  0 I1Cent=           0 NGrid=           0
         NMat0=    1 NMatS0=    820 NMatT0=    0 NMatD0=    1 NMtDS0=    0 NMtDT0=    0
 Symmetry not used in FoFCou.
 Two-electron integral symmetry not used.
 Closed shell SCF:
 Using DIIS extrapolation, IDIIS=  1040.
 NGot=  2684354560 LenX=  2684013186 LenY=  2684010981
 Requested convergence on RMS density matrix=1.00D-08 within 120 cycles.
 Requested convergence on MAX density matrix=1.00D-06.
 Requested convergence on             energy=1.00D-06.
 No special actions if energy rises.
 Integral accuracy reduced to 1.0D-05 until final iterations.

 Cycle   1  Pass 0  IDiag  1:
 E= -79.6015504413930    
 DIIS: error= 5.73D-02 at cycle   1 NSaved=   1.
 NSaved= 1 IEnMin= 1 EnMin= -79.6015504413930     IErMin= 1 ErrMin= 5.73D-02
 ErrMax= 5.73D-02  0.00D+00 EMaxC= 1.00D-01 BMatC= 1.03D-01 BMatP= 1.03D-01
 IDIUse=3 WtCom= 4.27D-01 WtEn= 5.73D-01
 Coeff-Com:  0.100D+01
 Coeff-En:   0.100D+01
 Coeff:      0.100D+01
 Gap=     0.410 Goal=   None    Shift=    0.000
 GapD=    0.410 DampG=2.000 DampE=0.500 DampFc=1.0000 IDamp=-1.
 RMSDP=1.52D-02 MaxDP=1.32D-01              OVMax= 1.71D-01

 Cycle   2  Pass 0  IDiag  1:
 E= -79.5892395078278     Delta-E=        0.012310933565 Rises=F Damp=F
 DIIS: error= 5.77D-02 at cycle   2 NSaved=   2.
 NSaved= 2 IEnMin= 1 EnMin= -79.6015504413930     IErMin= 1 ErrMin= 5.73D-02
 ErrMax= 5.77D-02  0.00D+00 EMaxC= 1.00D-01 BMatC= 1.19D-01 BMatP= 1.03D-01
 IDIUse=2 WtCom= 0.00D+00 WtEn= 1.00D+00
 Coeff-En:   0.525D+00 0.475D+00
 Coeff:      0.525D+00 0.475D+00
 Gap=     0.495 Goal=   None    Shift=    0.000
 RMSDP=7.74D-03 MaxDP=6.08D-02 DE= 1.23D-02 OVMax= 8.38D-02

 Cycle   3  Pass 0  IDiag  1:
 E= -79.7185947801210     Delta-E=       -0.129355272293 Rises=F Damp=F
 DIIS: error= 2.11D-03 at cycle   3 NSaved=   3.
 NSaved= 3 IEnMin= 3 EnMin= -79.7185947801210     IErMin= 3 ErrMin= 2.11D-03
 ErrMax= 2.11D-03  0.00D+00 EMaxC= 1.00D-01 BMatC= 1.04D-04 BMatP= 1.03D-01
 IDIUse=3 WtCom= 9.79D-01 WtEn= 2.11D-02
 Coeff-Com:  0.619D-01 0.509D-01 0.887D+00
 Coeff-En:   0.000D+00 0.000D+00 0.100D+01
 Coeff:      0.606D-01 0.498D-01 0.890D+00
 Gap=     0.469 Goal=   None    Shift=    0.000
 RMSDP=2.53D-04 MaxDP=1.53D-03 DE=-1.29D-01 OVMax= 3.11D-03

 Cycle   4  Pass 0  IDiag  1:
 E= -79.7186816489966     Delta-E=       -0.000086868876 Rises=F Damp=F
 DIIS: error= 5.92D-04 at cycle   4 NSaved=   4.
 NSaved= 4 IEnMin= 4 EnMin= -79.7186816489966     IErMin= 4 ErrMin= 5.92D-04
 ErrMax= 5.92D-04  0.00D+00 EMaxC= 1.00D-01 BMatC= 4.90D-06 BMatP= 1.04D-04
 IDIUse=3 WtCom= 9.94D-01 WtEn= 5.92D-03
 Coeff-Com: -0.212D-02-0.502D-02 0.161D+00 0.846D+00
 Coeff-En:   0.000D+00 0.000D+00 0.000D+00 0.100D+01
 Coeff:     -0.210D-02-0.499D-02 0.160D+00 0.847D+00
 Gap=     0.469 Goal=   None    Shift=    0.000
 RMSDP=4.87D-05 MaxDP=3.04D-04 DE=-8.69D-05 OVMax= 7.07D-04

 Cycle   5  Pass 0  IDiag  1:
 E= -79.7186861136750     Delta-E=       -0.000004464678 Rises=F Damp=F
 DIIS: error= 2.37D-05 at cycle   5 NSaved=   5.
 NSaved= 5 IEnMin= 5 EnMin= -79.7186861136750     IErMin= 5 ErrMin= 2.37D-05
 ErrMax= 2.37D-05  0.00D+00 EMaxC= 1.00D-01 BMatC= 1.30D-08 BMatP= 4.90D-06
 IDIUse=1 WtCom= 1.00D+00 WtEn= 0.00D+00
 Coeff-Com:  0.203D-03 0.449D-04-0.115D-01-0.498D-01 0.106D+01
 Coeff:      0.203D-03 0.449D-04-0.115D-01-0.498D-01 0.106D+01
 Gap=     0.469 Goal=   None    Shift=    0.000
 RMSDP=2.75D-06 MaxDP=2.28D-05 DE=-4.46D-06 OVMax= 3.62D-05

 Initial convergence to 1.0D-05 achieved.  Increase integral accuracy.
 Cycle   6  Pass 1  IDiag  1:
 E= -79.7186822359763     Delta-E=        0.000003877699 Rises=F Damp=F
 DIIS: error= 9.85D-07 at cycle   1 NSaved=   1.
 NSaved= 1 IEnMin= 1 EnMin= -79.7186822359763     IErMin= 1 ErrMin= 9.85D-07
 ErrMax= 9.85D-07  0.00D+00 EMaxC= 1.00D-01 BMatC= 3.52D-11 BMatP= 3.52D-11
 IDIUse=1 WtCom= 1.00D+00 WtEn= 0.00D+00
 Coeff-Com:  0.100D+01
 Coeff:      0.100D+01
 Gap=     0.469 Goal=   None    Shift=    0.000
 RMSDP=2.75D-06 MaxDP=2.28D-05 DE= 3.88D-06 OVMax= 4.32D-06

 Cycle   7  Pass 1  IDiag  1:
 E= -79.7186822360455     Delta-E=       -0.000000000069 Rises=F Damp=F
 DIIS: error= 1.79D-07 at cycle   2 NSaved=   2.
 NSaved= 2 IEnMin= 2 EnMin= -79.7186822360455     IErMin= 2 ErrMin= 1.79D-07
 ErrMax= 1.79D-07  0.00D+00 EMaxC= 1.00D-01 BMatC= 9.50D-13 BMatP= 3.52D-11
 IDIUse=1 WtCom= 1.00D+00 WtEn= 0.00D+00
 Coeff-Com:  0.419D-02 0.996D+00
 Coeff:      0.419D-02 0.996D+00
 Gap=     0.469 Goal=   None    Shift=    0.000
 RMSDP=5.87D-08 MaxDP=4.46D-07 DE=-6.92D-11 OVMax= 5.44D-07

 Cycle   8  Pass 1  IDiag  1:
 E= -79.7186822360462     Delta-E=       -0.000000000001 Rises=F Damp=F
 DIIS: error= 1.31D-07 at cycle   3 NSaved=   3.
 NSaved= 3 IEnMin= 3 EnMin= -79.7186822360462     IErMin= 3 ErrMin= 1.31D-07
 ErrMax= 1.31D-07  0.00D+00 EMaxC= 1.00D-01 BMatC= 5.96D-13 BMatP= 9.50D-13
 IDIUse=1 WtCom= 1.00D+00 WtEn= 0.00D+00
 Coeff-Com: -0.337D-01 0.438D+00 0.596D+00
 Coeff:     -0.337D-01 0.438D+00 0.596D+00
 Gap=     0.469 Goal=   None    Shift=    0.000
 RMSDP=1.80D-08 MaxDP=2.02D-07 DE=-6.82D-13 OVMax= 2.10D-07

 Cycle   9  Pass 1  IDiag  1:
 E= -79.7186822360472     Delta-E=       -0.000000000001 Rises=F Damp=F
 DIIS: error= 2.62D-08 at cycle   4 NSaved=   4.
 NSaved= 4 IEnMin= 4 EnMin= -79.7186822360472     IErMin= 4 ErrMin= 2.62D-08
 ErrMax= 2.62D-08  0.00D+00 EMaxC= 1.00D-01 BMatC= 2.41D-14 BMatP= 5.96D-13
 IDIUse=1 WtCom= 1.00D+00 WtEn= 0.00D+00
 Coeff-Com: -0.113D-01 0.107D+00 0.227D+00 0.677D+00
 Coeff:     -0.113D-01 0.107D+00 0.227D+00 0.677D+00
 Gap=     0.469 Goal=   None    Shift=    0.000
 RMSDP=3.28D-09 MaxDP=3.13D-08 DE=-9.66D-13 OVMax= 4.77D-08

 SCF Done:  E(RPBE1PBE) =  -79.7186822360     A.U. after    9 cycles
            NFock=  9  Conv=0.33D-08     -V/T= 2.0054
 KE= 7.928661584074D+01 PE=-2.687069695177D+02 EE= 6.740636508034D+01
 Leave Link  502 at Wed Oct  7 13:37:46 2020, MaxMem=  2684354560 cpu:              15.4 elap:               1.8
 (Enter /udrive/faculty/rpeverati/g16/g16/l508.exe)
 QCSCF skips out because SCF is already converged.
 Leave Link  508 at Wed Oct  7 13:37:47 2020, MaxMem=  2684354560 cpu:               0.3 elap:               0.5
 (Enter /udrive/faculty/rpeverati/g16/g16/l601.exe)
 Copying SCF densities to generalized density rwf, IOpCl= 0 IROHF=0.

 **********************************************************************

            Population analysis using the SCF density.

 **********************************************************************

 Orbital symmetries:
       Occupied  (A) (A) (A) (A) (A) (A) (A) (A) (A)
       Virtual   (A) (A) (A) (A) (A) (A) (A) (A) (A) (A) (A) (A)
                 (A) (A) (A) (A) (A) (A) (A) (A) (A) (A) (A) (A)
                 (A) (A) (A) (A) (A) (A) (A)
 The electronic state is 1-A.
 Alpha  occ. eigenvalues --  -10.20777 -10.20759  -0.77128  -0.63063  -0.44365
 Alpha  occ. eigenvalues --   -0.44364  -0.37429  -0.34934  -0.34934
 Alpha virt. eigenvalues --    0.11983   0.17327   0.17841   0.17841   0.20444
 Alpha virt. eigenvalues --    0.20444   0.25349   0.52938   0.56147   0.56148
 Alpha virt. eigenvalues --    0.65480   0.65480   0.69745   0.91297   0.91297
 Alpha virt. eigenvalues --    0.94032   0.95050   0.95050   1.01413   1.09537
 Alpha virt. eigenvalues --    1.46575   1.53135   1.53136   1.95417   1.99624
 Alpha virt. eigenvalues --    1.99624   2.29811   2.29811   2.35416   2.35417
 Alpha virt. eigenvalues --    2.61285
          Condensed to atoms (all electrons):
               1          2          3          4          5          6
     1  C    5.116222   0.356192  -0.035385   0.385982  -0.035385  -0.035385
     2  C    0.356192   5.116221   0.385983  -0.035385   0.385982   0.385982
     3  H   -0.035385   0.385983   0.538789  -0.003687  -0.030627  -0.030626
     4  H    0.385982  -0.035385  -0.003687   0.538791  -0.003655   0.004472
     5  H   -0.035385   0.385982  -0.030627  -0.003655   0.538791  -0.030626
     6  H   -0.035385   0.385982  -0.030626   0.004472  -0.030626   0.538790
     7  H    0.385982  -0.035385   0.004472  -0.030626  -0.003687  -0.003655
     8  H    0.385982  -0.035386  -0.003655  -0.030626   0.004472  -0.003687
               7          8
     1  C    0.385982   0.385982
     2  C   -0.035385  -0.035386
     3  H    0.004472  -0.003655
     4  H   -0.030626  -0.030626
     5  H   -0.003687   0.004472
     6  H   -0.003655  -0.003687
     7  H    0.538790  -0.030627
     8  H   -0.030627   0.538791
 Mulliken charges:
               1
     1  C   -0.524204
     2  C   -0.524204
     3  H    0.174736
     4  H    0.174734
     5  H    0.174735
     6  H    0.174735
     7  H    0.174735
     8  H    0.174734
 Sum of Mulliken charges =   0.00000
 Mulliken charges with hydrogens summed into heavy atoms:
               1
     1  C   -0.000000
     2  C    0.000000
 Electronic spatial extent (au):  <R**2>=            108.8108
 Charge=              0.0000 electrons
 Dipole moment (field-independent basis, Debye):
    X=              0.0000    Y=              0.0000    Z=             -0.0000  Tot=              0.0000
 Quadrupole moment (field-independent basis, Debye-Ang):
   XX=            -14.6137   YY=            -14.6178   ZZ=            -15.1400
   XY=             -0.0004   XZ=              0.0042   YZ=              0.0466
 Traceless Quadrupole moment (field-independent basis, Debye-Ang):
   XX=              0.1768   YY=              0.1727   ZZ=             -0.3495
   XY=             -0.0004   XZ=              0.0042   YZ=              0.0466
 Octapole moment (field-independent basis, Debye-Ang**2):
  XXX=              0.0026  YYY=              0.0014  ZZZ=             -0.0000  XYY=             -0.0026
  XXY=             -0.0014  XXZ=             -0.0001  XZZ=             -0.0000  YZZ=              0.0000
  YYZ=              0.0001  XYZ=             -0.0003
 Hexadecapole moment (field-independent basis, Debye-Ang**3):
 XXXX=            -28.0875 YYYY=            -28.0753 ZZZZ=            -91.2643 XXXY=             -0.1049
 XXXZ=              0.8573 YYYX=              0.1591 YYYZ=              1.2991 ZZZX=              0.2695
 ZZZY=              3.0983 XXYY=             -9.6326 XXZZ=            -18.4164 YYZZ=            -18.9928
 XXYZ=              2.0253 YYXZ=             -0.5536 ZZXY=             -0.1049
 N-N= 4.229530636053D+01 E-N=-2.687069684061D+02  KE= 7.928661584074D+01
 No NMR shielding tensors so no spin-rotation constants.
 Leave Link  601 at Wed Oct  7 13:37:48 2020, MaxMem=  2684354560 cpu:               3.3 elap:               0.7
 (Enter /udrive/faculty/rpeverati/g16/g16/l701.exe)
 ... and contract with generalized density number  0.
 Compute integral first derivatives.
 Leave Link  701 at Wed Oct  7 13:37:49 2020, MaxMem=  2684354560 cpu:               3.8 elap:               0.7
 (Enter /udrive/faculty/rpeverati/g16/g16/l702.exe)
 L702 exits ... SP integral derivatives will be done elsewhere.
 Leave Link  702 at Wed Oct  7 13:37:50 2020, MaxMem=  2684354560 cpu:               1.5 elap:               0.6
 (Enter /udrive/faculty/rpeverati/g16/g16/l703.exe)
 Integral derivatives from FoFJK, PRISM(SPDF).
 Compute integral first derivatives, UseDBF=F ICtDFT=           0.
 Calling FoFJK, ICntrl=      2127 FMM=F ISym2X=0 I1Cent= 0 IOpClX= 0 NMat=1 NMatS=1 NMatT=0.
 FoFJK:  IHMeth= 1 ICntrl=    2127 DoSepK=F KAlg= 0 I1Cent=           0 FoldK=F
 IRaf=         0 NMat=       1 IRICut=       1 DoRegI=T DoRafI=F ISym2E= 0 IDoP0=0 IntGTp=1.
 FoFCou: FMM=F IPFlag=           0 FMFlag=      100000 FMFlg1=         800
         NFxFlg=           0 DoJE=F BraDBF=F KetDBF=F FulRan=T
         wScrn=  0.000000 ICntrl=      2127 IOpCl=  0 I1Cent=           0 NGrid=           0
         NMat0=    1 NMatS0=      1 NMatT0=    0 NMatD0=    1 NMtDS0=    0 NMtDT0=    0
 Symmetry not used in FoFCou.
 Leave Link  703 at Wed Oct  7 13:37:51 2020, MaxMem=  2684354560 cpu:               7.5 elap:               1.0
 (Enter /udrive/faculty/rpeverati/g16/g16/l716.exe)
 Dipole        = 7.13576916D-07 1.57596003D-07-1.39465117D-06
 ***** Axes restored to original set *****
 -------------------------------------------------------------------
 Center     Atomic                   Forces (Hartrees/Bohr)
 Number     Number              X              Y              Z
 -------------------------------------------------------------------
      1        6           0.005553369   -0.000001557   -0.000001215
      2        6          -0.005554725    0.000000734    0.000002287
      3        1           0.001416839   -0.001441012   -0.002984661
      4        1          -0.001415924   -0.003301915   -0.000236935
      5        1           0.001416355   -0.001863209    0.002738900
      6        1           0.001416555    0.003303504    0.000243544
      7        1          -0.001416222    0.001446919    0.002980044
      8        1          -0.001416247    0.001856536   -0.002741964
 -------------------------------------------------------------------
 Cartesian Forces:  Max     0.005554725 RMS     0.002411428
 Leave Link  716 at Wed Oct  7 13:37:52 2020, MaxMem=  2684354560 cpu:               1.8 elap:               0.6
 (Enter /udrive/faculty/rpeverati/g16/g16/l103.exe)

 GradGradGradGradGradGradGradGradGradGradGradGradGradGradGradGradGradGrad
 Berny optimization.
 Optmz: redundant internal coordinate code flag= 1
 FormGI is forming the generalized inverse of G from B-inverse, IUseBI=4.
 Internal  Forces:  Max     0.003602436 RMS     0.001686632
 Search for a local minimum.
 Step number   1 out of a maximum of  100
 All quantities printed in internal units (Hartrees-Bohrs-Radians)
 RMS Force = .16866D-02 SwitMx=.10000D-02 MixMth= 1
 Mixed Optimization -- RFO/linear search
 Second derivative matrix not updated -- first step.
 The second derivative matrix:
                          R1        R2        R3        R4        R5
           R1           0.29778
           R2           0.00000   0.34786
           R3           0.00000   0.00000   0.34787
           R4           0.00000   0.00000   0.00000   0.34786
           R5           0.00000   0.00000   0.00000   0.00000   0.34787
           R6           0.00000   0.00000   0.00000   0.00000   0.00000
           R7           0.00000   0.00000   0.00000   0.00000   0.00000
           A1           0.00000   0.00000   0.00000   0.00000   0.00000
           A2           0.00000   0.00000   0.00000   0.00000   0.00000
           A3           0.00000   0.00000   0.00000   0.00000   0.00000
           A4           0.00000   0.00000   0.00000   0.00000   0.00000
           A5           0.00000   0.00000   0.00000   0.00000   0.00000
           A6           0.00000   0.00000   0.00000   0.00000   0.00000
           A7           0.00000   0.00000   0.00000   0.00000   0.00000
           A8           0.00000   0.00000   0.00000   0.00000   0.00000
           A9           0.00000   0.00000   0.00000   0.00000   0.00000
           A10          0.00000   0.00000   0.00000   0.00000   0.00000
           A11          0.00000   0.00000   0.00000   0.00000   0.00000
           A12          0.00000   0.00000   0.00000   0.00000   0.00000
           D1           0.00000   0.00000   0.00000   0.00000   0.00000
           D2           0.00000   0.00000   0.00000   0.00000   0.00000
           D3           0.00000   0.00000   0.00000   0.00000   0.00000
           D4           0.00000   0.00000   0.00000   0.00000   0.00000
           D5           0.00000   0.00000   0.00000   0.00000   0.00000
           D6           0.00000   0.00000   0.00000   0.00000   0.00000
           D7           0.00000   0.00000   0.00000   0.00000   0.00000
           D8           0.00000   0.00000   0.00000   0.00000   0.00000
           D9           0.00000   0.00000   0.00000   0.00000   0.00000
                          R6        R7        A1        A2        A3
           R6           0.34787
           R7           0.00000   0.34787
           A1           0.00000   0.00000   0.16000
           A2           0.00000   0.00000   0.00000   0.16000
           A3           0.00000   0.00000   0.00000   0.00000   0.16000
           A4           0.00000   0.00000   0.00000   0.00000   0.00000
           A5           0.00000   0.00000   0.00000   0.00000   0.00000
           A6           0.00000   0.00000   0.00000   0.00000   0.00000
           A7           0.00000   0.00000   0.00000   0.00000   0.00000
           A8           0.00000   0.00000   0.00000   0.00000   0.00000
           A9           0.00000   0.00000   0.00000   0.00000   0.00000
           A10          0.00000   0.00000   0.00000   0.00000   0.00000
           A11          0.00000   0.00000   0.00000   0.00000   0.00000
           A12          0.00000   0.00000   0.00000   0.00000   0.00000
           D1           0.00000   0.00000   0.00000   0.00000   0.00000
           D2           0.00000   0.00000   0.00000   0.00000   0.00000
           D3           0.00000   0.00000   0.00000   0.00000   0.00000
           D4           0.00000   0.00000   0.00000   0.00000   0.00000
           D5           0.00000   0.00000   0.00000   0.00000   0.00000
           D6           0.00000   0.00000   0.00000   0.00000   0.00000
           D7           0.00000   0.00000   0.00000   0.00000   0.00000
           D8           0.00000   0.00000   0.00000   0.00000   0.00000
           D9           0.00000   0.00000   0.00000   0.00000   0.00000
                          A4        A5        A6        A7        A8
           A4           0.16000
           A5           0.00000   0.16000
           A6           0.00000   0.00000   0.16000
           A7           0.00000   0.00000   0.00000   0.16000
           A8           0.00000   0.00000   0.00000   0.00000   0.16000
           A9           0.00000   0.00000   0.00000   0.00000   0.00000
           A10          0.00000   0.00000   0.00000   0.00000   0.00000
           A11          0.00000   0.00000   0.00000   0.00000   0.00000
           A12          0.00000   0.00000   0.00000   0.00000   0.00000
           D1           0.00000   0.00000   0.00000   0.00000   0.00000
           D2           0.00000   0.00000   0.00000   0.00000   0.00000
           D3           0.00000   0.00000   0.00000   0.00000   0.00000
           D4           0.00000   0.00000   0.00000   0.00000   0.00000
           D5           0.00000   0.00000   0.00000   0.00000   0.00000
           D6           0.00000   0.00000   0.00000   0.00000   0.00000
           D7           0.00000   0.00000   0.00000   0.00000   0.00000
           D8           0.00000   0.00000   0.00000   0.00000   0.00000
           D9           0.00000   0.00000   0.00000   0.00000   0.00000
                          A9        A10       A11       A12       D1
           A9           0.16000
           A10          0.00000   0.16000
           A11          0.00000   0.00000   0.16000
           A12          0.00000   0.00000   0.00000   0.16000
           D1           0.00000   0.00000   0.00000   0.00000   0.00420
           D2           0.00000   0.00000   0.00000   0.00000   0.00000
           D3           0.00000   0.00000   0.00000   0.00000   0.00000
           D4           0.00000   0.00000   0.00000   0.00000   0.00000
           D5           0.00000   0.00000   0.00000   0.00000   0.00000
           D6           0.00000   0.00000   0.00000   0.00000   0.00000
           D7           0.00000   0.00000   0.00000   0.00000   0.00000
           D8           0.00000   0.00000   0.00000   0.00000   0.00000
           D9           0.00000   0.00000   0.00000   0.00000   0.00000
                          D2        D3        D4        D5        D6
           D2           0.00420
           D3           0.00000   0.00420
           D4           0.00000   0.00000   0.00420
           D5           0.00000   0.00000   0.00000   0.00420
           D6           0.00000   0.00000   0.00000   0.00000   0.00420
           D7           0.00000   0.00000   0.00000   0.00000   0.00000
           D8           0.00000   0.00000   0.00000   0.00000   0.00000
           D9           0.00000   0.00000   0.00000   0.00000   0.00000
                          D7        D8        D9
           D7           0.00420
           D8           0.00000   0.00420
           D9           0.00000   0.00000   0.00420
 ITU=  0
 Eigenvectors of the second derivative matrix:
                           1         2         3         4         5
     Eigenvalues --     0.00420   0.05513   0.05513   0.05513   0.05513
   1         R1        -0.00000  -0.00000  -0.00000   0.00000   0.00000
   2         R2        -0.00000   0.00000  -0.00000   0.00000  -0.00000
   3         R3        -0.00000  -0.00000  -0.00000  -0.00000  -0.00000
   4         R4         0.00000  -0.00000   0.00000   0.00000   0.00000
   5         R5        -0.00000  -0.00000  -0.00000   0.00000  -0.00000
   6         R6         0.00000   0.00000   0.00000   0.00000   0.00000
   7         R7         0.00000   0.00000  -0.00000   0.00000   0.00000
   8         A1        -0.00000  -0.00000   0.14961   0.00000  -0.16018
   9         A2         0.00000   0.00000  -0.21352   0.00000  -0.04947
  10         A3        -0.00000   0.00000   0.06392  -0.00000   0.20965
  11         A4         0.00000  -0.00000  -0.12020   0.00000  -0.39427
  12         A5        -0.00000  -0.00000   0.40154  -0.00000   0.09304
  13         A6        -0.00000   0.00000  -0.28135  -0.00000   0.30123
  14         A7        -0.00000  -0.08571   0.00000  -0.20172  -0.00000
  15         A8        -0.00000   0.21755   0.00000   0.02663   0.00000
  16         A9         0.00000  -0.13184  -0.00000   0.17509   0.00000
  17         A10        0.00000   0.24794   0.00000  -0.32927  -0.00000
  18         A11        0.00000  -0.40912  -0.00000  -0.05009  -0.00000
  19         A12        0.00000   0.16119  -0.00000   0.37936   0.00000
  20         D1        -0.33333   0.35596   0.28264  -0.15124   0.26399
  21         D2        -0.33333  -0.04700   0.28264   0.38389   0.26399
  22         D3        -0.33333  -0.30896   0.28264  -0.23265   0.26399
  23         D4        -0.33333   0.35596   0.08730  -0.15124  -0.37677
  24         D5        -0.33333  -0.04700   0.08730   0.38389  -0.37677
  25         D6        -0.33333  -0.30896   0.08730  -0.23265  -0.37677
  26         D7        -0.33333   0.35596  -0.36994  -0.15124   0.11278
  27         D8        -0.33333  -0.04700  -0.36994   0.38389   0.11278
  28         D9        -0.33333  -0.30896  -0.36994  -0.23265   0.11278
                           6         7         8         9        10
     Eigenvalues --     0.16000   0.16000   0.16000   0.16000   0.16000
   1         R1         0.00000  -0.00000   0.00000   0.00000   0.00000
   2         R2         0.00000   0.00000  -0.00000  -0.00000   0.00000
   3         R3         0.00000   0.00000  -0.00000   0.00000  -0.00000
   4         R4         0.00000   0.00000   0.00000   0.00000  -0.00000
   5         R5         0.00000  -0.00000  -0.00000  -0.00000   0.00000
   6         R6         0.00000   0.00000  -0.00000  -0.00000  -0.00000
   7         R7         0.00000  -0.00000  -0.00000  -0.00000   0.00000
   8         A1        -0.40597  -0.05935  -0.19616   0.27778  -0.59029
   9         A2        -0.06820  -0.31574  -0.41383  -0.25849   0.41287
  10         A3        -0.18034  -0.01153  -0.00429   0.55952   0.43006
  11         A4         0.25214   0.19946   0.32436  -0.01026   0.09434
  12         A5         0.31177   0.03769   0.10659  -0.44524   0.08520
  13         A6         0.13216   0.17403   0.22234  -0.16007  -0.44823
  14         A7        -0.43010  -0.41517   0.22036  -0.36632  -0.03801
  15         A8        -0.40475   0.55404   0.22306  -0.07522   0.22480
  16         A9         0.06748   0.33751  -0.61776  -0.16584  -0.08616
  17         A10        0.44393  -0.07385  -0.23579   0.23479  -0.09933
  18         A11        0.19282   0.04129   0.21132   0.28298   0.06603
  19         A12        0.17934  -0.47409   0.20988   0.12819  -0.07372
  20         D1        -0.00000  -0.00000   0.00000   0.00000  -0.00000
  21         D2        -0.00000   0.00000   0.00000  -0.00000   0.00000
  22         D3         0.00000  -0.00000  -0.00000  -0.00000  -0.00000
  23         D4         0.00000   0.00000   0.00000   0.00000   0.00000
  24         D5         0.00000   0.00000  -0.00000  -0.00000   0.00000
  25         D6         0.00000   0.00000  -0.00000   0.00000  -0.00000
  26         D7        -0.00000  -0.00000   0.00000   0.00000   0.00000
  27         D8        -0.00000   0.00000   0.00000  -0.00000   0.00000
  28         D9         0.00000  -0.00000  -0.00000   0.00000  -0.00000
                          11        12        13        14        15
     Eigenvalues --     0.16000   0.29778   0.34786   0.34786   0.34787
   1         R1         0.00000  -1.00000  -0.00000  -0.00000   0.00000
   2         R2        -0.00000  -0.00000   1.00000  -0.00000   0.00000
   3         R3        -0.00000   0.00000  -0.00000   0.00000   0.00000
   4         R4         0.00000  -0.00000   0.00000   1.00000  -0.00000
   5         R5         0.00000   0.00000  -0.00000  -0.00000  -0.00000
   6         R6        -0.00000   0.00000   0.00000   0.00000  -0.00000
   7         R7         0.00000   0.00000  -0.00000   0.00000   1.00000
   8         A1        -0.20908  -0.00000   0.00000  -0.00000   0.00000
   9         A2        -0.40404  -0.00000  -0.00000   0.00000  -0.00000
  10         A3         0.38136   0.00000   0.00000  -0.00000   0.00000
  11         A4         0.32603   0.00000  -0.00000  -0.00000  -0.00000
  12         A5        -0.09161   0.00000   0.00000   0.00000  -0.00000
  13         A6         0.01206   0.00000  -0.00000  -0.00000   0.00000
  14         A7         0.36686  -0.00000   0.00000   0.00000  -0.00000
  15         A8        -0.31527  -0.00000  -0.00000   0.00000   0.00000
  16         A9         0.37565   0.00000  -0.00000  -0.00000  -0.00000
  17         A10       -0.02743   0.00000  -0.00000  -0.00000   0.00000
  18         A11       -0.39483   0.00000  -0.00000  -0.00000   0.00000
  19         A12       -0.03211   0.00000   0.00000   0.00000  -0.00000
  20         D1        -0.00000   0.00000   0.00000   0.00000  -0.00000
  21         D2        -0.00000   0.00000  -0.00000  -0.00000  -0.00000
  22         D3        -0.00000   0.00000   0.00000  -0.00000   0.00000
  23         D4        -0.00000  -0.00000  -0.00000   0.00000   0.00000
  24         D5        -0.00000   0.00000  -0.00000   0.00000   0.00000
  25         D6        -0.00000   0.00000   0.00000  -0.00000   0.00000
  26         D7         0.00000  -0.00000  -0.00000   0.00000   0.00000
  27         D8         0.00000   0.00000  -0.00000   0.00000  -0.00000
  28         D9         0.00000   0.00000  -0.00000  -0.00000   0.00000
                          16        17        18
     Eigenvalues --     0.34787   0.34787   0.34787
   1         R1         0.00000  -0.00000  -0.00000
   2         R2        -0.00000  -0.00000  -0.00000
   3         R3         0.00000  -1.00000   0.00000
   4         R4        -0.00000   0.00000  -0.00000
   5         R5        -0.00000  -0.00000  -1.00000
   6         R6         1.00000   0.00000  -0.00000
   7         R7         0.00000   0.00000  -0.00000
   8         A1         0.00000   0.00000  -0.00000
   9         A2         0.00000   0.00000   0.00000
  10         A3         0.00000  -0.00000  -0.00000
  11         A4         0.00000  -0.00000   0.00000
  12         A5        -0.00000  -0.00000   0.00000
  13         A6        -0.00000   0.00000  -0.00000
  14         A7         0.00000  -0.00000   0.00000
  15         A8        -0.00000   0.00000  -0.00000
  16         A9        -0.00000  -0.00000   0.00000
  17         A10        0.00000   0.00000  -0.00000
  18         A11        0.00000   0.00000  -0.00000
  19         A12        0.00000  -0.00000  -0.00000
  20         D1        -0.00000   0.00000  -0.00000
  21         D2        -0.00000  -0.00000  -0.00000
  22         D3         0.00000   0.00000  -0.00000
  23         D4         0.00000   0.00000  -0.00000
  24         D5        -0.00000  -0.00000   0.00000
  25         D6         0.00000   0.00000   0.00000
  26         D7         0.00000   0.00000   0.00000
  27         D8         0.00000  -0.00000   0.00000
  28         D9         0.00000   0.00000   0.00000
 Iter=   1 RLamda= 0.00000000D+00 Sum=-2.30407453D-04.
 Iter=   2 RLamda=-2.30407453D-04 Sum=-2.30251609D-04.
 Iter=   3 RLamda=-2.30251609D-04 Sum=-2.30251714D-04.
 RFO step:  Lambda=-2.30251609D-04 EMin= 4.19511837D-03
 Linear search not attempted -- first point.
 Iteration  1 RMS(Cart)=  0.00448577 RMS(Int)=  0.00000340
 Iteration  2 RMS(Cart)=  0.00000380 RMS(Int)=  0.00000016
 Iteration  3 RMS(Cart)=  0.00000000 RMS(Int)=  0.00000016
 ITry= 1 IFail=0 DXMaxC= 9.14D-03 DCOld= 1.00D+10 DXMaxT= 3.00D-01 DXLimC= 3.00D+00 Rises=F
 Variable       Old X    -DE/DX   Delta X   Delta X   Delta X     New X
                                 (Linear)    (Quad)   (Total)
    R1        2.88408  -0.00130   0.00000  -0.00438  -0.00438   2.87970
    R2        2.06023   0.00360   0.00000   0.01034   0.01034   2.07057
    R3        2.06023   0.00360   0.00000   0.01034   0.01034   2.07057
    R4        2.06023   0.00360   0.00000   0.01034   0.01034   2.07057
    R5        2.06022   0.00360   0.00000   0.01035   0.01035   2.07057
    R6        2.06023   0.00360   0.00000   0.01034   0.01034   2.07057
    R7        2.06023   0.00360   0.00000   0.01034   0.01034   2.07057
    A1        1.94175   0.00012   0.00000   0.00072   0.00072   1.94247
    A2        1.94175   0.00011   0.00000   0.00072   0.00072   1.94247
    A3        1.94175   0.00012   0.00000   0.00072   0.00072   1.94247
    A4        1.87851  -0.00012   0.00000  -0.00076  -0.00077   1.87774
    A5        1.87851  -0.00012   0.00000  -0.00077  -0.00077   1.87775
    A6        1.87851  -0.00012   0.00000  -0.00077  -0.00077   1.87774
    A7        1.94176   0.00012   0.00000   0.00072   0.00072   1.94247
    A8        1.94175   0.00012   0.00000   0.00072   0.00072   1.94247
    A9        1.94175   0.00012   0.00000   0.00072   0.00072   1.94247
   A10        1.87851  -0.00012   0.00000  -0.00076  -0.00076   1.87774
   A11        1.87851  -0.00012   0.00000  -0.00077  -0.00077   1.87775
   A12        1.87851  -0.00012   0.00000  -0.00076  -0.00076   1.87775
    D1        1.04542   0.00000   0.00000   0.00093   0.00093   1.04636
    D2       -1.04897   0.00000   0.00000   0.00093   0.00093  -1.04804
    D3        3.13982   0.00000   0.00000   0.00093   0.00093   3.14075
    D4        3.13982   0.00000   0.00000   0.00093   0.00093   3.14075
    D5        1.04543   0.00000   0.00000   0.00093   0.00093   1.04636
    D6       -1.04897   0.00000   0.00000   0.00093   0.00093  -1.04804
    D7       -1.04897   0.00000   0.00000   0.00093   0.00093  -1.04804
    D8        3.13982   0.00000   0.00000   0.00093   0.00093   3.14075
    D9        1.04543   0.00000   0.00000   0.00093   0.00093   1.04636
         Item               Value     Threshold  Converged?
 Maximum Force            0.003602     0.000450     NO 
 RMS     Force            0.001687     0.000300     NO 
 Maximum Displacement     0.009136     0.001800     NO 
 RMS     Displacement     0.004485     0.001200     NO 
 Predicted change in Energy=-1.152036D-04
 Lowest energy point so far.  Saving SCF results.
 Largest change from initial coordinates is atom    5       0.005 Angstoms.
 GradGradGradGradGradGradGradGradGradGradGradGradGradGradGradGradGradGrad

 Leave Link  103 at Wed Oct  7 13:37:53 2020, MaxMem=  2684354560 cpu:               3.8 elap:               0.7
 (Enter /udrive/faculty/rpeverati/g16/g16/l202.exe)
                          Input orientation:                          
 ---------------------------------------------------------------------
 Center     Atomic      Atomic             Coordinates (Angstroms)
 Number     Number       Type             X           Y           Z
 ---------------------------------------------------------------------
      1          6           0       -0.761936   -0.000001   -0.000000
      2          6           0        0.761936    0.000000    0.000002
      3          1           0        1.159871   -0.445316   -0.918637
      4          1           0       -1.159871   -1.018161   -0.074520
      5          1           0        1.159871   -0.572907    0.844976
      6          1           0        1.159871    1.018223    0.073667
      7          1           0       -1.159870    0.444543    0.919013
      8          1           0       -1.159871    0.573617   -0.844492
 ---------------------------------------------------------------------
                    Distance matrix (angstroms):
                    1          2          3          4          5
     1  C    0.000000
     2  C    1.523872   0.000000
     3  H    2.176129   1.095699   0.000000
     4  H    1.095699   2.176132   2.534144   0.000000
     5  H    2.176131   1.095699   1.768222   2.534744   0.000000
     6  H    2.176132   1.095699   1.768223   3.090311   1.768223
     7  H    1.095699   2.176130   3.090308   1.768222   2.534144
     8  H    1.095699   2.176132   2.534743   1.768223   3.090311
                    6          7          8
     6  H    0.000000
     7  H    2.534742   0.000000
     8  H    2.534146   1.768222   0.000000
 Stoichiometry    C2H6
 Framework group  C1[X(C2H6)]
 Deg. of freedom    18
 Full point group                 C1      NOp   1
 RotChk:  IX=0 Diff= 2.00D+00
 Largest Abelian subgroup         C1      NOp   1
 Largest concise Abelian subgroup C1      NOp   1
                         Standard orientation:                         
 ---------------------------------------------------------------------
 Center     Atomic      Atomic             Coordinates (Angstroms)
 Number     Number       Type             X           Y           Z
 ---------------------------------------------------------------------
      1          6           0       -0.761936   -0.000000   -0.000000
      2          6           0        0.761936    0.000000   -0.000000
      3          1           0        1.159869   -0.386767   -0.944784
      4          1           0       -1.159872   -1.011474   -0.138291
      5          1           0        1.159872   -0.624824    0.807340
      6          1           0        1.159872    1.011590    0.137442
      7          1           0       -1.159869    0.385972    0.945108
      8          1           0       -1.159872    0.625502   -0.806815
 ---------------------------------------------------------------------
 Rotational constants (GHZ):          80.1914660          20.0394889          20.0394844
 Leave Link  202 at Wed Oct  7 13:37:54 2020, MaxMem=  2684354560 cpu:               1.0 elap:               0.4
 (Enter /udrive/faculty/rpeverati/g16/g16/l301.exe)
 Standard basis: 6-31G(d) (5D, 7F)
 Ernie: Thresh=  0.10000D-02 Tol=  0.10000D-05 Strict=F.
 There are    42 symmetry adapted cartesian basis functions of A   symmetry.
 There are    40 symmetry adapted basis functions of A   symmetry.
    40 basis functions,    80 primitive gaussians,    42 cartesian basis functions
     9 alpha electrons        9 beta electrons
       nuclear repulsion energy        42.2041549008 Hartrees.
 IExCor= 1009 DFT=T Ex+Corr=PBE1PBE ExCW=0 ScaHFX=  0.250000
 ScaDFX=  0.750000  0.750000  1.000000  1.000000 ScalE2=  1.000000  1.000000
 IRadAn=      5 IRanWt=     -1 IRanGd=            0 ICorTp=0 IEmpDi=  4
 NAtoms=    8 NActive=    8 NUniq=    8 SFac= 1.00D+00 NAtFMM=   60 NAOKFM=F Big=F
 Integral buffers will be    131072 words long.
 Raffenetti 2 integral format.
 Two-electron integral symmetry is turned on.
 Leave Link  301 at Wed Oct  7 13:37:55 2020, MaxMem=  2684354560 cpu:               1.7 elap:               0.5
 (Enter /udrive/faculty/rpeverati/g16/g16/l302.exe)
 NPDir=0 NMtPBC=     1 NCelOv=     1 NCel=       1 NClECP=     1 NCelD=      1
         NCelK=      1 NCelE2=     1 NClLst=     1 CellRange=     0.0.
 One-electron integrals computed using PRISM.
 One-electron integral symmetry used in STVInt
 NBasis=    40 RedAO= T EigKep=  9.38D-03  NBF=    40
 NBsUse=    40 1.00D-06 EigRej= -1.00D+00 NBFU=    40
 Precomputing XC quadrature grid using
 IXCGrd= 4 IRadAn=           5 IRanWt=          -1 IRanGd=           0 AccXCQ= 0.00D+00.
 Generated NRdTot=       0 NPtTot=           0 NUsed=           0 NTot=          32
 NSgBfM=    42    42    42    42    42 MxSgAt=     8 MxSgA2=     8.
 Leave Link  302 at Wed Oct  7 13:37:55 2020, MaxMem=  2684354560 cpu:               3.4 elap:               0.6
 (Enter /udrive/faculty/rpeverati/g16/g16/l303.exe)
 DipDrv:  MaxL=1.
 Leave Link  303 at Wed Oct  7 13:37:56 2020, MaxMem=  2684354560 cpu:               1.3 elap:               0.5
 (Enter /udrive/faculty/rpeverati/g16/g16/l401.exe)
 Initial guess from the checkpoint file:  "MN_15_C2H6_BH76_PBE0_631Gs.chk"
 SCF N**3 symmetry information disabled.
 B after Tr=    -0.000000    0.000000    0.000000
         Rot=    0.708728    0.040492    0.703975    0.021996 Ang=  89.74 deg.
 Guess basis will be translated and rotated to current coordinates.
 JPrj=2 DoOrth=T DoCkMO=T.
 Leave Link  401 at Wed Oct  7 13:37:57 2020, MaxMem=  2684354560 cpu:               5.2 elap:               0.8
 (Enter /udrive/faculty/rpeverati/g16/g16/l502.exe)
 Keep R1 ints in memory in canonical form, NReq=10695154.
 FoFCou: FMM=F IPFlag=           0 FMFlag=           0 FMFlg1=           0
         NFxFlg=           0 DoJE=F BraDBF=F KetDBF=F FulRan=T
         wScrn=  0.000000 ICntrl=       600 IOpCl=  0 I1Cent=           0 NGrid=           0
         NMat0=    1 NMatS0=    820 NMatT0=    0 NMatD0=    1 NMtDS0=    0 NMtDT0=    0
 Symmetry not used in FoFCou.
 Two-electron integral symmetry not used.
 Closed shell SCF:
 Using DIIS extrapolation, IDIIS=  1040.
 NGot=  2684354560 LenX=  2684013186 LenY=  2684010981
 Requested convergence on RMS density matrix=1.00D-08 within 120 cycles.
 Requested convergence on MAX density matrix=1.00D-06.
 Requested convergence on             energy=1.00D-06.
 No special actions if energy rises.

 Cycle   1  Pass 1  IDiag  1:
 E= -79.7187677797516    
 DIIS: error= 8.29D-04 at cycle   1 NSaved=   1.
 NSaved= 1 IEnMin= 1 EnMin= -79.7187677797516     IErMin= 1 ErrMin= 8.29D-04
 ErrMax= 8.29D-04  0.00D+00 EMaxC= 1.00D-01 BMatC= 2.10D-05 BMatP= 2.10D-05
 IDIUse=3 WtCom= 9.92D-01 WtEn= 8.29D-03
 Coeff-Com:  0.100D+01
 Coeff-En:   0.100D+01
 Coeff:      0.100D+01
 Gap=     0.661 Goal=   None    Shift=    0.000
 RMSDP=1.85D-04 MaxDP=1.61D-03              OVMax= 2.27D-03

 Cycle   2  Pass 1  IDiag  1:
 E= -79.7187853102441     Delta-E=       -0.000017530492 Rises=F Damp=F
 DIIS: error= 6.01D-04 at cycle   2 NSaved=   2.
 NSaved= 2 IEnMin= 2 EnMin= -79.7187853102441     IErMin= 2 ErrMin= 6.01D-04
 ErrMax= 6.01D-04  0.00D+00 EMaxC= 1.00D-01 BMatC= 1.12D-05 BMatP= 2.10D-05
 IDIUse=3 WtCom= 9.94D-01 WtEn= 6.01D-03
 Coeff-Com:  0.405D+00 0.595D+00
 Coeff-En:   0.125D+00 0.875D+00
 Coeff:      0.403D+00 0.597D+00
 Gap=     0.467 Goal=   None    Shift=    0.000
 RMSDP=8.90D-05 MaxDP=7.97D-04 DE=-1.75D-05 OVMax= 1.00D-03

 Cycle   3  Pass 1  IDiag  1:
 E= -79.7187963999917     Delta-E=       -0.000011089748 Rises=F Damp=F
 DIIS: error= 1.43D-04 at cycle   3 NSaved=   3.
 NSaved= 3 IEnMin= 3 EnMin= -79.7187963999917     IErMin= 3 ErrMin= 1.43D-04
 ErrMax= 1.43D-04  0.00D+00 EMaxC= 1.00D-01 BMatC= 7.86D-07 BMatP= 1.12D-05
 IDIUse=3 WtCom= 9.99D-01 WtEn= 1.43D-03
 Coeff-Com:  0.309D-01 0.213D+00 0.756D+00
 Coeff-En:   0.000D+00 0.000D+00 0.100D+01
 Coeff:      0.309D-01 0.213D+00 0.756D+00
 Gap=     0.467 Goal=   None    Shift=    0.000
 RMSDP=1.69D-05 MaxDP=1.78D-04 DE=-1.11D-05 OVMax= 2.30D-04

 Cycle   4  Pass 1  IDiag  1:
 E= -79.7187971855661     Delta-E=       -0.000000785574 Rises=F Damp=F
 DIIS: error= 2.42D-05 at cycle   4 NSaved=   4.
 NSaved= 4 IEnMin= 4 EnMin= -79.7187971855661     IErMin= 4 ErrMin= 2.42D-05
 ErrMax= 2.42D-05  0.00D+00 EMaxC= 1.00D-01 BMatC= 8.28D-09 BMatP= 7.86D-07
 IDIUse=1 WtCom= 1.00D+00 WtEn= 0.00D+00
 Coeff-Com: -0.425D-02 0.266D-01 0.156D+00 0.822D+00
 Coeff:     -0.425D-02 0.266D-01 0.156D+00 0.822D+00
 Gap=     0.467 Goal=   None    Shift=    0.000
 RMSDP=2.51D-06 MaxDP=1.59D-05 DE=-7.86D-07 OVMax= 3.55D-05

 Cycle   5  Pass 1  IDiag  1:
 E= -79.7187971936765     Delta-E=       -0.000000008110 Rises=F Damp=F
 DIIS: error= 1.11D-06 at cycle   5 NSaved=   5.
 NSaved= 5 IEnMin= 5 EnMin= -79.7187971936765     IErMin= 5 ErrMin= 1.11D-06
 ErrMax= 1.11D-06  0.00D+00 EMaxC= 1.00D-01 BMatC= 3.14D-11 BMatP= 8.28D-09
 IDIUse=1 WtCom= 1.00D+00 WtEn= 0.00D+00
 Coeff-Com: -0.413D-03-0.177D-02-0.764D-02 0.257D-01 0.984D+00
 Coeff:     -0.413D-03-0.177D-02-0.764D-02 0.257D-01 0.984D+00
 Gap=     0.467 Goal=   None    Shift=    0.000
 RMSDP=1.28D-07 MaxDP=8.56D-07 DE=-8.11D-09 OVMax= 1.30D-06

 Cycle   6  Pass 1  IDiag  1:
 E= -79.7187971937077     Delta-E=       -0.000000000031 Rises=F Damp=F
 DIIS: error= 4.31D-08 at cycle   6 NSaved=   6.
 NSaved= 6 IEnMin= 6 EnMin= -79.7187971937077     IErMin= 6 ErrMin= 4.31D-08
 ErrMax= 4.31D-08  0.00D+00 EMaxC= 1.00D-01 BMatC= 4.95D-14 BMatP= 3.14D-11
 IDIUse=1 WtCom= 1.00D+00 WtEn= 0.00D+00
 Coeff-Com:  0.387D-04 0.100D-04 0.245D-03-0.247D-02-0.755D-01 0.108D+01
 Coeff:      0.387D-04 0.100D-04 0.245D-03-0.247D-02-0.755D-01 0.108D+01
 Gap=     0.467 Goal=   None    Shift=    0.000
 RMSDP=1.15D-08 MaxDP=8.75D-08 DE=-3.13D-11 OVMax= 1.17D-07

 Cycle   7  Pass 1  IDiag  1:
 E= -79.7187971937075     Delta-E=        0.000000000000 Rises=F Damp=F
 DIIS: error= 1.04D-09 at cycle   7 NSaved=   7.
 NSaved= 7 IEnMin= 6 EnMin= -79.7187971937077     IErMin= 7 ErrMin= 1.04D-09
 ErrMax= 1.04D-09  0.00D+00 EMaxC= 1.00D-01 BMatC= 6.87D-17 BMatP= 4.95D-14
 IDIUse=1 WtCom= 1.00D+00 WtEn= 0.00D+00
 Coeff-Com: -0.186D-06 0.133D-05 0.776D-05 0.739D-05-0.140D-03-0.156D-01
 Coeff-Com:  0.102D+01
 Coeff:     -0.186D-06 0.133D-05 0.776D-05 0.739D-05-0.140D-03-0.156D-01
 Coeff:      0.102D+01
 Gap=     0.467 Goal=   None    Shift=    0.000
 RMSDP=4.58D-10 MaxDP=3.60D-09 DE= 2.42D-13 OVMax= 5.99D-09

 SCF Done:  E(RPBE1PBE) =  -79.7187971937     A.U. after    7 cycles
            NFock=  7  Conv=0.46D-09     -V/T= 2.0060
 KE= 7.924617636526D+01 PE=-2.684935569903D+02 EE= 6.732442853046D+01
 Leave Link  502 at Wed Oct  7 13:37:59 2020, MaxMem=  2684354560 cpu:              16.8 elap:               1.9
 (Enter /udrive/faculty/rpeverati/g16/g16/l508.exe)
 QCSCF skips out because SCF is already converged.
 Leave Link  508 at Wed Oct  7 13:38:00 2020, MaxMem=  2684354560 cpu:               0.2 elap:               0.4
 (Enter /udrive/faculty/rpeverati/g16/g16/l701.exe)
 ... and contract with generalized density number  0.
 Compute integral first derivatives.
 Leave Link  701 at Wed Oct  7 13:38:01 2020, MaxMem=  2684354560 cpu:               3.3 elap:               0.8
 (Enter /udrive/faculty/rpeverati/g16/g16/l702.exe)
 L702 exits ... SP integral derivatives will be done elsewhere.
 Leave Link  702 at Wed Oct  7 13:38:02 2020, MaxMem=  2684354560 cpu:               1.7 elap:               0.6
 (Enter /udrive/faculty/rpeverati/g16/g16/l703.exe)
 Integral derivatives from FoFJK, PRISM(SPDF).
 Compute integral first derivatives, UseDBF=F ICtDFT=           0.
 Calling FoFJK, ICntrl=      2127 FMM=F ISym2X=0 I1Cent= 0 IOpClX= 0 NMat=1 NMatS=1 NMatT=0.
 FoFJK:  IHMeth= 1 ICntrl=    2127 DoSepK=F KAlg= 0 I1Cent=           0 FoldK=F
 IRaf=         0 NMat=       1 IRICut=       1 DoRegI=T DoRafI=F ISym2E= 0 IDoP0=0 IntGTp=1.
 FoFCou: FMM=F IPFlag=           0 FMFlag=      100000 FMFlg1=         800
         NFxFlg=           0 DoJE=F BraDBF=F KetDBF=F FulRan=T
         wScrn=  0.000000 ICntrl=      2127 IOpCl=  0 I1Cent=           0 NGrid=           0
         NMat0=    1 NMatS0=      1 NMatT0=    0 NMatD0=    1 NMtDS0=    0 NMtDT0=    0
 Symmetry not used in FoFCou.
 Leave Link  703 at Wed Oct  7 13:38:04 2020, MaxMem=  2684354560 cpu:               7.7 elap:               1.1
 (Enter /udrive/faculty/rpeverati/g16/g16/l716.exe)
 Dipole        =-6.95531432D-08-6.54570136D-08 1.41219880D-07
 ***** Axes restored to original set *****
 -------------------------------------------------------------------
 Center     Atomic                   Forces (Hartrees/Bohr)
 Number     Number              X              Y              Z
 -------------------------------------------------------------------
      1        6           0.000891465   -0.000000225    0.000000310
      2        6          -0.000891466    0.000000176   -0.000000063
      3        1           0.000151170    0.000044499    0.000084983
      4        1          -0.000150464    0.000095618    0.000010231
      5        1           0.000150804    0.000051028   -0.000080873
      6        1           0.000150471   -0.000096135   -0.000004108
      7        1          -0.000151132   -0.000038792   -0.000087733
      8        1          -0.000150848   -0.000056167    0.000077253
 -------------------------------------------------------------------
 Cartesian Forces:  Max     0.000891466 RMS     0.000272418
 Leave Link  716 at Wed Oct  7 13:38:04 2020, MaxMem=  2684354560 cpu:               1.2 elap:               0.5
 (Enter /udrive/faculty/rpeverati/g16/g16/l103.exe)

 GradGradGradGradGradGradGradGradGradGradGradGradGradGradGradGradGradGrad
 Berny optimization.
 Optmz: redundant internal coordinate code flag= 1
 Using GEDIIS/GDIIS optimizer.
 Red2BG:  D1=  2.73D-01 OD1=  1.27D-02 B2RMS=  0.00D+00 IAprox=0
 FormGI is forming the generalized inverse of G from B-inverse, IUseBI=4.
 Internal  Forces:  Max     0.000439021 RMS     0.000142736
 Search for a local minimum.
 Step number   2 out of a maximum of  100
 All quantities printed in internal units (Hartrees-Bohrs-Radians)
 RMS Force = .14274D-03 SwitMx=.10000D-02 MixMth= 2
 Mixed Optimization -- En-DIIS/RFO-DIIS
 Update second derivatives using D2CorX and points    1    2
 DE= -1.15D-04 DEPred=-1.15D-04 R= 9.98D-01
 TightC=F SS=  1.41D+00  RLast= 2.60D-02 DXNew= 5.0454D-01 7.7972D-02
 Trust test= 9.98D-01 RLast= 2.60D-02 DXMaxT set to 3.00D-01
 The second derivative matrix:
                          R1        R2        R3        R4        R5
           R1           0.29367
           R2           0.00663   0.34934
           R3           0.00664   0.00147   0.34933
           R4           0.00664   0.00146   0.00146   0.34932
           R5           0.00664   0.00147   0.00146   0.00146   0.34933
           R6           0.00664   0.00147   0.00146   0.00145   0.00146
           R7           0.00664   0.00148   0.00147   0.00146   0.00147
           A1           0.00086  -0.00266  -0.00266  -0.00266  -0.00267
           A2           0.00086  -0.00268  -0.00268  -0.00268  -0.00268
           A3           0.00086  -0.00267  -0.00267  -0.00267  -0.00267
           A4          -0.00092   0.00284   0.00284   0.00284   0.00285
           A5          -0.00092   0.00284   0.00284   0.00284   0.00284
           A6          -0.00092   0.00285   0.00285   0.00285   0.00285
           A7           0.00086  -0.00267  -0.00268  -0.00267  -0.00268
           A8           0.00086  -0.00267  -0.00267  -0.00267  -0.00267
           A9           0.00086  -0.00266  -0.00266  -0.00266  -0.00267
           A10         -0.00092   0.00285   0.00285   0.00285   0.00285
           A11         -0.00092   0.00285   0.00285   0.00285   0.00285
           A12         -0.00091   0.00284   0.00284   0.00284   0.00284
           D1           0.00001  -0.00003  -0.00003  -0.00003  -0.00003
           D2           0.00001  -0.00003  -0.00003  -0.00003  -0.00003
           D3           0.00001  -0.00003  -0.00003  -0.00003  -0.00003
           D4           0.00001  -0.00003  -0.00003  -0.00003  -0.00003
           D5           0.00001  -0.00003  -0.00003  -0.00003  -0.00003
           D6           0.00001  -0.00003  -0.00003  -0.00003  -0.00003
           D7           0.00001  -0.00003  -0.00003  -0.00003  -0.00003
           D8           0.00001  -0.00003  -0.00003  -0.00003  -0.00003
           D9           0.00001  -0.00003  -0.00003  -0.00003  -0.00003
                          R6        R7        A1        A2        A3
           R6           0.34932
           R7           0.00147   0.34934
           A1          -0.00266  -0.00266   0.15995
           A2          -0.00268  -0.00268  -0.00004   0.15996
           A3          -0.00267  -0.00267  -0.00004  -0.00004   0.15996
           A4           0.00284   0.00284   0.00005   0.00005   0.00005
           A5           0.00284   0.00284   0.00005   0.00005   0.00005
           A6           0.00285   0.00285   0.00005   0.00005   0.00005
           A7          -0.00268  -0.00268  -0.00004  -0.00004  -0.00004
           A8          -0.00267  -0.00267  -0.00004  -0.00004  -0.00004
           A9          -0.00266  -0.00266  -0.00004  -0.00004  -0.00004
           A10          0.00285   0.00285   0.00005   0.00005   0.00005
           A11          0.00285   0.00285   0.00005   0.00005   0.00005
           A12          0.00284   0.00284   0.00005   0.00005   0.00005
           D1          -0.00003  -0.00003  -0.00000  -0.00000  -0.00000
           D2          -0.00003  -0.00003  -0.00000  -0.00000  -0.00000
           D3          -0.00003  -0.00003  -0.00000  -0.00000  -0.00000
           D4          -0.00003  -0.00003  -0.00000  -0.00000  -0.00000
           D5          -0.00003  -0.00003  -0.00000  -0.00000  -0.00000
           D6          -0.00003  -0.00003  -0.00000  -0.00000  -0.00000
           D7          -0.00003  -0.00003  -0.00000  -0.00000  -0.00000
           D8          -0.00003  -0.00003  -0.00000  -0.00000  -0.00000
           D9          -0.00003  -0.00003  -0.00000  -0.00000  -0.00000
                          A4        A5        A6        A7        A8
           A4           0.15995
           A5          -0.00005   0.15995
           A6          -0.00005  -0.00005   0.15995
           A7           0.00005   0.00005   0.00005   0.15996
           A8           0.00005   0.00005   0.00005  -0.00004   0.15996
           A9           0.00005   0.00005   0.00005  -0.00004  -0.00004
           A10         -0.00005  -0.00005  -0.00005   0.00005   0.00005
           A11         -0.00005  -0.00005  -0.00005   0.00005   0.00005
           A12         -0.00005  -0.00005  -0.00005   0.00005   0.00005
           D1           0.00000   0.00000   0.00000  -0.00000  -0.00000
           D2           0.00000   0.00000   0.00000  -0.00000  -0.00000
           D3           0.00000   0.00000   0.00000  -0.00000  -0.00000
           D4           0.00000   0.00000   0.00000  -0.00000  -0.00000
           D5           0.00000   0.00000   0.00000  -0.00000  -0.00000
           D6           0.00000   0.00000   0.00000  -0.00000  -0.00000
           D7           0.00000   0.00000   0.00000  -0.00000  -0.00000
           D8           0.00000   0.00000   0.00000  -0.00000  -0.00000
           D9           0.00000   0.00000   0.00000  -0.00000  -0.00000
                          A9        A10       A11       A12       D1
           A9           0.15996
           A10          0.00005   0.15995
           A11          0.00005  -0.00005   0.15995
           A12          0.00005  -0.00005  -0.00005   0.15995
           D1          -0.00000   0.00000   0.00000   0.00000   0.00420
           D2          -0.00000   0.00000   0.00000   0.00000  -0.00000
           D3          -0.00000   0.00000   0.00000   0.00000  -0.00000
           D4          -0.00000   0.00000   0.00000   0.00000  -0.00000
           D5          -0.00000   0.00000   0.00000   0.00000  -0.00000
           D6          -0.00000   0.00000   0.00000   0.00000  -0.00000
           D7          -0.00000   0.00000   0.00000   0.00000  -0.00000
           D8          -0.00000   0.00000   0.00000   0.00000  -0.00000
           D9          -0.00000   0.00000   0.00000   0.00000  -0.00000
                          D2        D3        D4        D5        D6
           D2           0.00420
           D3          -0.00000   0.00420
           D4          -0.00000  -0.00000   0.00420
           D5          -0.00000  -0.00000  -0.00000   0.00420
           D6          -0.00000  -0.00000  -0.00000  -0.00000   0.00420
           D7          -0.00000  -0.00000  -0.00000  -0.00000  -0.00000
           D8          -0.00000  -0.00000  -0.00000  -0.00000  -0.00000
           D9          -0.00000  -0.00000  -0.00000  -0.00000  -0.00000
                          D7        D8        D9
           D7           0.00420
           D8          -0.00000   0.00420
           D9          -0.00000  -0.00000   0.00420
 ITU=  1  0
 Use linear search instead of GDIIS.
 Eigenvectors of the second derivative matrix:
                           1         2         3         4         5
     Eigenvalues --     0.00419   0.05505   0.05505   0.05505   0.05505
   1         R1         0.00018   0.00000  -0.00001   0.00000   0.00000
   2         R2        -0.00024  -0.00000   0.00000  -0.00000  -0.00000
   3         R3        -0.00024  -0.00000   0.00000  -0.00000  -0.00000
   4         R4        -0.00024  -0.00000   0.00000  -0.00000  -0.00000
   5         R5        -0.00024  -0.00000   0.00000  -0.00000  -0.00000
   6         R6        -0.00024  -0.00000   0.00000  -0.00000  -0.00000
   7         R7        -0.00024  -0.00000   0.00000  -0.00000  -0.00000
   8         A1        -0.00007   0.10577   0.00008   0.00004   0.19204
   9         A2        -0.00007  -0.21920  -0.00020   0.00002  -0.00442
  10         A3        -0.00007   0.11343   0.00012  -0.00006  -0.18762
  11         A4         0.00008  -0.21303  -0.00023   0.00012   0.35237
  12         A5         0.00008   0.41167   0.00037  -0.00004   0.00830
  13         A6         0.00008  -0.19865  -0.00015  -0.00007  -0.36067
  14         A7        -0.00007   0.00019  -0.21549  -0.04038  -0.00001
  15         A8        -0.00007  -0.00015   0.14271  -0.16644   0.00005
  16         A9        -0.00007  -0.00004   0.07279   0.20681  -0.00005
  17         A10        0.00008   0.00008  -0.13669  -0.38840   0.00009
  18         A11        0.00008   0.00028  -0.26803   0.31258  -0.00010
  19         A12        0.00008  -0.00036   0.40471   0.07583   0.00002
  20         D1        -0.33333   0.33878   0.07157  -0.38036  -0.18655
  21         D2        -0.33333   0.33865   0.29403   0.25175  -0.18669
  22         D3        -0.33333   0.33924  -0.36463   0.12835  -0.18671
  23         D4        -0.33333  -0.00791   0.07121  -0.38018   0.38692
  24         D5        -0.33333  -0.00804   0.29366   0.25194   0.38677
  25         D6        -0.33333  -0.00746  -0.36499   0.12854   0.38675
  26         D7        -0.33333  -0.33120   0.07096  -0.38029  -0.20006
  27         D8        -0.33333  -0.33133   0.29342   0.25183  -0.20020
  28         D9        -0.33333  -0.33074  -0.36523   0.12842  -0.20023
                           6         7         8         9        10
     Eigenvalues --     0.15651   0.16000   0.16000   0.16000   0.16000
   1         R1        -0.03636  -0.00000   0.00000  -0.00000  -0.00000
   2         R2         0.04856   0.00000  -0.00000   0.00000   0.00000
   3         R3         0.04859   0.00000  -0.00000   0.00000   0.00000
   4         R4         0.04858   0.00000  -0.00000   0.00000   0.00000
   5         R5         0.04862   0.00000  -0.00000   0.00000   0.00000
   6         R6         0.04860   0.00000  -0.00000   0.00000   0.00000
   7         R7         0.04858   0.00000  -0.00000   0.00000   0.00000
   8         A1         0.27709   0.37898   0.10187   0.13321  -0.47886
   9         A2         0.27749   0.40709   0.24854   0.13821   0.35113
  10         A3         0.27743  -0.03449  -0.51456  -0.37224   0.36503
  11         A4        -0.29529  -0.41855  -0.18658  -0.14452   0.06801
  12         A5        -0.29526  -0.18343   0.21974   0.12727   0.06061
  13         A6        -0.29547  -0.19839   0.14164   0.12461  -0.38132
  14         A7         0.27763  -0.14621  -0.45873   0.20785  -0.38153
  15         A8         0.27708  -0.21884   0.42436  -0.57805  -0.16503
  16         A9         0.27701  -0.38685   0.19928   0.47102   0.30915
  17         A10       -0.29536   0.19438   0.01830   0.19712   0.29102
  18         A11       -0.29532   0.28383   0.13815  -0.36147   0.03854
  19         A12       -0.29504   0.32251  -0.33206   0.05699  -0.07674
  20         D1        -0.00012  -0.00000   0.00000  -0.00000  -0.00000
  21         D2        -0.00011  -0.00000   0.00000  -0.00000  -0.00000
  22         D3        -0.00011  -0.00000   0.00000  -0.00000  -0.00000
  23         D4        -0.00012  -0.00000   0.00000  -0.00000  -0.00000
  24         D5        -0.00011  -0.00000   0.00000  -0.00000  -0.00000
  25         D6        -0.00011  -0.00000   0.00000  -0.00000  -0.00000
  26         D7        -0.00012  -0.00000   0.00000  -0.00000  -0.00000
  27         D8        -0.00012  -0.00000   0.00000  -0.00000  -0.00000
  28         D9        -0.00011  -0.00000   0.00000  -0.00000  -0.00000
                          11        12        13        14        15
     Eigenvalues --     0.16000   0.29024   0.34786   0.34787   0.34787
   1         R1        -0.00002  -0.97426  -0.00032   0.00020  -0.00035
   2         R2         0.00005   0.08839   0.89152   0.16981   0.00619
   3         R3         0.00005   0.08855  -0.14002  -0.23844  -0.08664
   4         R4         0.00005   0.08856  -0.35991   0.82606   0.02949
   5         R5         0.00005   0.08859  -0.07683  -0.08659  -0.01244
   6         R6         0.00005   0.08857  -0.15952  -0.31539  -0.67302
   7         R7         0.00005   0.08843  -0.15719  -0.35351   0.73381
   8         A1        -0.44336  -0.01721   0.00003  -0.00002   0.00004
   9         A2         0.47698  -0.01728   0.00003  -0.00002   0.00004
  10         A3        -0.24425  -0.01724   0.00003  -0.00002   0.00004
  11         A4        -0.01790   0.01837  -0.00003   0.00002  -0.00004
  12         A5         0.36612   0.01835  -0.00003   0.00002  -0.00004
  13         A6        -0.12392   0.01838  -0.00003   0.00002  -0.00004
  14         A7         0.42040  -0.01728   0.00003  -0.00002   0.00004
  15         A8         0.09090  -0.01724   0.00003  -0.00002   0.00004
  16         A9        -0.30143  -0.01722   0.00003  -0.00002   0.00004
  17         A10       -0.27224   0.01838  -0.00003   0.00002  -0.00004
  18         A11       -0.06334   0.01837  -0.00003   0.00002  -0.00004
  19         A12        0.11210   0.01834  -0.00003   0.00002  -0.00004
  20         D1        -0.00000  -0.00010   0.00000  -0.00000   0.00000
  21         D2        -0.00000  -0.00010   0.00000  -0.00000   0.00000
  22         D3        -0.00000  -0.00009   0.00000  -0.00000   0.00000
  23         D4        -0.00000  -0.00010   0.00000  -0.00000   0.00000
  24         D5        -0.00000  -0.00010   0.00000  -0.00000   0.00000
  25         D6        -0.00000  -0.00009   0.00000  -0.00000   0.00000
  26         D7        -0.00000  -0.00010   0.00000  -0.00000   0.00000
  27         D8        -0.00000  -0.00010   0.00000  -0.00000   0.00000
  28         D9        -0.00000  -0.00009   0.00000  -0.00000   0.00000
                          16        17        18
     Eigenvalues --     0.34787   0.34787   0.36299
   1         R1        -0.00010   0.00007   0.22248
   2         R2         0.02940  -0.09117   0.39620
   3         R3        -0.82701  -0.25617   0.39531
   4         R4         0.06161  -0.13224   0.39463
   5         R5        -0.03952   0.90456   0.39552
   6         R6         0.45687  -0.21707   0.39507
   7         R7         0.31797  -0.20791   0.39664
   8         A1         0.00001  -0.00001  -0.03013
   9         A2         0.00001  -0.00001  -0.03028
  10         A3         0.00001  -0.00001  -0.03019
  11         A4        -0.00001   0.00001   0.03216
  12         A5        -0.00001   0.00001   0.03212
  13         A6        -0.00001   0.00001   0.03219
  14         A7         0.00001  -0.00001  -0.03028
  15         A8         0.00001  -0.00001  -0.03019
  16         A9         0.00001  -0.00001  -0.03014
  17         A10       -0.00001   0.00001   0.03220
  18         A11       -0.00001   0.00001   0.03218
  19         A12       -0.00001   0.00001   0.03212
  20         D1         0.00000  -0.00000  -0.00017
  21         D2         0.00000  -0.00000  -0.00017
  22         D3         0.00000  -0.00000  -0.00016
  23         D4         0.00000  -0.00000  -0.00017
  24         D5         0.00000  -0.00000  -0.00017
  25         D6         0.00000  -0.00000  -0.00016
  26         D7         0.00000  -0.00000  -0.00017
  27         D8         0.00000  -0.00000  -0.00017
  28         D9         0.00000  -0.00000  -0.00016
 Iter=   1 RLamda= 0.00000000D+00 Sum=-3.02137786D-06.
 Iter=   2 RLamda=-3.02137786D-06 Sum=-3.02131962D-06.
 RFO step:  Lambda=-3.02137786D-06 EMin= 4.19456758D-03
 Quartic linear search produced a step of  0.00609.
 Iteration  1 RMS(Cart)=  0.00077258 RMS(Int)=  0.00000069
 Iteration  2 RMS(Cart)=  0.00000067 RMS(Int)=  0.00000036
 ITry= 1 IFail=0 DXMaxC= 1.33D-03 DCOld= 1.00D+10 DXMaxT= 3.00D-01 DXLimC= 3.00D+00 Rises=F
 Variable       Old X    -DE/DX   Delta X   Delta X   Delta X     New X
                                 (Linear)    (Quad)   (Total)
    R1        2.87970  -0.00044  -0.00003  -0.00151  -0.00154   2.87816
    R2        2.07057  -0.00003   0.00006  -0.00003   0.00004   2.07061
    R3        2.07057  -0.00003   0.00006  -0.00003   0.00004   2.07061
    R4        2.07057  -0.00003   0.00006  -0.00003   0.00004   2.07061
    R5        2.07057  -0.00003   0.00006  -0.00003   0.00004   2.07061
    R6        2.07057  -0.00003   0.00006  -0.00003   0.00004   2.07061
    R7        2.07057  -0.00003   0.00006  -0.00003   0.00004   2.07061
    A1        1.94247   0.00017   0.00000   0.00107   0.00108   1.94355
    A2        1.94247   0.00017   0.00000   0.00108   0.00108   1.94355
    A3        1.94247   0.00017   0.00000   0.00107   0.00108   1.94355
    A4        1.87774  -0.00018  -0.00000  -0.00114  -0.00115   1.87659
    A5        1.87775  -0.00018  -0.00000  -0.00114  -0.00115   1.87660
    A6        1.87774  -0.00018  -0.00000  -0.00115  -0.00115   1.87659
    A7        1.94247   0.00017   0.00000   0.00108   0.00108   1.94355
    A8        1.94247   0.00017   0.00000   0.00107   0.00108   1.94355
    A9        1.94247   0.00017   0.00000   0.00107   0.00108   1.94355
   A10        1.87774  -0.00018  -0.00000  -0.00115  -0.00115   1.87659
   A11        1.87775  -0.00018  -0.00000  -0.00115  -0.00115   1.87660
   A12        1.87775  -0.00018  -0.00000  -0.00114  -0.00115   1.87660
    D1        1.04636   0.00000   0.00001   0.00049   0.00050   1.04686
    D2       -1.04804   0.00000   0.00001   0.00049   0.00050  -1.04754
    D3        3.14075   0.00000   0.00001   0.00049   0.00050   3.14125
    D4        3.14075   0.00000   0.00001   0.00049   0.00050   3.14125
    D5        1.04636   0.00000   0.00001   0.00049   0.00050   1.04686
    D6       -1.04804   0.00000   0.00001   0.00049   0.00050  -1.04754
    D7       -1.04804   0.00000   0.00001   0.00049   0.00050  -1.04754
    D8        3.14075   0.00000   0.00001   0.00049   0.00050   3.14125
    D9        1.04636   0.00000   0.00001   0.00049   0.00050   1.04685
         Item               Value     Threshold  Converged?
 Maximum Force            0.000439     0.000450     YES
 RMS     Force            0.000143     0.000300     YES
 Maximum Displacement     0.001327     0.001800     YES
 RMS     Displacement     0.000773     0.001200     YES
 Predicted change in Energy=-1.513866D-06
 Optimization completed.
    -- Stationary point found.
                           ----------------------------
                           !   Optimized Parameters   !
                           ! (Angstroms and Degrees)  !
 --------------------------                            --------------------------
 ! Name  Definition              Value          Derivative Info.                !
 --------------------------------------------------------------------------------
 ! R1    R(1,2)                  1.5239         -DE/DX =   -0.0004              !
 ! R2    R(1,4)                  1.0957         -DE/DX =    0.0                 !
 ! R3    R(1,7)                  1.0957         -DE/DX =    0.0                 !
 ! R4    R(1,8)                  1.0957         -DE/DX =    0.0                 !
 ! R5    R(2,3)                  1.0957         -DE/DX =    0.0                 !
 ! R6    R(2,5)                  1.0957         -DE/DX =    0.0                 !
 ! R7    R(2,6)                  1.0957         -DE/DX =    0.0                 !
 ! A1    A(2,1,4)              111.2956         -DE/DX =    0.0002              !
 ! A2    A(2,1,7)              111.2955         -DE/DX =    0.0002              !
 ! A3    A(2,1,8)              111.2956         -DE/DX =    0.0002              !
 ! A4    A(4,1,7)              107.5869         -DE/DX =   -0.0002              !
 ! A5    A(4,1,8)              107.5869         -DE/DX =   -0.0002              !
 ! A6    A(7,1,8)              107.5868         -DE/DX =   -0.0002              !
 ! A7    A(1,2,3)              111.2955         -DE/DX =    0.0002              !
 ! A8    A(1,2,5)              111.2956         -DE/DX =    0.0002              !
 ! A9    A(1,2,6)              111.2956         -DE/DX =    0.0002              !
 ! A10   A(3,2,5)              107.5868         -DE/DX =   -0.0002              !
 ! A11   A(3,2,6)              107.5869         -DE/DX =   -0.0002              !
 ! A12   A(5,2,6)              107.5869         -DE/DX =   -0.0002              !
 ! D1    D(4,1,2,3)             59.9519         -DE/DX =    0.0                 !
 ! D2    D(4,1,2,5)            -60.048          -DE/DX =    0.0                 !
 ! D3    D(4,1,2,6)            179.9519         -DE/DX =    0.0                 !
 ! D4    D(7,1,2,3)            179.9518         -DE/DX =    0.0                 !
 ! D5    D(7,1,2,5)             59.9519         -DE/DX =    0.0                 !
 ! D6    D(7,1,2,6)            -60.0482         -DE/DX =    0.0                 !
 ! D7    D(8,1,2,3)            -60.0483         -DE/DX =    0.0                 !
 ! D8    D(8,1,2,5)            179.9518         -DE/DX =    0.0                 !
 ! D9    D(8,1,2,6)             59.9518         -DE/DX =    0.0                 !
 --------------------------------------------------------------------------------
 Lowest energy point so far.  Saving SCF results.
 Largest change from initial coordinates is atom    7       2.046 Angstoms.
 GradGradGradGradGradGradGradGradGradGradGradGradGradGradGradGradGradGrad

 Leave Link  103 at Wed Oct  7 13:38:06 2020, MaxMem=  2684354560 cpu:               2.0 elap:               0.8
 (Enter /udrive/faculty/rpeverati/g16/g16/l202.exe)
                          Input orientation:                          
 ---------------------------------------------------------------------
 Center     Atomic      Atomic             Coordinates (Angstroms)
 Number     Number       Type             X           Y           Z
 ---------------------------------------------------------------------
      1          6           0       -0.761936   -0.000001   -0.000000
      2          6           0        0.761936    0.000000    0.000002
      3          1           0        1.159871   -0.445316   -0.918637
      4          1           0       -1.159871   -1.018161   -0.074520
      5          1           0        1.159871   -0.572907    0.844976
      6          1           0        1.159871    1.018223    0.073667
      7          1           0       -1.159870    0.444543    0.919013
      8          1           0       -1.159871    0.573617   -0.844492
 ---------------------------------------------------------------------
                    Distance matrix (angstroms):
                    1          2          3          4          5
     1  C    0.000000
     2  C    1.523872   0.000000
     3  H    2.176129   1.095699   0.000000
     4  H    1.095699   2.176132   2.534144   0.000000
     5  H    2.176131   1.095699   1.768222   2.534744   0.000000
     6  H    2.176132   1.095699   1.768223   3.090311   1.768223
     7  H    1.095699   2.176130   3.090308   1.768222   2.534144
     8  H    1.095699   2.176132   2.534743   1.768223   3.090311
                    6          7          8
     6  H    0.000000
     7  H    2.534742   0.000000
     8  H    2.534146   1.768222   0.000000
 Stoichiometry    C2H6
 Framework group  C1[X(C2H6)]
 Deg. of freedom    18
 Full point group                 C1      NOp   1
 RotChk:  IX=0 Diff= 2.15D-10
 Largest Abelian subgroup         C1      NOp   1
 Largest concise Abelian subgroup C1      NOp   1
                         Standard orientation:                         
 ---------------------------------------------------------------------
 Center     Atomic      Atomic             Coordinates (Angstroms)
 Number     Number       Type             X           Y           Z
 ---------------------------------------------------------------------
      1          6           0       -0.761936   -0.000000   -0.000000
      2          6           0        0.761936    0.000000   -0.000000
      3          1           0        1.159869   -0.386767   -0.944784
      4          1           0       -1.159872   -1.011474   -0.138291
      5          1           0        1.159872   -0.624824    0.807340
      6          1           0        1.159872    1.011590    0.137442
      7          1           0       -1.159869    0.385972    0.945108
      8          1           0       -1.159872    0.625502   -0.806815
 ---------------------------------------------------------------------
 Rotational constants (GHZ):          80.1914660          20.0394889          20.0394844
 Leave Link  202 at Wed Oct  7 13:38:06 2020, MaxMem=  2684354560 cpu:               1.3 elap:               0.6
 (Enter /udrive/faculty/rpeverati/g16/g16/l601.exe)
 Copying SCF densities to generalized density rwf, IOpCl= 0 IROHF=0.

 **********************************************************************

            Population analysis using the SCF density.

 **********************************************************************

 Orbital symmetries:
       Occupied  (A) (A) (A) (A) (A) (A) (A) (A) (A)
       Virtual   (A) (A) (A) (A) (A) (A) (A) (A) (A) (A) (A) (A)
                 (A) (A) (A) (A) (A) (A) (A) (A) (A) (A) (A) (A)
                 (A) (A) (A) (A) (A) (A) (A)
 The electronic state is 1-A.
 Alpha  occ. eigenvalues --  -10.20963 -10.20946  -0.77075  -0.62887  -0.44291
 Alpha  occ. eigenvalues --   -0.44291  -0.37485  -0.34824  -0.34824
 Alpha virt. eigenvalues --    0.11875   0.17199   0.17607   0.17607   0.20330
 Alpha virt. eigenvalues --    0.20330   0.25388   0.52887   0.56315   0.56315
 Alpha virt. eigenvalues --    0.65631   0.65631   0.69782   0.90871   0.90871
 Alpha virt. eigenvalues --    0.93394   0.94683   0.94683   1.00764   1.09370
 Alpha virt. eigenvalues --    1.46467   1.53158   1.53158   1.95458   1.99477
 Alpha virt. eigenvalues --    1.99477   2.29060   2.29060   2.34994   2.34994
 Alpha virt. eigenvalues --    2.61313
          Condensed to atoms (all electrons):
               1          2          3          4          5          6
     1  C    5.117705   0.355176  -0.035523   0.385163  -0.035523  -0.035523
     2  C    0.355176   5.117705   0.385163  -0.035523   0.385163   0.385163
     3  H   -0.035523   0.385163   0.540176  -0.003677  -0.030429  -0.030429
     4  H    0.385163  -0.035523  -0.003677   0.540176  -0.003662   0.004449
     5  H   -0.035523   0.385163  -0.030429  -0.003662   0.540176  -0.030429
     6  H   -0.035523   0.385163  -0.030429   0.004449  -0.030429   0.540176
     7  H    0.385163  -0.035523   0.004449  -0.030429  -0.003677  -0.003662
     8  H    0.385163  -0.035523  -0.003662  -0.030429   0.004449  -0.003677
               7          8
     1  C    0.385163   0.385163
     2  C   -0.035523  -0.035523
     3  H    0.004449  -0.003662
     4  H   -0.030429  -0.030429
     5  H   -0.003677   0.004449
     6  H   -0.003662  -0.003677
     7  H    0.540176  -0.030429
     8  H   -0.030429   0.540175
 Mulliken charges:
               1
     1  C   -0.521800
     2  C   -0.521800
     3  H    0.173933
     4  H    0.173933
     5  H    0.173933
     6  H    0.173933
     7  H    0.173933
     8  H    0.173933
 Sum of Mulliken charges =  -0.00000
 Mulliken charges with hydrogens summed into heavy atoms:
               1
     1  C    0.000000
     2  C   -0.000000
 Electronic spatial extent (au):  <R**2>=            109.0794
 Charge=             -0.0000 electrons
 Dipole moment (field-independent basis, Debye):
    X=             -0.0000    Y=             -0.0000    Z=              0.0000  Tot=              0.0000
 Quadrupole moment (field-independent basis, Debye-Ang):
   XX=            -15.1760   YY=            -14.6358   ZZ=            -14.6358
   XY=             -0.0000   XZ=              0.0000   YZ=             -0.0000
 Traceless Quadrupole moment (field-independent basis, Debye-Ang):
   XX=             -0.3601   YY=              0.1801   ZZ=              0.1801
   XY=             -0.0000   XZ=              0.0000   YZ=             -0.0000
 Octapole moment (field-independent basis, Debye-Ang**2):
  XXX=             -0.0000  YYY=              0.0006  ZZZ=              0.0013  XYY=             -0.0000
  XXY=             -0.0000  XXZ=              0.0000  XZZ=              0.0000  YZZ=             -0.0006
  YYZ=             -0.0013  XYZ=              0.0000
 Hexadecapole moment (field-independent basis, Debye-Ang**3):
 XXXX=            -92.0728 YYYY=            -28.2845 ZZZZ=            -28.2845 XXXY=              0.0000
 XXXZ=              0.0000 YYYX=              1.2920 YYYZ=             -0.0000 ZZZX=             -0.5560
 ZZZY=              0.0000 XXYY=            -18.7716 XXZZ=            -18.7716 YYZZ=             -9.4282
 XXYZ=             -0.0000 YYXZ=              0.5560 ZZXY=             -1.2920
 N-N= 4.220415490083D+01 E-N=-2.684935570111D+02  KE= 7.924617636526D+01
 No NMR shielding tensors so no spin-rotation constants.
 Leave Link  601 at Wed Oct  7 13:38:07 2020, MaxMem=  2684354560 cpu:               2.8 elap:               0.6
 (Enter /udrive/faculty/rpeverati/g16/g16/l9999.exe)

 Test job not archived.
 1\1\GINC-NODE61\FOpt\RPBE1PBE\6-31G(d)\C2H6\RPEVERATI\07-Oct-2020\0\\#
 P Opt(MaxCyc=100) PBE1PBE/6-31G* 5D 7F Integral=UltraFineGrid SCF=(NoS
 ymm,XQC,MaxCyc=120) IOp(1/33=1)\\TS search on BH76.\\0,1\C,-0.76193603
 83,-0.0000007084,-0.0000003143\C,0.7619361367,0.0000001796,0.000001722
 7\H,1.1598705468,-0.4453161936,-0.9186368738\H,-1.1598710305,-1.018161
 1406,-0.0745203028\H,1.1598707245,-0.5729074807,0.8449756962\H,1.15987
 10791,1.0182229032,0.0736669786\H,-1.1598704439,0.4445428924,0.9190125
 433\H,-1.1598709745,0.5736169024,-0.8444920415\\Version=ES64L-G16RevA.
 03\State=1-A\HF=-79.7187972\RMSD=4.577e-10\RMSF=2.724e-04\Dipole=0.,0.
 ,0.0000001\Quadrupole=-0.267753,0.1338793,0.1338736,0.,0.0000031,-0.00
 00004\PG=C01 [X(C2H6)]\\@


 THE THINKER DIES, BUT HIS THOUGHTS ARE BEYOND THE 
 REACH OF DESTRUCTION.  MEN ARE MORTAL; BUT IDEAS 
 ARE IMMORTAL.
                              -- WALTER LIPPMANN
 Job cpu time:       0 days  0 hours  2 minutes  7.3 seconds.
 Elapsed time:       0 days  0 hours  0 minutes 23.1 seconds.
 File lengths (MBytes):  RWF=      5 Int=      0 D2E=      0 Chk=      1 Scr=      1
 Normal termination of Gaussian 16 at Wed Oct  7 13:38:09 2020.
