 Entering Gaussian System, Link 0=g16
 Input=MN_22_ch3_lower_BH76_PBE0_631Gs.in
 Output=MN_22_ch3_lower_BH76_PBE0_631Gs.log
 Initial command:
 /udrive/faculty/rpeverati/g16/g16/l1.exe "/udrive/scratch-directories/gaussian09/rpeverati/Gau-4835.inp" -scrdir="/udrive/scratch-directories/gaussian09/rpeverati/"
 Entering Link 1 = /udrive/faculty/rpeverati/g16/g16/l1.exe PID=      4854.
  
 Copyright (c) 1988,1990,1992,1993,1995,1998,2003,2009,2016,
            Gaussian, Inc.  All Rights Reserved.
  
 This is part of the Gaussian(R) 16 program.  It is based on
 the Gaussian(R) 09 system (copyright 2009, Gaussian, Inc.),
 the Gaussian(R) 03 system (copyright 2003, Gaussian, Inc.),
 the Gaussian(R) 98 system (copyright 1998, Gaussian, Inc.),
 the Gaussian(R) 94 system (copyright 1995, Gaussian, Inc.),
 the Gaussian 92(TM) system (copyright 1992, Gaussian, Inc.),
 the Gaussian 90(TM) system (copyright 1990, Gaussian, Inc.),
 the Gaussian 88(TM) system (copyright 1988, Gaussian, Inc.),
 the Gaussian 86(TM) system (copyright 1986, Carnegie Mellon
 University), and the Gaussian 82(TM) system (copyright 1983,
 Carnegie Mellon University). Gaussian is a federally registered
 trademark of Gaussian, Inc.
  
 This software contains proprietary and confidential information,
 including trade secrets, belonging to Gaussian, Inc.
  
 This software is provided under written license and may be
 used, copied, transmitted, or stored only in accord with that
 written license.
  
 The following legend is applicable only to US Government
 contracts under FAR:
  
                    RESTRICTED RIGHTS LEGEND
  
 Use, reproduction and disclosure by the US Government is
 subject to restrictions as set forth in subparagraphs (a)
 and (c) of the Commercial Computer Software - Restricted
 Rights clause in FAR 52.227-19.
  
 Gaussian, Inc.
 340 Quinnipiac St., Bldg. 40, Wallingford CT 06492
  
  
 ---------------------------------------------------------------
 Warning -- This program may not be used in any manner that
 competes with the business of Gaussian, Inc. or will provide
 assistance to any competitor of Gaussian, Inc.  The licensee
 of this program is prohibited from giving any competitor of
 Gaussian, Inc. access to this program.  By using this program,
 the user acknowledges that Gaussian, Inc. is engaged in the
 business of creating and licensing software in the field of
 computational chemistry and represents and warrants to the
 licensee that it is not a competitor of Gaussian, Inc. and that
 it will not use this program in any manner prohibited above.
 ---------------------------------------------------------------
  

 Cite this work as:
 Gaussian 16, Revision A.03,
 M. J. Frisch, G. W. Trucks, H. B. Schlegel, G. E. Scuseria, 
 M. A. Robb, J. R. Cheeseman, G. Scalmani, V. Barone, 
 G. A. Petersson, H. Nakatsuji, X. Li, M. Caricato, A. V. Marenich, 
 J. Bloino, B. G. Janesko, R. Gomperts, B. Mennucci, H. P. Hratchian, 
 J. V. Ortiz, A. F. Izmaylov, J. L. Sonnenberg, D. Williams-Young, 
 F. Ding, F. Lipparini, F. Egidi, J. Goings, B. Peng, A. Petrone, 
 T. Henderson, D. Ranasinghe, V. G. Zakrzewski, J. Gao, N. Rega, 
 G. Zheng, W. Liang, M. Hada, M. Ehara, K. Toyota, R. Fukuda, 
 J. Hasegawa, M. Ishida, T. Nakajima, Y. Honda, O. Kitao, H. Nakai, 
 T. Vreven, K. Throssell, J. A. Montgomery, Jr., J. E. Peralta, 
 F. Ogliaro, M. J. Bearpark, J. J. Heyd, E. N. Brothers, K. N. Kudin, 
 V. N. Staroverov, T. A. Keith, R. Kobayashi, J. Normand, 
 K. Raghavachari, A. P. Rendell, J. C. Burant, S. S. Iyengar, 
 J. Tomasi, M. Cossi, J. M. Millam, M. Klene, C. Adamo, R. Cammi, 
 J. W. Ochterski, R. L. Martin, K. Morokuma, O. Farkas, 
 J. B. Foresman, and D. J. Fox, Gaussian, Inc., Wallingford CT, 2016.
 
 ******************************************
 Gaussian 16:  ES64L-G16RevA.03 25-Dec-2016
                 7-Oct-2020 
 ******************************************
 %NoSave
 %nproc=12
 Will use up to   12 processors via shared memory.
 %mem=20GB
 %chk=MN_22_ch3_lower_BH76_PBE0_631Gs
 ----------------------------------------------------------------------
 #P Opt(MaxCyc=100) PBE1PBE/6-31G* 5D 7F Integral=UltraFineGrid SCF=(No
 Symm,XQC,MaxCyc=120) IOp(1/33=1)
 ----------------------------------------------------------------------
 1/6=100,18=20,19=15,26=4,33=1,38=1/1,3;
 2/9=110,12=2,17=6,18=5,40=1/2;
 3/5=1,6=6,7=1,8=11,11=2,25=1,30=1,71=1,74=-13,75=-5/1,2,3;
 4/9=2/1;
 5/5=2,7=120,8=3,13=1,38=5/2,8;
 6/7=2,8=2,9=2,10=2,28=1/1;
 7//1,2,3,16;
 1/6=100,18=20,19=15,26=4,33=1/3(2);
 2/9=110/2;
 99//99;
 2/9=110/2;
 3/5=1,6=6,7=1,8=11,11=2,25=1,30=1,71=1,74=-13,75=-5/1,2,3;
 4/5=5,9=2,16=3,69=1/1;
 5/5=2,7=120,8=3,13=1,38=5/2,8;
 7//1,2,3,16;
 1/6=100,18=20,19=15,26=4,33=1/3(-5);
 2/9=110/2;
 6/7=2,8=2,9=2,10=2,19=2,28=1/1;
 99/9=1/99;
 Leave Link    1 at Wed Oct  7 13:38:14 2020, MaxMem=  2684354560 cpu:               8.5 elap:               0.8
 (Enter /udrive/faculty/rpeverati/g16/g16/l101.exe)
 ONIOM data not found on unit 2.
 ------------------
 TS search on BH76.
 ------------------
 TstMul:  ICh=     0
 TstMul:  Mul=     2
 TstMul:  ICh=     0
 TstMul:  Mul=     2
 Symbolic Z-matrix:
 Charge =  0 Multiplicity = 2
 C                     0.        0.        0. 
 H                     0.53866   0.93298   0. 
 H                     0.53866  -0.93298   0. 
 H                    -1.07732   0.        0. 
 
 RdStrC is calling ZToCFu for IStruc=1 NZ=     4.
 PrtBox:  NBox=     1 Levels=  1 BoxLen=    8.00 SMaxX=        3.53
          Shift=            2.035833            1.763083            0.000000
 Box      1 Number                   0 centers from      1 to      4:
 After GenITR:
 ITRead=  0  0  0  0
 MicOpt= -1 -1 -1 -1
 ITRead=  0  0  0  0
 MicOpt= -1 -1 -1 -1
 NAtoms=      4 NQM=        4 NQMF=       0 NMMI=      0 NMMIF=      0
                NMic=       0 NMicF=      0.
                    Isotopes and Nuclear Properties:
 (Nuclear quadrupole moments (NQMom) in fm**2, nuclear magnetic moments (NMagM)
  in nuclear magnetons)

  Atom         1           2           3           4
 IAtWgt=          12           1           1           1
 AtmWgt=  12.0000000   1.0078250   1.0078250   1.0078250
 NucSpn=           0           1           1           1
 AtZEff=   0.0000000   0.0000000   0.0000000   0.0000000
 NQMom=    0.0000000   0.0000000   0.0000000   0.0000000
 NMagM=    0.0000000   2.7928460   2.7928460   2.7928460
 AtZNuc=   6.0000000   1.0000000   1.0000000   1.0000000
 No MM parameters found.
 Leave Link  101 at Wed Oct  7 13:38:15 2020, MaxMem=  2684354560 cpu:               9.5 elap:               0.9
 (Enter /udrive/faculty/rpeverati/g16/g16/l103.exe)

 GradGradGradGradGradGradGradGradGradGradGradGradGradGradGradGradGradGrad
 Berny optimization.
 Optmz: redundant internal coordinate code flag= 1
 Initialization pass.
                           ----------------------------
                           !    Initial Parameters    !
                           ! (Angstroms and Degrees)  !
 --------------------------                            --------------------------
 ! Name  Definition              Value          Derivative Info.                !
 --------------------------------------------------------------------------------
 ! R1    R(1,2)                  1.0773         estimate D2E/DX2                !
 ! R2    R(1,3)                  1.0773         estimate D2E/DX2                !
 ! R3    R(1,4)                  1.0773         estimate D2E/DX2                !
 ! A1    A(2,1,3)              120.0            estimate D2E/DX2                !
 ! A2    A(2,1,4)              120.0            estimate D2E/DX2                !
 ! A3    A(3,1,4)              120.0            estimate D2E/DX2                !
 ! D1    D(2,1,4,3)            180.0            estimate D2E/DX2                !
 --------------------------------------------------------------------------------
 Maximum allowed force set to 1.00D+20.
 Trust Radius=3.00D-01 FncErr=1.00D-07 GrdErr=1.00D-06 EigMax=2.50D+02 EigMin=1.00D-04
 Number of steps in this run=    100 maximum allowed number of steps=    100.
 GradGradGradGradGradGradGradGradGradGradGradGradGradGradGradGradGradGrad

 Leave Link  103 at Wed Oct  7 13:38:16 2020, MaxMem=  2684354560 cpu:               0.7 elap:               0.4
 (Enter /udrive/faculty/rpeverati/g16/g16/l202.exe)
                          Input orientation:                          
 ---------------------------------------------------------------------
 Center     Atomic      Atomic             Coordinates (Angstroms)
 Number     Number       Type             X           Y           Z
 ---------------------------------------------------------------------
      1          6           0        0.000000    0.000000    0.000000
      2          1           0        0.538658    0.932983    0.000000
      3          1           0        0.538658   -0.932983    0.000000
      4          1           0       -1.077316    0.000000    0.000000
 ---------------------------------------------------------------------
                    Distance matrix (angstroms):
                    1          2          3          4
     1  C    0.000000
     2  H    1.077316   0.000000
     3  H    1.077316   1.865966   0.000000
     4  H    1.077316   1.865966   1.865966   0.000000
 Stoichiometry    CH3(2)
 Framework group  D3H[O(C),3C2(H)]
 Deg. of freedom     1
 Full point group                 D3H     NOp  12
 Largest Abelian subgroup         C2V     NOp   4
 Largest concise Abelian subgroup C2      NOp   2
                         Standard orientation:                         
 ---------------------------------------------------------------------
 Center     Atomic      Atomic             Coordinates (Angstroms)
 Number     Number       Type             X           Y           Z
 ---------------------------------------------------------------------
      1          6           0        0.000000    0.000000    0.000000
      2          1           0        0.000000    1.077316    0.000000
      3          1           0        0.932983   -0.538658    0.000000
      4          1           0       -0.932983   -0.538658    0.000000
 ---------------------------------------------------------------------
 Rotational constants (GHZ):         288.0410898         288.0410898         144.0205449
 Leave Link  202 at Wed Oct  7 13:38:17 2020, MaxMem=  2684354560 cpu:               1.1 elap:               0.5
 (Enter /udrive/faculty/rpeverati/g16/g16/l301.exe)
 Standard basis: 6-31G(d) (5D, 7F)
 Ernie: Thresh=  0.10000D-02 Tol=  0.10000D-05 Strict=F.
 There are    12 symmetry adapted cartesian basis functions of A1  symmetry.
 There are     1 symmetry adapted cartesian basis functions of A2  symmetry.
 There are     5 symmetry adapted cartesian basis functions of B1  symmetry.
 There are     3 symmetry adapted cartesian basis functions of B2  symmetry.
 There are    11 symmetry adapted basis functions of A1  symmetry.
 There are     1 symmetry adapted basis functions of A2  symmetry.
 There are     5 symmetry adapted basis functions of B1  symmetry.
 There are     3 symmetry adapted basis functions of B2  symmetry.
    20 basis functions,    40 primitive gaussians,    21 cartesian basis functions
     5 alpha electrons        4 beta electrons
       nuclear repulsion energy         9.6923744034 Hartrees.
 IExCor= 1009 DFT=T Ex+Corr=PBE1PBE ExCW=0 ScaHFX=  0.250000
 ScaDFX=  0.750000  0.750000  1.000000  1.000000 ScalE2=  1.000000  1.000000
 IRadAn=      5 IRanWt=     -1 IRanGd=            0 ICorTp=0 IEmpDi=  4
 NAtoms=    4 NActive=    4 NUniq=    2 SFac= 4.00D+00 NAtFMM=   60 NAOKFM=F Big=F
 Integral buffers will be    131072 words long.
 Raffenetti 2 integral format.
 Two-electron integral symmetry is turned on.
 Leave Link  301 at Wed Oct  7 13:38:18 2020, MaxMem=  2684354560 cpu:               1.8 elap:               0.5
 (Enter /udrive/faculty/rpeverati/g16/g16/l302.exe)
 NPDir=0 NMtPBC=     1 NCelOv=     1 NCel=       1 NClECP=     1 NCelD=      1
         NCelK=      1 NCelE2=     1 NClLst=     1 CellRange=     0.0.
 One-electron integrals computed using PRISM.
 One-electron integral symmetry used in STVInt
 NBasis=    20 RedAO= T EigKep=  3.12D-02  NBF=    11     1     5     3
 NBsUse=    20 1.00D-06 EigRej= -1.00D+00 NBFU=    11     1     5     3
 Precomputing XC quadrature grid using
 IXCGrd= 4 IRadAn=           5 IRanWt=          -1 IRanGd=           0 AccXCQ= 0.00D+00.
 Generated NRdTot=       0 NPtTot=           0 NUsed=           0 NTot=          32
 NSgBfM=    21    21    21    21    21 MxSgAt=     4 MxSgA2=     4.
 Leave Link  302 at Wed Oct  7 13:38:18 2020, MaxMem=  2684354560 cpu:               4.3 elap:               0.6
 (Enter /udrive/faculty/rpeverati/g16/g16/l303.exe)
 DipDrv:  MaxL=1.
 Leave Link  303 at Wed Oct  7 13:38:19 2020, MaxMem=  2684354560 cpu:               1.5 elap:               0.5
 (Enter /udrive/faculty/rpeverati/g16/g16/l401.exe)
 SCF N**3 symmetry information disabled.
 ExpMin= 1.61D-01 ExpMax= 3.05D+03 ExpMxC= 4.57D+02 IAcc=3 IRadAn=         5 AccDes= 0.00D+00
 Harris functional with IExCor= 1009 and IRadAn=       5 diagonalized for initial guess.
 HarFok:  IExCor= 1009 AccDes= 0.00D+00 IRadAn=         5 IDoV= 1 UseB2=F ITyADJ=14
 ICtDFT=  3500011 ScaDFX=  1.000000  1.000000  1.000000  1.000000
 FoFCou: FMM=F IPFlag=           0 FMFlag=      100000 FMFlg1=           0
         NFxFlg=           0 DoJE=T BraDBF=F KetDBF=T FulRan=T
         wScrn=  0.000000 ICntrl=       500 IOpCl=  0 I1Cent=   200000004 NGrid=           0
         NMat0=    1 NMatS0=      1 NMatT0=    0 NMatD0=    1 NMtDS0=    0 NMtDT0=    0
 Petite list used in FoFCou.
 Harris En= -39.7842379165525    
 JPrj=0 DoOrth=F DoCkMO=F.
 Initial guess orbital symmetries:
 Alpha Orbitals:
       Occupied  (A1') (A1') (E') (E') (A2")
       Virtual   (A1') (E') (E') (E') (E') (A2") (A1') (E') (E')
                 (A1') (E") (E") (A1') (E') (E')
 Beta  Orbitals:
       Occupied  (A1') (A1') (E') (E')
       Virtual   (A2") (A1') (E') (E') (E') (E') (A2") (A1') (E')
                 (E') (A1') (E") (E") (A1') (E') (E')
 The electronic state of the initial guess is 2-A2".
 Initial guess <Sx>= 0.0000 <Sy>= 0.0000 <Sz>= 0.5000 <S**2>= 0.7500 S= 0.5000
 Leave Link  401 at Wed Oct  7 13:38:20 2020, MaxMem=  2684354560 cpu:               4.9 elap:               0.7
 (Enter /udrive/faculty/rpeverati/g16/g16/l502.exe)
 Keep R1 and R2 ints in memory in symmetry-blocked form, NReq=10365324.
 FoFCou: FMM=F IPFlag=           0 FMFlag=           0 FMFlg1=           0
         NFxFlg=           0 DoJE=F BraDBF=F KetDBF=F FulRan=T
         wScrn=  0.000000 ICntrl=       600 IOpCl=  0 I1Cent=           0 NGrid=           0
         NMat0=    1 NMatS0=    210 NMatT0=    0 NMatD0=    1 NMtDS0=    0 NMtDT0=    0
 Petite list used in FoFCou.
 UHF open shell SCF:
 Using DIIS extrapolation, IDIIS=  1040.
 NGot=  2684354560 LenX=  2684338255 LenY=  2684337373
 Requested convergence on RMS density matrix=1.00D-08 within 120 cycles.
 Requested convergence on MAX density matrix=1.00D-06.
 Requested convergence on             energy=1.00D-06.
 No special actions if energy rises.
 Integral accuracy reduced to 1.0D-05 until final iterations.

 Cycle   1  Pass 0  IDiag  1:
 E= -39.7387444205191    
 DIIS: error= 5.23D-02 at cycle   1 NSaved=   1.
 NSaved= 1 IEnMin= 1 EnMin= -39.7387444205191     IErMin= 1 ErrMin= 5.23D-02
 ErrMax= 5.23D-02  0.00D+00 EMaxC= 1.00D-01 BMatC= 1.36D-01 BMatP= 1.36D-01
 IDIUse=3 WtCom= 4.77D-01 WtEn= 5.23D-01
 Coeff-Com:  0.100D+01
 Coeff-En:   0.100D+01
 Coeff:      0.100D+01
 Gap=     0.310 Goal=   None    Shift=    0.000
 Gap=     0.411 Goal=   None    Shift=    0.000
 GapD=    0.310 DampG=1.000 DampE=0.500 DampFc=0.5000 IDamp=-1.
 Damping current iteration by 5.00D-01
 RMSDP=1.53D-02 MaxDP=1.37D-01              OVMax= 1.30D-01

 Cycle   2  Pass 0  IDiag  1:
 E= -39.7600372574992     Delta-E=       -0.021292836980 Rises=F Damp=T
 DIIS: error= 9.43D-03 at cycle   2 NSaved=   2.
 NSaved= 2 IEnMin= 2 EnMin= -39.7600372574992     IErMin= 2 ErrMin= 9.43D-03
 ErrMax= 9.43D-03  0.00D+00 EMaxC= 1.00D-01 BMatC= 4.10D-03 BMatP= 1.36D-01
 IDIUse=3 WtCom= 9.06D-01 WtEn= 9.43D-02
 Coeff-Com: -0.617D-01 0.106D+01
 Coeff-En:   0.000D+00 0.100D+01
 Coeff:     -0.559D-01 0.106D+01
 Gap=     0.365 Goal=   None    Shift=    0.000
 Gap=     0.385 Goal=   None    Shift=    0.000
 RMSDP=1.97D-03 MaxDP=1.52D-02 DE=-2.13D-02 OVMax= 5.65D-02

 Cycle   3  Pass 0  IDiag  1:
 E= -39.7797047459117     Delta-E=       -0.019667488413 Rises=F Damp=F
 DIIS: error= 1.57D-03 at cycle   3 NSaved=   3.
 NSaved= 3 IEnMin= 3 EnMin= -39.7797047459117     IErMin= 3 ErrMin= 1.57D-03
 ErrMax= 1.57D-03  0.00D+00 EMaxC= 1.00D-01 BMatC= 8.83D-05 BMatP= 4.10D-03
 IDIUse=3 WtCom= 9.84D-01 WtEn= 1.57D-02
 Coeff-Com:  0.363D-02-0.625D-01 0.106D+01
 Coeff-En:   0.000D+00 0.000D+00 0.100D+01
 Coeff:      0.357D-02-0.615D-01 0.106D+01
 Gap=     0.370 Goal=   None    Shift=    0.000
 Gap=     0.388 Goal=   None    Shift=    0.000
 RMSDP=3.99D-04 MaxDP=3.39D-03 DE=-1.97D-02 OVMax= 3.21D-03

 Cycle   4  Pass 0  IDiag  1:
 E= -39.7797608728507     Delta-E=       -0.000056126939 Rises=F Damp=F
 DIIS: error= 4.37D-04 at cycle   4 NSaved=   4.
 NSaved= 4 IEnMin= 4 EnMin= -39.7797608728507     IErMin= 4 ErrMin= 4.37D-04
 ErrMax= 4.37D-04  0.00D+00 EMaxC= 1.00D-01 BMatC= 9.44D-06 BMatP= 8.83D-05
 IDIUse=3 WtCom= 9.96D-01 WtEn= 4.37D-03
 Coeff-Com: -0.250D-02 0.660D-02-0.365D+00 0.136D+01
 Coeff-En:   0.000D+00 0.000D+00 0.000D+00 0.100D+01
 Coeff:     -0.249D-02 0.657D-02-0.364D+00 0.136D+01
 Gap=     0.370 Goal=   None    Shift=    0.000
 Gap=     0.388 Goal=   None    Shift=    0.000
 RMSDP=1.82D-04 MaxDP=1.15D-03 DE=-5.61D-05 OVMax= 1.55D-03

 Cycle   5  Pass 0  IDiag  1:
 E= -39.7797685317170     Delta-E=       -0.000007658866 Rises=F Damp=F
 DIIS: error= 7.63D-05 at cycle   5 NSaved=   5.
 NSaved= 5 IEnMin= 5 EnMin= -39.7797685317170     IErMin= 5 ErrMin= 7.63D-05
 ErrMax= 7.63D-05  0.00D+00 EMaxC= 1.00D-01 BMatC= 3.01D-07 BMatP= 9.44D-06
 IDIUse=1 WtCom= 1.00D+00 WtEn= 0.00D+00
 Coeff-Com:  0.584D-03 0.170D-02 0.357D-01-0.315D+00 0.128D+01
 Coeff:      0.584D-03 0.170D-02 0.357D-01-0.315D+00 0.128D+01
 Gap=     0.370 Goal=   None    Shift=    0.000
 Gap=     0.388 Goal=   None    Shift=    0.000
 RMSDP=3.75D-05 MaxDP=2.45D-04 DE=-7.66D-06 OVMax= 3.18D-04

 Cycle   6  Pass 0  IDiag  1:
 E= -39.7797687829176     Delta-E=       -0.000000251201 Rises=F Damp=F
 DIIS: error= 7.46D-06 at cycle   6 NSaved=   6.
 NSaved= 6 IEnMin= 6 EnMin= -39.7797687829176     IErMin= 6 ErrMin= 7.46D-06
 ErrMax= 7.46D-06  0.00D+00 EMaxC= 1.00D-01 BMatC= 1.66D-09 BMatP= 3.01D-07
 IDIUse=1 WtCom= 1.00D+00 WtEn= 0.00D+00
 Coeff-Com:  0.196D-04-0.361D-03 0.231D-02 0.105D-01-0.134D+00 0.112D+01
 Coeff:      0.196D-04-0.361D-03 0.231D-02 0.105D-01-0.134D+00 0.112D+01
 Gap=     0.370 Goal=   None    Shift=    0.000
 Gap=     0.388 Goal=   None    Shift=    0.000
 RMSDP=2.75D-06 MaxDP=2.00D-05 DE=-2.51D-07 OVMax= 2.52D-05

 Initial convergence to 1.0D-05 achieved.  Increase integral accuracy.
 Cycle   7  Pass 1  IDiag  1:
 E= -39.7797683425854     Delta-E=        0.000000440332 Rises=F Damp=F
 DIIS: error= 9.55D-07 at cycle   1 NSaved=   1.
 NSaved= 1 IEnMin= 1 EnMin= -39.7797683425854     IErMin= 1 ErrMin= 9.55D-07
 ErrMax= 9.55D-07  0.00D+00 EMaxC= 1.00D-01 BMatC= 2.69D-11 BMatP= 2.69D-11
 IDIUse=1 WtCom= 1.00D+00 WtEn= 0.00D+00
 Coeff-Com:  0.100D+01
 Coeff:      0.100D+01
 Gap=     0.370 Goal=   None    Shift=    0.000
 Gap=     0.388 Goal=   None    Shift=    0.000
 RMSDP=2.75D-06 MaxDP=2.00D-05 DE= 4.40D-07 OVMax= 1.25D-06

 Cycle   8  Pass 1  IDiag  1:
 E= -39.7797683425951     Delta-E=       -0.000000000010 Rises=F Damp=F
 DIIS: error= 1.49D-07 at cycle   2 NSaved=   2.
 NSaved= 2 IEnMin= 2 EnMin= -39.7797683425951     IErMin= 2 ErrMin= 1.49D-07
 ErrMax= 1.49D-07  0.00D+00 EMaxC= 1.00D-01 BMatC= 9.61D-13 BMatP= 2.69D-11
 IDIUse=1 WtCom= 1.00D+00 WtEn= 0.00D+00
 Coeff-Com: -0.137D+00 0.114D+01
 Coeff:     -0.137D+00 0.114D+01
 Gap=     0.370 Goal=   None    Shift=    0.000
 Gap=     0.388 Goal=   None    Shift=    0.000
 RMSDP=5.62D-08 MaxDP=4.05D-07 DE=-9.72D-12 OVMax= 4.69D-07

 Cycle   9  Pass 1  IDiag  1:
 E= -39.7797683425957     Delta-E=       -0.000000000001 Rises=F Damp=F
 DIIS: error= 6.81D-08 at cycle   3 NSaved=   3.
 NSaved= 3 IEnMin= 3 EnMin= -39.7797683425957     IErMin= 3 ErrMin= 6.81D-08
 ErrMax= 6.81D-08  0.00D+00 EMaxC= 1.00D-01 BMatC= 1.30D-13 BMatP= 9.61D-13
 IDIUse=1 WtCom= 1.00D+00 WtEn= 0.00D+00
 Coeff-Com: -0.304D-01 0.950D-01 0.935D+00
 Coeff:     -0.304D-01 0.950D-01 0.935D+00
 Gap=     0.370 Goal=   None    Shift=    0.000
 Gap=     0.388 Goal=   None    Shift=    0.000
 RMSDP=1.51D-08 MaxDP=1.45D-07 DE=-6.54D-13 OVMax= 1.73D-07

 Cycle  10  Pass 1  IDiag  1:
 E= -39.7797683425958     Delta-E=       -0.000000000000 Rises=F Damp=F
 DIIS: error= 3.76D-08 at cycle   4 NSaved=   4.
 NSaved= 4 IEnMin= 4 EnMin= -39.7797683425958     IErMin= 4 ErrMin= 3.76D-08
 ErrMax= 3.76D-08  0.00D+00 EMaxC= 1.00D-01 BMatC= 4.80D-14 BMatP= 1.30D-13
 IDIUse=1 WtCom= 1.00D+00 WtEn= 0.00D+00
 Coeff-Com:  0.184D-01-0.214D+00 0.384D+00 0.812D+00
 Coeff:      0.184D-01-0.214D+00 0.384D+00 0.812D+00
 Gap=     0.370 Goal=   None    Shift=    0.000
 Gap=     0.388 Goal=   None    Shift=    0.000
 RMSDP=7.50D-09 MaxDP=6.58D-08 DE=-4.26D-14 OVMax= 8.25D-08

 SCF Done:  E(UPBE1PBE) =  -39.7797683426     A.U. after   10 cycles
            NFock= 10  Conv=0.75D-08     -V/T= 2.0044
 <Sx>= 0.0000 <Sy>= 0.0000 <Sz>= 0.5000 <S**2>= 0.7545 S= 0.5023
 <L.S>= 0.000000000000E+00
 KE= 3.960537517145D+01 PE=-1.113136335565D+02 EE= 2.223611563907D+01
 Annihilation of the first spin contaminant:
 S**2 before annihilation     0.7545,   after     0.7500
 Leave Link  502 at Wed Oct  7 13:38:21 2020, MaxMem=  2684354560 cpu:               9.1 elap:               1.1
 (Enter /udrive/faculty/rpeverati/g16/g16/l508.exe)
 QCSCF skips out because SCF is already converged.
 Leave Link  508 at Wed Oct  7 13:38:22 2020, MaxMem=  2684354560 cpu:               0.3 elap:               0.3
 (Enter /udrive/faculty/rpeverati/g16/g16/l601.exe)
 Copying SCF densities to generalized density rwf, IOpCl= 1 IROHF=0.

 **********************************************************************

            Population analysis using the SCF density.

 **********************************************************************

 Orbital symmetries:
 Alpha Orbitals:
       Occupied  (A1') (A1') (E') (E') (A2")
       Virtual   (A1') (E') (E') (A2") (E') (E') (A1') (E') (E')
                 (A1') (E") (E") (A1') (E') (E')
 Beta  Orbitals:
       Occupied  (A1') (A1') (E') (E')
       Virtual   (A2") (A1') (E') (E') (E') (E') (A2") (A1') (E')
                 (E') (A1') (E") (E") (A1') (E') (E')
 The electronic state is 2-A2".
 Alpha  occ. eigenvalues --  -10.22867  -0.70414  -0.42868  -0.42868  -0.24002
 Alpha virt. eigenvalues --    0.13027   0.19687   0.19687   0.55628   0.56125
 Alpha virt. eigenvalues --    0.56125   0.70442   0.94550   0.94550   0.98842
 Alpha virt. eigenvalues --    1.65347   1.65347   2.02734   2.20989   2.20989
  Beta  occ. eigenvalues --  -10.21284  -0.65725  -0.41783  -0.41783
  Beta virt. eigenvalues --   -0.02969   0.14870   0.20323   0.20323   0.57213
  Beta virt. eigenvalues --    0.57213   0.64676   0.73993   0.95099   0.95099
  Beta virt. eigenvalues --    1.02225   1.73237   1.73237   2.12367   2.22163
  Beta virt. eigenvalues --    2.22163
          Condensed to atoms (all electrons):
               1          2          3          4
     1  C    5.412171   0.380858   0.380858   0.380858
     2  H    0.380858   0.489726  -0.027750  -0.027750
     3  H    0.380858  -0.027750   0.489726  -0.027750
     4  H    0.380858  -0.027750  -0.027750   0.489726
          Atomic-Atomic Spin Densities.
               1          2          3          4
     1  C    1.208492  -0.010995  -0.010995  -0.010995
     2  H   -0.010995  -0.049488   0.000991   0.000991
     3  H   -0.010995   0.000991  -0.049488   0.000991
     4  H   -0.010995   0.000991   0.000991  -0.049488
 Mulliken charges and spin densities:
               1          2
     1  C   -0.554745   1.175507
     2  H    0.184915  -0.058502
     3  H    0.184915  -0.058502
     4  H    0.184915  -0.058502
 Sum of Mulliken charges =  -0.00000   1.00000
 Mulliken charges and spin densities with hydrogens summed into heavy atoms:
               1          2
     1  C   -0.000000   1.000000
 Electronic spatial extent (au):  <R**2>=             29.2415
 Charge=             -0.0000 electrons
 Dipole moment (field-independent basis, Debye):
    X=             -0.0000    Y=              0.0000    Z=             -0.0000  Tot=              0.0000
 Quadrupole moment (field-independent basis, Debye-Ang):
   XX=             -6.9654   YY=             -6.9654   ZZ=             -8.6760
   XY=             -0.0000   XZ=             -0.0000   YZ=              0.0000
 Traceless Quadrupole moment (field-independent basis, Debye-Ang):
   XX=              0.5702   YY=              0.5702   ZZ=             -1.1404
   XY=             -0.0000   XZ=             -0.0000   YZ=              0.0000
 Octapole moment (field-independent basis, Debye-Ang**2):
  XXX=              0.0000  YYY=              0.8649  ZZZ=              0.0000  XYY=              0.0000
  XXY=             -0.8649  XXZ=              0.0000  XZZ=              0.0000  YZZ=              0.0000
  YYZ=             -0.0000  XYZ=              0.0000
 Hexadecapole moment (field-independent basis, Debye-Ang**3):
 XXXX=            -13.6560 YYYY=            -13.6560 ZZZZ=             -9.0509 XXXY=              0.0000
 XXXZ=             -0.0000 YYYX=              0.0000 YYYZ=              0.0000 ZZZX=             -0.0000
 ZZZY=              0.0000 XXYY=             -4.5520 XXZZ=             -4.1312 YYZZ=             -4.1312
 XXYZ=              0.0000 YYXZ=             -0.0000 ZZXY=              0.0000
 N-N= 9.692374403422D+00 E-N=-1.113136330488D+02  KE= 3.960537517145D+01
                          Isotropic Fermi Contact Couplings
        Atom                 a.u.       MegaHertz       Gauss      10(-4) cm-1
     1  C(13)              0.15145     170.26056      60.75320      56.79281
     2  H(1)              -0.01794     -80.17194     -28.60734     -26.74248
     3  H(1)              -0.01794     -80.17194     -28.60734     -26.74248
     4  H(1)              -0.01794     -80.17194     -28.60734     -26.74248
 --------------------------------------------------------
       Center         ----  Spin Dipole Couplings  ----
                      3XX-RR        3YY-RR        3ZZ-RR
 --------------------------------------------------------
     1   Atom       -0.543314     -0.543314      1.086628
     2   Atom       -0.073328      0.077465     -0.004137
     3   Atom        0.039767     -0.035630     -0.004137
     4   Atom        0.039767     -0.035630     -0.004137
 --------------------------------------------------------
                        XY            XZ            YZ
 --------------------------------------------------------
     1   Atom       -0.000000      0.000000      0.000000
     2   Atom       -0.000000      0.000000      0.000000
     3   Atom       -0.065296      0.000000      0.000000
     4   Atom        0.065296      0.000000      0.000000
 --------------------------------------------------------


 ---------------------------------------------------------------------------------
              Anisotropic Spin Dipole Couplings in Principal Axis System
 ---------------------------------------------------------------------------------

       Atom             a.u.   MegaHertz   Gauss  10(-4) cm-1        Axes

              Baa    -0.5433   -72.908   -26.015   -24.319  0.9730  0.2307  0.0000
     1 C(13)  Bbb    -0.5433   -72.908   -26.015   -24.319 -0.2307  0.9730  0.0000
              Bcc     1.0866   145.815    52.030    48.639  0.0000  0.0000  1.0000
 
              Baa    -0.0733   -39.124   -13.961   -13.050  1.0000  0.0000  0.0000
     2 H(1)   Bbb    -0.0041    -2.207    -0.788    -0.736  0.0000  0.0000  1.0000
              Bcc     0.0775    41.332    14.748    13.787 -0.0000  1.0000  0.0000
 
              Baa    -0.0733   -39.124   -13.961   -13.050  0.5000  0.8660  0.0000
     3 H(1)   Bbb    -0.0041    -2.207    -0.788    -0.736  0.0000  0.0000  1.0000
              Bcc     0.0775    41.332    14.748    13.787  0.8660 -0.5000  0.0000
 
              Baa    -0.0733   -39.124   -13.961   -13.050 -0.5000  0.8660  0.0000
     4 H(1)   Bbb    -0.0041    -2.207    -0.788    -0.736  0.0000  0.0000  1.0000
              Bcc     0.0775    41.332    14.748    13.787  0.8660  0.5000  0.0000
 

 ---------------------------------------------------------------------------------

 No NMR shielding tensors so no spin-rotation constants.
 Leave Link  601 at Wed Oct  7 13:38:23 2020, MaxMem=  2684354560 cpu:               5.7 elap:               0.8
 (Enter /udrive/faculty/rpeverati/g16/g16/l701.exe)
 ... and contract with generalized density number  0.
 Compute integral first derivatives.
 Leave Link  701 at Wed Oct  7 13:38:24 2020, MaxMem=  2684354560 cpu:               3.3 elap:               0.6
 (Enter /udrive/faculty/rpeverati/g16/g16/l702.exe)
 L702 exits ... SP integral derivatives will be done elsewhere.
 Leave Link  702 at Wed Oct  7 13:38:24 2020, MaxMem=  2684354560 cpu:               1.2 elap:               0.4
 (Enter /udrive/faculty/rpeverati/g16/g16/l703.exe)
 Integral derivatives from FoFJK, PRISM(SPDF).
 Compute integral first derivatives, UseDBF=F ICtDFT=           0.
 Calling FoFJK, ICntrl=      2127 FMM=F ISym2X=1 I1Cent= 0 IOpClX= 1 NMat=1 NMatS=1 NMatT=0.
 FoFJK:  IHMeth= 1 ICntrl=    2127 DoSepK=F KAlg= 0 I1Cent=           0 FoldK=F
 IRaf=         0 NMat=       1 IRICut=       1 DoRegI=T DoRafI=F ISym2E= 1 IDoP0=0 IntGTp=1.
 FoFCou: FMM=F IPFlag=           0 FMFlag=      100000 FMFlg1=         800
         NFxFlg=           0 DoJE=F BraDBF=F KetDBF=F FulRan=T
         wScrn=  0.000000 ICntrl=      2127 IOpCl=  1 I1Cent=           0 NGrid=           0
         NMat0=    1 NMatS0=      1 NMatT0=    0 NMatD0=    1 NMtDS0=    0 NMtDT0=    0
 Petite list used in FoFCou.
 Leave Link  703 at Wed Oct  7 13:38:25 2020, MaxMem=  2684354560 cpu:               4.6 elap:               0.7
 (Enter /udrive/faculty/rpeverati/g16/g16/l716.exe)
 Dipole        = 0.00000000D+00 2.22044605D-16-6.64208232D-33
 ***** Axes restored to original set *****
 -------------------------------------------------------------------
 Center     Atomic                   Forces (Hartrees/Bohr)
 Number     Number              X              Y              Z
 -------------------------------------------------------------------
      1        6          -0.000000000   -0.000000000   -0.000000000
      2        1           0.001936685    0.003354437   -0.000000000
      3        1           0.001936685   -0.003354437    0.000000000
      4        1          -0.003873370    0.000000000    0.000000000
 -------------------------------------------------------------------
 Cartesian Forces:  Max     0.003873370 RMS     0.001936685
 Leave Link  716 at Wed Oct  7 13:38:26 2020, MaxMem=  2684354560 cpu:               1.5 elap:               0.4
 (Enter /udrive/faculty/rpeverati/g16/g16/l103.exe)

 GradGradGradGradGradGradGradGradGradGradGradGradGradGradGradGradGradGrad
 Berny optimization.
 Optmz: redundant internal coordinate code flag= 1
 FormGI is forming the generalized inverse of G from B-inverse, IUseBI=4.
 Internal  Forces:  Max     0.003873370 RMS     0.002535716
 Search for a local minimum.
 Step number   1 out of a maximum of  100
 All quantities printed in internal units (Hartrees-Bohrs-Radians)
 RMS Force = .25357D-02 SwitMx=.10000D-02 MixMth= 1
 Mixed Optimization -- RFO/linear search
 Second derivative matrix not updated -- first step.
 The second derivative matrix:
                          R1        R2        R3        A1        A2
           R1           0.36321
           R2           0.00000   0.36321
           R3           0.00000   0.00000   0.36321
           A1           0.00000   0.00000   0.00000   0.16000
           A2           0.00000   0.00000   0.00000   0.00000   0.16000
           A3           0.00000   0.00000   0.00000   0.00000   0.00000
           D1           0.00000   0.00000   0.00000   0.00000   0.00000
                          A3        D1
           A3           0.16000
           D1           0.00000   0.00403
 ITU=  0
 Eigenvectors of the second derivative matrix:
                           1         2         3         4         5
     Eigenvalues --     0.00403   0.16000   0.16000   0.36321   0.36321
   1         R1         0.00000   0.00000  -0.00000  -0.34012   0.93698
   2         R2         0.00000   0.00000   0.00000  -0.69550  -0.19341
   3         R3        -0.00000  -0.00000   0.00000   0.63293   0.29097
   4         A1         0.00000  -0.81568   0.03658  -0.00000   0.00000
   5         A2        -0.00000   0.43952   0.68810   0.00000   0.00000
   6         A3        -0.00000   0.37616  -0.72469   0.00000   0.00000
   7         D1         1.00000   0.00000   0.00000   0.00000   0.00000
                           6
     Eigenvalues --     0.36321
   1         R1        -0.07995
   2         R2         0.69201
   3         R3         0.71745
   4         A1        -0.00000
   5         A2         0.00000
   6         A3         0.00000
   7         D1        -0.00000
 Iter=   1 RLamda= 0.00000000D+00 Sum=-1.23921542D-04.
 Iter=   2 RLamda=-1.23921542D-04 Sum=-1.23879275D-04.
 Iter=   3 RLamda=-1.23879275D-04 Sum=-1.23879290D-04.
 RFO step:  Lambda=-1.23879275D-04 EMin= 4.02612957D-03
 Linear search not attempted -- first point.
 Iteration  1 RMS(Cart)=  0.00697911 RMS(Int)=  0.00000000
 Iteration  2 RMS(Cart)=  0.00000000 RMS(Int)=  0.00000000
 ITry= 1 IFail=0 DXMaxC= 1.07D-02 DCOld= 1.00D+10 DXMaxT= 3.00D-01 DXLimC= 3.00D+00 Rises=F
 ClnCor:  largest displacement from symmetrization is 2.13D-13 for atom     1.
 Variable       Old X    -DE/DX   Delta X   Delta X   Delta X     New X
                                 (Linear)    (Quad)   (Total)
    R1        2.03583   0.00387   0.00000   0.01066   0.01066   2.04649
    R2        2.03583   0.00387   0.00000   0.01066   0.01066   2.04649
    R3        2.03583   0.00387   0.00000   0.01066   0.01066   2.04649
    A1        2.09440  -0.00000   0.00000  -0.00000   0.00000   2.09440
    A2        2.09440   0.00000   0.00000   0.00000   0.00000   2.09440
    A3        2.09440   0.00000   0.00000   0.00000   0.00000   2.09440
    D1        3.14159   0.00000   0.00000   0.00000   0.00000   3.14159
         Item               Value     Threshold  Converged?
 Maximum Force            0.003873     0.000450     NO 
 RMS     Force            0.002536     0.000300     NO 
 Maximum Displacement     0.010661     0.001800     NO 
 RMS     Displacement     0.006979     0.001200     NO 
 Predicted change in Energy=-6.196076D-05
 Lowest energy point so far.  Saving SCF results.
 Largest change from initial coordinates is atom    4       0.006 Angstoms.
 GradGradGradGradGradGradGradGradGradGradGradGradGradGradGradGradGradGrad

 Leave Link  103 at Wed Oct  7 13:38:27 2020, MaxMem=  2684354560 cpu:               2.4 elap:               0.5
 (Enter /udrive/faculty/rpeverati/g16/g16/l202.exe)
                          Input orientation:                          
 ---------------------------------------------------------------------
 Center     Atomic      Atomic             Coordinates (Angstroms)
 Number     Number       Type             X           Y           Z
 ---------------------------------------------------------------------
      1          6           0        0.000000   -0.000000    0.000000
      2          1           0        0.541479    0.937869    0.000000
      3          1           0        0.541479   -0.937869    0.000000
      4          1           0       -1.082958    0.000000    0.000000
 ---------------------------------------------------------------------
                    Distance matrix (angstroms):
                    1          2          3          4
     1  C    0.000000
     2  H    1.082958   0.000000
     3  H    1.082958   1.875738   0.000000
     4  H    1.082958   1.875738   1.875738   0.000000
 Stoichiometry    CH3(2)
 Framework group  D3H[O(C),3C2(H)]
 Deg. of freedom     1
 Full point group                 D3H     NOp  12
 RotChk:  IX=0 Diff= 1.57D-16
 Largest Abelian subgroup         C2V     NOp   4
 Largest concise Abelian subgroup C2      NOp   2
                         Standard orientation:                         
 ---------------------------------------------------------------------
 Center     Atomic      Atomic             Coordinates (Angstroms)
 Number     Number       Type             X           Y           Z
 ---------------------------------------------------------------------
      1          6           0        0.000000    0.000000    0.000000
      2          1           0        0.000000    1.082958    0.000000
      3          1           0        0.937869   -0.541479    0.000000
      4          1           0       -0.937869   -0.541479    0.000000
 ---------------------------------------------------------------------
 Rotational constants (GHZ):         285.0479299         285.0479299         142.5239649
 Leave Link  202 at Wed Oct  7 13:38:27 2020, MaxMem=  2684354560 cpu:               1.4 elap:               0.4
 (Enter /udrive/faculty/rpeverati/g16/g16/l301.exe)
 Standard basis: 6-31G(d) (5D, 7F)
 Ernie: Thresh=  0.10000D-02 Tol=  0.10000D-05 Strict=F.
 There are    12 symmetry adapted cartesian basis functions of A1  symmetry.
 There are     1 symmetry adapted cartesian basis functions of A2  symmetry.
 There are     5 symmetry adapted cartesian basis functions of B1  symmetry.
 There are     3 symmetry adapted cartesian basis functions of B2  symmetry.
 There are    11 symmetry adapted basis functions of A1  symmetry.
 There are     1 symmetry adapted basis functions of A2  symmetry.
 There are     5 symmetry adapted basis functions of B1  symmetry.
 There are     3 symmetry adapted basis functions of B2  symmetry.
    20 basis functions,    40 primitive gaussians,    21 cartesian basis functions
     5 alpha electrons        4 beta electrons
       nuclear repulsion energy         9.6418840602 Hartrees.
 IExCor= 1009 DFT=T Ex+Corr=PBE1PBE ExCW=0 ScaHFX=  0.250000
 ScaDFX=  0.750000  0.750000  1.000000  1.000000 ScalE2=  1.000000  1.000000
 IRadAn=      5 IRanWt=     -1 IRanGd=            0 ICorTp=0 IEmpDi=  4
 NAtoms=    4 NActive=    4 NUniq=    2 SFac= 4.00D+00 NAtFMM=   60 NAOKFM=F Big=F
 Integral buffers will be    131072 words long.
 Raffenetti 2 integral format.
 Two-electron integral symmetry is turned on.
 Leave Link  301 at Wed Oct  7 13:38:28 2020, MaxMem=  2684354560 cpu:               1.5 elap:               0.5
 (Enter /udrive/faculty/rpeverati/g16/g16/l302.exe)
 NPDir=0 NMtPBC=     1 NCelOv=     1 NCel=       1 NClECP=     1 NCelD=      1
         NCelK=      1 NCelE2=     1 NClLst=     1 CellRange=     0.0.
 One-electron integrals computed using PRISM.
 One-electron integral symmetry used in STVInt
 NBasis=    20 RedAO= T EigKep=  3.17D-02  NBF=    11     1     5     3
 NBsUse=    20 1.00D-06 EigRej= -1.00D+00 NBFU=    11     1     5     3
 Precomputing XC quadrature grid using
 IXCGrd= 4 IRadAn=           5 IRanWt=          -1 IRanGd=           0 AccXCQ= 0.00D+00.
 Generated NRdTot=       0 NPtTot=           0 NUsed=           0 NTot=          32
 NSgBfM=    21    21    21    21    21 MxSgAt=     4 MxSgA2=     4.
 Leave Link  302 at Wed Oct  7 13:38:29 2020, MaxMem=  2684354560 cpu:               3.5 elap:               0.6
 (Enter /udrive/faculty/rpeverati/g16/g16/l303.exe)
 DipDrv:  MaxL=1.
 Leave Link  303 at Wed Oct  7 13:38:30 2020, MaxMem=  2684354560 cpu:               1.2 elap:               0.4
 (Enter /udrive/faculty/rpeverati/g16/g16/l401.exe)
 Initial guess from the checkpoint file:  "MN_22_ch3_lower_BH76_PBE0_631Gs.chk"
 SCF N**3 symmetry information disabled.
 B after Tr=     0.000000    0.000000   -0.000000
         Rot=    1.000000   -0.000000   -0.000000    0.000000 Ang=   0.00 deg.
 Guess basis will be translated and rotated to current coordinates.
 JPrj=2 DoOrth=T DoCkMO=T.
 Initial guess orbital symmetries:
 Alpha Orbitals:
       Occupied  (A1') (A1') (E') (E') (A2")
       Virtual   (A1') (E') (E') (A2") (E') (E') (A1') (E') (E')
                 (A1') (E") (E") (A1') (E') (E')
 Beta  Orbitals:
       Occupied  (A1') (A1') (E') (E')
       Virtual   (A2") (A1') (E') (E') (E') (E') (A2") (A1') (E')
                 (E') (A1') (E") (E") (A1') (E') (E')
 The electronic state of the initial guess is 2-A2".
 Initial guess <Sx>= 0.0000 <Sy>= 0.0000 <Sz>= 0.5000 <S**2>= 0.7546 S= 0.5023
 Leave Link  401 at Wed Oct  7 13:38:30 2020, MaxMem=  2684354560 cpu:               2.0 elap:               0.5
 (Enter /udrive/faculty/rpeverati/g16/g16/l502.exe)
 Keep R1 and R2 ints in memory in symmetry-blocked form, NReq=10365324.
 FoFCou: FMM=F IPFlag=           0 FMFlag=           0 FMFlg1=           0
         NFxFlg=           0 DoJE=F BraDBF=F KetDBF=F FulRan=T
         wScrn=  0.000000 ICntrl=       600 IOpCl=  0 I1Cent=           0 NGrid=           0
         NMat0=    1 NMatS0=    210 NMatT0=    0 NMatD0=    1 NMtDS0=    0 NMtDT0=    0
 Petite list used in FoFCou.
 UHF open shell SCF:
 Using DIIS extrapolation, IDIIS=  1040.
 NGot=  2684354560 LenX=  2684338255 LenY=  2684337373
 Requested convergence on RMS density matrix=1.00D-08 within 120 cycles.
 Requested convergence on MAX density matrix=1.00D-06.
 Requested convergence on             energy=1.00D-06.
 No special actions if energy rises.

 Cycle   1  Pass 1  IDiag  1:
 E= -39.7798115840768    
 DIIS: error= 8.60D-04 at cycle   1 NSaved=   1.
 NSaved= 1 IEnMin= 1 EnMin= -39.7798115840768     IErMin= 1 ErrMin= 8.60D-04
 ErrMax= 8.60D-04  0.00D+00 EMaxC= 1.00D-01 BMatC= 4.06D-05 BMatP= 4.06D-05
 IDIUse=3 WtCom= 9.91D-01 WtEn= 8.60D-03
 Coeff-Com:  0.100D+01
 Coeff-En:   0.100D+01
 Coeff:      0.100D+01
 Gap=     0.367 Goal=   None    Shift=    0.000
 Gap=     0.387 Goal=   None    Shift=    0.000
 RMSDP=2.33D-04 MaxDP=1.76D-03              OVMax= 2.16D-03

 Cycle   2  Pass 1  IDiag  1:
 E= -39.7798202319345     Delta-E=       -0.000008647858 Rises=F Damp=F
 DIIS: error= 6.39D-04 at cycle   2 NSaved=   2.
 NSaved= 2 IEnMin= 2 EnMin= -39.7798202319345     IErMin= 2 ErrMin= 6.39D-04
 ErrMax= 6.39D-04  0.00D+00 EMaxC= 1.00D-01 BMatC= 2.00D-05 BMatP= 4.06D-05
 IDIUse=3 WtCom= 9.94D-01 WtEn= 6.39D-03
 Coeff-Com:  0.398D+00 0.602D+00
 Coeff-En:   0.133D+00 0.867D+00
 Coeff:      0.396D+00 0.604D+00
 Gap=     0.368 Goal=   None    Shift=    0.000
 Gap=     0.387 Goal=   None    Shift=    0.000
 RMSDP=1.10D-04 MaxDP=1.23D-03 DE=-8.65D-06 OVMax= 9.69D-04

 Cycle   3  Pass 1  IDiag  1:
 E= -39.7798257164842     Delta-E=       -0.000005484550 Rises=F Damp=F
 DIIS: error= 1.01D-04 at cycle   3 NSaved=   3.
 NSaved= 3 IEnMin= 3 EnMin= -39.7798257164842     IErMin= 3 ErrMin= 1.01D-04
 ErrMax= 1.01D-04  0.00D+00 EMaxC= 1.00D-01 BMatC= 4.90D-07 BMatP= 2.00D-05
 IDIUse=3 WtCom= 9.99D-01 WtEn= 1.01D-03
 Coeff-Com:  0.454D-02 0.134D+00 0.861D+00
 Coeff-En:   0.000D+00 0.000D+00 0.100D+01
 Coeff:      0.454D-02 0.134D+00 0.861D+00
 Gap=     0.368 Goal=   None    Shift=    0.000
 Gap=     0.387 Goal=   None    Shift=    0.000
 RMSDP=1.30D-05 MaxDP=1.31D-04 DE=-5.48D-06 OVMax= 1.45D-04

 Cycle   4  Pass 1  IDiag  1:
 E= -39.7798258538128     Delta-E=       -0.000000137329 Rises=F Damp=F
 DIIS: error= 8.77D-06 at cycle   4 NSaved=   4.
 NSaved= 4 IEnMin= 4 EnMin= -39.7798258538128     IErMin= 4 ErrMin= 8.77D-06
 ErrMax= 8.77D-06  0.00D+00 EMaxC= 1.00D-01 BMatC= 1.65D-09 BMatP= 4.90D-07
 IDIUse=1 WtCom= 1.00D+00 WtEn= 0.00D+00
 Coeff-Com: -0.431D-02-0.207D-01-0.120D+00 0.115D+01
 Coeff:     -0.431D-02-0.207D-01-0.120D+00 0.115D+01
 Gap=     0.368 Goal=   None    Shift=    0.000
 Gap=     0.387 Goal=   None    Shift=    0.000
 RMSDP=2.08D-06 MaxDP=3.48D-05 DE=-1.37D-07 OVMax= 2.75D-05

 Cycle   5  Pass 1  IDiag  1:
 E= -39.7798258550156     Delta-E=       -0.000000001203 Rises=F Damp=F
 DIIS: error= 1.26D-06 at cycle   5 NSaved=   5.
 NSaved= 5 IEnMin= 5 EnMin= -39.7798258550156     IErMin= 5 ErrMin= 1.26D-06
 ErrMax= 1.26D-06  0.00D+00 EMaxC= 1.00D-01 BMatC= 7.37D-11 BMatP= 1.65D-09
 IDIUse=1 WtCom= 1.00D+00 WtEn= 0.00D+00
 Coeff-Com:  0.104D-02 0.262D-02 0.135D-01-0.296D+00 0.128D+01
 Coeff:      0.104D-02 0.262D-02 0.135D-01-0.296D+00 0.128D+01
 Gap=     0.368 Goal=   None    Shift=    0.000
 Gap=     0.387 Goal=   None    Shift=    0.000
 RMSDP=4.86D-07 MaxDP=4.76D-06 DE=-1.20D-09 OVMax= 4.08D-06

 Cycle   6  Pass 1  IDiag  1:
 E= -39.7798258550770     Delta-E=       -0.000000000061 Rises=F Damp=F
 DIIS: error= 2.50D-07 at cycle   6 NSaved=   6.
 NSaved= 6 IEnMin= 6 EnMin= -39.7798258550770     IErMin= 6 ErrMin= 2.50D-07
 ErrMax= 2.50D-07  0.00D+00 EMaxC= 1.00D-01 BMatC= 3.33D-12 BMatP= 7.37D-11
 IDIUse=1 WtCom= 1.00D+00 WtEn= 0.00D+00
 Coeff-Com: -0.290D-03-0.453D-03-0.182D-02 0.849D-01-0.529D+00 0.145D+01
 Coeff:     -0.290D-03-0.453D-03-0.182D-02 0.849D-01-0.529D+00 0.145D+01
 Gap=     0.368 Goal=   None    Shift=    0.000
 Gap=     0.387 Goal=   None    Shift=    0.000
 RMSDP=1.36D-07 MaxDP=8.85D-07 DE=-6.13D-11 OVMax= 1.17D-06

 Cycle   7  Pass 1  IDiag  1:
 E= -39.7798258550799     Delta-E=       -0.000000000003 Rises=F Damp=F
 DIIS: error= 1.34D-08 at cycle   7 NSaved=   7.
 NSaved= 7 IEnMin= 7 EnMin= -39.7798258550799     IErMin= 7 ErrMin= 1.34D-08
 ErrMax= 1.34D-08  0.00D+00 EMaxC= 1.00D-01 BMatC= 1.05D-14 BMatP= 3.33D-12
 IDIUse=1 WtCom= 1.00D+00 WtEn= 0.00D+00
 Coeff-Com:  0.290D-04 0.312D-04 0.558D-04-0.877D-02 0.622D-01-0.210D+00
 Coeff-Com:  0.116D+01
 Coeff:      0.290D-04 0.312D-04 0.558D-04-0.877D-02 0.622D-01-0.210D+00
 Coeff:      0.116D+01
 Gap=     0.368 Goal=   None    Shift=    0.000
 Gap=     0.387 Goal=   None    Shift=    0.000
 RMSDP=7.25D-09 MaxDP=3.42D-08 DE=-2.90D-12 OVMax= 5.69D-08

 SCF Done:  E(UPBE1PBE) =  -39.7798258551     A.U. after    7 cycles
            NFock=  7  Conv=0.73D-08     -V/T= 2.0050
 <Sx>= 0.0000 <Sy>= 0.0000 <Sz>= 0.5000 <S**2>= 0.7546 S= 0.5023
 <L.S>= 0.000000000000E+00
 KE= 3.958172593615D+01 PE=-1.111967085568D+02 EE= 2.219327270531D+01
 Annihilation of the first spin contaminant:
 S**2 before annihilation     0.7546,   after     0.7500
 Leave Link  502 at Wed Oct  7 13:38:31 2020, MaxMem=  2684354560 cpu:               8.0 elap:               1.0
 (Enter /udrive/faculty/rpeverati/g16/g16/l508.exe)
 QCSCF skips out because SCF is already converged.
 Leave Link  508 at Wed Oct  7 13:38:32 2020, MaxMem=  2684354560 cpu:               0.3 elap:               0.4
 (Enter /udrive/faculty/rpeverati/g16/g16/l701.exe)
 ... and contract with generalized density number  0.
 Compute integral first derivatives.
 Leave Link  701 at Wed Oct  7 13:38:33 2020, MaxMem=  2684354560 cpu:               3.5 elap:               0.6
 (Enter /udrive/faculty/rpeverati/g16/g16/l702.exe)
 L702 exits ... SP integral derivatives will be done elsewhere.
 Leave Link  702 at Wed Oct  7 13:38:34 2020, MaxMem=  2684354560 cpu:               1.6 elap:               0.4
 (Enter /udrive/faculty/rpeverati/g16/g16/l703.exe)
 Integral derivatives from FoFJK, PRISM(SPDF).
 Compute integral first derivatives, UseDBF=F ICtDFT=           0.
 Calling FoFJK, ICntrl=      2127 FMM=F ISym2X=1 I1Cent= 0 IOpClX= 1 NMat=1 NMatS=1 NMatT=0.
 FoFJK:  IHMeth= 1 ICntrl=    2127 DoSepK=F KAlg= 0 I1Cent=           0 FoldK=F
 IRaf=         0 NMat=       1 IRICut=       1 DoRegI=T DoRafI=F ISym2E= 1 IDoP0=0 IntGTp=1.
 FoFCou: FMM=F IPFlag=           0 FMFlag=      100000 FMFlg1=         800
         NFxFlg=           0 DoJE=F BraDBF=F KetDBF=F FulRan=T
         wScrn=  0.000000 ICntrl=      2127 IOpCl=  1 I1Cent=           0 NGrid=           0
         NMat0=    1 NMatS0=      1 NMatT0=    0 NMatD0=    1 NMtDS0=    0 NMtDT0=    0
 Petite list used in FoFCou.
 Leave Link  703 at Wed Oct  7 13:38:34 2020, MaxMem=  2684354560 cpu:               4.6 elap:               0.7
 (Enter /udrive/faculty/rpeverati/g16/g16/l716.exe)
 Dipole        = 2.22044605D-16 2.22044605D-16 4.50679319D-32
 ***** Axes restored to original set *****
 -------------------------------------------------------------------
 Center     Atomic                   Forces (Hartrees/Bohr)
 Number     Number              X              Y              Z
 -------------------------------------------------------------------
      1        6          -0.000000000    0.000000000    0.000000000
      2        1          -0.000127460   -0.000220767   -0.000000000
      3        1          -0.000127460    0.000220767    0.000000000
      4        1           0.000254919    0.000000000    0.000000000
 -------------------------------------------------------------------
 Cartesian Forces:  Max     0.000254919 RMS     0.000127460
 Leave Link  716 at Wed Oct  7 13:38:35 2020, MaxMem=  2684354560 cpu:               1.1 elap:               0.4
 (Enter /udrive/faculty/rpeverati/g16/g16/l103.exe)

 GradGradGradGradGradGradGradGradGradGradGradGradGradGradGradGradGradGrad
 Berny optimization.
 Optmz: redundant internal coordinate code flag= 1
 Using GEDIIS/GDIIS optimizer.
 Red2BG:  D1=  8.27D-01 OD1=  9.82D-03 B2RMS=  0.00D+00 IAprox=0
 FormGI is forming the generalized inverse of G from B-inverse, IUseBI=4.
 Internal  Forces:  Max     0.000254919 RMS     0.000166884
 Search for a local minimum.
 Step number   2 out of a maximum of  100
 All quantities printed in internal units (Hartrees-Bohrs-Radians)
 RMS Force = .16688D-03 SwitMx=.10000D-02 MixMth= 2
 Mixed Optimization -- En-DIIS/RFO-DIIS
 Update second derivatives using D2CorX and points    1    2
 DE= -5.75D-05 DEPred=-6.20D-05 R= 9.28D-01
 TightC=F SS=  1.41D+00  RLast= 1.85D-02 DXNew= 5.0454D-01 5.5395D-02
 Trust test= 9.28D-01 RLast= 1.85D-02 DXMaxT set to 3.00D-01
 The second derivative matrix:
                          R1        R2        R3        A1        A2
           R1           0.37122
           R2           0.00801   0.37122
           R3           0.00801   0.00801   0.37122
           A1          -0.00000  -0.00000  -0.00000   0.16000
           A2           0.00000   0.00000   0.00000  -0.00000   0.16000
           A3          -0.00000  -0.00000  -0.00000   0.00000  -0.00000
           D1          -0.00000  -0.00000  -0.00000   0.00000  -0.00000
                          A3        D1
           A3           0.16000
           D1           0.00000   0.00403
 ITU=  1  0
 Use linear search instead of GDIIS.
 Eigenvectors of the second derivative matrix:
                           1         2         3         4         5
     Eigenvalues --     0.00403   0.16000   0.16000   0.36321   0.36321
   1         R1         0.00000  -0.00000  -0.00000   0.20997   0.78904
   2         R2        -0.00000  -0.00000  -0.00000   0.57834  -0.57636
   3         R3        -0.00000  -0.00000  -0.00000  -0.78831  -0.21268
   4         A1        -0.00000   0.11385  -0.80852  -0.00000  -0.00000
   5         A2        -0.00000   0.64327   0.50286  -0.00000  -0.00000
   6         A3        -0.00000  -0.75713   0.30566   0.00000   0.00000
   7         D1        -1.00000   0.00000  -0.00000   0.00000   0.00000
                           6
     Eigenvalues --     0.38724
   1         R1        -0.57735
   2         R2        -0.57735
   3         R3        -0.57735
   4         A1         0.00000
   5         A2        -0.00000
   6         A3         0.00000
   7         D1         0.00000
 Iter=   1 RLamda= 0.00000000D+00 Sum=-1.17268653D-28.
 RFO step:  Lambda= 0.00000000D+00 EMin= 4.02612957D-03
 Quartic linear search produced a step of -0.06268.
 Iteration  1 RMS(Cart)=  0.00043748 RMS(Int)=  0.00000000
 Iteration  2 RMS(Cart)=  0.00000000 RMS(Int)=  0.00000000
 ITry= 1 IFail=0 DXMaxC= 6.68D-04 DCOld= 1.00D+10 DXMaxT= 3.00D-01 DXLimC= 3.00D+00 Rises=F
 ClnCor:  largest displacement from symmetrization is 1.92D-14 for atom     3.
 Variable       Old X    -DE/DX   Delta X   Delta X   Delta X     New X
                                 (Linear)    (Quad)   (Total)
    R1        2.04649  -0.00025  -0.00067  -0.00000  -0.00067   2.04583
    R2        2.04649  -0.00025  -0.00067   0.00000  -0.00067   2.04583
    R3        2.04649  -0.00025  -0.00067  -0.00000  -0.00067   2.04583
    A1        2.09440  -0.00000   0.00000  -0.00000   0.00000   2.09440
    A2        2.09440   0.00000   0.00000   0.00000   0.00000   2.09440
    A3        2.09440   0.00000   0.00000   0.00000   0.00000   2.09440
    D1        3.14159   0.00000   0.00000   0.00000   0.00000   3.14159
         Item               Value     Threshold  Converged?
 Maximum Force            0.000255     0.000450     YES
 RMS     Force            0.000167     0.000300     YES
 Maximum Displacement     0.000668     0.001800     YES
 RMS     Displacement     0.000437     0.001200     YES
 Predicted change in Energy=-2.516611D-07
 Optimization completed.
    -- Stationary point found.
                           ----------------------------
                           !   Optimized Parameters   !
                           ! (Angstroms and Degrees)  !
 --------------------------                            --------------------------
 ! Name  Definition              Value          Derivative Info.                !
 --------------------------------------------------------------------------------
 ! R1    R(1,2)                  1.083          -DE/DX =   -0.0003              !
 ! R2    R(1,3)                  1.083          -DE/DX =   -0.0003              !
 ! R3    R(1,4)                  1.083          -DE/DX =   -0.0003              !
 ! A1    A(2,1,3)              120.0            -DE/DX =    0.0                 !
 ! A2    A(2,1,4)              120.0            -DE/DX =    0.0                 !
 ! A3    A(3,1,4)              120.0            -DE/DX =    0.0                 !
 ! D1    D(2,1,4,3)            180.0            -DE/DX =    0.0                 !
 --------------------------------------------------------------------------------
 Lowest energy point so far.  Saving SCF results.
 Largest change from initial coordinates is atom    4       0.006 Angstoms.
 GradGradGradGradGradGradGradGradGradGradGradGradGradGradGradGradGradGrad

 Leave Link  103 at Wed Oct  7 13:38:36 2020, MaxMem=  2684354560 cpu:               2.0 elap:               0.5
 (Enter /udrive/faculty/rpeverati/g16/g16/l202.exe)
                          Input orientation:                          
 ---------------------------------------------------------------------
 Center     Atomic      Atomic             Coordinates (Angstroms)
 Number     Number       Type             X           Y           Z
 ---------------------------------------------------------------------
      1          6           0        0.000000    0.000000    0.000000
      2          1           0        0.541479    0.937869    0.000000
      3          1           0        0.541479   -0.937869    0.000000
      4          1           0       -1.082958    0.000000    0.000000
 ---------------------------------------------------------------------
                    Distance matrix (angstroms):
                    1          2          3          4
     1  C    0.000000
     2  H    1.082958   0.000000
     3  H    1.082958   1.875738   0.000000
     4  H    1.082958   1.875738   1.875738   0.000000
 Stoichiometry    CH3(2)
 Framework group  D3H[O(C),3C2(H)]
 Deg. of freedom     1
 Full point group                 D3H     NOp  12
 RotChk:  IX=0 Diff= 1.57D-16
 Largest Abelian subgroup         C2V     NOp   4
 Largest concise Abelian subgroup C2      NOp   2
                         Standard orientation:                         
 ---------------------------------------------------------------------
 Center     Atomic      Atomic             Coordinates (Angstroms)
 Number     Number       Type             X           Y           Z
 ---------------------------------------------------------------------
      1          6           0        0.000000    0.000000    0.000000
      2          1           0        0.000000    1.082958    0.000000
      3          1           0        0.937869   -0.541479    0.000000
      4          1           0       -0.937869   -0.541479    0.000000
 ---------------------------------------------------------------------
 Rotational constants (GHZ):         285.0479299         285.0479299         142.5239649
 Leave Link  202 at Wed Oct  7 13:38:36 2020, MaxMem=  2684354560 cpu:               1.0 elap:               0.3
 (Enter /udrive/faculty/rpeverati/g16/g16/l601.exe)
 Copying SCF densities to generalized density rwf, IOpCl= 1 IROHF=0.

 **********************************************************************

            Population analysis using the SCF density.

 **********************************************************************

 Orbital symmetries:
 Alpha Orbitals:
       Occupied  (A1') (A1') (E') (E') (A2")
       Virtual   (A1') (E') (E') (A2") (E') (E') (A1') (E') (E')
                 (A1') (E") (E") (A1') (E') (E')
 Beta  Orbitals:
       Occupied  (A1') (A1') (E') (E')
       Virtual   (A2") (A1') (E') (E') (E') (E') (A2") (A1') (E')
                 (E') (A1') (E") (E") (A1') (E') (E')
 The electronic state is 2-A2".
 Alpha  occ. eigenvalues --  -10.23043  -0.70262  -0.42748  -0.42748  -0.24004
 Alpha virt. eigenvalues --    0.12817   0.19520   0.19520   0.55596   0.56312
 Alpha virt. eigenvalues --    0.56312   0.70403   0.94070   0.94070   0.98398
 Alpha virt. eigenvalues --    1.65415   1.65415   2.02231   2.20312   2.20312
  Beta  occ. eigenvalues --  -10.21458  -0.65564  -0.41668  -0.41668
  Beta virt. eigenvalues --   -0.02963   0.14673   0.20162   0.20162   0.57405
  Beta virt. eigenvalues --    0.57405   0.64647   0.73890   0.94607   0.94607
  Beta virt. eigenvalues --    1.01773   1.73317   1.73317   2.11904   2.21488
  Beta virt. eigenvalues --    2.21488
          Condensed to atoms (all electrons):
               1          2          3          4
     1  C    5.413779   0.379854   0.379854   0.379854
     2  H    0.379854   0.490846  -0.027574  -0.027574
     3  H    0.379854  -0.027574   0.490846  -0.027574
     4  H    0.379854  -0.027574  -0.027574   0.490846
          Atomic-Atomic Spin Densities.
               1          2          3          4
     1  C    1.209201  -0.011001  -0.011001  -0.011001
     2  H   -0.011001  -0.049735   0.001002   0.001002
     3  H   -0.011001   0.001002  -0.049735   0.001002
     4  H   -0.011001   0.001002   0.001002  -0.049735
 Mulliken charges and spin densities:
               1          2
     1  C   -0.553342   1.176198
     2  H    0.184447  -0.058733
     3  H    0.184447  -0.058733
     4  H    0.184447  -0.058733
 Sum of Mulliken charges =   0.00000   1.00000
 Mulliken charges and spin densities with hydrogens summed into heavy atoms:
               1          2
     1  C    0.000000   1.000000
 Electronic spatial extent (au):  <R**2>=             29.3944
 Charge=              0.0000 electrons
 Dipole moment (field-independent basis, Debye):
    X=              0.0000    Y=              0.0000    Z=              0.0000  Tot=              0.0000
 Quadrupole moment (field-independent basis, Debye-Ang):
   XX=             -6.9703   YY=             -6.9703   ZZ=             -8.6963
   XY=             -0.0000   XZ=              0.0000   YZ=             -0.0000
 Traceless Quadrupole moment (field-independent basis, Debye-Ang):
   XX=              0.5754   YY=              0.5754   ZZ=             -1.1507
   XY=             -0.0000   XZ=              0.0000   YZ=             -0.0000
 Octapole moment (field-independent basis, Debye-Ang**2):
  XXX=             -0.0000  YYY=              0.8817  ZZZ=              0.0000  XYY=              0.0000
  XXY=             -0.8817  XXZ=              0.0000  XZZ=              0.0000  YZZ=              0.0000
  YYZ=              0.0000  XYZ=             -0.0000
 Hexadecapole moment (field-independent basis, Debye-Ang**3):
 XXXX=            -13.7603 YYYY=            -13.7603 ZZZZ=             -9.0800 XXXY=              0.0000
 XXXZ=             -0.0000 YYYX=              0.0000 YYYZ=             -0.0000 ZZZX=             -0.0000
 ZZZY=             -0.0000 XXYY=             -4.5868 XXZZ=             -4.1609 YYZZ=             -4.1609
 XXYZ=             -0.0000 YYXZ=             -0.0000 ZZXY=              0.0000
 N-N= 9.641884060239D+00 E-N=-1.111967084944D+02  KE= 3.958172593615D+01
                          Isotropic Fermi Contact Couplings
        Atom                 a.u.       MegaHertz       Gauss      10(-4) cm-1
     1  C(13)              0.15285     171.83173      61.31384      57.31690
     2  H(1)              -0.01799     -80.43325     -28.70058     -26.82964
     3  H(1)              -0.01799     -80.43325     -28.70058     -26.82964
     4  H(1)              -0.01799     -80.43325     -28.70058     -26.82964
 --------------------------------------------------------
       Center         ----  Spin Dipole Couplings  ----
                      3XX-RR        3YY-RR        3ZZ-RR
 --------------------------------------------------------
     1   Atom       -0.543285     -0.543285      1.086571
     2   Atom       -0.072619      0.077233     -0.004613
     3   Atom        0.039770     -0.035156     -0.004613
     4   Atom        0.039770     -0.035156     -0.004613
 --------------------------------------------------------
                        XY            XZ            YZ
 --------------------------------------------------------
     1   Atom        0.000000      0.000000      0.000000
     2   Atom       -0.000000      0.000000      0.000000
     3   Atom       -0.064888      0.000000      0.000000
     4   Atom        0.064888      0.000000      0.000000
 --------------------------------------------------------


 ---------------------------------------------------------------------------------
              Anisotropic Spin Dipole Couplings in Principal Axis System
 ---------------------------------------------------------------------------------

       Atom             a.u.   MegaHertz   Gauss  10(-4) cm-1        Axes

              Baa    -0.5433   -72.904   -26.014   -24.318 -0.4604  0.8877  0.0000
     1 C(13)  Bbb    -0.5433   -72.904   -26.014   -24.318  0.8877  0.4604  0.0000
              Bcc     1.0866   145.807    52.028    48.636  0.0000  0.0000  1.0000
 
              Baa    -0.0726   -38.746   -13.826   -12.924  1.0000  0.0000  0.0000
     2 H(1)   Bbb    -0.0046    -2.461    -0.878    -0.821  0.0000  0.0000  1.0000
              Bcc     0.0772    41.208    14.704    13.745  0.0000  1.0000  0.0000
 
              Baa    -0.0726   -38.746   -13.826   -12.924  0.5000  0.8660  0.0000
     3 H(1)   Bbb    -0.0046    -2.461    -0.878    -0.821  0.0000  0.0000  1.0000
              Bcc     0.0772    41.208    14.704    13.745  0.8660 -0.5000  0.0000
 
              Baa    -0.0726   -38.746   -13.826   -12.924 -0.5000  0.8660  0.0000
     4 H(1)   Bbb    -0.0046    -2.461    -0.878    -0.821  0.0000  0.0000  1.0000
              Bcc     0.0772    41.208    14.704    13.745  0.8660  0.5000  0.0000
 

 ---------------------------------------------------------------------------------

 No NMR shielding tensors so no spin-rotation constants.
 Leave Link  601 at Wed Oct  7 13:38:37 2020, MaxMem=  2684354560 cpu:               5.7 elap:               0.9
 (Enter /udrive/faculty/rpeverati/g16/g16/l9999.exe)

 Test job not archived.
 1\1\GINC-NODE37\FOpt\UPBE1PBE\6-31G(d)\C1H3(2)\RPEVERATI\07-Oct-2020\0
 \\#P Opt(MaxCyc=100) PBE1PBE/6-31G* 5D 7F Integral=UltraFineGrid SCF=(
 NoSymm,XQC,MaxCyc=120) IOp(1/33=1)\\TS search on BH76.\\0,2\C,0.,0.,0.
 \H,0.5414787995,0.937868792,0.\H,0.5414787995,-0.937868792,0.\H,-1.082
 957599,0.,0.\\Version=ES64L-G16RevA.03\State=2-A2"\HF=-39.7798259\S2=0
 .754596\S2-1=0.\S2A=0.750011\RMSD=7.251e-09\RMSF=1.275e-04\Dipole=0.,0
 .,0.\Quadrupole=0.4277596,0.4277596,-0.8555191,0.,0.,0.\PG=D03H [O(C1)
 ,3C2(H1)]\\@


 TO DETECT ERRORS, THE PROGRAMMER MUST HAVE A CONNIVING MIND,
 ONE THAT DELIGHTS IN UNCOVERING FLAWS WHERE BEAUTY AND
 PERFECTION WERE ONCE THOUGHT TO LIE.

             -- THE PSYCHOLOGY OF COMPUTER PROGRAMMING
                GERALD M. WEINBERG
 Job cpu time:       0 days  0 hours  1 minutes 39.6 seconds.
 Elapsed time:       0 days  0 hours  0 minutes 17.9 seconds.
 File lengths (MBytes):  RWF=      5 Int=      0 D2E=      0 Chk=      1 Scr=      1
 Normal termination of Gaussian 16 at Wed Oct  7 13:38:39 2020.
