 Entering Gaussian System, Link 0=g16
 Input=MN_35_fch3clcomp1_BH76_PBE0_631Gs.in
 Output=MN_35_fch3clcomp1_BH76_PBE0_631Gs.log
 Initial command:
 /udrive/faculty/rpeverati/g16/g16/l1.exe "/udrive/scratch-directories/gaussian09/rpeverati/Gau-3035.inp" -scrdir="/udrive/scratch-directories/gaussian09/rpeverati/"
 Entering Link 1 = /udrive/faculty/rpeverati/g16/g16/l1.exe PID=      3055.
  
 Copyright (c) 1988,1990,1992,1993,1995,1998,2003,2009,2016,
            Gaussian, Inc.  All Rights Reserved.
  
 This is part of the Gaussian(R) 16 program.  It is based on
 the Gaussian(R) 09 system (copyright 2009, Gaussian, Inc.),
 the Gaussian(R) 03 system (copyright 2003, Gaussian, Inc.),
 the Gaussian(R) 98 system (copyright 1998, Gaussian, Inc.),
 the Gaussian(R) 94 system (copyright 1995, Gaussian, Inc.),
 the Gaussian 92(TM) system (copyright 1992, Gaussian, Inc.),
 the Gaussian 90(TM) system (copyright 1990, Gaussian, Inc.),
 the Gaussian 88(TM) system (copyright 1988, Gaussian, Inc.),
 the Gaussian 86(TM) system (copyright 1986, Carnegie Mellon
 University), and the Gaussian 82(TM) system (copyright 1983,
 Carnegie Mellon University). Gaussian is a federally registered
 trademark of Gaussian, Inc.
  
 This software contains proprietary and confidential information,
 including trade secrets, belonging to Gaussian, Inc.
  
 This software is provided under written license and may be
 used, copied, transmitted, or stored only in accord with that
 written license.
  
 The following legend is applicable only to US Government
 contracts under FAR:
  
                    RESTRICTED RIGHTS LEGEND
  
 Use, reproduction and disclosure by the US Government is
 subject to restrictions as set forth in subparagraphs (a)
 and (c) of the Commercial Computer Software - Restricted
 Rights clause in FAR 52.227-19.
  
 Gaussian, Inc.
 340 Quinnipiac St., Bldg. 40, Wallingford CT 06492
  
  
 ---------------------------------------------------------------
 Warning -- This program may not be used in any manner that
 competes with the business of Gaussian, Inc. or will provide
 assistance to any competitor of Gaussian, Inc.  The licensee
 of this program is prohibited from giving any competitor of
 Gaussian, Inc. access to this program.  By using this program,
 the user acknowledges that Gaussian, Inc. is engaged in the
 business of creating and licensing software in the field of
 computational chemistry and represents and warrants to the
 licensee that it is not a competitor of Gaussian, Inc. and that
 it will not use this program in any manner prohibited above.
 ---------------------------------------------------------------
  

 Cite this work as:
 Gaussian 16, Revision A.03,
 M. J. Frisch, G. W. Trucks, H. B. Schlegel, G. E. Scuseria, 
 M. A. Robb, J. R. Cheeseman, G. Scalmani, V. Barone, 
 G. A. Petersson, H. Nakatsuji, X. Li, M. Caricato, A. V. Marenich, 
 J. Bloino, B. G. Janesko, R. Gomperts, B. Mennucci, H. P. Hratchian, 
 J. V. Ortiz, A. F. Izmaylov, J. L. Sonnenberg, D. Williams-Young, 
 F. Ding, F. Lipparini, F. Egidi, J. Goings, B. Peng, A. Petrone, 
 T. Henderson, D. Ranasinghe, V. G. Zakrzewski, J. Gao, N. Rega, 
 G. Zheng, W. Liang, M. Hada, M. Ehara, K. Toyota, R. Fukuda, 
 J. Hasegawa, M. Ishida, T. Nakajima, Y. Honda, O. Kitao, H. Nakai, 
 T. Vreven, K. Throssell, J. A. Montgomery, Jr., J. E. Peralta, 
 F. Ogliaro, M. J. Bearpark, J. J. Heyd, E. N. Brothers, K. N. Kudin, 
 V. N. Staroverov, T. A. Keith, R. Kobayashi, J. Normand, 
 K. Raghavachari, A. P. Rendell, J. C. Burant, S. S. Iyengar, 
 J. Tomasi, M. Cossi, J. M. Millam, M. Klene, C. Adamo, R. Cammi, 
 J. W. Ochterski, R. L. Martin, K. Morokuma, O. Farkas, 
 J. B. Foresman, and D. J. Fox, Gaussian, Inc., Wallingford CT, 2016.
 
 ******************************************
 Gaussian 16:  ES64L-G16RevA.03 25-Dec-2016
                 7-Oct-2020 
 ******************************************
 %NoSave
 %nproc=12
 Will use up to   12 processors via shared memory.
 %mem=20GB
 %chk=MN_35_fch3clcomp1_BH76_PBE0_631Gs
 ----------------------------------------------------------------------
 #P Opt(MaxCyc=100) PBE1PBE/6-31G* 5D 7F Integral=UltraFineGrid SCF=(No
 Symm,XQC,MaxCyc=120) IOp(1/33=1)
 ----------------------------------------------------------------------
 1/6=100,18=20,19=15,26=4,33=1,38=1/1,3;
 2/9=110,12=2,17=6,18=5,40=1/2;
 3/5=1,6=6,7=1,8=11,11=2,25=1,30=1,71=1,74=-13,75=-5/1,2,3;
 4/9=2/1;
 5/5=2,7=120,8=3,13=1,38=5/2,8;
 6/7=2,8=2,9=2,10=2,28=1/1;
 7//1,2,3,16;
 1/6=100,18=20,19=15,26=4,33=1/3(2);
 2/9=110/2;
 99//99;
 2/9=110/2;
 3/5=1,6=6,7=1,8=11,11=2,25=1,30=1,71=1,74=-13,75=-5/1,2,3;
 4/5=5,9=2,16=3,69=1/1;
 5/5=2,7=120,8=3,13=1,38=5/2,8;
 7//1,2,3,16;
 1/6=100,18=20,19=15,26=4,33=1/3(-5);
 2/9=110/2;
 6/7=2,8=2,9=2,10=2,19=2,28=1/1;
 99/9=1/99;
 Leave Link    1 at Wed Oct  7 13:39:01 2020, MaxMem=  2684354560 cpu:               6.2 elap:               0.6
 (Enter /udrive/faculty/rpeverati/g16/g16/l101.exe)
 ONIOM data not found on unit 2.
 ------------------
 TS search on BH76.
 ------------------
 TstMul:  ICh=    -1
 TstMul:  Mul=     1
 TstMul:  ICh=    -1
 TstMul:  Mul=     1
 Symbolic Z-matrix:
 Charge = -1 Multiplicity = 1
 Cl                    0.        0.        2.12296 
 C                     0.        0.        0.27247 
 H                    -0.51316  -0.88882  -0.05531 
 H                    -0.51316   0.88882  -0.05531 
 H                     1.02632   0.       -0.05531 
 F                     0.        0.       -2.22949 
 
 RdStrC is calling ZToCFu for IStruc=1 NZ=     6.
 PrtBox:  NBox=     2 Levels=  1 BoxLen=    8.00 SMaxX=        8.22
          Shift=            0.969735            1.679630            4.213119
 Box      1 Number                   0 centers from      1 to      5:
 Box      2 Number                   1 centers from      6 to      6:
 After GenITR:
 ITRead=  0  0  0  0  0  0
 MicOpt= -1 -1 -1 -1 -1 -1
 Add virtual bond connecting atoms F6         and C2         Dist= 4.73D+00.
 Add virtual bond connecting atoms F6         and H3         Dist= 4.54D+00.
 Add virtual bond connecting atoms F6         and H4         Dist= 4.54D+00.
 Add virtual bond connecting atoms F6         and H5         Dist= 4.54D+00.
 Add atom      6 valence  4 ND=      0 dihedral       4      3      6      2
 Add atom      6 valence  4 ND=      0 dihedral       5      3      6      2
 Add atom      6 valence  4 ND=      0 dihedral       5      4      6      2
 ITRead=  0  0  0  0  0  0
 MicOpt= -1 -1 -1 -1 -1 -1
 NAtoms=      6 NQM=        6 NQMF=       0 NMMI=      0 NMMIF=      0
                NMic=       0 NMicF=      0.
                    Isotopes and Nuclear Properties:
 (Nuclear quadrupole moments (NQMom) in fm**2, nuclear magnetic moments (NMagM)
  in nuclear magnetons)

  Atom         1           2           3           4           5           6
 IAtWgt=          35          12           1           1           1          19
 AtmWgt=  34.9688527  12.0000000   1.0078250   1.0078250   1.0078250  18.9984033
 NucSpn=           3           0           1           1           1           1
 AtZEff=   0.0000000   0.0000000   0.0000000   0.0000000   0.0000000   0.0000000
 NQMom=   -8.1650000   0.0000000   0.0000000   0.0000000   0.0000000   0.0000000
 NMagM=    0.8218740   0.0000000   2.7928460   2.7928460   2.7928460   2.6288670
 AtZNuc=  17.0000000   6.0000000   1.0000000   1.0000000   1.0000000   9.0000000
 No MM parameters found.
 Leave Link  101 at Wed Oct  7 13:39:02 2020, MaxMem=  2684354560 cpu:               5.5 elap:               0.6
 (Enter /udrive/faculty/rpeverati/g16/g16/l103.exe)

 GradGradGradGradGradGradGradGradGradGradGradGradGradGradGradGradGradGrad
 Berny optimization.
 Optmz: redundant internal coordinate code flag= 1
 Initialization pass.
                           ----------------------------
                           !    Initial Parameters    !
                           ! (Angstroms and Degrees)  !
 --------------------------                            --------------------------
 ! Name  Definition              Value          Derivative Info.                !
 --------------------------------------------------------------------------------
 ! R1    R(1,2)                  1.8505         estimate D2E/DX2                !
 ! R2    R(2,3)                  1.0774         estimate D2E/DX2                !
 ! R3    R(2,4)                  1.0774         estimate D2E/DX2                !
 ! R4    R(2,5)                  1.0774         estimate D2E/DX2                !
 ! R5    R(2,6)                  2.502          estimate D2E/DX2                !
 ! R6    R(3,6)                  2.4042         estimate D2E/DX2                !
 ! R7    R(4,6)                  2.4042         estimate D2E/DX2                !
 ! R8    R(5,6)                  2.4042         estimate D2E/DX2                !
 ! A1    A(1,2,3)              107.7121         estimate D2E/DX2                !
 ! A2    A(1,2,4)              107.7121         estimate D2E/DX2                !
 ! A3    A(1,2,5)              107.7121         estimate D2E/DX2                !
 ! A4    A(3,2,4)              111.1716         estimate D2E/DX2                !
 ! A5    A(3,2,5)              111.1716         estimate D2E/DX2                !
 ! A6    A(4,2,5)              111.1716         estimate D2E/DX2                !
 ! A7    A(3,6,4)               43.3929         estimate D2E/DX2                !
 ! A8    A(3,6,5)               43.3929         estimate D2E/DX2                !
 ! A9    A(4,6,5)               43.3929         estimate D2E/DX2                !
 ! A10   L(1,2,6,3,-1)         180.0            estimate D2E/DX2                !
 ! A11   L(1,2,6,3,-2)         180.0            estimate D2E/DX2                !
 ! D1    D(3,2,5,4)            124.4261         estimate D2E/DX2                !
 ! D2    D(4,3,6,2)             32.556          estimate D2E/DX2                !
 ! D3    D(5,3,6,2)            -32.556          estimate D2E/DX2                !
 ! D4    D(5,4,6,2)             32.556          estimate D2E/DX2                !
 --------------------------------------------------------------------------------
 Maximum allowed force set to 1.00D+20.
 Trust Radius=3.00D-01 FncErr=1.00D-07 GrdErr=1.00D-06 EigMax=2.50D+02 EigMin=1.00D-04
 Number of steps in this run=    100 maximum allowed number of steps=    100.
 GradGradGradGradGradGradGradGradGradGradGradGradGradGradGradGradGradGrad

 Leave Link  103 at Wed Oct  7 13:39:02 2020, MaxMem=  2684354560 cpu:               1.0 elap:               0.3
 (Enter /udrive/faculty/rpeverati/g16/g16/l202.exe)
                          Input orientation:                          
 ---------------------------------------------------------------------
 Center     Atomic      Atomic             Coordinates (Angstroms)
 Number     Number       Type             X           Y           Z
 ---------------------------------------------------------------------
      1         17           0        0.000000    0.000000    2.122964
      2          6           0        0.000000    0.000000    0.272466
      3          1           0       -0.513162   -0.888822   -0.055314
      4          1           0       -0.513162    0.888822   -0.055314
      5          1           0        1.026323    0.000000   -0.055314
      6          9           0        0.000000    0.000000   -2.229487
 ---------------------------------------------------------------------
                    Distance matrix (angstroms):
                    1          2          3          4          5
     1  Cl   0.000000
     2  C    1.850498   0.000000
     3  H    2.407953   1.077395   0.000000
     4  H    2.407953   1.077395   1.777644   0.000000
     5  H    2.407953   1.077395   1.777644   1.777644   0.000000
     6  F    4.352451   2.501952   2.404239   2.404239   2.404239
                    6
     6  F    0.000000
 Stoichiometry    CH3ClF(1-)
 Framework group  C3V[C3(FCCl),3SGV(H)]
 Deg. of freedom     4
 Full point group                 C3V     NOp   6
 Largest Abelian subgroup         CS      NOp   2
 Largest concise Abelian subgroup CS      NOp   2
                         Standard orientation:                         
 ---------------------------------------------------------------------
 Center     Atomic      Atomic             Coordinates (Angstroms)
 Number     Number       Type             X           Y           Z
 ---------------------------------------------------------------------
      1         17           0        0.000000    0.000000    1.623140
      2          6           0        0.000000    0.000000   -0.227359
      3          1           0        0.000000    1.026323   -0.555139
      4          1           0        0.888822   -0.513162   -0.555139
      5          1           0       -0.888822   -0.513162   -0.555139
      6          9           0        0.000000    0.000000   -2.729311
 ---------------------------------------------------------------------
 Rotational constants (GHZ):         158.6873850           2.1342839           2.1342839
 Leave Link  202 at Wed Oct  7 13:39:03 2020, MaxMem=  2684354560 cpu:               1.0 elap:               0.4
 (Enter /udrive/faculty/rpeverati/g16/g16/l301.exe)
 Standard basis: 6-31G(d) (5D, 7F)
 Ernie: Thresh=  0.10000D-02 Tol=  0.10000D-05 Strict=F.
 There are    40 symmetry adapted cartesian basis functions of A'  symmetry.
 There are    15 symmetry adapted cartesian basis functions of A"  symmetry.
 There are    37 symmetry adapted basis functions of A'  symmetry.
 There are    15 symmetry adapted basis functions of A"  symmetry.
    52 basis functions,   120 primitive gaussians,    55 cartesian basis functions
    18 alpha electrons       18 beta electrons
       nuclear repulsion energy        86.0762915649 Hartrees.
 IExCor= 1009 DFT=T Ex+Corr=PBE1PBE ExCW=0 ScaHFX=  0.250000
 ScaDFX=  0.750000  0.750000  1.000000  1.000000 ScalE2=  1.000000  1.000000
 IRadAn=      5 IRanWt=     -1 IRanGd=            0 ICorTp=0 IEmpDi=  4
 NAtoms=    6 NActive=    6 NUniq=    4 SFac= 2.25D+00 NAtFMM=   60 NAOKFM=F Big=F
 Integral buffers will be    131072 words long.
 Raffenetti 2 integral format.
 Two-electron integral symmetry is turned on.
 Leave Link  301 at Wed Oct  7 13:39:04 2020, MaxMem=  2684354560 cpu:               1.8 elap:               0.5
 (Enter /udrive/faculty/rpeverati/g16/g16/l302.exe)
 NPDir=0 NMtPBC=     1 NCelOv=     1 NCel=       1 NClECP=     1 NCelD=      1
         NCelK=      1 NCelE2=     1 NClLst=     1 CellRange=     0.0.
 One-electron integrals computed using PRISM.
 One-electron integral symmetry used in STVInt
 NBasis=    52 RedAO= T EigKep=  1.88D-02  NBF=    37    15
 NBsUse=    52 1.00D-06 EigRej= -1.00D+00 NBFU=    37    15
 Precomputing XC quadrature grid using
 IXCGrd= 4 IRadAn=           5 IRanWt=          -1 IRanGd=           0 AccXCQ= 0.00D+00.
 Generated NRdTot=       0 NPtTot=           0 NUsed=           0 NTot=          32
 NSgBfM=    55    55    55    55    55 MxSgAt=     6 MxSgA2=     6.
 Leave Link  302 at Wed Oct  7 13:39:05 2020, MaxMem=  2684354560 cpu:               3.7 elap:               0.6
 (Enter /udrive/faculty/rpeverati/g16/g16/l303.exe)
 DipDrv:  MaxL=1.
 Leave Link  303 at Wed Oct  7 13:39:06 2020, MaxMem=  2684354560 cpu:               1.8 elap:               0.6
 (Enter /udrive/faculty/rpeverati/g16/g16/l401.exe)
 SCF N**3 symmetry information disabled.
 ExpMin= 1.43D-01 ExpMax= 2.52D+04 ExpMxC= 3.78D+03 IAcc=3 IRadAn=         5 AccDes= 0.00D+00
 Harris functional with IExCor= 1009 and IRadAn=       5 diagonalized for initial guess.
 HarFok:  IExCor= 1009 AccDes= 0.00D+00 IRadAn=         5 IDoV= 1 UseB2=F ITyADJ=14
 ICtDFT=  3500011 ScaDFX=  1.000000  1.000000  1.000000  1.000000
 FoFCou: FMM=F IPFlag=           0 FMFlag=      100000 FMFlg1=           0
         NFxFlg=           0 DoJE=T BraDBF=F KetDBF=T FulRan=T
         wScrn=  0.000000 ICntrl=       500 IOpCl=  0 I1Cent=   200000004 NGrid=           0
         NMat0=    1 NMatS0=      1 NMatT0=    0 NMatD0=    1 NMtDS0=    0 NMtDT0=    0
 Petite list used in FoFCou.
 Harris En= -599.759706137052    
 JPrj=0 DoOrth=F DoCkMO=F.
 Initial guess orbital symmetries:
       Occupied  (A1) (A1) (A1) (A1) (A1) (E) (E) (A1) (A1) (A1)
                 (E) (E) (A1) (E) (E) (A1) (E) (E)
       Virtual   (A1) (A1) (E) (E) (A1) (E) (E) (A1) (E) (E) (A1)
                 (E) (E) (A1) (E) (E) (E) (E) (A1) (E) (E) (A1)
                 (A1) (A1) (E) (E) (E) (E) (E) (E) (A1) (A1) (E)
                 (E)
 The electronic state of the initial guess is 1-A1.
 Leave Link  401 at Wed Oct  7 13:39:07 2020, MaxMem=  2684354560 cpu:               5.8 elap:               0.8
 (Enter /udrive/faculty/rpeverati/g16/g16/l502.exe)
 Keep R1 ints in memory in symmetry-blocked form, NReq=11461374.
 FoFCou: FMM=F IPFlag=           0 FMFlag=           0 FMFlg1=           0
         NFxFlg=           0 DoJE=F BraDBF=F KetDBF=F FulRan=T
         wScrn=  0.000000 ICntrl=       600 IOpCl=  0 I1Cent=           0 NGrid=           0
         NMat0=    1 NMatS0=   1378 NMatT0=    0 NMatD0=    1 NMtDS0=    0 NMtDT0=    0
 Petite list used in FoFCou.
 Closed shell SCF:
 Using DIIS extrapolation, IDIIS=  1040.
 NGot=  2684354560 LenX=  2683850103 LenY=  2683846637
 Requested convergence on RMS density matrix=1.00D-08 within 120 cycles.
 Requested convergence on MAX density matrix=1.00D-06.
 Requested convergence on             energy=1.00D-06.
 No special actions if energy rises.
 Integral accuracy reduced to 1.0D-05 until final iterations.

 Cycle   1  Pass 0  IDiag  1:
 E= -599.420795459361    
 DIIS: error= 9.40D-02 at cycle   1 NSaved=   1.
 NSaved= 1 IEnMin= 1 EnMin= -599.420795459361     IErMin= 1 ErrMin= 9.40D-02
 ErrMax= 9.40D-02  0.00D+00 EMaxC= 1.00D-01 BMatC= 2.14D-01 BMatP= 2.14D-01
 IDIUse=3 WtCom= 6.01D-02 WtEn= 9.40D-01
 Coeff-Com:  0.100D+01
 Coeff-En:   0.100D+01
 Coeff:      0.100D+01
 Gap=     0.446 Goal=   None    Shift=    0.000
 GapD=    0.446 DampG=2.000 DampE=0.500 DampFc=1.0000 IDamp=-1.
 RMSDP=7.03D-02 MaxDP=1.45D+00              OVMax= 8.33D-01

 Cycle   2  Pass 0  IDiag  1:
 E= -598.058365638502     Delta-E=        1.362429820860 Rises=F Damp=F
 DIIS: error= 2.19D-01 at cycle   2 NSaved=   2.
 NSaved= 2 IEnMin= 1 EnMin= -599.420795459361     IErMin= 1 ErrMin= 9.40D-02
 ErrMax= 2.19D-01  0.00D+00 EMaxC= 1.00D-01 BMatC= 1.44D+00 BMatP= 2.14D-01
 IDIUse=2 WtCom= 0.00D+00 WtEn= 1.00D+00
 Coeff-En:   0.867D+00 0.133D+00
 Coeff:      0.867D+00 0.133D+00
 Gap=     0.075 Goal=   None    Shift=    0.000
 RMSDP=6.24D-02 MaxDP=1.39D+00 DE= 1.36D+00 OVMax= 7.26D-01

 Cycle   3  Pass 0  IDiag  1:
 E= -599.520015880015     Delta-E=       -1.461650241513 Rises=F Damp=F
 DIIS: error= 5.17D-02 at cycle   3 NSaved=   3.
 NSaved= 3 IEnMin= 3 EnMin= -599.520015880015     IErMin= 3 ErrMin= 5.17D-02
 ErrMax= 5.17D-02  0.00D+00 EMaxC= 1.00D-01 BMatC= 9.16D-02 BMatP= 2.14D-01
 IDIUse=3 WtCom= 4.83D-01 WtEn= 5.17D-01
 Coeff-Com:  0.409D+00 0.284D-01 0.562D+00
 Coeff-En:   0.307D+00 0.000D+00 0.693D+00
 Coeff:      0.356D+00 0.137D-01 0.630D+00
 Gap=     0.169 Goal=   None    Shift=    0.000
 RMSDP=6.13D-03 MaxDP=6.83D-02 DE=-1.46D+00 OVMax= 1.11D-01

 Cycle   4  Pass 0  IDiag  1:
 E= -599.592192736384     Delta-E=       -0.072176856369 Rises=F Damp=F
 DIIS: error= 1.34D-02 at cycle   4 NSaved=   4.
 NSaved= 4 IEnMin= 4 EnMin= -599.592192736384     IErMin= 4 ErrMin= 1.34D-02
 ErrMax= 1.34D-02  0.00D+00 EMaxC= 1.00D-01 BMatC= 6.26D-03 BMatP= 9.16D-02
 IDIUse=3 WtCom= 8.66D-01 WtEn= 1.34D-01
 Coeff-Com:  0.115D+00-0.170D-01 0.304D+00 0.599D+00
 Coeff-En:   0.000D+00 0.000D+00 0.000D+00 0.100D+01
 Coeff:      0.994D-01-0.147D-01 0.263D+00 0.652D+00
 Gap=     0.176 Goal=   None    Shift=    0.000
 RMSDP=1.67D-03 MaxDP=2.58D-02 DE=-7.22D-02 OVMax= 4.21D-02

 Cycle   5  Pass 0  IDiag  1:
 E= -599.598222953852     Delta-E=       -0.006030217468 Rises=F Damp=F
 DIIS: error= 2.82D-03 at cycle   5 NSaved=   5.
 NSaved= 5 IEnMin= 5 EnMin= -599.598222953852     IErMin= 5 ErrMin= 2.82D-03
 ErrMax= 2.82D-03  0.00D+00 EMaxC= 1.00D-01 BMatC= 4.95D-04 BMatP= 6.26D-03
 IDIUse=3 WtCom= 9.72D-01 WtEn= 2.82D-02
 Coeff-Com:  0.187D-01-0.617D-02 0.299D-01 0.215D+00 0.742D+00
 Coeff-En:   0.000D+00 0.000D+00 0.000D+00 0.000D+00 0.100D+01
 Coeff:      0.182D-01-0.600D-02 0.291D-01 0.209D+00 0.750D+00
 Gap=     0.183 Goal=   None    Shift=    0.000
 RMSDP=6.70D-04 MaxDP=9.51D-03 DE=-6.03D-03 OVMax= 1.09D-02

 Cycle   6  Pass 0  IDiag  1:
 E= -599.598777387356     Delta-E=       -0.000554433504 Rises=F Damp=F
 DIIS: error= 4.06D-04 at cycle   6 NSaved=   6.
 NSaved= 6 IEnMin= 6 EnMin= -599.598777387356     IErMin= 6 ErrMin= 4.06D-04
 ErrMax= 4.06D-04  0.00D+00 EMaxC= 1.00D-01 BMatC= 1.33D-05 BMatP= 4.95D-04
 IDIUse=3 WtCom= 9.96D-01 WtEn= 4.06D-03
 Coeff-Com:  0.132D-02-0.108D-02-0.929D-02 0.347D-01 0.287D+00 0.687D+00
 Coeff-En:   0.000D+00 0.000D+00 0.000D+00 0.000D+00 0.000D+00 0.100D+01
 Coeff:      0.132D-02-0.107D-02-0.926D-02 0.346D-01 0.286D+00 0.689D+00
 Gap=     0.183 Goal=   None    Shift=    0.000
 RMSDP=1.10D-04 MaxDP=1.76D-03 DE=-5.54D-04 OVMax= 1.47D-03

 Cycle   7  Pass 0  IDiag  1:
 E= -599.598791611214     Delta-E=       -0.000014223858 Rises=F Damp=F
 DIIS: error= 1.25D-04 at cycle   7 NSaved=   7.
 NSaved= 7 IEnMin= 7 EnMin= -599.598791611214     IErMin= 7 ErrMin= 1.25D-04
 ErrMax= 1.25D-04  0.00D+00 EMaxC= 1.00D-01 BMatC= 5.53D-07 BMatP= 1.33D-05
 IDIUse=3 WtCom= 9.99D-01 WtEn= 1.25D-03
 Coeff-Com: -0.844D-05-0.132D-03-0.235D-02 0.114D-01 0.733D-01 0.202D+00
 Coeff-Com:  0.715D+00
 Coeff-En:   0.000D+00 0.000D+00 0.000D+00 0.000D+00 0.000D+00 0.000D+00
 Coeff-En:   0.100D+01
 Coeff:     -0.843D-05-0.132D-03-0.234D-02 0.114D-01 0.733D-01 0.202D+00
 Coeff:      0.716D+00
 Gap=     0.183 Goal=   None    Shift=    0.000
 RMSDP=1.39D-05 MaxDP=1.39D-04 DE=-1.42D-05 OVMax= 1.15D-04

 Cycle   8  Pass 0  IDiag  1:
 E= -599.598792018922     Delta-E=       -0.000000407707 Rises=F Damp=F
 DIIS: error= 3.81D-05 at cycle   8 NSaved=   8.
 NSaved= 8 IEnMin= 8 EnMin= -599.598792018922     IErMin= 8 ErrMin= 3.81D-05
 ErrMax= 3.81D-05  0.00D+00 EMaxC= 1.00D-01 BMatC= 5.14D-08 BMatP= 5.53D-07
 IDIUse=1 WtCom= 1.00D+00 WtEn= 0.00D+00
 Coeff-Com: -0.273D-03 0.253D-04-0.609D-04 0.315D-02 0.788D-02 0.155D-01
 Coeff-Com:  0.135D+00 0.839D+00
 Coeff:     -0.273D-03 0.253D-04-0.609D-04 0.315D-02 0.788D-02 0.155D-01
 Coeff:      0.135D+00 0.839D+00
 Gap=     0.183 Goal=   None    Shift=    0.000
 RMSDP=5.85D-06 MaxDP=5.16D-05 DE=-4.08D-07 OVMax= 7.47D-05

 Initial convergence to 1.0D-05 achieved.  Increase integral accuracy.
 Cycle   9  Pass 1  IDiag  1:
 E= -599.598789167289     Delta-E=        0.000002851633 Rises=F Damp=F
 DIIS: error= 7.57D-06 at cycle   1 NSaved=   1.
 NSaved= 1 IEnMin= 1 EnMin= -599.598789167289     IErMin= 1 ErrMin= 7.57D-06
 ErrMax= 7.57D-06  0.00D+00 EMaxC= 1.00D-01 BMatC= 1.58D-09 BMatP= 1.58D-09
 IDIUse=1 WtCom= 1.00D+00 WtEn= 0.00D+00
 Coeff-Com:  0.100D+01
 Coeff:      0.100D+01
 Gap=     0.183 Goal=   None    Shift=    0.000
 RMSDP=5.85D-06 MaxDP=5.16D-05 DE= 2.85D-06 OVMax= 5.85D-05

 Cycle  10  Pass 1  IDiag  1:
 E= -599.598789165087     Delta-E=        0.000000002202 Rises=F Damp=F
 DIIS: error= 1.50D-05 at cycle   2 NSaved=   2.
 NSaved= 2 IEnMin= 1 EnMin= -599.598789167289     IErMin= 1 ErrMin= 7.57D-06
 ErrMax= 1.50D-05  0.00D+00 EMaxC= 1.00D-01 BMatC= 4.91D-09 BMatP= 1.58D-09
 IDIUse=1 WtCom= 1.00D+00 WtEn= 0.00D+00
 Coeff-Com:  0.641D+00 0.359D+00
 Coeff:      0.641D+00 0.359D+00
 Gap=     0.183 Goal=   None    Shift=    0.000
 RMSDP=1.89D-06 MaxDP=1.90D-05 DE= 2.20D-09 OVMax= 3.80D-05

 Cycle  11  Pass 1  IDiag  1:
 E= -599.598789168765     Delta-E=       -0.000000003678 Rises=F Damp=F
 DIIS: error= 2.49D-07 at cycle   3 NSaved=   3.
 NSaved= 3 IEnMin= 3 EnMin= -599.598789168765     IErMin= 3 ErrMin= 2.49D-07
 ErrMax= 2.49D-07  0.00D+00 EMaxC= 1.00D-01 BMatC= 5.79D-12 BMatP= 1.58D-09
 IDIUse=1 WtCom= 1.00D+00 WtEn= 0.00D+00
 Coeff-Com:  0.997D-01 0.561D-01 0.844D+00
 Coeff:      0.997D-01 0.561D-01 0.844D+00
 Gap=     0.183 Goal=   None    Shift=    0.000
 RMSDP=1.07D-07 MaxDP=1.23D-06 DE=-3.68D-09 OVMax= 1.16D-06

 Cycle  12  Pass 1  IDiag  1:
 E= -599.598789168774     Delta-E=       -0.000000000009 Rises=F Damp=F
 DIIS: error= 1.30D-07 at cycle   4 NSaved=   4.
 NSaved= 4 IEnMin= 4 EnMin= -599.598789168774     IErMin= 4 ErrMin= 1.30D-07
 ErrMax= 1.30D-07  0.00D+00 EMaxC= 1.00D-01 BMatC= 1.23D-12 BMatP= 5.79D-12
 IDIUse=1 WtCom= 1.00D+00 WtEn= 0.00D+00
 Coeff-Com: -0.269D-02-0.285D-03 0.290D+00 0.713D+00
 Coeff:     -0.269D-02-0.285D-03 0.290D+00 0.713D+00
 Gap=     0.183 Goal=   None    Shift=    0.000
 RMSDP=3.55D-08 MaxDP=2.89D-07 DE=-8.75D-12 OVMax= 5.94D-07

 Cycle  13  Pass 1  IDiag  1:
 E= -599.598789168771     Delta-E=        0.000000000002 Rises=F Damp=F
 DIIS: error= 8.57D-08 at cycle   5 NSaved=   5.
 NSaved= 5 IEnMin= 4 EnMin= -599.598789168774     IErMin= 5 ErrMin= 8.57D-08
 ErrMax= 8.57D-08  0.00D+00 EMaxC= 1.00D-01 BMatC= 2.61D-13 BMatP= 1.23D-12
 IDIUse=1 WtCom= 1.00D+00 WtEn= 0.00D+00
 Coeff-Com: -0.109D-01-0.296D-02 0.613D-01 0.325D+00 0.628D+00
 Coeff:     -0.109D-01-0.296D-02 0.613D-01 0.325D+00 0.628D+00
 Gap=     0.183 Goal=   None    Shift=    0.000
 RMSDP=1.12D-08 MaxDP=1.30D-07 DE= 2.27D-12 OVMax= 1.34D-07

 Cycle  14  Pass 1  IDiag  1:
 E= -599.598789168774     Delta-E=       -0.000000000003 Rises=F Damp=F
 DIIS: error= 2.24D-08 at cycle   6 NSaved=   6.
 NSaved= 6 IEnMin= 6 EnMin= -599.598789168774     IErMin= 6 ErrMin= 2.24D-08
 ErrMax= 2.24D-08  0.00D+00 EMaxC= 1.00D-01 BMatC= 1.68D-14 BMatP= 2.61D-13
 IDIUse=1 WtCom= 1.00D+00 WtEn= 0.00D+00
 Coeff-Com: -0.418D-02-0.223D-03 0.723D-02 0.895D-01 0.249D+00 0.659D+00
 Coeff:     -0.418D-02-0.223D-03 0.723D-02 0.895D-01 0.249D+00 0.659D+00
 Gap=     0.183 Goal=   None    Shift=    0.000
 RMSDP=4.21D-09 MaxDP=5.32D-08 DE=-2.96D-12 OVMax= 5.15D-08

 SCF Done:  E(RPBE1PBE) =  -599.598789169     A.U. after   14 cycles
            NFock= 14  Conv=0.42D-08     -V/T= 2.0017
 KE= 5.986042165799D+02 PE=-1.607180687799D+03 EE= 3.229013904858D+02
 Leave Link  502 at Wed Oct  7 13:39:09 2020, MaxMem=  2684354560 cpu:              18.6 elap:               2.0
 (Enter /udrive/faculty/rpeverati/g16/g16/l508.exe)
 QCSCF skips out because SCF is already converged.
 Leave Link  508 at Wed Oct  7 13:39:10 2020, MaxMem=  2684354560 cpu:               0.5 elap:               0.5
 (Enter /udrive/faculty/rpeverati/g16/g16/l601.exe)
 Copying SCF densities to generalized density rwf, IOpCl= 0 IROHF=0.

 **********************************************************************

            Population analysis using the SCF density.

 **********************************************************************

 Orbital symmetries:
       Occupied  (A1) (A1) (A1) (A1) (A1) (E) (E) (A1) (A1) (A1)
                 (E) (E) (A1) (E) (E) (A1) (E) (E)
       Virtual   (A1) (A1) (E) (E) (A1) (E) (E) (A1) (E) (E) (A1)
                 (E) (E) (A1) (E) (E) (E) (E) (A1) (A1) (E) (E)
                 (A1) (E) (E) (A1) (E) (E) (E) (E) (A1) (E) (E)
                 (A1)
 The electronic state is 1-A1.
 Alpha  occ. eigenvalues -- -101.51004 -24.28682 -10.08277  -9.34086  -7.07462
 Alpha  occ. eigenvalues --   -7.06721  -7.06721  -0.69507  -0.68323  -0.50481
 Alpha  occ. eigenvalues --   -0.26723  -0.26723  -0.23326  -0.13978  -0.13978
 Alpha  occ. eigenvalues --    0.03680   0.04003   0.04003
 Alpha virt. eigenvalues --    0.22289   0.31345   0.35580   0.35580   0.57489
 Alpha virt. eigenvalues --    0.63374   0.63374   0.64070   0.72730   0.72730
 Alpha virt. eigenvalues --    0.88410   1.05031   1.05031   1.08665   1.10017
 Alpha virt. eigenvalues --    1.10017   1.12525   1.12525   1.22621   1.44682
 Alpha virt. eigenvalues --    1.61830   1.61830   1.67490   1.88045   1.88045
 Alpha virt. eigenvalues --    1.98222   2.27591   2.27591   2.28408   2.28408
 Alpha virt. eigenvalues --    2.31902   2.45588   2.45588   2.46913
          Condensed to atoms (all electrons):
               1          2          3          4          5          6
     1  Cl  17.482988  -0.046057  -0.045105  -0.045105  -0.045105   0.002541
     2  C   -0.046057   5.435745   0.374540   0.374540   0.374540   0.035599
     3  H   -0.045105   0.374540   0.495958  -0.024903  -0.024903   0.010595
     4  H   -0.045105   0.374540  -0.024903   0.495958  -0.024903   0.010595
     5  H   -0.045105   0.374540  -0.024903  -0.024903   0.495958   0.010595
     6  F    0.002541   0.035599   0.010595   0.010595   0.010595   9.718462
 Mulliken charges:
               1
     1  Cl  -0.304157
     2  C   -0.548906
     3  H    0.213817
     4  H    0.213817
     5  H    0.213817
     6  F   -0.788389
 Sum of Mulliken charges =  -1.00000
 Mulliken charges with hydrogens summed into heavy atoms:
               1
     1  Cl  -0.304157
     2  C    0.092546
     6  F   -0.788389
 Electronic spatial extent (au):  <R**2>=            498.8007
 Charge=             -1.0000 electrons
 Dipole moment (field-independent basis, Debye):
    X=             -0.0000    Y=             -0.0000    Z=              6.6588  Tot=              6.6588
 Quadrupole moment (field-independent basis, Debye-Ang):
   XX=            -26.0315   YY=            -26.0315   ZZ=            -60.5894
   XY=             -0.0000   XZ=              0.0000   YZ=             -0.0000
 Traceless Quadrupole moment (field-independent basis, Debye-Ang):
   XX=             11.5193   YY=             11.5193   ZZ=            -23.0386
   XY=             -0.0000   XZ=              0.0000   YZ=             -0.0000
 Octapole moment (field-independent basis, Debye-Ang**2):
  XXX=             -0.0000  YYY=              0.7969  ZZZ=             56.9914  XYY=              0.0000
  XXY=             -0.7969  XXZ=             -5.4938  XZZ=              0.0000  YZZ=              0.0000
  YYZ=             -5.4938  XYZ=              0.0000
 Hexadecapole moment (field-independent basis, Debye-Ang**3):
 XXXX=            -31.7403 YYYY=            -31.7403 ZZZZ=           -705.5678 XXXY=              0.0000
 XXXZ=              0.0000 YYYX=              0.0000 YYYZ=             -0.4288 ZZZX=              0.0000
 ZZZY=             -0.0000 XXYY=            -10.5801 XXZZ=            -88.9219 YYZZ=            -88.9219
 XXYZ=              0.4288 YYXZ=             -0.0000 ZZXY=              0.0000
 N-N= 8.607629156488D+01 E-N=-1.607180688311D+03  KE= 5.986042165799D+02
 No NMR shielding tensors so no spin-rotation constants.
 Leave Link  601 at Wed Oct  7 13:39:11 2020, MaxMem=  2684354560 cpu:               3.6 elap:               0.6
 (Enter /udrive/faculty/rpeverati/g16/g16/l701.exe)
 ... and contract with generalized density number  0.
 Compute integral first derivatives.
 Leave Link  701 at Wed Oct  7 13:39:11 2020, MaxMem=  2684354560 cpu:               4.4 elap:               0.7
 (Enter /udrive/faculty/rpeverati/g16/g16/l702.exe)
 L702 exits ... SP integral derivatives will be done elsewhere.
 Leave Link  702 at Wed Oct  7 13:39:12 2020, MaxMem=  2684354560 cpu:               1.0 elap:               0.3
 (Enter /udrive/faculty/rpeverati/g16/g16/l703.exe)
 Integral derivatives from FoFJK, PRISM(SPDF).
 Compute integral first derivatives, UseDBF=F ICtDFT=           0.
 Calling FoFJK, ICntrl=      2127 FMM=F ISym2X=1 I1Cent= 0 IOpClX= 0 NMat=1 NMatS=1 NMatT=0.
 FoFJK:  IHMeth= 1 ICntrl=    2127 DoSepK=F KAlg= 0 I1Cent=           0 FoldK=F
 IRaf=         0 NMat=       1 IRICut=       1 DoRegI=T DoRafI=F ISym2E= 1 IDoP0=0 IntGTp=1.
 FoFCou: FMM=F IPFlag=           0 FMFlag=      100000 FMFlg1=         800
         NFxFlg=           0 DoJE=F BraDBF=F KetDBF=F FulRan=T
         wScrn=  0.000000 ICntrl=      2127 IOpCl=  0 I1Cent=           0 NGrid=           0
         NMat0=    1 NMatS0=      1 NMatT0=    0 NMatD0=    1 NMtDS0=    0 NMtDT0=    0
 Petite list used in FoFCou.
 Leave Link  703 at Wed Oct  7 13:39:13 2020, MaxMem=  2684354560 cpu:               8.2 elap:               1.0
 (Enter /udrive/faculty/rpeverati/g16/g16/l716.exe)
 Dipole        =-2.22044605D-16-4.44089210D-16 2.61979271D+00
 ***** Axes restored to original set *****
 -------------------------------------------------------------------
 Center     Atomic                   Forces (Hartrees/Bohr)
 Number     Number              X              Y              Z
 -------------------------------------------------------------------
      1       17           0.000000000   -0.000000000    0.016252795
      2        6           0.000000000   -0.000000000   -0.013792543
      3        1          -0.001244699   -0.002155882   -0.004482669
      4        1          -0.001244699    0.002155882   -0.004482669
      5        1           0.002489398    0.000000000   -0.004482669
      6        9           0.000000000    0.000000000    0.010987756
 -------------------------------------------------------------------
 Cartesian Forces:  Max     0.016252795 RMS     0.006027680
 Leave Link  716 at Wed Oct  7 13:39:14 2020, MaxMem=  2684354560 cpu:               1.1 elap:               0.5
 (Enter /udrive/faculty/rpeverati/g16/g16/l103.exe)

 GradGradGradGradGradGradGradGradGradGradGradGradGradGradGradGradGradGrad
 Berny optimization.
 Optmz: redundant internal coordinate code flag= 1
 FormGI is forming the generalized inverse of G from B-inverse, IUseBI=4.
 Internal  Forces:  Max     0.016252795 RMS     0.003847846
 Search for a local minimum.
 Step number   1 out of a maximum of  100
 All quantities printed in internal units (Hartrees-Bohrs-Radians)
 RMS Force = .38478D-02 SwitMx=.10000D-02 MixMth= 1
 Mixed Optimization -- RFO/linear search
 Second derivative matrix not updated -- first step.
 The second derivative matrix:
                          R1        R2        R3        R4        R5
           R1           0.22511
           R2           0.00000   0.36311
           R3           0.00000   0.00000   0.36311
           R4           0.00000   0.00000   0.00000   0.36311
           R5           0.00000   0.00000   0.00000   0.00000   0.03586
           R6           0.00000   0.00000   0.00000   0.00000   0.00000
           R7           0.00000   0.00000   0.00000   0.00000   0.00000
           R8           0.00000   0.00000   0.00000   0.00000   0.00000
           A1           0.00000   0.00000   0.00000   0.00000   0.00000
           A2           0.00000   0.00000   0.00000   0.00000   0.00000
           A3           0.00000   0.00000   0.00000   0.00000   0.00000
           A4           0.00000   0.00000   0.00000   0.00000   0.00000
           A5           0.00000   0.00000   0.00000   0.00000   0.00000
           A6           0.00000   0.00000   0.00000   0.00000   0.00000
           A7           0.00000   0.00000   0.00000   0.00000   0.00000
           A8           0.00000   0.00000   0.00000   0.00000   0.00000
           A9           0.00000   0.00000   0.00000   0.00000   0.00000
           A10          0.00000   0.00000   0.00000   0.00000   0.00000
           A11          0.00000   0.00000   0.00000   0.00000   0.00000
           D1           0.00000   0.00000   0.00000   0.00000   0.00000
           D2           0.00000   0.00000   0.00000   0.00000   0.00000
           D3           0.00000   0.00000   0.00000   0.00000   0.00000
           D4           0.00000   0.00000   0.00000   0.00000   0.00000
                          R6        R7        R8        A1        A2
           R6           0.02355
           R7           0.00000   0.02355
           R8           0.00000   0.00000   0.02355
           A1           0.00000   0.00000   0.00000   0.16000
           A2           0.00000   0.00000   0.00000   0.00000   0.16000
           A3           0.00000   0.00000   0.00000   0.00000   0.00000
           A4           0.00000   0.00000   0.00000   0.00000   0.00000
           A5           0.00000   0.00000   0.00000   0.00000   0.00000
           A6           0.00000   0.00000   0.00000   0.00000   0.00000
           A7           0.00000   0.00000   0.00000   0.00000   0.00000
           A8           0.00000   0.00000   0.00000   0.00000   0.00000
           A9           0.00000   0.00000   0.00000   0.00000   0.00000
           A10          0.00000   0.00000   0.00000   0.00000   0.00000
           A11          0.00000   0.00000   0.00000   0.00000   0.00000
           D1           0.00000   0.00000   0.00000   0.00000   0.00000
           D2           0.00000   0.00000   0.00000   0.00000   0.00000
           D3           0.00000   0.00000   0.00000   0.00000   0.00000
           D4           0.00000   0.00000   0.00000   0.00000   0.00000
                          A3        A4        A5        A6        A7
           A3           0.16000
           A4           0.00000   0.16000
           A5           0.00000   0.00000   0.16000
           A6           0.00000   0.00000   0.00000   0.16000
           A7           0.00000   0.00000   0.00000   0.00000   0.16000
           A8           0.00000   0.00000   0.00000   0.00000   0.00000
           A9           0.00000   0.00000   0.00000   0.00000   0.00000
           A10          0.00000   0.00000   0.00000   0.00000   0.00000
           A11          0.00000   0.00000   0.00000   0.00000   0.00000
           D1           0.00000   0.00000   0.00000   0.00000   0.00000
           D2           0.00000   0.00000   0.00000   0.00000   0.00000
           D3           0.00000   0.00000   0.00000   0.00000   0.00000
           D4           0.00000   0.00000   0.00000   0.00000   0.00000
                          A8        A9        A10       A11       D1
           A8           0.16000
           A9           0.00000   0.16000
           A10          0.00000   0.00000   0.00230
           A11          0.00000   0.00000   0.00000   0.00230
           D1           0.00000   0.00000   0.00000   0.00000   0.00402
           D2           0.00000   0.00000   0.00000   0.00000   0.00000
           D3           0.00000   0.00000   0.00000   0.00000   0.00000
           D4           0.00000   0.00000   0.00000   0.00000   0.00000
                          D2        D3        D4
           D2           0.00230
           D3           0.00000   0.00230
           D4           0.00000   0.00000   0.00230
 ITU=  0
 Eigenvectors of the second derivative matrix:
                           1         2         3         4         5
     Eigenvalues --     0.02063   0.02080   0.02938   0.06208   0.10074
   1         R1         0.00000  -0.00000  -0.00000   0.00000   0.00000
   2         R2         0.00076   0.00278  -0.01216   0.00370  -0.00017
   3         R3        -0.00374   0.00036  -0.01185   0.01005  -0.01204
   4         R4         0.00296  -0.00307  -0.01187  -0.00354   0.01194
   5         R5         0.00033  -0.00067  -0.48750   0.40434   0.01860
   6         R6         0.18817   0.71135  -0.49606  -0.08937  -0.00376
   7         R7        -0.70691  -0.19213  -0.49480  -0.08436  -0.20863
   8         R8         0.51792  -0.51971  -0.49478  -0.07681   0.19571
   9         A1         0.00925   0.03404   0.02609   0.22076   0.00184
  10         A2        -0.03662  -0.00857   0.02619   0.22189   0.56577
  11         A3         0.02822  -0.02611   0.02619   0.22565  -0.53436
  12         A4        -0.00830   0.00630  -0.02957  -0.38933   0.03283
  13         A5         0.00838   0.00180  -0.02179  -0.11678  -0.06408
  14         A6        -0.00087  -0.00750  -0.02180  -0.11699   0.00026
  15         A7         0.04258  -0.04314   0.07402  -0.08822   0.02516
  16         A8        -0.05882  -0.01635   0.07614  -0.01725  -0.03198
  17         A9         0.01616   0.05977   0.07608  -0.01650   0.00118
  18         A10        0.10228   0.38661  -0.00047  -0.00493  -0.00834
  19         A11       -0.40684   0.10887  -0.00001  -0.00508   0.54630
  20         D1        -0.00527   0.00401  -0.07049  -0.67799  -0.00424
  21         D2        -0.05079   0.08667   0.01276   0.10766  -0.05312
  22         D3        -0.08769  -0.04940  -0.00792   0.06292  -0.05962
  23         D4        -0.04927  -0.08917   0.00808  -0.06291  -0.01146
                           6         7         8         9        10
     Eigenvalues --     0.10346   0.11690   0.11910   0.22511   0.33151
   1         R1        -0.00000  -0.00000   0.00000   1.00000  -0.00000
   2         R2         0.00575  -0.00983  -0.01988  -0.00000  -0.10157
   3         R3         0.00234   0.04591   0.01777  -0.00000   0.16188
   4         R4        -0.00771  -0.03050   0.00184   0.00000   0.91954
   5         R5        -0.01725  -0.20927   0.01156  -0.00000  -0.01221
   6         R6         0.21542   0.01476  -0.08143   0.00000   0.00994
   7         R7        -0.09515   0.04748   0.07654   0.00000   0.01928
   8         R8        -0.10452   0.13340  -0.00590  -0.00000   0.02803
   9         A1        -0.65257  -0.07034   0.08546  -0.00000  -0.00676
  10         A2         0.30246  -0.10505  -0.07032  -0.00000  -0.00026
  11         A3         0.31914  -0.20247   0.00573  -0.00000   0.02610
  12         A4        -0.03262  -0.49886   0.02830   0.00000  -0.02233
  13         A5        -0.03124   0.39890  -0.60477   0.00000   0.01816
  14         A6         0.09273   0.45225   0.55701   0.00000  -0.01361
  15         A7        -0.01784  -0.13438   0.00773  -0.00000   0.00314
  16         A8        -0.01861   0.08788  -0.16072  -0.00000   0.16147
  17         A9         0.04171   0.11044   0.14947  -0.00000   0.20348
  18         A10       -0.53848   0.03137   0.04123   0.00000   0.01025
  19         A11       -0.00769   0.03023  -0.02196   0.00000   0.01133
  20         D1         0.00279  -0.02296   0.00170   0.00000  -0.02569
  21         D2         0.04755   0.38401  -0.01892   0.00000   0.06099
  22         D3        -0.04400   0.17539  -0.36209  -0.00000  -0.15435
  23         D4        -0.08229  -0.21140  -0.34007   0.00000   0.13732
                          11        12
     Eigenvalues --     0.33869   0.34280
   1         R1         0.00000  -0.00000
   2         R2         0.68641   0.65323
   3         R3         0.64493  -0.67787
   4         R4        -0.05628   0.18585
   5         R5        -0.01033  -0.01812
   6         R6         0.02177   0.03362
   7         R7         0.02052  -0.00858
   8         R8         0.01232  -0.00231
   9         A1         0.02255   0.00612
  10         A2         0.02188  -0.03098
  11         A3        -0.00228  -0.00025
  12         A4         0.02481  -0.07616
  13         A5        -0.03455  -0.02990
  14         A6        -0.02956   0.12949
  15         A7         0.26323  -0.02777
  16         A8         0.11074   0.15308
  17         A9         0.10410  -0.05990
  18         A10       -0.00677  -0.01167
  19         A11       -0.01059   0.01361
  20         D1        -0.01487  -0.02583
  21         D2        -0.00634  -0.14333
  22         D3         0.07916   0.03742
  23         D4        -0.07643   0.05012
 Iter=   1 RLamda= 0.00000000D+00 Sum=-2.44259911D-03.
 Iter=   2 RLamda=-2.44259911D-03 Sum=-2.34156050D-03.
 Iter=   3 RLamda=-2.34156050D-03 Sum=-2.34546727D-03.
 Iter=   4 RLamda=-2.34546727D-03 Sum=-2.34531580D-03.
 Iter=   5 RLamda=-2.34531580D-03 Sum=-2.34532167D-03.
 RFO step:  Lambda=-2.34531580D-03 EMin= 2.06253828D-02
 Linear search not attempted -- first point.
 Iteration  1 RMS(Cart)=  0.02212119 RMS(Int)=  0.00015923
 Iteration  2 RMS(Cart)=  0.00007458 RMS(Int)=  0.00012294
 Iteration  3 RMS(Cart)=  0.00000000 RMS(Int)=  0.00012294
 ITry= 1 IFail=0 DXMaxC= 6.78D-02 DCOld= 1.00D+10 DXMaxT= 3.00D-01 DXLimC= 3.00D+00 Rises=F
 ClnCor:  largest displacement from symmetrization is 2.04D-04 for atom     4.
 Variable       Old X    -DE/DX   Delta X   Delta X   Delta X     New X
                                 (Linear)    (Quad)   (Total)
    R1        3.49693   0.01625   0.00000   0.07146   0.07146   3.56839
    R2        2.03598   0.00349   0.00000   0.00823   0.00816   2.04414
    R3        2.03598   0.00347   0.00000   0.00823   0.00816   2.04414
    R4        2.03598   0.00338   0.00000   0.00822   0.00816   2.04414
    R5        4.72800  -0.00270   0.00000  -0.08618  -0.08621   4.64179
    R6        4.54335  -0.00274   0.00000  -0.09047  -0.09039   4.45296
    R7        4.54335  -0.00274   0.00000  -0.09046  -0.09039   4.45296
    R8        4.54335  -0.00276   0.00000  -0.09050  -0.09039   4.45296
    A1        1.87993   0.00038   0.00000   0.00675   0.00678   1.88671
    A2        1.87993   0.00038   0.00000   0.00675   0.00678   1.88671
    A3        1.87993   0.00038   0.00000   0.00675   0.00678   1.88671
    A4        1.94031  -0.00013   0.00000  -0.00606  -0.00637   1.93394
    A5        1.94031  -0.00046   0.00000  -0.00641  -0.00637   1.93394
    A6        1.94031  -0.00046   0.00000  -0.00641  -0.00637   1.93394
    A7        0.75735   0.00181   0.00000   0.01741   0.01766   0.77501
    A8        0.75735   0.00170   0.00000   0.01732   0.01766   0.77501
    A9        0.75735   0.00170   0.00000   0.01731   0.01766   0.77501
   A10        3.14159  -0.00000   0.00000   0.00000   0.00000   3.14159
   A11        3.14159   0.00000   0.00000   0.00001   0.00000   3.14159
    D1        2.17165  -0.00085   0.00000  -0.01730  -0.01741   2.15423
    D2        0.56821   0.00008   0.00000   0.00206   0.00228   0.57049
    D3       -0.56821  -0.00027   0.00000  -0.00227  -0.00228  -0.57049
    D4        0.56821   0.00027   0.00000   0.00228   0.00228   0.57049
         Item               Value     Threshold  Converged?
 Maximum Force            0.016253     0.000450     NO 
 RMS     Force            0.003848     0.000300     NO 
 Maximum Displacement     0.067768     0.001800     NO 
 RMS     Displacement     0.022138     0.001200     NO 
 Predicted change in Energy=-1.216672D-03
 Lowest energy point so far.  Saving SCF results.
 Largest change from initial coordinates is atom    6       0.036 Angstoms.
 GradGradGradGradGradGradGradGradGradGradGradGradGradGradGradGradGradGrad

 Leave Link  103 at Wed Oct  7 13:39:15 2020, MaxMem=  2684354560 cpu:               4.1 elap:               0.7
 (Enter /udrive/faculty/rpeverati/g16/g16/l202.exe)
                          Input orientation:                          
 ---------------------------------------------------------------------
 Center     Atomic      Atomic             Coordinates (Angstroms)
 Number     Number       Type             X           Y           Z
 ---------------------------------------------------------------------
      1         17           0       -0.000000   -0.000000    2.151016
      2          6           0       -0.000000   -0.000000    0.262705
      3          1           0       -0.514092   -0.890433   -0.073368
      4          1           0       -0.514092    0.890433   -0.073368
      5          1           0        1.028183   -0.000000   -0.073368
      6          9           0       -0.000000   -0.000000   -2.193625
 ---------------------------------------------------------------------
                    Distance matrix (angstroms):
                    1          2          3          4          5
     1  Cl   0.000000
     2  C    1.888311   0.000000
     3  H    2.450519   1.081715   0.000000
     4  H    2.450519   1.081715   1.780866   0.000000
     5  H    2.450519   1.081715   1.780866   1.780866   0.000000
     6  F    4.344641   2.456330   2.356406   2.356406   2.356406
                    6
     6  F    0.000000
 Stoichiometry    CH3ClF(1-)
 Framework group  C3V[C3(FCCl),3SGV(H)]
 Deg. of freedom     4
 Full point group                 C3V     NOp   6
 RotChk:  IX=0 Diff= 0.00D+00
 Largest Abelian subgroup         CS      NOp   2
 Largest concise Abelian subgroup CS      NOp   2
                         Standard orientation:                         
 ---------------------------------------------------------------------
 Center     Atomic      Atomic             Coordinates (Angstroms)
 Number     Number       Type             X           Y           Z
 ---------------------------------------------------------------------
      1         17           0        0.000000    0.000000    1.631565
      2          6           0        0.000000    0.000000   -0.256746
      3          1           0        0.000000    1.028183   -0.592819
      4          1           0        0.890433   -0.514092   -0.592819
      5          1           0       -0.890433   -0.514092   -0.592819
      6          9           0        0.000000    0.000000   -2.713076
 ---------------------------------------------------------------------
 Rotational constants (GHZ):         158.1137403           2.1380284           2.1380284
 Leave Link  202 at Wed Oct  7 13:39:15 2020, MaxMem=  2684354560 cpu:               1.2 elap:               0.4
 (Enter /udrive/faculty/rpeverati/g16/g16/l301.exe)
 Standard basis: 6-31G(d) (5D, 7F)
 Ernie: Thresh=  0.10000D-02 Tol=  0.10000D-05 Strict=F.
 There are    40 symmetry adapted cartesian basis functions of A'  symmetry.
 There are    15 symmetry adapted cartesian basis functions of A"  symmetry.
 There are    37 symmetry adapted basis functions of A'  symmetry.
 There are    15 symmetry adapted basis functions of A"  symmetry.
    52 basis functions,   120 primitive gaussians,    55 cartesian basis functions
    18 alpha electrons       18 beta electrons
       nuclear repulsion energy        85.6268011397 Hartrees.
 IExCor= 1009 DFT=T Ex+Corr=PBE1PBE ExCW=0 ScaHFX=  0.250000
 ScaDFX=  0.750000  0.750000  1.000000  1.000000 ScalE2=  1.000000  1.000000
 IRadAn=      5 IRanWt=     -1 IRanGd=            0 ICorTp=0 IEmpDi=  4
 NAtoms=    6 NActive=    6 NUniq=    4 SFac= 2.25D+00 NAtFMM=   60 NAOKFM=F Big=F
 Integral buffers will be    131072 words long.
 Raffenetti 2 integral format.
 Two-electron integral symmetry is turned on.
 Leave Link  301 at Wed Oct  7 13:39:16 2020, MaxMem=  2684354560 cpu:               1.6 elap:               0.5
 (Enter /udrive/faculty/rpeverati/g16/g16/l302.exe)
 NPDir=0 NMtPBC=     1 NCelOv=     1 NCel=       1 NClECP=     1 NCelD=      1
         NCelK=      1 NCelE2=     1 NClLst=     1 CellRange=     0.0.
 One-electron integrals computed using PRISM.
 One-electron integral symmetry used in STVInt
 NBasis=    52 RedAO= T EigKep=  1.95D-02  NBF=    37    15
 NBsUse=    52 1.00D-06 EigRej= -1.00D+00 NBFU=    37    15
 Precomputing XC quadrature grid using
 IXCGrd= 4 IRadAn=           5 IRanWt=          -1 IRanGd=           0 AccXCQ= 0.00D+00.
 Generated NRdTot=       0 NPtTot=           0 NUsed=           0 NTot=          32
 NSgBfM=    55    55    55    55    55 MxSgAt=     6 MxSgA2=     6.
 Leave Link  302 at Wed Oct  7 13:39:17 2020, MaxMem=  2684354560 cpu:               3.4 elap:               0.7
 (Enter /udrive/faculty/rpeverati/g16/g16/l303.exe)
 DipDrv:  MaxL=1.
 Leave Link  303 at Wed Oct  7 13:39:18 2020, MaxMem=  2684354560 cpu:               1.1 elap:               0.7
 (Enter /udrive/faculty/rpeverati/g16/g16/l401.exe)
 Initial guess from the checkpoint file:  "MN_35_fch3clcomp1_BH76_PBE0_631Gs.chk"
 SCF N**3 symmetry information disabled.
 B after Tr=    -0.000000    0.000000   -0.000000
         Rot=    1.000000   -0.000000   -0.000000    0.000000 Ang=   0.00 deg.
 Guess basis will be translated and rotated to current coordinates.
 JPrj=2 DoOrth=T DoCkMO=T.
 Initial guess orbital symmetries:
       Occupied  (A1) (A1) (A1) (A1) (A1) (E) (E) (A1) (A1) (A1)
                 (E) (E) (A1) (E) (E) (A1) (E) (E)
       Virtual   (A1) (A1) (E) (E) (A1) (E) (E) (A1) (E) (E) (A1)
                 (E) (E) (A1) (E) (E) (E) (E) (A1) (A1) (E) (E)
                 (A1) (E) (E) (A1) (E) (E) (E) (E) (A1) (E) (E)
                 (A1)
 The electronic state of the initial guess is 1-A1.
 Generating alternative initial guess.
 ExpMin= 1.43D-01 ExpMax= 2.52D+04 ExpMxC= 3.78D+03 IAcc=2 IRadAn=         4 AccDes= 0.00D+00
 Harris functional with IExCor= 1009 and IRadAn=       4 diagonalized for initial guess.
 HarFok:  IExCor= 1009 AccDes= 0.00D+00 IRadAn=         4 IDoV= 1 UseB2=F ITyADJ=14
 ICtDFT=  3500011 ScaDFX=  1.000000  1.000000  1.000000  1.000000
 FoFCou: FMM=F IPFlag=           0 FMFlag=      100000 FMFlg1=           0
         NFxFlg=           0 DoJE=T BraDBF=F KetDBF=T FulRan=T
         wScrn=  0.000000 ICntrl=       500 IOpCl=  0 I1Cent=   200000004 NGrid=           0
         NMat0=    1 NMatS0=      1 NMatT0=    0 NMatD0=    1 NMtDS0=    0 NMtDT0=    0
 Petite list used in FoFCou.
 Harris En= -599.760008191424    
 Leave Link  401 at Wed Oct  7 13:39:19 2020, MaxMem=  2684354560 cpu:               6.3 elap:               0.8
 (Enter /udrive/faculty/rpeverati/g16/g16/l502.exe)
 Keep R1 ints in memory in symmetry-blocked form, NReq=11461374.
 FoFCou: FMM=F IPFlag=           0 FMFlag=           0 FMFlg1=           0
         NFxFlg=           0 DoJE=F BraDBF=F KetDBF=F FulRan=T
         wScrn=  0.000000 ICntrl=       600 IOpCl=  0 I1Cent=           0 NGrid=           0
         NMat0=    1 NMatS0=   1378 NMatT0=    0 NMatD0=    1 NMtDS0=    0 NMtDT0=    0
 Petite list used in FoFCou.
 Closed shell SCF:
 Using DIIS extrapolation, IDIIS=  1040.
 NGot=  2684354560 LenX=  2683850103 LenY=  2683846637
 Requested convergence on RMS density matrix=1.00D-08 within 120 cycles.
 Requested convergence on MAX density matrix=1.00D-06.
 Requested convergence on             energy=1.00D-06.
 No special actions if energy rises.
 Integral accuracy reduced to 1.0D-05 until final iterations.

 Cycle   1  Pass 0  IDiag  1:
 E= -599.600271797684    
 DIIS: error= 1.82D-03 at cycle   1 NSaved=   1.
 NSaved= 1 IEnMin= 1 EnMin= -599.600271797684     IErMin= 1 ErrMin= 1.82D-03
 ErrMax= 1.82D-03  0.00D+00 EMaxC= 1.00D-01 BMatC= 2.44D-04 BMatP= 2.44D-04
 IDIUse=3 WtCom= 9.82D-01 WtEn= 1.82D-02
 Coeff-Com:  0.100D+01
 Coeff-En:   0.100D+01
 Coeff:      0.100D+01
 Gap=     0.185 Goal=   None    Shift=    0.000
 GapD=    0.185 DampG=1.000 DampE=1.000 DampFc=1.0000 IDamp=-1.
 RMSDP=6.41D-04 MaxDP=6.48D-03              OVMax= 1.10D-02

 Cycle   2  Pass 0  IDiag  1:
 E= -599.600582191525     Delta-E=       -0.000310393840 Rises=F Damp=F
 DIIS: error= 1.35D-03 at cycle   2 NSaved=   2.
 NSaved= 2 IEnMin= 2 EnMin= -599.600582191525     IErMin= 2 ErrMin= 1.35D-03
 ErrMax= 1.35D-03  0.00D+00 EMaxC= 1.00D-01 BMatC= 7.95D-05 BMatP= 2.44D-04
 IDIUse=3 WtCom= 9.87D-01 WtEn= 1.35D-02
 Coeff-Com:  0.311D+00 0.689D+00
 Coeff-En:   0.000D+00 0.100D+01
 Coeff:      0.307D+00 0.693D+00
 Gap=     0.181 Goal=   None    Shift=    0.000
 RMSDP=2.59D-04 MaxDP=3.13D-03 DE=-3.10D-04 OVMax= 5.89D-03

 Cycle   3  Pass 0  IDiag  1:
 E= -599.600628605741     Delta-E=       -0.000046414216 Rises=F Damp=F
 DIIS: error= 9.30D-04 at cycle   3 NSaved=   3.
 NSaved= 3 IEnMin= 3 EnMin= -599.600628605741     IErMin= 3 ErrMin= 9.30D-04
 ErrMax= 9.30D-04  0.00D+00 EMaxC= 1.00D-01 BMatC= 3.84D-05 BMatP= 7.95D-05
 IDIUse=3 WtCom= 9.91D-01 WtEn= 9.30D-03
 Coeff-Com: -0.290D-01 0.406D+00 0.623D+00
 Coeff-En:   0.000D+00 0.327D+00 0.673D+00
 Coeff:     -0.287D-01 0.405D+00 0.624D+00
 Gap=     0.185 Goal=   None    Shift=    0.000
 RMSDP=1.74D-04 MaxDP=1.61D-03 DE=-4.64D-05 OVMax= 3.09D-03

 Cycle   4  Pass 0  IDiag  1:
 E= -599.600664424360     Delta-E=       -0.000035818620 Rises=F Damp=F
 DIIS: error= 3.84D-04 at cycle   4 NSaved=   4.
 NSaved= 4 IEnMin= 4 EnMin= -599.600664424360     IErMin= 4 ErrMin= 3.84D-04
 ErrMax= 3.84D-04  0.00D+00 EMaxC= 1.00D-01 BMatC= 3.35D-06 BMatP= 3.84D-05
 IDIUse=3 WtCom= 9.96D-01 WtEn= 3.84D-03
 Coeff-Com: -0.158D-01 0.243D+00 0.400D+00 0.373D+00
 Coeff-En:   0.000D+00 0.000D+00 0.000D+00 0.100D+01
 Coeff:     -0.158D-01 0.242D+00 0.398D+00 0.376D+00
 Gap=     0.184 Goal=   None    Shift=    0.000
 RMSDP=4.93D-05 MaxDP=4.65D-04 DE=-3.58D-05 OVMax= 1.02D-03

 Cycle   5  Pass 0  IDiag  1:
 E= -599.600667134725     Delta-E=       -0.000002710365 Rises=F Damp=F
 DIIS: error= 2.21D-05 at cycle   5 NSaved=   5.
 NSaved= 5 IEnMin= 5 EnMin= -599.600667134725     IErMin= 5 ErrMin= 2.21D-05
 ErrMax= 2.21D-05  0.00D+00 EMaxC= 1.00D-01 BMatC= 2.24D-08 BMatP= 3.35D-06
 IDIUse=1 WtCom= 1.00D+00 WtEn= 0.00D+00
 Coeff-Com: -0.427D-02 0.300D-01 0.661D-01 0.572D-01 0.851D+00
 Coeff:     -0.427D-02 0.300D-01 0.661D-01 0.572D-01 0.851D+00
 Gap=     0.184 Goal=   None    Shift=    0.000
 RMSDP=4.68D-06 MaxDP=4.36D-05 DE=-2.71D-06 OVMax= 7.41D-05

 Initial convergence to 1.0D-05 achieved.  Increase integral accuracy.
 Cycle   6  Pass 1  IDiag  1:
 E= -599.600668558119     Delta-E=       -0.000001423394 Rises=F Damp=F
 DIIS: error= 5.83D-06 at cycle   1 NSaved=   1.
 NSaved= 1 IEnMin= 1 EnMin= -599.600668558119     IErMin= 1 ErrMin= 5.83D-06
 ErrMax= 5.83D-06  0.00D+00 EMaxC= 1.00D-01 BMatC= 1.75D-09 BMatP= 1.75D-09
 IDIUse=1 WtCom= 1.00D+00 WtEn= 0.00D+00
 Coeff-Com:  0.100D+01
 Coeff:      0.100D+01
 Gap=     0.184 Goal=   None    Shift=    0.000
 RMSDP=4.68D-06 MaxDP=4.36D-05 DE=-1.42D-06 OVMax= 3.87D-05

 Cycle   7  Pass 1  IDiag  1:
 E= -599.600668558850     Delta-E=       -0.000000000731 Rises=F Damp=F
 DIIS: error= 5.88D-06 at cycle   2 NSaved=   2.
 NSaved= 2 IEnMin= 2 EnMin= -599.600668558850     IErMin= 1 ErrMin= 5.83D-06
 ErrMax= 5.88D-06  0.00D+00 EMaxC= 1.00D-01 BMatC= 1.47D-09 BMatP= 1.75D-09
 IDIUse=1 WtCom= 1.00D+00 WtEn= 0.00D+00
 Coeff-Com:  0.476D+00 0.524D+00
 Coeff:      0.476D+00 0.524D+00
 Gap=     0.184 Goal=   None    Shift=    0.000
 RMSDP=1.30D-06 MaxDP=1.32D-05 DE=-7.31D-10 OVMax= 2.55D-05

 Cycle   8  Pass 1  IDiag  1:
 E= -599.600668559988     Delta-E=       -0.000000001138 Rises=F Damp=F
 DIIS: error= 3.09D-06 at cycle   3 NSaved=   3.
 NSaved= 3 IEnMin= 3 EnMin= -599.600668559988     IErMin= 3 ErrMin= 3.09D-06
 ErrMax= 3.09D-06  0.00D+00 EMaxC= 1.00D-01 BMatC= 2.43D-10 BMatP= 1.47D-09
 IDIUse=1 WtCom= 1.00D+00 WtEn= 0.00D+00
 Coeff-Com:  0.222D+00 0.319D+00 0.459D+00
 Coeff:      0.222D+00 0.319D+00 0.459D+00
 Gap=     0.184 Goal=   None    Shift=    0.000
 RMSDP=4.40D-07 MaxDP=4.34D-06 DE=-1.14D-09 OVMax= 1.00D-05

 Cycle   9  Pass 1  IDiag  1:
 E= -599.600668560185     Delta-E=       -0.000000000197 Rises=F Damp=F
 DIIS: error= 4.37D-07 at cycle   4 NSaved=   4.
 NSaved= 4 IEnMin= 4 EnMin= -599.600668560185     IErMin= 4 ErrMin= 4.37D-07
 ErrMax= 4.37D-07  0.00D+00 EMaxC= 1.00D-01 BMatC= 4.69D-12 BMatP= 2.43D-10
 IDIUse=1 WtCom= 1.00D+00 WtEn= 0.00D+00
 Coeff-Com:  0.107D-01 0.179D-01 0.131D+00 0.840D+00
 Coeff:      0.107D-01 0.179D-01 0.131D+00 0.840D+00
 Gap=     0.184 Goal=   None    Shift=    0.000
 RMSDP=8.69D-08 MaxDP=1.14D-06 DE=-1.97D-10 OVMax= 8.25D-07

 Cycle  10  Pass 1  IDiag  1:
 E= -599.600668560188     Delta-E=       -0.000000000003 Rises=F Damp=F
 DIIS: error= 8.27D-08 at cycle   5 NSaved=   5.
 NSaved= 5 IEnMin= 5 EnMin= -599.600668560188     IErMin= 5 ErrMin= 8.27D-08
 ErrMax= 8.27D-08  0.00D+00 EMaxC= 1.00D-01 BMatC= 4.62D-13 BMatP= 4.69D-12
 IDIUse=1 WtCom= 1.00D+00 WtEn= 0.00D+00
 Coeff-Com: -0.162D-01-0.242D-01 0.216D-01 0.360D+00 0.658D+00
 Coeff:     -0.162D-01-0.242D-01 0.216D-01 0.360D+00 0.658D+00
 Gap=     0.184 Goal=   None    Shift=    0.000
 RMSDP=3.06D-08 MaxDP=4.13D-07 DE=-2.84D-12 OVMax= 3.65D-07

 Cycle  11  Pass 1  IDiag  1:
 E= -599.600668560189     Delta-E=       -0.000000000001 Rises=F Damp=F
 DIIS: error= 2.07D-08 at cycle   6 NSaved=   6.
 NSaved= 6 IEnMin= 6 EnMin= -599.600668560189     IErMin= 6 ErrMin= 2.07D-08
 ErrMax= 2.07D-08  0.00D+00 EMaxC= 1.00D-01 BMatC= 2.35D-14 BMatP= 4.62D-13
 IDIUse=1 WtCom= 1.00D+00 WtEn= 0.00D+00
 Coeff-Com: -0.673D-02-0.102D-01 0.252D-02 0.116D+00 0.280D+00 0.618D+00
 Coeff:     -0.673D-02-0.102D-01 0.252D-02 0.116D+00 0.280D+00 0.618D+00
 Gap=     0.184 Goal=   None    Shift=    0.000
 RMSDP=3.96D-09 MaxDP=4.09D-08 DE=-7.96D-13 OVMax= 6.95D-08

 SCF Done:  E(RPBE1PBE) =  -599.600668560     A.U. after   11 cycles
            NFock= 11  Conv=0.40D-08     -V/T= 2.0018
 KE= 5.985435934508D+02 PE=-1.606260636507D+03 EE= 3.224895733562D+02
 Leave Link  502 at Wed Oct  7 13:39:21 2020, MaxMem=  2684354560 cpu:              18.8 elap:               1.9
 (Enter /udrive/faculty/rpeverati/g16/g16/l508.exe)
 QCSCF skips out because SCF is already converged.
 Leave Link  508 at Wed Oct  7 13:39:22 2020, MaxMem=  2684354560 cpu:               0.4 elap:               0.4
 (Enter /udrive/faculty/rpeverati/g16/g16/l701.exe)
 ... and contract with generalized density number  0.
 Compute integral first derivatives.
 Leave Link  701 at Wed Oct  7 13:39:23 2020, MaxMem=  2684354560 cpu:               3.8 elap:               0.7
 (Enter /udrive/faculty/rpeverati/g16/g16/l702.exe)
 L702 exits ... SP integral derivatives will be done elsewhere.
 Leave Link  702 at Wed Oct  7 13:39:24 2020, MaxMem=  2684354560 cpu:               1.1 elap:               0.6
 (Enter /udrive/faculty/rpeverati/g16/g16/l703.exe)
 Integral derivatives from FoFJK, PRISM(SPDF).
 Compute integral first derivatives, UseDBF=F ICtDFT=           0.
 Calling FoFJK, ICntrl=      2127 FMM=F ISym2X=1 I1Cent= 0 IOpClX= 0 NMat=1 NMatS=1 NMatT=0.
 FoFJK:  IHMeth= 1 ICntrl=    2127 DoSepK=F KAlg= 0 I1Cent=           0 FoldK=F
 IRaf=         0 NMat=       1 IRICut=       1 DoRegI=T DoRafI=F ISym2E= 1 IDoP0=0 IntGTp=1.
 FoFCou: FMM=F IPFlag=           0 FMFlag=      100000 FMFlg1=         800
         NFxFlg=           0 DoJE=F BraDBF=F KetDBF=F FulRan=T
         wScrn=  0.000000 ICntrl=      2127 IOpCl=  0 I1Cent=           0 NGrid=           0
         NMat0=    1 NMatS0=      1 NMatT0=    0 NMatD0=    1 NMtDS0=    0 NMtDT0=    0
 Petite list used in FoFCou.
 Leave Link  703 at Wed Oct  7 13:39:25 2020, MaxMem=  2684354560 cpu:               8.9 elap:               1.2
 (Enter /udrive/faculty/rpeverati/g16/g16/l716.exe)
 Dipole        =-4.44089210D-16 1.11022302D-16 2.43493672D+00
 ***** Axes restored to original set *****
 -------------------------------------------------------------------
 Center     Atomic                   Forces (Hartrees/Bohr)
 Number     Number              X              Y              Z
 -------------------------------------------------------------------
      1       17           0.000000000   -0.000000000    0.006617856
      2        6           0.000000000    0.000000000   -0.014445543
      3        1          -0.000125360   -0.000217130   -0.000940376
      4        1          -0.000125360    0.000217130   -0.000940376
      5        1           0.000250720    0.000000000   -0.000940376
      6        9          -0.000000000   -0.000000000    0.010648816
 -------------------------------------------------------------------
 Cartesian Forces:  Max     0.014445543 RMS     0.004525904
 Leave Link  716 at Wed Oct  7 13:39:26 2020, MaxMem=  2684354560 cpu:               0.7 elap:               0.6
 (Enter /udrive/faculty/rpeverati/g16/g16/l103.exe)

 GradGradGradGradGradGradGradGradGradGradGradGradGradGradGradGradGradGrad
 Berny optimization.
 Optmz: redundant internal coordinate code flag= 1
 Using GEDIIS/GDIIS optimizer.
 Red2BG:  D1=  3.90D-01 OD1=  2.82D-02 B2RMS=  0.00D+00 IAprox=0
 FormGI is forming the generalized inverse of G from B-inverse, IUseBI=4.
 Internal  Forces:  Max     0.006617856 RMS     0.001935793
 Search for a local minimum.
 Step number   2 out of a maximum of  100
 All quantities printed in internal units (Hartrees-Bohrs-Radians)
 RMS Force = .19358D-02 SwitMx=.10000D-02 MixMth= 1
 Mixed Optimization -- RFO/linear search
 Update second derivatives using D2CorX and points    1    2
 DE= -1.88D-03 DEPred=-1.22D-03 R= 1.54D+00
 TightC=F SS=  1.41D+00  RLast= 1.97D-01 DXNew= 5.0454D-01 5.9065D-01
 Trust test= 1.54D+00 RLast= 1.97D-01 DXMaxT set to 5.05D-01
 The second derivative matrix:
                          R1        R2        R3        R4        R5
           R1           0.21282
           R2           0.00987   0.36860
           R3           0.01073   0.00575   0.36913
           R4           0.00939   0.00535   0.00561   0.36832
           R5           0.03863   0.00909   0.00923   0.00901   0.03433
           R6           0.00984   0.00118   0.00114   0.00121  -0.00378
           R7           0.00976   0.00116   0.00111   0.00118  -0.00379
           R8           0.00890   0.00090   0.00084   0.00093  -0.00393
           A1           0.00434   0.00223   0.00233   0.00217   0.00344
           A2           0.00437   0.00224   0.00234   0.00218   0.00345
           A3           0.00452   0.00228   0.00239   0.00223   0.00347
           A4           0.00294   0.00003  -0.00001   0.00005  -0.00210
           A5          -0.00769  -0.00319  -0.00332  -0.00312  -0.00382
           A6          -0.00778  -0.00322  -0.00335  -0.00315  -0.00384
           A7          -0.00835  -0.00014  -0.00004  -0.00020   0.00578
           A8          -0.01150  -0.00110  -0.00102  -0.00114   0.00527
           A9          -0.01134  -0.00105  -0.00097  -0.00109   0.00529
           A10          0.00011   0.00003   0.00003   0.00003   0.00002
           A11          0.00012   0.00004   0.00004   0.00004   0.00002
           D1          -0.02653  -0.00810  -0.00832  -0.00797  -0.00448
           D2          -0.00307  -0.00092  -0.00095  -0.00091  -0.00048
           D3          -0.00327  -0.00099  -0.00102  -0.00098  -0.00054
           D4           0.00319   0.00097   0.00100   0.00095   0.00053
                          R6        R7        R8        A1        A2
           R6           0.02182
           R7          -0.00173   0.02183
           R8          -0.00168  -0.00168   0.02193
           A1           0.00039   0.00038   0.00028   0.16090
           A2           0.00039   0.00038   0.00028   0.00091   0.16091
           A3           0.00038   0.00038   0.00027   0.00092   0.00093
           A4          -0.00074  -0.00073  -0.00070  -0.00002  -0.00002
           A5          -0.00018  -0.00017  -0.00005  -0.00127  -0.00128
           A6          -0.00018  -0.00017  -0.00004  -0.00128  -0.00129
           A7           0.00205   0.00204   0.00194   0.00003   0.00004
           A8           0.00221   0.00221   0.00213  -0.00034  -0.00034
           A9           0.00221   0.00220   0.00213  -0.00032  -0.00032
           A10         -0.00001  -0.00001  -0.00001   0.00001   0.00001
           A11         -0.00001  -0.00001  -0.00001   0.00001   0.00001
           D1           0.00134   0.00136   0.00159  -0.00315  -0.00316
           D2           0.00016   0.00017   0.00019  -0.00036  -0.00036
           D3           0.00017   0.00017   0.00020  -0.00039  -0.00039
           D4          -0.00016  -0.00017  -0.00019   0.00038   0.00038
                          A3        A4        A5        A6        A7
           A3           0.16094
           A4          -0.00003   0.15972
           A5          -0.00130   0.00017   0.16173
           A6          -0.00131   0.00018   0.00174   0.16175
           A7           0.00005   0.00078  -0.00045  -0.00046   0.15782
           A8          -0.00032   0.00091   0.00001   0.00001  -0.00254
           A9          -0.00031   0.00090  -0.00001  -0.00002  -0.00252
           A10          0.00001  -0.00000  -0.00002  -0.00002   0.00001
           A11          0.00001  -0.00000  -0.00002  -0.00002   0.00001
           D1          -0.00320   0.00111   0.00392   0.00394  -0.00302
           D2          -0.00037   0.00013   0.00045   0.00045  -0.00036
           D3          -0.00039   0.00014   0.00048   0.00048  -0.00037
           D4           0.00038  -0.00013  -0.00047  -0.00047   0.00036
                          A8        A9        A10       A11       D1
           A8           0.15719
           A9          -0.00279   0.15722
           A10          0.00001   0.00001   0.00230
           A11          0.00001   0.00001   0.00000   0.00230
           D1          -0.00219  -0.00223  -0.00003  -0.00003   0.01116
           D2          -0.00026  -0.00027  -0.00000  -0.00000   0.00080
           D3          -0.00027  -0.00028  -0.00000  -0.00000   0.00087
           D4           0.00027   0.00027   0.00000   0.00000  -0.00085
                          D2        D3        D4
           D2           0.00239
           D3           0.00010   0.00241
           D4          -0.00010  -0.00010   0.00240
 ITU=  1  0
 Use linear search instead of GDIIS.
 Eigenvectors of the second derivative matrix:
                           1         2         3         4         5
     Eigenvalues --     0.01020   0.02070   0.02088   0.06841   0.10057
   1         R1         0.18136  -0.00012  -0.00005  -0.18675  -0.01358
   2         R2         0.00776   0.00080   0.00307  -0.02642  -0.00197
   3         R3         0.00786  -0.00403   0.00033  -0.01735  -0.01380
   4         R4         0.00793   0.00313  -0.00324  -0.03577   0.01019
   5         R5        -0.53080   0.00019   0.00027   0.30229   0.01700
   6         R6        -0.46882   0.18736   0.71231  -0.16074  -0.00682
   7         R7        -0.46915  -0.70653  -0.19199  -0.15445  -0.21244
   8         R8        -0.46942   0.51820  -0.51832  -0.14439   0.19244
   9         A1        -0.00366   0.00918   0.03412   0.20470   0.00051
  10         A2        -0.00366  -0.03685  -0.00857   0.20636   0.56710
  11         A3        -0.00367   0.02839  -0.02616   0.21342  -0.53209
  12         A4         0.00305  -0.00909   0.00703  -0.42273   0.02643
  13         A5         0.00368   0.00943   0.00205  -0.08442  -0.06321
  14         A6         0.00367  -0.00103  -0.00850  -0.08469   0.00311
  15         A7         0.08995   0.04438  -0.04503  -0.09886   0.02439
  16         A8         0.09017  -0.06123  -0.01724  -0.00822  -0.03317
  17         A9         0.09021   0.01679   0.06213  -0.00706   0.00199
  18         A10        0.00017   0.10155   0.38548  -0.00719  -0.01028
  19         A11        0.00009  -0.40663   0.10840  -0.00806   0.54721
  20         D1         0.00911  -0.00572   0.00446  -0.66128  -0.00856
  21         D2         0.01212  -0.05139   0.08803   0.13640  -0.05044
  22         D3        -0.01171  -0.08882  -0.05045   0.07735  -0.05931
  23         D4         0.01164  -0.05016  -0.09049  -0.07746  -0.01420
                           6         7         8         9        10
     Eigenvalues --     0.10341   0.11734   0.11875   0.22711   0.33317
   1         R1         0.01286  -0.17703  -0.01353   0.94098   0.02437
   2         R2         0.00768  -0.01064  -0.02090  -0.06978  -0.40096
   3         R3         0.00370  -0.06592   0.01499  -0.09505  -0.14692
   4         R4        -0.00605   0.00924   0.00086  -0.07376   0.84448
   5         R5        -0.01568   0.18828   0.01418   0.19083   0.00863
   6         R6         0.21763  -0.05036  -0.08646   0.03987   0.00170
   7         R7        -0.09040  -0.08612   0.07469   0.03728   0.01068
   8         R8        -0.10223  -0.16784  -0.01113   0.02934   0.02232
   9         A1        -0.65284   0.07718   0.09027   0.06090  -0.01124
  10         A2         0.29923   0.11416  -0.07004   0.06056  -0.00498
  11         A3         0.32073   0.20536   0.00964   0.06436   0.03038
  12         A4        -0.02729   0.46816   0.03615   0.00468  -0.03085
  13         A5        -0.03456  -0.38370  -0.61001  -0.09209   0.02411
  14         A6         0.09302  -0.46042   0.54557  -0.08870  -0.00668
  15         A7        -0.01707   0.12902   0.01008  -0.03866  -0.11921
  16         A8        -0.01998  -0.08830  -0.16679  -0.06093   0.09314
  17         A9         0.04337  -0.11766   0.15093  -0.06478   0.13437
  18         A10       -0.53894  -0.03063   0.04268   0.00047   0.01253
  19         A11       -0.00991  -0.02784  -0.02324   0.00093   0.01523
  20         D1         0.00630   0.00402   0.00082  -0.12167  -0.02724
  21         D2         0.04544  -0.37370  -0.02623  -0.04980   0.05380
  22         D3        -0.04703  -0.16205  -0.36618  -0.01320  -0.17453
  23         D4        -0.08279   0.21230  -0.33724   0.01431   0.15852
                          11        12
     Eigenvalues --     0.34265   0.35413
   1         R1        -0.00732   0.11946
   2         R2         0.61937   0.59713
   3         R3        -0.71351   0.59789
   4         R4         0.16524   0.36654
   5         R5        -0.01689   0.05670
   6         R6         0.03329   0.03995
   7         R7        -0.00996   0.04001
   8         R8        -0.00310   0.03426
   9         A1         0.00552   0.04343
  10         A2        -0.03263   0.04360
  11         A3        -0.00063   0.03639
  12         A4        -0.07578   0.00311
  13         A5        -0.02928  -0.05999
  14         A6         0.13136  -0.06008
  15         A7        -0.04227   0.23215
  16         A8         0.14565   0.16872
  17         A9        -0.07129   0.16884
  18         A10       -0.01189  -0.00190
  19         A11        0.01413  -0.00327
  20         D1        -0.02505  -0.08080
  21         D2        -0.14389  -0.00008
  22         D3         0.03592  -0.00290
  23         D4         0.04929   0.00286
 Iter=   1 RLamda= 0.00000000D+00 Sum=-4.11916017D-03.
 Iter=   2 RLamda=-4.11916017D-03 Sum=-3.41391706D-03.
 Iter=   3 RLamda=-3.41391706D-03 Sum=-3.50627944D-03.
 Iter=   4 RLamda=-3.50627944D-03 Sum=-3.49368509D-03.
 Iter=   5 RLamda=-3.49368509D-03 Sum=-3.49539319D-03.
 Iter=   6 RLamda=-3.49539319D-03 Sum=-3.49516136D-03.
 Iter=   7 RLamda=-3.49516136D-03 Sum=-3.49519282D-03.
 Iter=   8 RLamda=-3.49519282D-03 Sum=-3.49518855D-03.
 RFO step:  Lambda=-3.49519282D-03 EMin= 1.02027941D-02
 Quartic linear search produced a step of  2.00000.
 Iteration  1 RMS(Cart)=  0.04786478 RMS(Int)=  0.06336709
 Iteration  2 RMS(Cart)=  0.03105560 RMS(Int)=  0.00226002
 Iteration  3 RMS(Cart)=  0.00017587 RMS(Int)=  0.00225002
 Iteration  4 RMS(Cart)=  0.00000005 RMS(Int)=  0.00225002
 ITry= 1 IFail=0 DXMaxC= 2.97D-01 DCOld= 1.00D+10 DXMaxT= 5.05D-01 DXLimC= 3.00D+00 Rises=F
 ClnCor:  largest displacement from symmetrization is 9.60D-04 for atom     3.
 Variable       Old X    -DE/DX   Delta X   Delta X   Delta X     New X
                                 (Linear)    (Quad)   (Total)
    R1        3.56839   0.00662   0.14291   0.02302   0.16593   3.73432
    R2        2.04414   0.00058   0.01633  -0.00822   0.00568   2.04983
    R3        2.04414   0.00047   0.01633  -0.00823   0.00568   2.04983
    R4        2.04414   0.00051   0.01633  -0.00827   0.00568   2.04983
    R5        4.64179  -0.00426  -0.17243  -0.22933  -0.40287   4.23892
    R6        4.45296  -0.00224  -0.18078  -0.15366  -0.33296   4.12001
    R7        4.45296  -0.00223  -0.18078  -0.15365  -0.33296   4.12001
    R8        4.45296  -0.00217  -0.18078  -0.15333  -0.33296   4.12001
    A1        1.88671  -0.00076   0.01356  -0.02662  -0.01229   1.87442
    A2        1.88671  -0.00076   0.01356  -0.02662  -0.01229   1.87442
    A3        1.88671  -0.00078   0.01356  -0.02662  -0.01229   1.87442
    A4        1.93394   0.00028  -0.01275   0.02368   0.01147   1.94541
    A5        1.93394   0.00095  -0.01275   0.02600   0.01147   1.94541
    A6        1.93394   0.00096  -0.01275   0.02600   0.01147   1.94541
    A7        0.77501   0.00070   0.03531   0.03155   0.07246   0.84746
    A8        0.77501   0.00089   0.03531   0.03216   0.07246   0.84746
    A9        0.77501   0.00087   0.03531   0.03216   0.07246   0.84746
   A10        3.14159  -0.00001   0.00000  -0.00005   0.00000   3.14159
   A11        3.14159  -0.00001   0.00000  -0.00009   0.00000   3.14159
    D1        2.15423   0.00170  -0.03482   0.06708   0.03170   2.18593
    D2        0.57049   0.00037   0.00455   0.00512   0.01009   0.58058
    D3       -0.57049   0.00004  -0.00455  -0.00370  -0.01009  -0.58058
    D4        0.57049  -0.00003   0.00455   0.00370   0.01009   0.58058
         Item               Value     Threshold  Converged?
 Maximum Force            0.006618     0.000450     NO 
 RMS     Force            0.001936     0.000300     NO 
 Maximum Displacement     0.296847     0.001800     NO 
 RMS     Displacement     0.073582     0.001200     NO 
 Predicted change in Energy=-2.377946D-03
 Lowest energy point so far.  Saving SCF results.
 Largest change from initial coordinates is atom    6       0.173 Angstoms.
 GradGradGradGradGradGradGradGradGradGradGradGradGradGradGradGradGradGrad

 Leave Link  103 at Wed Oct  7 13:39:27 2020, MaxMem=  2684354560 cpu:               3.1 elap:               0.7
 (Enter /udrive/faculty/rpeverati/g16/g16/l202.exe)
                          Input orientation:                          
 ---------------------------------------------------------------------
 Center     Atomic      Atomic             Coordinates (Angstroms)
 Number     Number       Type             X           Y           Z
 ---------------------------------------------------------------------
      1         17           0        0.000000   -0.000000    2.182715
      2          6           0        0.000000   -0.000000    0.206600
      3          1           0       -0.517553   -0.896427   -0.117716
      4          1           0       -0.517553    0.896427   -0.117716
      5          1           0        1.035105   -0.000000   -0.117716
      6          9           0        0.000000   -0.000000   -2.036541
 ---------------------------------------------------------------------
                    Distance matrix (angstroms):
                    1          2          3          4          5
     1  Cl   0.000000
     2  C    1.976115   0.000000
     3  H    2.522583   1.084723   0.000000
     4  H    2.522583   1.084723   1.792855   0.000000
     5  H    2.522583   1.084723   1.792855   1.792855   0.000000
     6  F    4.219256   2.243141   2.180214   2.180214   2.180214
                    6
     6  F    0.000000
 Stoichiometry    CH3ClF(1-)
 Framework group  C3V[C3(FCCl),3SGV(H)]
 Deg. of freedom     4
 Full point group                 C3V     NOp   6
 RotChk:  IX=0 Diff= 0.00D+00
 Largest Abelian subgroup         CS      NOp   2
 Largest concise Abelian subgroup CS      NOp   2
                         Standard orientation:                         
 ---------------------------------------------------------------------
 Center     Atomic      Atomic             Coordinates (Angstroms)
 Number     Number       Type             X           Y           Z
 ---------------------------------------------------------------------
      1         17           0        0.000000    0.000000    1.620894
      2          6           0        0.000000    0.000000   -0.355221
      3          1           0        0.000000    1.035105   -0.679537
      4          1           0        0.896427   -0.517553   -0.679537
      5          1           0       -0.896427   -0.517553   -0.679537
      6          9           0        0.000000    0.000000   -2.598362
 ---------------------------------------------------------------------
 Rotational constants (GHZ):         156.0062200           2.2495621           2.2495621
 Leave Link  202 at Wed Oct  7 13:39:28 2020, MaxMem=  2684354560 cpu:               1.6 elap:               0.6
 (Enter /udrive/faculty/rpeverati/g16/g16/l301.exe)
 Standard basis: 6-31G(d) (5D, 7F)
 Ernie: Thresh=  0.10000D-02 Tol=  0.10000D-05 Strict=F.
 There are    40 symmetry adapted cartesian basis functions of A'  symmetry.
 There are    15 symmetry adapted cartesian basis functions of A"  symmetry.
 There are    37 symmetry adapted basis functions of A'  symmetry.
 There are    15 symmetry adapted basis functions of A"  symmetry.
    52 basis functions,   120 primitive gaussians,    55 cartesian basis functions
    18 alpha electrons       18 beta electrons
       nuclear repulsion energy        86.1611747942 Hartrees.
 IExCor= 1009 DFT=T Ex+Corr=PBE1PBE ExCW=0 ScaHFX=  0.250000
 ScaDFX=  0.750000  0.750000  1.000000  1.000000 ScalE2=  1.000000  1.000000
 IRadAn=      5 IRanWt=     -1 IRanGd=            0 ICorTp=0 IEmpDi=  4
 NAtoms=    6 NActive=    6 NUniq=    4 SFac= 2.25D+00 NAtFMM=   60 NAOKFM=F Big=F
 Integral buffers will be    131072 words long.
 Raffenetti 2 integral format.
 Two-electron integral symmetry is turned on.
[...]
           D2           0.00201   0.00194  -0.00005   0.00007  -0.00349
           D3          -0.00117  -0.00117   0.00004   0.00006  -0.00107
           D4           0.00111   0.00111  -0.00004  -0.00006   0.00117
                          D2        D3        D4
           D2           0.00297
           D3          -0.00004   0.00256
           D4           0.00002  -0.00026   0.00256
 ITU=  1  1  1  1  1  1  1  1  1  1  1  1  1  1  1  0
 Eigenvectors of the second derivative matrix:
                           1         2         3         4         5
     Eigenvalues --     0.00838   0.01515   0.01795   0.04379   0.09558
   1         R1         0.99889   0.00464   0.00006   0.00722  -0.02328
   2         R2         0.00117  -0.00190   0.00461   0.04769  -0.03947
   3         R3         0.00121  -0.00735  -0.00277   0.04780  -0.02601
   4         R4         0.00107   0.00914  -0.00194   0.04315  -0.04962
   5         R5        -0.02957   0.00098   0.00023   0.04304  -0.22812
   6         R6        -0.01835   0.12590  -0.64211   0.36241  -0.20100
   7         R7        -0.01950   0.43949   0.44274   0.36295  -0.22876
   8         R8        -0.01548  -0.56546   0.20285   0.32683  -0.17673
   9         A1        -0.00526   0.00669  -0.03950  -0.20764   0.02343
  10         A2        -0.00528   0.02525   0.02689  -0.20677   0.26759
  11         A3        -0.00519  -0.03002   0.01038  -0.21598  -0.34724
  12         A4        -0.00650   0.04098  -0.00679  -0.26263  -0.42961
  13         A5        -0.00477  -0.02691  -0.02403  -0.19100   0.19182
  14         A6        -0.00482  -0.01209   0.02853  -0.19099   0.18030
  15         A7         0.00302  -0.05826   0.02285  -0.15813  -0.10966
  16         A8         0.00308   0.04701   0.04690  -0.13009   0.09210
  17         A9         0.00322   0.01190  -0.07144  -0.13013   0.09473
  18         A10       -0.00045   0.10231  -0.52767   0.01046   0.04369
  19         A11       -0.00197   0.50682   0.12192   0.02079   0.34537
  20         D1         0.01332  -0.02689   0.00558   0.53494   0.30305
  21         D2         0.00216  -0.25365  -0.13096   0.00279   0.29359
  22         D3         0.00095  -0.27616   0.00531   0.02961   0.15285
  23         D4        -0.00078   0.22923  -0.16831  -0.02967  -0.14174
                           6         7         8         9        10
     Eigenvalues --     0.10642   0.10771   0.11703   0.13498   0.27945
   1         R1         0.02028   0.00780   0.00263   0.03131  -0.00837
   2         R2         0.05329  -0.05123   0.03123   0.08327   0.12552
   3         R3        -0.03286   0.03336  -0.01657   0.15334   0.12045
   4         R4         0.09138   0.05806   0.00344   0.01375   0.82840
   5         R5         0.22453   0.08752   0.03235   0.44793  -0.25602
   6         R6         0.22256  -0.19465   0.13641   0.24248  -0.03201
   7         R7        -0.09399   0.13719  -0.08378   0.35791  -0.03402
   8         R8         0.37192   0.24410   0.01125   0.08589   0.18068
   9         A1        -0.10154   0.63034  -0.15668   0.15403  -0.03843
  10         A2         0.55337  -0.19140   0.15090   0.09292  -0.04293
  11         A3        -0.32445  -0.38487   0.03150   0.25895   0.11516
  12         A4         0.25020   0.09084   0.01402  -0.23230  -0.06415
  13         A5         0.03727  -0.13822  -0.53902   0.39279   0.04923
  14         A6        -0.15721   0.10268   0.55130   0.35685   0.04948
  15         A7         0.07485   0.03421   0.00170  -0.09929   0.04346
  16         A8        -0.02728  -0.05208  -0.19563   0.11693   0.22078
  17         A9        -0.07494   0.00928   0.19555   0.10657   0.21994
  18         A10       -0.11117   0.45565  -0.09285  -0.00413   0.03213
  19         A11        0.36745   0.07806   0.03638  -0.02544   0.05546
  20         D1        -0.23202  -0.08883  -0.02390  -0.15077   0.02050
  21         D2        -0.05431  -0.04501   0.02244   0.24466  -0.00009
  22         D3         0.07498  -0.06740  -0.35217   0.10626  -0.16425
  23         D4         0.08935  -0.12942  -0.34263  -0.09496   0.16423
                          11        12
     Eigenvalues --     0.28864   0.31265
   1         R1        -0.00873  -0.00054
   2         R2         0.49877   0.72149
   3         R3         0.66015  -0.54194
   4         R4        -0.18187  -0.03696
   5         R5        -0.27543  -0.01868
   6         R6         0.07707   0.11539
   7         R7         0.11764  -0.10386
   8         R8        -0.10851  -0.00393
   9         A1         0.02506   0.18927
  10         A2         0.06740  -0.14032
  11         A3        -0.13172  -0.00866
  12         A4         0.10553  -0.06837
  13         A5        -0.06944   0.03046
  14         A6        -0.07624   0.07910
  15         A7         0.28220   0.01690
  16         A8         0.05387   0.15617
  17         A9         0.08411  -0.09432
  18         A10       -0.02570  -0.12973
  19         A11       -0.07272   0.05268
  20         D1        -0.04331   0.01935
  21         D2         0.06015  -0.17686
  22         D3         0.12268   0.04623
  23         D4        -0.12022  -0.07417
 DoSqrt=T IScMMF=    -3 MM Scaling Factor =       0.00000
 En-DIIS/RFO-DIIS/Sim-DIIS IScMMF=       -3 using points:    16   15   14   13   12
 Iter=   1 RLamda=-4.16217873D-02 Sum=-2.85655109D-10.
 Iter=   2 RLamda=-2.85655109D-10 Sum=-5.77315864D-10.
 RFO step:  Lambda=-2.85655109D-10.
 NNeg= 0 NGDIIS= 5 SimSw=  2.50D-01 Rises=F DC= -2.67D-06 SmlDif=  1.00D-05
 NRisDI= 0 DoIntr=F SqrtH=F CThrHd= 10.0 CDAdj=  3.0
 RMS Error=  0.2711961630D-04 NUsed= 5 OKEnD=F EnDIS=F
 Total RFO-DIIS matrix:
                 1             2             3             4             5 
      1   0.000000D+00 -0.100000D+01 -0.100000D+01 -0.100000D+01 -0.100000D+01
      2  -0.100000D+01  0.169159D-07 -0.156122D-05 -0.443236D-05 -0.475276D-05
      3  -0.100000D+01 -0.156122D-05  0.264513D-03  0.941924D-03  0.102841D-02
      4  -0.100000D+01 -0.443236D-05  0.941924D-03  0.366864D-02  0.403795D-02
      5  -0.100000D+01 -0.475276D-05  0.102841D-02  0.403795D-02  0.444788D-02
      6  -0.100000D+01 -0.395060D-05  0.102899D-02  0.424827D-02  0.469819D-02
                 6 
      1  -0.100000D+01
      2  -0.395060D-05
      3   0.102899D-02
      4   0.424827D-02
      5   0.469819D-02
      6   0.508821D-02
 InvSVX:  RCond= 2.74D-10 Info=           0 Equed=N FErr=  2.70D-09 BErr=  1.04D-16
 DIIS inversion failure, remove point   5.
 InvSVX:  RCond= 2.98D-08 Info=           0 Equed=N FErr=  3.96D-12 BErr=  7.64D-17
 DIIS inversion failure, remove point   4.
 InvSVX:  RCond= 3.88D-06 Info=           0 Equed=N FErr=  1.46D-15 BErr=  5.10D-17
 RFO-DIIS uses    3 points instead of    5
 DidBck=F Rises=F RFO-DIIS coefs:    0.98506    0.01850   -0.00356    0.00000    0.00000
 Iteration  1 RMS(Cart)=  0.00001407 RMS(Int)=  0.00000001
 Iteration  2 RMS(Cart)=  0.00000000 RMS(Int)=  0.00000001
 ITry= 1 IFail=0 DXMaxC= 3.63D-05 DCOld= 1.00D+10 DXMaxT= 2.93D+00 DXLimC= 3.00D+00 Rises=F
 ClnCor:  largest displacement from symmetrization is 1.87D-06 for atom     3.
 Variable       Old X    -DE/DX   Delta X   Delta X   Delta X     New X
                                 (Linear)    (Quad)   (Total)
    R1        6.04239   0.00000   0.00007   0.00000   0.00007   6.04246
    R2        2.06305   0.00000   0.00003  -0.00002   0.00001   2.06306
    R3        2.06305   0.00000   0.00003  -0.00002   0.00001   2.06306
    R4        2.06305   0.00000   0.00003  -0.00002   0.00001   2.06306
    R5        2.64422  -0.00000  -0.00002   0.00002   0.00000   2.64422
    R6        3.87242   0.00000   0.00002   0.00001   0.00004   3.87246
    R7        3.87242   0.00000   0.00002   0.00001   0.00004   3.87246
    R8        3.87242   0.00000   0.00002   0.00001   0.00004   3.87246
    A1        1.22017  -0.00000  -0.00002  -0.00001  -0.00002   1.22015
    A2        1.22017  -0.00000  -0.00002  -0.00001  -0.00002   1.22015
    A3        1.22017  -0.00000  -0.00002  -0.00001  -0.00002   1.22015
    A4        1.89972  -0.00000  -0.00002  -0.00000  -0.00002   1.89970
    A5        1.89972  -0.00000  -0.00002  -0.00001  -0.00002   1.89970
    A6        1.89972  -0.00000  -0.00002  -0.00001  -0.00002   1.89970
    A7        0.89632  -0.00000   0.00000  -0.00001  -0.00002   0.89631
    A8        0.89632  -0.00000   0.00000  -0.00002  -0.00002   0.89631
    A9        0.89632  -0.00000   0.00000  -0.00002  -0.00002   0.89631
   A10        3.14159   0.00000   0.00000   0.00000   0.00000   3.14159
   A11        3.14159  -0.00000  -0.00000   0.00000   0.00000   3.14159
    D1       -2.06822   0.00000   0.00004   0.00001   0.00006  -2.06816
    D2        0.58811  -0.00000   0.00000  -0.00000  -0.00000   0.58811
    D3       -0.58811  -0.00000  -0.00000   0.00000   0.00000  -0.58811
    D4        0.58811   0.00000   0.00000  -0.00000  -0.00000   0.58811
         Item               Value     Threshold  Converged?
 Maximum Force            0.000002     0.000450     YES
 RMS     Force            0.000001     0.000300     YES
 Maximum Displacement     0.000036     0.001800     YES
 RMS     Displacement     0.000014     0.001200     YES
 Predicted change in Energy=-2.877795D-10
 Optimization completed.
    -- Stationary point found.
                           ----------------------------
                           !   Optimized Parameters   !
                           ! (Angstroms and Degrees)  !
 --------------------------                            --------------------------
 ! Name  Definition              Value          Derivative Info.                !
 --------------------------------------------------------------------------------
 ! R1    R(1,2)                  3.1975         -DE/DX =    0.0                 !
 ! R2    R(2,3)                  1.0917         -DE/DX =    0.0                 !
 ! R3    R(2,4)                  1.0917         -DE/DX =    0.0                 !
 ! R4    R(2,5)                  1.0917         -DE/DX =    0.0                 !
 ! R5    R(2,6)                  1.3993         -DE/DX =    0.0                 !
 ! R6    R(3,6)                  2.0492         -DE/DX =    0.0                 !
 ! R7    R(4,6)                  2.0492         -DE/DX =    0.0                 !
 ! R8    R(5,6)                  2.0492         -DE/DX =    0.0                 !
 ! A1    A(1,2,3)               69.9106         -DE/DX =    0.0                 !
 ! A2    A(1,2,4)               69.9106         -DE/DX =    0.0                 !
 ! A3    A(1,2,5)               69.9106         -DE/DX =    0.0                 !
 ! A4    A(3,2,4)              108.8461         -DE/DX =    0.0                 !
 ! A5    A(3,2,5)              108.8461         -DE/DX =    0.0                 !
 ! A6    A(4,2,5)              108.8461         -DE/DX =    0.0                 !
 ! A7    A(3,6,4)               51.3555         -DE/DX =    0.0                 !
 ! A8    A(3,6,5)               51.3555         -DE/DX =    0.0                 !
 ! A9    A(4,6,5)               51.3555         -DE/DX =    0.0                 !
 ! A10   L(1,2,6,3,-1)         180.0            -DE/DX =    0.0                 !
 ! A11   L(1,2,6,3,-2)         180.0            -DE/DX =    0.0                 !
 ! D1    D(3,2,5,4)           -118.5003         -DE/DX =    0.0                 !
 ! D2    D(4,3,6,2)             33.6961         -DE/DX =    0.0                 !
 ! D3    D(5,3,6,2)            -33.6961         -DE/DX =    0.0                 !
 ! D4    D(5,4,6,2)             33.6961         -DE/DX =    0.0                 !
 --------------------------------------------------------------------------------
 Lowest energy point so far.  Saving SCF results.
 Largest change from initial coordinates is atom    2       0.105 Angstoms.
 GradGradGradGradGradGradGradGradGradGradGradGradGradGradGradGradGradGrad

 Leave Link  103 at Wed Oct  7 13:42:08 2020, MaxMem=  2684354560 cpu:               3.4 elap:               0.7
 (Enter /udrive/faculty/rpeverati/g16/g16/l202.exe)
                          Input orientation:                          
 ---------------------------------------------------------------------
 Center     Atomic      Atomic             Coordinates (Angstroms)
 Number     Number       Type             X           Y           Z
 ---------------------------------------------------------------------
      1         17           0        0.000000    0.000000    2.707964
      2          6           0        0.000000    0.000000   -0.489532
      3          1           0       -0.512650   -0.887935   -0.114542
      4          1           0       -0.512650    0.887935   -0.114542
      5          1           0        1.025299   -0.000000   -0.114542
      6          9           0        0.000000    0.000000   -1.888792
 ---------------------------------------------------------------------
                    Distance matrix (angstroms):
                    1          2          3          4          5
     1  Cl   0.000000
     2  C    3.197497   0.000000
     3  H    3.002962   1.091722   0.000000
     4  H    3.002962   1.091722   1.775870   0.000000
     5  H    3.002962   1.091722   1.775870   1.775870   0.000000
     6  F    4.596757   1.399260   2.049196   2.049196   2.049196
                    6
     6  F    0.000000
 Stoichiometry    CH3ClF(1-)
 Framework group  C3V[C3(FCCl),3SGV(H)]
 Deg. of freedom     4
 Full point group                 C3V     NOp   6
 RotChk:  IX=0 Diff= 0.00D+00
 Largest Abelian subgroup         CS      NOp   2
 Largest concise Abelian subgroup CS      NOp   2
                         Standard orientation:                         
 ---------------------------------------------------------------------
 Center     Atomic      Atomic             Coordinates (Angstroms)
 Number     Number       Type             X           Y           Z
 ---------------------------------------------------------------------
      1         17           0        0.000000    0.000000    1.972094
      2          6           0        0.000000    0.000000   -1.225402
      3          1           0        0.000000    1.025299   -0.850411
      4          1           0        0.887935   -0.512650   -0.850411
      5          1           0       -0.887935   -0.512650   -0.850411
      6          9           0        0.000000    0.000000   -2.624662
 ---------------------------------------------------------------------
 Rotational constants (GHZ):         159.0045808           1.7509973           1.7509973
 Leave Link  202 at Wed Oct  7 13:42:08 2020, MaxMem=  2684354560 cpu:               1.5 elap:               0.5
 (Enter /udrive/faculty/rpeverati/g16/g16/l601.exe)
 Copying SCF densities to generalized density rwf, IOpCl= 0 IROHF=0.

 **********************************************************************

            Population analysis using the SCF density.

 **********************************************************************

 Orbital symmetries:
       Occupied  (A1) (A1) (A1) (A1) (A1) (E) (E) (A1) (A1) (A1)
                 (A1) (E) (E) (E) (E) (A1) (E) (E)
       Virtual   (A1) (A1) (E) (E) (A1) (E) (E) (A1) (E) (E) (A1)
                 (E) (E) (A1) (A1) (E) (E) (E) (E) (A1) (A1) (E)
                 (E) (E) (E) (E) (E) (A1) (A1) (E) (E) (E) (E)
                 (A1)
 The electronic state is 1-A1.
 Alpha  occ. eigenvalues -- -101.36448 -24.59825 -10.12362  -9.18949  -6.91917
 Alpha  occ. eigenvalues --   -6.91885  -6.91885  -1.05330  -0.55167  -0.48120
 Alpha  occ. eigenvalues --   -0.33504  -0.32694  -0.32694  -0.19246  -0.19246
 Alpha  occ. eigenvalues --   -0.02285  -0.02102  -0.02102
 Alpha virt. eigenvalues --    0.28033   0.31883   0.34599   0.34599   0.63650
 Alpha virt. eigenvalues --    0.71261   0.71261   0.71456   0.75299   0.75299
 Alpha virt. eigenvalues --    0.84038   1.04171   1.04171   1.13020   1.15629
 Alpha virt. eigenvalues --    1.21328   1.21328   1.21748   1.21748   1.29995
 Alpha virt. eigenvalues --    1.41252   1.42987   1.42987   1.68525   1.68525
 Alpha virt. eigenvalues --    1.99062   1.99062   2.09939   2.26269   2.35222
 Alpha virt. eigenvalues --    2.35222   2.59176   2.59176   3.17624
          Condensed to atoms (all electrons):
               1          2          3          4          5          6
     1  Cl  17.945574  -0.008484   0.006635   0.006635   0.006635   0.000330
     2  C   -0.008484   4.852664   0.371801   0.371801   0.371801   0.201568
     3  H    0.006635   0.371801   0.551298  -0.036279  -0.036279  -0.028870
     4  H    0.006635   0.371801  -0.036279   0.551298  -0.036279  -0.028870
     5  H    0.006635   0.371801  -0.036279  -0.036279   0.551298  -0.028870
     6  F    0.000330   0.201568  -0.028870  -0.028870  -0.028870   9.281316
 Mulliken charges:
               1
     1  Cl  -0.957326
     2  C   -0.161150
     3  H    0.171693
     4  H    0.171693
     5  H    0.171693
     6  F   -0.396605
 Sum of Mulliken charges =  -1.00000
 Mulliken charges with hydrogens summed into heavy atoms:
               1
     1  Cl  -0.957326
     2  C    0.353931
     6  F   -0.396605
 Electronic spatial extent (au):  <R**2>=            589.4805
 Charge=             -1.0000 electrons
 Dipole moment (field-independent basis, Debye):
    X=              0.0000    Y=             -0.0000    Z=             -6.4936  Tot=              6.4936
 Quadrupole moment (field-independent basis, Debye-Ang):
   XX=            -27.2927   YY=            -27.2927   ZZ=            -54.0777
   XY=             -0.0000   XZ=             -0.0000   YZ=              0.0000
 Traceless Quadrupole moment (field-independent basis, Debye-Ang):
   XX=              8.9284   YY=              8.9284   ZZ=            -17.8567
   XY=             -0.0000   XZ=             -0.0000   YZ=              0.0000
 Octapole moment (field-independent basis, Debye-Ang**2):
  XXX=              0.0000  YYY=              0.5540  ZZZ=            -39.1973  XYY=              0.0000
  XXY=             -0.5540  XXZ=            -10.0391  XZZ=              0.0000  YZZ=             -0.0000
  YYZ=            -10.0391  XYZ=              0.0000
 Hexadecapole moment (field-independent basis, Debye-Ang**3):
 XXXX=            -35.3422 YYYY=            -35.3422 ZZZZ=           -775.4036 XXXY=              0.0000
 XXXZ=             -0.0000 YYYX=              0.0000 YYYZ=             -0.3999 ZZZX=             -0.0000
 ZZZY=              0.0000 XXYY=            -11.7807 XXZZ=           -113.5572 YYZZ=           -113.5572
 XXYZ=              0.3999 YYXZ=             -0.0000 ZZXY=             -0.0000
 N-N= 8.049435518494D+01 E-N=-1.595375050985D+03  KE= 5.983957757062D+02
 No NMR shielding tensors so no spin-rotation constants.
 Leave Link  601 at Wed Oct  7 13:42:09 2020, MaxMem=  2684354560 cpu:               3.9 elap:               0.8
 (Enter /udrive/faculty/rpeverati/g16/g16/l9999.exe)

 Test job not archived.
 1\1\GINC-NODE38\FOpt\RPBE1PBE\6-31G(d)\C1H3Cl1F1(1-)\RPEVERATI\07-Oct-
 2020\0\\#P Opt(MaxCyc=100) PBE1PBE/6-31G* 5D 7F Integral=UltraFineGrid
  SCF=(NoSymm,XQC,MaxCyc=120) IOp(1/33=1)\\TS search on BH76.\\-1,1\Cl,
 0.,0.,2.7079644035\C,0.,0.,-0.4895321703\H,-0.5126495579,-0.8879350807
 ,-0.1145415505\H,-0.5126495579,0.8879350807,-0.1145415505\H,1.02529911
 57,0.,-0.1145415505\F,0.,0.,-1.8887922044\\Version=ES64L-G16RevA.03\St
 ate=1-A1\HF=-599.6799847\RMSD=1.313e-09\RMSF=2.469e-06\Dipole=0.,0.,-2
 .5547787\Quadrupole=6.6380164,6.6380164,-13.2760328,0.,0.,0.\PG=C03V [
 C3(F1C1Cl1),3SGV(H1)]\\@


 The theorems and results in mathematical physics are
 not theorems and results about Nature, but about our
 description of it.
                   --Gerard 't Hooft
 Job cpu time:       0 days  0 hours 13 minutes 26.9 seconds.
 Elapsed time:       0 days  0 hours  2 minutes 24.7 seconds.
 File lengths (MBytes):  RWF=      5 Int=      0 D2E=      0 Chk=      1 Scr=      1
 Normal termination of Gaussian 16 at Wed Oct  7 13:42:11 2020.
