 Entering Gaussian System, Link 0=g16
 Input=MN_53_hfch3ts_BH76_PBE0_631Gs.in
 Output=MN_53_hfch3ts_BH76_PBE0_631Gs.log
 Initial command:
 /udrive/faculty/rpeverati/g16/g16/l1.exe "/udrive/scratch-directories/gaussian09/rpeverati/Gau-25449.inp" -scrdir="/udrive/scratch-directories/gaussian09/rpeverati/"
 Entering Link 1 = /udrive/faculty/rpeverati/g16/g16/l1.exe PID=     25463.
  
 Copyright (c) 1988,1990,1992,1993,1995,1998,2003,2009,2016,
            Gaussian, Inc.  All Rights Reserved.
  
 This is part of the Gaussian(R) 16 program.  It is based on
 the Gaussian(R) 09 system (copyright 2009, Gaussian, Inc.),
 the Gaussian(R) 03 system (copyright 2003, Gaussian, Inc.),
 the Gaussian(R) 98 system (copyright 1998, Gaussian, Inc.),
 the Gaussian(R) 94 system (copyright 1995, Gaussian, Inc.),
 the Gaussian 92(TM) system (copyright 1992, Gaussian, Inc.),
 the Gaussian 90(TM) system (copyright 1990, Gaussian, Inc.),
 the Gaussian 88(TM) system (copyright 1988, Gaussian, Inc.),
 the Gaussian 86(TM) system (copyright 1986, Carnegie Mellon
 University), and the Gaussian 82(TM) system (copyright 1983,
 Carnegie Mellon University). Gaussian is a federally registered
 trademark of Gaussian, Inc.
  
 This software contains proprietary and confidential information,
 including trade secrets, belonging to Gaussian, Inc.
  
 This software is provided under written license and may be
 used, copied, transmitted, or stored only in accord with that
 written license.
  
 The following legend is applicable only to US Government
 contracts under FAR:
  
                    RESTRICTED RIGHTS LEGEND
  
 Use, reproduction and disclosure by the US Government is
 subject to restrictions as set forth in subparagraphs (a)
 and (c) of the Commercial Computer Software - Restricted
 Rights clause in FAR 52.227-19.
  
 Gaussian, Inc.
 340 Quinnipiac St., Bldg. 40, Wallingford CT 06492
  
  
 ---------------------------------------------------------------
 Warning -- This program may not be used in any manner that
 competes with the business of Gaussian, Inc. or will provide
 assistance to any competitor of Gaussian, Inc.  The licensee
 of this program is prohibited from giving any competitor of
 Gaussian, Inc. access to this program.  By using this program,
 the user acknowledges that Gaussian, Inc. is engaged in the
 business of creating and licensing software in the field of
 computational chemistry and represents and warrants to the
 licensee that it is not a competitor of Gaussian, Inc. and that
 it will not use this program in any manner prohibited above.
 ---------------------------------------------------------------
  

 Cite this work as:
 Gaussian 16, Revision A.03,
 M. J. Frisch, G. W. Trucks, H. B. Schlegel, G. E. Scuseria, 
 M. A. Robb, J. R. Cheeseman, G. Scalmani, V. Barone, 
 G. A. Petersson, H. Nakatsuji, X. Li, M. Caricato, A. V. Marenich, 
 J. Bloino, B. G. Janesko, R. Gomperts, B. Mennucci, H. P. Hratchian, 
 J. V. Ortiz, A. F. Izmaylov, J. L. Sonnenberg, D. Williams-Young, 
 F. Ding, F. Lipparini, F. Egidi, J. Goings, B. Peng, A. Petrone, 
 T. Henderson, D. Ranasinghe, V. G. Zakrzewski, J. Gao, N. Rega, 
 G. Zheng, W. Liang, M. Hada, M. Ehara, K. Toyota, R. Fukuda, 
 J. Hasegawa, M. Ishida, T. Nakajima, Y. Honda, O. Kitao, H. Nakai, 
 T. Vreven, K. Throssell, J. A. Montgomery, Jr., J. E. Peralta, 
 F. Ogliaro, M. J. Bearpark, J. J. Heyd, E. N. Brothers, K. N. Kudin, 
 V. N. Staroverov, T. A. Keith, R. Kobayashi, J. Normand, 
 K. Raghavachari, A. P. Rendell, J. C. Burant, S. S. Iyengar, 
 J. Tomasi, M. Cossi, J. M. Millam, M. Klene, C. Adamo, R. Cammi, 
 J. W. Ochterski, R. L. Martin, K. Morokuma, O. Farkas, 
 J. B. Foresman, and D. J. Fox, Gaussian, Inc., Wallingford CT, 2016.
 
 ******************************************
 Gaussian 16:  ES64L-G16RevA.03 25-Dec-2016
                 7-Oct-2020 
 ******************************************
 %NoSave
 %nproc=12
 Will use up to   12 processors via shared memory.
 %mem=20GB
 %chk=MN_53_hfch3ts_BH76_PBE0_631Gs
 ----------------------------------------------------------------------
 #P Opt(TS,MaxCyc=50,NoEigenTest,MaxStep=10,AddRedundant) PBE1PBE/6-31G
 * 5D 7F Integral=UltraFineGrid SCF=(NoSymm,XQC,MaxCyc=120) IOp(1/33=1)
 ----------------------------------------------------------------------
 1/5=1,6=50,8=10,11=1,18=120,26=4,33=1,38=1/1,3;
 2/9=110,12=2,17=6,18=5,40=1/2;
 3/5=1,6=6,7=1,8=11,11=2,25=1,30=1,71=1,74=-13,75=-5/1,2,3;
 4/9=2/1;
 5/5=2,7=120,8=3,13=1,38=5/2,8;
 6/7=2,8=2,9=2,10=2,28=1/1;
 7//1,2,3,16;
 1/5=1,6=50,8=10,11=1,18=20,26=4,33=1/3(2);
 2/9=110/2;
 99//99;
 2/9=110/2;
 3/5=1,6=6,7=1,8=11,11=2,25=1,30=1,71=1,74=-13,75=-5/1,2,3;
 4/5=5,9=2,16=3,69=1/1;
 5/5=2,7=120,8=3,13=1,38=5/2,8;
 7//1,2,3,16;
 1/5=1,6=50,8=10,11=1,18=20,26=4,33=1/3(-5);
 2/9=110/2;
 6/7=2,8=2,9=2,10=2,19=2,28=1/1;
 99/9=1/99;
 Leave Link    1 at Wed Oct  7 13:40:15 2020, MaxMem=  2684354560 cpu:               6.2 elap:               0.6
 (Enter /udrive/faculty/rpeverati/g16/g16/l101.exe)
 ONIOM data not found on unit 2.
 ------------------
 TS search on BH76.
 ------------------
 TstMul:  ICh=     0
 TstMul:  Mul=     2
 TstMul:  ICh=     0
 TstMul:  Mul=     2
 Symbolic Z-matrix:
 Charge =  0 Multiplicity = 2
 H                     0.00045   2.00097   0. 
 F                    -0.00004   0.76248   0. 
 C                    -0.00004  -0.90617   0. 
 H                     1.05376  -1.14157   0. 
 H                    -0.52685  -1.14236   0.91235 
 H                    -0.52685  -1.14236  -0.91235 
 
 RdStrC is calling ZToCFu for IStruc=1 NZ=     6.
 PrtBox:  NBox=     1 Levels=  1 BoxLen=    8.00 SMaxX=        5.94
          Shift=            0.995593            2.158740            1.724100
 Box      1 Number                   0 centers from      1 to      6:
 After GenITR:
 ITRead=  0  0  0  0  0  0
 MicOpt= -1 -1 -1 -1 -1 -1
 Add virtual bond connecting atoms F2         and H1         Dist= 2.34D+00.
 Add virtual bond connecting atoms C3         and F2         Dist= 3.15D+00.
 The following ModRedundant input section has been read:
 
 ITRead=  0  0  0  0  0  0
 MicOpt= -1 -1 -1 -1 -1 -1
 NAtoms=      6 NQM=        6 NQMF=       0 NMMI=      0 NMMIF=      0
                NMic=       0 NMicF=      0.
                    Isotopes and Nuclear Properties:
 (Nuclear quadrupole moments (NQMom) in fm**2, nuclear magnetic moments (NMagM)
  in nuclear magnetons)

  Atom         1           2           3           4           5           6
 IAtWgt=           1          19          12           1           1           1
 AtmWgt=   1.0078250  18.9984033  12.0000000   1.0078250   1.0078250   1.0078250
 NucSpn=           1           1           0           1           1           1
 AtZEff=   0.0000000   0.0000000   0.0000000   0.0000000   0.0000000   0.0000000
 NQMom=    0.0000000   0.0000000   0.0000000   0.0000000   0.0000000   0.0000000
 NMagM=    2.7928460   2.6288670   0.0000000   2.7928460   2.7928460   2.7928460
 AtZNuc=   1.0000000   9.0000000   6.0000000   1.0000000   1.0000000   1.0000000
 No MM parameters found.
 Leave Link  101 at Wed Oct  7 13:40:16 2020, MaxMem=  2684354560 cpu:               4.1 elap:               0.5
 (Enter /udrive/faculty/rpeverati/g16/g16/l103.exe)

 GradGradGradGradGradGradGradGradGradGradGradGradGradGradGradGradGradGrad
 Berny optimization.
 Optmz: redundant internal coordinate code flag= 1
 Initialization pass.
                           ----------------------------
                           !    Initial Parameters    !
                           ! (Angstroms and Degrees)  !
 --------------------------                            --------------------------
 ! Name  Definition              Value          Derivative Info.                !
 --------------------------------------------------------------------------------
 ! R1    R(1,2)                  1.2385         estimate D2E/DX2                !
 ! R2    R(2,3)                  1.6686         estimate D2E/DX2                !
 ! R3    R(3,4)                  1.0798         estimate D2E/DX2                !
 ! R4    R(3,5)                  1.0797         estimate D2E/DX2                !
 ! R5    R(3,6)                  1.0797         estimate D2E/DX2                !
 ! A1    A(2,3,4)              102.5924         estimate D2E/DX2                !
 ! A2    A(2,3,5)              102.6361         estimate D2E/DX2                !
 ! A3    A(2,3,6)              102.6361         estimate D2E/DX2                !
 ! A4    A(4,3,5)              115.3726         estimate D2E/DX2                !
 ! A5    A(4,3,6)              115.3726         estimate D2E/DX2                !
 ! A6    A(5,3,6)              115.3492         estimate D2E/DX2                !
 ! A7    L(1,2,3,4,-1)         179.9776         estimate D2E/DX2                !
 ! A8    L(1,2,3,4,-2)         180.0            estimate D2E/DX2                !
 ! D1    D(4,3,6,5)            138.543          estimate D2E/DX2                !
 --------------------------------------------------------------------------------
 Maximum allowed force set to 1.00D+20.
 Trust Radius=1.00D-01 FncErr=1.00D-07 GrdErr=1.00D-06 EigMax=2.50D+02 EigMin=1.00D-04
 Number of steps in this run=     50 maximum allowed number of steps=    100.
 Search for a saddle point of order  1.
 GradGradGradGradGradGradGradGradGradGradGradGradGradGradGradGradGradGrad

 Leave Link  103 at Wed Oct  7 13:40:17 2020, MaxMem=  2684354560 cpu:               0.8 elap:               0.5
 (Enter /udrive/faculty/rpeverati/g16/g16/l202.exe)
                          Input orientation:                          
 ---------------------------------------------------------------------
 Center     Atomic      Atomic             Coordinates (Angstroms)
 Number     Number       Type             X           Y           Z
 ---------------------------------------------------------------------
      1          1           0        0.000450    2.000967    0.000000
      2          9           0       -0.000035    0.762481    0.000000
      3          6           0       -0.000035   -0.906168    0.000000
      4          1           0        1.053761   -1.141573    0.000000
      5          1           0       -0.526845   -1.142356    0.912354
      6          1           0       -0.526845   -1.142356   -0.912354
 ---------------------------------------------------------------------
                    Distance matrix (angstroms):
                    1          2          3          4          5
     1  H    0.000000
     2  F    1.238486   0.000000
     3  C    2.907136   1.668649   0.000000
     4  H    3.314366   2.176214   1.079769   0.000000
     5  H    3.315254   2.176769   1.079678   1.825023   0.000000
     6  H    3.315254   2.176769   1.079678   1.825023   1.824709
                    6
     6  H    0.000000
 Stoichiometry    CH4F(2)
 Framework group  CS[SG(CH2F),X(H2)]
 Deg. of freedom     8
 Full point group                 CS      NOp   2
 Largest Abelian subgroup         CS      NOp   2
 Largest concise Abelian subgroup CS      NOp   2
                         Standard orientation:                         
 ---------------------------------------------------------------------
 Center     Atomic      Atomic             Coordinates (Angstroms)
 Number     Number       Type             X           Y           Z
 ---------------------------------------------------------------------
      1          1           0        0.000450    2.000967    0.000000
      2          9           0       -0.000035    0.762481    0.000000
      3          6           0       -0.000035   -0.906168    0.000000
      4          1           0        1.053761   -1.141573    0.000000
      5          1           0       -0.526845   -1.142356    0.912354
      6          1           0       -0.526845   -1.142356   -0.912354
 ---------------------------------------------------------------------
 Rotational constants (GHZ):         150.5723997          16.6130512          16.6126312
 Leave Link  202 at Wed Oct  7 13:40:17 2020, MaxMem=  2684354560 cpu:               1.0 elap:               0.4
 (Enter /udrive/faculty/rpeverati/g16/g16/l301.exe)
 Standard basis: 6-31G(d) (5D, 7F)
 Ernie: Thresh=  0.10000D-02 Tol=  0.10000D-05 Strict=F.
 There are    28 symmetry adapted cartesian basis functions of A'  symmetry.
 There are    10 symmetry adapted cartesian basis functions of A"  symmetry.
 There are    26 symmetry adapted basis functions of A'  symmetry.
 There are    10 symmetry adapted basis functions of A"  symmetry.
    36 basis functions,    72 primitive gaussians,    38 cartesian basis functions
    10 alpha electrons        9 beta electrons
       nuclear repulsion energy        38.7977675131 Hartrees.
 IExCor= 1009 DFT=T Ex+Corr=PBE1PBE ExCW=0 ScaHFX=  0.250000
 ScaDFX=  0.750000  0.750000  1.000000  1.000000 ScalE2=  1.000000  1.000000
 IRadAn=      5 IRanWt=     -1 IRanGd=            0 ICorTp=0 IEmpDi=  4
 NAtoms=    6 NActive=    6 NUniq=    5 SFac= 1.44D+00 NAtFMM=   60 NAOKFM=F Big=F
 Integral buffers will be    131072 words long.
 Raffenetti 2 integral format.
 Two-electron integral symmetry is turned on.
 Leave Link  301 at Wed Oct  7 13:40:18 2020, MaxMem=  2684354560 cpu:               2.2 elap:               0.6
 (Enter /udrive/faculty/rpeverati/g16/g16/l302.exe)
 NPDir=0 NMtPBC=     1 NCelOv=     1 NCel=       1 NClECP=     1 NCelD=      1
         NCelK=      1 NCelE2=     1 NClLst=     1 CellRange=     0.0.
 One-electron integrals computed using PRISM.
 One-electron integral symmetry used in STVInt
 NBasis=    36 RedAO= T EigKep=  2.08D-02  NBF=    26    10
 NBsUse=    36 1.00D-06 EigRej= -1.00D+00 NBFU=    26    10
 Precomputing XC quadrature grid using
 IXCGrd= 4 IRadAn=           5 IRanWt=          -1 IRanGd=           0 AccXCQ= 0.00D+00.
 Generated NRdTot=       0 NPtTot=           0 NUsed=           0 NTot=          32
 NSgBfM=    38    38    38    38    38 MxSgAt=     6 MxSgA2=     6.
 Leave Link  302 at Wed Oct  7 13:40:19 2020, MaxMem=  2684354560 cpu:               3.7 elap:               0.6
 (Enter /udrive/faculty/rpeverati/g16/g16/l303.exe)
 DipDrv:  MaxL=1.
 Leave Link  303 at Wed Oct  7 13:40:20 2020, MaxMem=  2684354560 cpu:               0.9 elap:               0.4
 (Enter /udrive/faculty/rpeverati/g16/g16/l401.exe)
 SCF N**3 symmetry information disabled.
 ExpMin= 1.61D-01 ExpMax= 7.00D+03 ExpMxC= 1.05D+03 IAcc=3 IRadAn=         5 AccDes= 0.00D+00
 Harris functional with IExCor= 1009 and IRadAn=       5 diagonalized for initial guess.
 HarFok:  IExCor= 1009 AccDes= 0.00D+00 IRadAn=         5 IDoV= 1 UseB2=F ITyADJ=14
 ICtDFT=  3500011 ScaDFX=  1.000000  1.000000  1.000000  1.000000
 FoFCou: FMM=F IPFlag=           0 FMFlag=      100000 FMFlg1=           0
         NFxFlg=           0 DoJE=T BraDBF=F KetDBF=T FulRan=T
         wScrn=  0.000000 ICntrl=       500 IOpCl=  0 I1Cent=   200000004 NGrid=           0
         NMat0=    1 NMatS0=      1 NMatT0=    0 NMatD0=    1 NMtDS0=    0 NMtDT0=    0
 Petite list used in FoFCou.
 Harris En= -140.056826180845    
 JPrj=0 DoOrth=F DoCkMO=F.
 Initial guess orbital symmetries:
 Alpha Orbitals:
       Occupied  (A') (A') (A') (A') (A') (A') (A") (A") (A') (A')
       Virtual   (A') (A') (A') (A") (A') (A") (A') (A') (A') (A")
                 (A') (A') (A') (A") (A') (A") (A') (A') (A") (A')
                 (A') (A") (A') (A') (A") (A')
 Beta  Orbitals:
       Occupied  (A') (A') (A') (A') (A') (A') (A") (A") (A')
       Virtual   (A') (A') (A') (A') (A") (A') (A") (A') (A') (A')
                 (A") (A') (A') (A') (A") (A') (A") (A') (A') (A")
                 (A') (A') (A") (A') (A') (A") (A')
 The electronic state of the initial guess is 2-A'.
 Initial guess <Sx>= 0.0000 <Sy>= 0.0000 <Sz>= 0.5000 <S**2>= 0.7500 S= 0.5000
 Leave Link  401 at Wed Oct  7 13:40:21 2020, MaxMem=  2684354560 cpu:               5.7 elap:               0.8
 (Enter /udrive/faculty/rpeverati/g16/g16/l502.exe)
 Keep R1 and R2 ints in memory in symmetry-blocked form, NReq=10589866.
 FoFCou: FMM=F IPFlag=           0 FMFlag=           0 FMFlg1=           0
         NFxFlg=           0 DoJE=F BraDBF=F KetDBF=F FulRan=T
         wScrn=  0.000000 ICntrl=       600 IOpCl=  0 I1Cent=           0 NGrid=           0
         NMat0=    1 NMatS0=    666 NMatT0=    0 NMatD0=    1 NMtDS0=    0 NMtDT0=    0
 Petite list used in FoFCou.
 UHF open shell SCF:
 Using DIIS extrapolation, IDIIS=  1040.
 NGot=  2684354560 LenX=  2684115610 LenY=  2684113725
 Requested convergence on RMS density matrix=1.00D-08 within 120 cycles.
 Requested convergence on MAX density matrix=1.00D-06.
 Requested convergence on             energy=1.00D-06.
 No special actions if energy rises.
 Integral accuracy reduced to 1.0D-05 until final iterations.

 Cycle   1  Pass 0  IDiag  1:
 E= -139.949405050218    
 DIIS: error= 5.33D-02 at cycle   1 NSaved=   1.
 NSaved= 1 IEnMin= 1 EnMin= -139.949405050218     IErMin= 1 ErrMin= 5.33D-02
 ErrMax= 5.33D-02  0.00D+00 EMaxC= 1.00D-01 BMatC= 2.66D-01 BMatP= 2.66D-01
 IDIUse=3 WtCom= 4.67D-01 WtEn= 5.33D-01
 Coeff-Com:  0.100D+01
 Coeff-En:   0.100D+01
 Coeff:      0.100D+01
 Gap=     0.135 Goal=   None    Shift=    0.000
 Gap=     0.352 Goal=   None    Shift=    0.000
 GapD=    0.135 DampG=1.000 DampE=0.500 DampFc=0.5000 IDamp=-1.
 Damping current iteration by 5.00D-01
 RMSDP=1.99D-02 MaxDP=3.77D-01              OVMax= 4.72D-01

 Cycle   2  Pass 0  IDiag  1:
 E= -139.982681780273     Delta-E=       -0.033276730055 Rises=F Damp=T
 DIIS: error= 1.40D-02 at cycle   2 NSaved=   2.
 NSaved= 2 IEnMin= 2 EnMin= -139.982681780273     IErMin= 2 ErrMin= 1.40D-02
 ErrMax= 1.40D-02  0.00D+00 EMaxC= 1.00D-01 BMatC= 2.10D-02 BMatP= 2.66D-01
 IDIUse=3 WtCom= 8.60D-01 WtEn= 1.40D-01
 Coeff-Com:  0.159D+00 0.841D+00
 Coeff-En:   0.217D+00 0.783D+00
 Coeff:      0.168D+00 0.832D+00
 Gap=     0.192 Goal=   None    Shift=    0.000
 Gap=     0.353 Goal=   None    Shift=    0.000
 RMSDP=3.02D-03 MaxDP=3.36D-02 DE=-3.33D-02 OVMax= 2.43D-01

 Cycle   3  Pass 0  IDiag  1:
 E= -140.031272438045     Delta-E=       -0.048590657772 Rises=F Damp=F
 DIIS: error= 8.15D-03 at cycle   3 NSaved=   3.
 NSaved= 3 IEnMin= 3 EnMin= -140.031272438045     IErMin= 3 ErrMin= 8.15D-03
 ErrMax= 8.15D-03  0.00D+00 EMaxC= 1.00D-01 BMatC= 3.61D-03 BMatP= 2.10D-02
 IDIUse=3 WtCom= 9.19D-01 WtEn= 8.15D-02
 Coeff-Com:  0.747D-01 0.987D-01 0.827D+00
 Coeff-En:   0.000D+00 0.000D+00 0.100D+01
 Coeff:      0.686D-01 0.907D-01 0.841D+00
 Gap=     0.209 Goal=   None    Shift=    0.000
 Gap=     0.346 Goal=   None    Shift=    0.000
 RMSDP=9.26D-04 MaxDP=1.67D-02 DE=-4.86D-02 OVMax= 2.58D-02

 Cycle   4  Pass 0  IDiag  1:
 E= -140.032151617761     Delta-E=       -0.000879179717 Rises=F Damp=F
 DIIS: error= 4.86D-03 at cycle   4 NSaved=   4.
 NSaved= 4 IEnMin= 4 EnMin= -140.032151617761     IErMin= 4 ErrMin= 4.86D-03
 ErrMax= 4.86D-03  0.00D+00 EMaxC= 1.00D-01 BMatC= 1.89D-03 BMatP= 3.61D-03
 IDIUse=3 WtCom= 9.51D-01 WtEn= 4.86D-02
 Coeff-Com:  0.238D-01-0.810D-01 0.462D+00 0.595D+00
 Coeff-En:   0.000D+00 0.000D+00 0.000D+00 0.100D+01
 Coeff:      0.226D-01-0.771D-01 0.440D+00 0.615D+00
 Gap=     0.216 Goal=   None    Shift=    0.000
 Gap=     0.344 Goal=   None    Shift=    0.000
 RMSDP=5.08D-04 MaxDP=9.87D-03 DE=-8.79D-04 OVMax= 1.46D-02

 Cycle   5  Pass 0  IDiag  1:
 E= -140.032622633438     Delta-E=       -0.000471015677 Rises=F Damp=F
 DIIS: error= 2.13D-03 at cycle   5 NSaved=   5.
 NSaved= 5 IEnMin= 5 EnMin= -140.032622633438     IErMin= 5 ErrMin= 2.13D-03
 ErrMax= 2.13D-03  0.00D+00 EMaxC= 1.00D-01 BMatC= 1.98D-04 BMatP= 1.89D-03
 IDIUse=3 WtCom= 9.79D-01 WtEn= 2.13D-02
 Coeff-Com: -0.109D-01-0.318D-01-0.130D+00 0.167D+00 0.100D+01
 Coeff-En:   0.000D+00 0.000D+00 0.000D+00 0.000D+00 0.100D+01
 Coeff:     -0.107D-01-0.312D-01-0.127D+00 0.164D+00 0.100D+01
 Gap=     0.218 Goal=   None    Shift=    0.000
 Gap=     0.348 Goal=   None    Shift=    0.000
 RMSDP=3.36D-04 MaxDP=5.56D-03 DE=-4.71D-04 OVMax= 9.30D-03

 Cycle   6  Pass 0  IDiag  1:
 E= -140.032716118538     Delta-E=       -0.000093485100 Rises=F Damp=F
 DIIS: error= 4.04D-04 at cycle   6 NSaved=   6.
 NSaved= 6 IEnMin= 6 EnMin= -140.032716118538     IErMin= 6 ErrMin= 4.04D-04
 ErrMax= 4.04D-04  0.00D+00 EMaxC= 1.00D-01 BMatC= 1.33D-05 BMatP= 1.98D-04
 IDIUse=3 WtCom= 9.96D-01 WtEn= 4.04D-03
 Coeff-Com: -0.380D-02 0.147D-01-0.591D-01-0.902D-01 0.121D+00 0.102D+01
 Coeff-En:   0.000D+00 0.000D+00 0.000D+00 0.000D+00 0.000D+00 0.100D+01
 Coeff:     -0.379D-02 0.147D-01-0.589D-01-0.899D-01 0.120D+00 0.102D+01
 Gap=     0.218 Goal=   None    Shift=    0.000
 Gap=     0.348 Goal=   None    Shift=    0.000
 RMSDP=8.03D-05 MaxDP=1.21D-03 DE=-9.35D-05 OVMax= 1.99D-03

 Cycle   7  Pass 0  IDiag  1:
 E= -140.032721403350     Delta-E=       -0.000005284812 Rises=F Damp=F
 DIIS: error= 3.58D-05 at cycle   7 NSaved=   7.
 NSaved= 7 IEnMin= 7 EnMin= -140.032721403350     IErMin= 7 ErrMin= 3.58D-05
 ErrMax= 3.58D-05  0.00D+00 EMaxC= 1.00D-01 BMatC= 1.15D-07 BMatP= 1.33D-05
 IDIUse=1 WtCom= 1.00D+00 WtEn= 0.00D+00
 Coeff-Com:  0.342D-03 0.136D-03 0.340D-02-0.422D-02-0.261D-01-0.207D-01
 Coeff-Com:  0.105D+01
 Coeff:      0.342D-03 0.136D-03 0.340D-02-0.422D-02-0.261D-01-0.207D-01
 Coeff:      0.105D+01
 Gap=     0.218 Goal=   None    Shift=    0.000
 Gap=     0.349 Goal=   None    Shift=    0.000
 RMSDP=1.04D-05 MaxDP=1.58D-04 DE=-5.28D-06 OVMax= 2.47D-04

 Cycle   8  Pass 0  IDiag  1:
 E= -140.032721464070     Delta-E=       -0.000000060721 Rises=F Damp=F
 DIIS: error= 1.52D-05 at cycle   8 NSaved=   8.
 NSaved= 8 IEnMin= 8 EnMin= -140.032721464070     IErMin= 8 ErrMin= 1.52D-05
 ErrMax= 1.52D-05  0.00D+00 EMaxC= 1.00D-01 BMatC= 1.91D-08 BMatP= 1.15D-07
 IDIUse=1 WtCom= 1.00D+00 WtEn= 0.00D+00
 Coeff-Com:  0.115D-03-0.373D-03 0.249D-02 0.499D-02-0.764D-02-0.503D-01
 Coeff-Com:  0.111D+00 0.940D+00
 Coeff:      0.115D-03-0.373D-03 0.249D-02 0.499D-02-0.764D-02-0.503D-01
 Coeff:      0.111D+00 0.940D+00
 Gap=     0.218 Goal=   None    Shift=    0.000
 Gap=     0.349 Goal=   None    Shift=    0.000
 RMSDP=1.97D-06 MaxDP=1.85D-05 DE=-6.07D-08 OVMax= 5.03D-05

 Initial convergence to 1.0D-05 achieved.  Increase integral accuracy.
 Cycle   9  Pass 1  IDiag  1:
 E= -140.032722774104     Delta-E=       -0.000001310034 Rises=F Damp=F
 DIIS: error= 2.66D-06 at cycle   1 NSaved=   1.
 NSaved= 1 IEnMin= 1 EnMin= -140.032722774104     IErMin= 1 ErrMin= 2.66D-06
 ErrMax= 2.66D-06  0.00D+00 EMaxC= 1.00D-01 BMatC= 6.88D-10 BMatP= 6.88D-10
 IDIUse=1 WtCom= 1.00D+00 WtEn= 0.00D+00
 Coeff-Com:  0.100D+01
 Coeff:      0.100D+01
 Gap=     0.218 Goal=   None    Shift=    0.000
 Gap=     0.349 Goal=   None    Shift=    0.000
 RMSDP=1.97D-06 MaxDP=1.85D-05 DE=-1.31D-06 OVMax= 1.27D-05

 Cycle  10  Pass 1  IDiag  1:
 E= -140.032722774287     Delta-E=       -0.000000000183 Rises=F Damp=F
 DIIS: error= 2.15D-06 at cycle   2 NSaved=   2.
 NSaved= 2 IEnMin= 2 EnMin= -140.032722774287     IErMin= 2 ErrMin= 2.15D-06
 ErrMax= 2.15D-06  0.00D+00 EMaxC= 1.00D-01 BMatC= 4.54D-10 BMatP= 6.88D-10
 IDIUse=1 WtCom= 1.00D+00 WtEn= 0.00D+00
 Coeff-Com:  0.435D+00 0.565D+00
 Coeff:      0.435D+00 0.565D+00
 Gap=     0.218 Goal=   None    Shift=    0.000
 Gap=     0.349 Goal=   None    Shift=    0.000
 RMSDP=5.13D-07 MaxDP=9.13D-06 DE=-1.83D-10 OVMax= 1.38D-05

 Cycle  11  Pass 1  IDiag  1:
 E= -140.032722774414     Delta-E=       -0.000000000127 Rises=F Damp=F
 DIIS: error= 1.15D-06 at cycle   3 NSaved=   3.
 NSaved= 3 IEnMin= 3 EnMin= -140.032722774414     IErMin= 3 ErrMin= 1.15D-06
 ErrMax= 1.15D-06  0.00D+00 EMaxC= 1.00D-01 BMatC= 1.17D-10 BMatP= 4.54D-10
 IDIUse=1 WtCom= 1.00D+00 WtEn= 0.00D+00
 Coeff-Com: -0.775D-01 0.290D+00 0.787D+00
 Coeff:     -0.775D-01 0.290D+00 0.787D+00
 Gap=     0.218 Goal=   None    Shift=    0.000
 Gap=     0.349 Goal=   None    Shift=    0.000
 RMSDP=1.33D-07 MaxDP=1.41D-06 DE=-1.27D-10 OVMax= 4.87D-06

 Cycle  12  Pass 1  IDiag  1:
 E= -140.032722774451     Delta-E=       -0.000000000037 Rises=F Damp=F
 DIIS: error= 2.82D-07 at cycle   4 NSaved=   4.
 NSaved= 4 IEnMin= 4 EnMin= -140.032722774451     IErMin= 4 ErrMin= 2.82D-07
 ErrMax= 2.82D-07  0.00D+00 EMaxC= 1.00D-01 BMatC= 8.89D-12 BMatP= 1.17D-10
 IDIUse=1 WtCom= 1.00D+00 WtEn= 0.00D+00
 Coeff-Com: -0.103D+00 0.332D-01 0.219D+00 0.851D+00
 Coeff:     -0.103D+00 0.332D-01 0.219D+00 0.851D+00
 Gap=     0.218 Goal=   None    Shift=    0.000
 Gap=     0.349 Goal=   None    Shift=    0.000
 RMSDP=8.21D-08 MaxDP=9.99D-07 DE=-3.70D-11 OVMax= 1.84D-06

 Cycle  13  Pass 1  IDiag  1:
 E= -140.032722774455     Delta-E=       -0.000000000005 Rises=F Damp=F
 DIIS: error= 1.81D-07 at cycle   5 NSaved=   5.
 NSaved= 5 IEnMin= 5 EnMin= -140.032722774455     IErMin= 5 ErrMin= 1.81D-07
 ErrMax= 1.81D-07  0.00D+00 EMaxC= 1.00D-01 BMatC= 3.33D-12 BMatP= 8.89D-12
 IDIUse=1 WtCom= 1.00D+00 WtEn= 0.00D+00
 Coeff-Com: -0.385D-01-0.224D-01-0.277D-01 0.445D+00 0.644D+00
 Coeff:     -0.385D-01-0.224D-01-0.277D-01 0.445D+00 0.644D+00
 Gap=     0.218 Goal=   None    Shift=    0.000
 Gap=     0.349 Goal=   None    Shift=    0.000
 RMSDP=3.91D-08 MaxDP=7.33D-07 DE=-4.55D-12 OVMax= 1.02D-06

 Cycle  14  Pass 1  IDiag  1:
 E= -140.032722774456     Delta-E=       -0.000000000001 Rises=F Damp=F
 DIIS: error= 4.62D-08 at cycle   6 NSaved=   6.
 NSaved= 6 IEnMin= 6 EnMin= -140.032722774456     IErMin= 6 ErrMin= 4.62D-08
 ErrMax= 4.62D-08  0.00D+00 EMaxC= 1.00D-01 BMatC= 1.45D-13 BMatP= 3.33D-12
 IDIUse=1 WtCom= 1.00D+00 WtEn= 0.00D+00
 Coeff-Com:  0.134D-01-0.177D-02-0.452D-01-0.108D+00 0.180D-01 0.112D+01
 Coeff:      0.134D-01-0.177D-02-0.452D-01-0.108D+00 0.180D-01 0.112D+01
 Gap=     0.218 Goal=   None    Shift=    0.000
 Gap=     0.349 Goal=   None    Shift=    0.000
 RMSDP=1.07D-08 MaxDP=1.35D-07 DE=-7.39D-13 OVMax= 3.23D-07

 Cycle  15  Pass 1  IDiag  1:
 E= -140.032722774456     Delta-E=        0.000000000000 Rises=F Damp=F
 DIIS: error= 5.77D-09 at cycle   7 NSaved=   7.
 NSaved= 7 IEnMin= 6 EnMin= -140.032722774456     IErMin= 7 ErrMin= 5.77D-09
 ErrMax= 5.77D-09  0.00D+00 EMaxC= 1.00D-01 BMatC= 4.38D-15 BMatP= 1.45D-13
 IDIUse=1 WtCom= 1.00D+00 WtEn= 0.00D+00
 Coeff-Com:  0.181D-02 0.205D-02 0.542D-02-0.183D-01-0.439D-01-0.572D-01
 Coeff-Com:  0.111D+01
 Coeff:      0.181D-02 0.205D-02 0.542D-02-0.183D-01-0.439D-01-0.572D-01
 Coeff:      0.111D+01
 Gap=     0.218 Goal=   None    Shift=    0.000
 Gap=     0.349 Goal=   None    Shift=    0.000
 RMSDP=2.27D-09 MaxDP=2.44D-08 DE= 2.84D-14 OVMax= 3.70D-08

 SCF Done:  E(UPBE1PBE) =  -140.032722774     A.U. after   15 cycles
            NFock= 15  Conv=0.23D-08     -V/T= 2.0039
 <Sx>= 0.0000 <Sy>= 0.0000 <Sz>= 0.5000 <S**2>= 0.7666 S= 0.5083
 <L.S>= 0.000000000000E+00
 KE= 1.394943910742D+02 PE=-4.095847678332D+02 EE= 9.125988647153D+01
 Annihilation of the first spin contaminant:
 S**2 before annihilation     0.7666,   after     0.7500
 Leave Link  502 at Wed Oct  7 13:40:23 2020, MaxMem=  2684354560 cpu:              21.1 elap:               2.3
 (Enter /udrive/faculty/rpeverati/g16/g16/l508.exe)
 QCSCF skips out because SCF is already converged.
 Leave Link  508 at Wed Oct  7 13:40:24 2020, MaxMem=  2684354560 cpu:               0.3 elap:               0.5
 (Enter /udrive/faculty/rpeverati/g16/g16/l601.exe)
 Copying SCF densities to generalized density rwf, IOpCl= 1 IROHF=0.

 **********************************************************************

            Population analysis using the SCF density.

 **********************************************************************

 Orbital symmetries:
 Alpha Orbitals:
       Occupied  (A') (A') (A') (A') (A') (A') (A") (A") (A') (A')
       Virtual   (A') (A') (A') (A") (A') (A") (A') (A') (A') (A")
                 (A') (A') (A') (A") (A') (A") (A') (A') (A") (A')
                 (A') (A") (A') (A') (A") (A')
 Beta  Orbitals:
       Occupied  (A') (A') (A') (A') (A') (A') (A") (A") (A')
       Virtual   (A') (A') (A') (A') (A") (A') (A") (A') (A') (A')
                 (A") (A') (A') (A') (A") (A') (A") (A') (A') (A")
                 (A') (A') (A") (A') (A') (A") (A')
 The electronic state is 2-A'.
 Alpha  occ. eigenvalues --  -24.75465 -10.26938  -1.16662  -0.72937  -0.51191
 Alpha  occ. eigenvalues --   -0.46091  -0.46088  -0.37098  -0.37097  -0.17838
 Alpha virt. eigenvalues --    0.04004   0.12678   0.18232   0.18232   0.50666
 Alpha virt. eigenvalues --    0.56389   0.56396   0.71456   0.85796   0.90717
 Alpha virt. eigenvalues --    0.90718   1.02699   1.23353   1.23359   1.54051
 Alpha virt. eigenvalues --    1.54055   1.64266   1.77471   1.88557   1.88558
 Alpha virt. eigenvalues --    2.02950   2.12374   2.12378   2.23694   2.23708
 Alpha virt. eigenvalues --    2.80616
  Beta  occ. eigenvalues --  -24.75397 -10.25990  -1.16339  -0.70691  -0.49303
  Beta  occ. eigenvalues --   -0.45457  -0.45454  -0.36820  -0.36819
  Beta virt. eigenvalues --   -0.01962   0.10407   0.13384   0.18737   0.18737
  Beta virt. eigenvalues --    0.54810   0.56857   0.56864   0.80314   0.87239
  Beta virt. eigenvalues --    0.91377   0.91378   1.04303   1.24053   1.24060
  Beta virt. eigenvalues --    1.55872   1.55877   1.65379   1.79698   1.88667
  Beta virt. eigenvalues --    1.88668   2.04566   2.13193   2.13200   2.24770
  Beta virt. eigenvalues --    2.24787   2.83409
          Condensed to atoms (all electrons):
               1          2          3          4          5          6
     1  H    0.923695  -0.087894   0.050757  -0.000422  -0.000425  -0.000425
     2  F   -0.087894   9.467579   0.011194  -0.013353  -0.013324  -0.013324
     3  C    0.050757   0.011194   5.166656   0.374259   0.374207   0.374207
     4  H   -0.000422  -0.013353   0.374259   0.503284  -0.029793  -0.029793
     5  H   -0.000425  -0.013324   0.374207  -0.029793   0.503352  -0.029831
     6  H   -0.000425  -0.013324   0.374207  -0.029793  -0.029831   0.503352
          Atomic-Atomic Spin Densities.
               1          2          3          4          5          6
     1  H    0.814871  -0.217141   0.056397  -0.000803  -0.000804  -0.000804
     2  F   -0.217141   0.207149  -0.124557   0.002473   0.002472   0.002472
     3  C    0.056397  -0.124557   0.640352  -0.008024  -0.008032  -0.008032
     4  H   -0.000803   0.002473  -0.008024  -0.020459   0.001289   0.001289
     5  H   -0.000804   0.002472  -0.008032   0.001289  -0.020443   0.001291
     6  H   -0.000804   0.002472  -0.008032   0.001289   0.001291  -0.020443
 Mulliken charges and spin densities:
               1          2
     1  H    0.114713   0.651717
     2  F   -0.350877  -0.127133
     3  C   -0.351280   0.548104
     4  H    0.195818  -0.024235
     5  H    0.195813  -0.024227
     6  H    0.195813  -0.024227
 Sum of Mulliken charges =   0.00000   1.00000
 Mulliken charges and spin densities with hydrogens summed into heavy atoms:
               1          2
     2  F   -0.236164   0.524584
     3  C    0.236164   0.475416
 Electronic spatial extent (au):  <R**2>=            104.4460
 Charge=              0.0000 electrons
 Dipole moment (field-independent basis, Debye):
    X=              0.0002    Y=             -1.3463    Z=              0.0000  Tot=              1.3463
 Quadrupole moment (field-independent basis, Debye-Ang):
   XX=            -12.7513   YY=            -12.1595   ZZ=            -12.7524
   XY=              0.0011   XZ=             -0.0000   YZ=             -0.0000
 Traceless Quadrupole moment (field-independent basis, Debye-Ang):
   XX=             -0.1969   YY=              0.3949   ZZ=             -0.1980
   XY=              0.0011   XZ=             -0.0000   YZ=             -0.0000
 Octapole moment (field-independent basis, Debye-Ang**2):
  XXX=              0.7867  YYY=              5.1835  ZZZ=              0.0000  XYY=             -0.0015
  XXY=              0.1940  XXZ=              0.0000  XZZ=             -0.7871  YZZ=              0.1944
  YYZ=              0.0000  XYZ=              0.0000
 Hexadecapole moment (field-independent basis, Debye-Ang**3):
 XXXX=            -16.9566 YYYY=            -96.0225 ZZZZ=            -16.9563 XXXY=             -0.9633
 XXXZ=              0.0000 YYYX=             -0.0005 YYYZ=             -0.0000 ZZZX=             -0.0000
 ZZZY=             -0.0000 XXYY=            -18.6282 XXZZ=             -5.6523 YYZZ=            -18.6271
 XXYZ=             -0.0000 YYXZ=             -0.0000 ZZXY=              0.9575
 N-N= 3.879776751306D+01 E-N=-4.095847679075D+02  KE= 1.394943910742D+02
                          Isotropic Fermi Contact Couplings
        Atom                 a.u.       MegaHertz       Gauss      10(-4) cm-1
     1  H(1)               0.19267     861.21440     307.30271     287.27020
     2  F(19)              1.08705    4573.70500    1632.01168    1525.62377
     3  C(13)              0.15928     179.05836      63.89247      59.72744
     4  H(1)              -0.00793     -35.44763     -12.64860     -11.82406
     5  H(1)              -0.00793     -35.42478     -12.64044     -11.81643
     6  H(1)              -0.00793     -35.42478     -12.64044     -11.81643
 --------------------------------------------------------
       Center         ----  Spin Dipole Couplings  ----
                      3XX-RR        3YY-RR        3ZZ-RR
 --------------------------------------------------------
     1   Atom        0.021052     -0.042104      0.021052
     2   Atom        0.362944     -0.725886      0.362942
     3   Atom       -0.274602      0.549206     -0.274604
     4   Atom        0.035735      0.000458     -0.036193
     5   Atom       -0.018218      0.000480      0.017738
     6   Atom       -0.018218      0.000480      0.017738
 --------------------------------------------------------
                        XY            XZ            YZ
 --------------------------------------------------------
     1   Atom       -0.000024     -0.000000     -0.000000
     2   Atom       -0.000221      0.000000      0.000000
     3   Atom       -0.000385      0.000000      0.000000
     4   Atom       -0.013257     -0.000000      0.000000
     5   Atom        0.006630     -0.031145     -0.011510
     6   Atom        0.006630      0.031145      0.011510
 --------------------------------------------------------


 ---------------------------------------------------------------------------------
              Anisotropic Spin Dipole Couplings in Principal Axis System
 ---------------------------------------------------------------------------------

       Atom             a.u.   MegaHertz   Gauss  10(-4) cm-1        Axes

              Baa    -0.0421   -22.465    -8.016    -7.493  0.0004  1.0000  0.0000
     1 H(1)   Bbb     0.0211    11.232     4.008     3.747  1.0000 -0.0004  0.0000
              Bcc     0.0211    11.232     4.008     3.747  0.0000  0.0000  1.0000
 
              Baa    -0.7259  -364.559  -130.084  -121.604  0.0002  1.0000 -0.0000
     2 F(19)  Bbb     0.3629   182.279    65.042    60.802 -0.0000  0.0000  1.0000
              Bcc     0.3629   182.280    65.042    60.802  1.0000 -0.0002  0.0000
 
              Baa    -0.2746   -36.849   -13.149   -12.292 -0.0000 -0.0000  1.0000
     3 C(13)  Bbb    -0.2746   -36.849   -13.149   -12.292  1.0000  0.0005  0.0000
              Bcc     0.5492    73.698    26.297    24.583 -0.0005  1.0000  0.0000
 
              Baa    -0.0362   -19.311    -6.891    -6.441  0.0000  0.0000  1.0000
     4 H(1)   Bbb    -0.0040    -2.117    -0.755    -0.706  0.3167  0.9485  0.0000
              Bcc     0.0402    21.428     7.646     7.148  0.9485 -0.3167  0.0000
 
              Baa    -0.0362   -19.315    -6.892    -6.443  0.8660  0.0004  0.5001
     5 H(1)   Bbb    -0.0040    -2.116    -0.755    -0.706 -0.1590  0.9483  0.2747
              Bcc     0.0402    21.431     7.647     7.149 -0.4741 -0.3174  0.8213
 
              Baa    -0.0362   -19.315    -6.892    -6.443  0.8660  0.0004 -0.5001
     6 H(1)   Bbb    -0.0040    -2.116    -0.755    -0.706 -0.1590  0.9483 -0.2747
              Bcc     0.0402    21.431     7.647     7.149  0.4741  0.3174  0.8213
 

 ---------------------------------------------------------------------------------

 No NMR shielding tensors so no spin-rotation constants.
 Leave Link  601 at Wed Oct  7 13:40:25 2020, MaxMem=  2684354560 cpu:               6.3 elap:               0.9
 (Enter /udrive/faculty/rpeverati/g16/g16/l701.exe)
 ... and contract with generalized density number  0.
 Compute integral first derivatives.
 Leave Link  701 at Wed Oct  7 13:40:26 2020, MaxMem=  2684354560 cpu:               4.0 elap:               0.7
 (Enter /udrive/faculty/rpeverati/g16/g16/l702.exe)
 L702 exits ... SP integral derivatives will be done elsewhere.
 Leave Link  702 at Wed Oct  7 13:40:27 2020, MaxMem=  2684354560 cpu:               1.3 elap:               0.4
 (Enter /udrive/faculty/rpeverati/g16/g16/l703.exe)
 Integral derivatives from FoFJK, PRISM(SPDF).
 Compute integral first derivatives, UseDBF=F ICtDFT=           0.
 Calling FoFJK, ICntrl=      2127 FMM=F ISym2X=1 I1Cent= 0 IOpClX= 1 NMat=1 NMatS=1 NMatT=0.
 FoFJK:  IHMeth= 1 ICntrl=    2127 DoSepK=F KAlg= 0 I1Cent=           0 FoldK=F
 IRaf=         0 NMat=       1 IRICut=       1 DoRegI=T DoRafI=F ISym2E= 1 IDoP0=0 IntGTp=1.
 FoFCou: FMM=F IPFlag=           0 FMFlag=      100000 FMFlg1=         800
         NFxFlg=           0 DoJE=F BraDBF=F KetDBF=F FulRan=T
         wScrn=  0.000000 ICntrl=      2127 IOpCl=  1 I1Cent=           0 NGrid=           0
         NMat0=    1 NMatS0=      1 NMatT0=    0 NMatD0=    1 NMtDS0=    0 NMtDT0=    0
 Petite list used in FoFCou.
 Leave Link  703 at Wed Oct  7 13:40:28 2020, MaxMem=  2684354560 cpu:               6.8 elap:               0.8
 (Enter /udrive/faculty/rpeverati/g16/g16/l716.exe)
 Dipole        = 7.50206380D-05-5.29687331D-01 2.22044605D-16
 ***** Axes restored to original set *****
 -------------------------------------------------------------------
 Center     Atomic                   Forces (Hartrees/Bohr)
 Number     Number              X              Y              Z
 -------------------------------------------------------------------
      1        1          -0.000000860    0.004154958   -0.000000000
      2        9          -0.000021313    0.001208613   -0.000000000
      3        6           0.000066254    0.001294845    0.000000000
      4        1           0.003215168   -0.002236584    0.000000000
      5        1          -0.001629625   -0.002210916    0.002867266
      6        1          -0.001629625   -0.002210916   -0.002867266
 -------------------------------------------------------------------
 Cartesian Forces:  Max     0.004154958 RMS     0.001933270
 Leave Link  716 at Wed Oct  7 13:40:28 2020, MaxMem=  2684354560 cpu:               0.9 elap:               0.4
 (Enter /udrive/faculty/rpeverati/g16/g16/l103.exe)

 GradGradGradGradGradGradGradGradGradGradGradGradGradGradGradGradGradGrad
 Berny optimization.
 Optmz: redundant internal coordinate code flag= 1
 FormGI is forming the generalized inverse of G from B-inverse, IUseBI=4.
 Internal  Forces:  Max     0.005363571 RMS     0.002576824
 Search for a saddle point.
 Step number   1 out of a maximum of   50
 All quantities printed in internal units (Hartrees-Bohrs-Radians)
 Swapping is turned off.
 Second derivative matrix not updated -- first step.
 The second derivative matrix:
                          R1        R2        R3        R4        R5
           R1           0.22057
           R2           0.00000   0.19598
           R3           0.00000   0.00000   0.36022
           R4           0.00000   0.00000   0.00000   0.36033
           R5           0.00000   0.00000   0.00000   0.00000   0.36033
           A1           0.00000   0.00000   0.00000   0.00000   0.00000
           A2           0.00000   0.00000   0.00000   0.00000   0.00000
           A3           0.00000   0.00000   0.00000   0.00000   0.00000
           A4           0.00000   0.00000   0.00000   0.00000   0.00000
           A5           0.00000   0.00000   0.00000   0.00000   0.00000
           A6           0.00000   0.00000   0.00000   0.00000   0.00000
           A7           0.00000   0.00000   0.00000   0.00000   0.00000
           A8           0.00000   0.00000   0.00000   0.00000   0.00000
           D1           0.00000   0.00000   0.00000   0.00000   0.00000
                          A1        A2        A3        A4        A5
           A1           0.16000
           A2           0.00000   0.16000
           A3           0.00000   0.00000   0.16000
           A4           0.00000   0.00000   0.00000   0.16000
           A5           0.00000   0.00000   0.00000   0.00000   0.16000
           A6           0.00000   0.00000   0.00000   0.00000   0.00000
           A7           0.00000   0.00000   0.00000   0.00000   0.00000
           A8           0.00000   0.00000   0.00000   0.00000   0.00000
           D1           0.00000   0.00000   0.00000   0.00000   0.00000
                          A6        A7        A8        D1
           A6           0.16000
           A7           0.00000   0.00230
           A8           0.00000   0.00000   0.00230
           D1           0.00000   0.00000   0.00000   0.00371
 ITU=  0
 Eigenvectors of the second derivative matrix:
                           1         2         3         4         5
     Eigenvalues --     0.00230   0.00230   0.05482   0.16000   0.16000
   1         R1        -0.00000   0.00000   0.00000  -0.00000  -0.00000
   2         R2         0.00000  -0.00000   0.00000   0.00000  -0.00000
   3         R3        -0.00000   0.00000   0.00000  -0.00000  -0.00000
   4         R4         0.00000   0.00000  -0.00000   0.00000  -0.00000
   5         R5        -0.00000  -0.00000  -0.00000   0.00000   0.00000
   6         A1         0.00000   0.00000  -0.26170   0.06551  -0.66896
   7         A2         0.00000   0.00000  -0.26168   0.03907   0.68006
   8         A3        -0.00000  -0.00000  -0.26168  -0.01980   0.08608
   9         A4        -0.00000   0.00000   0.29660   0.17965   0.20549
  10         A5         0.00000   0.00000   0.12961  -0.80283  -0.09988
  11         A6        -0.00000   0.00000   0.12958   0.56301  -0.17432
  12         A7         0.49200   0.87060  -0.00000   0.00000   0.00000
  13         A8         0.87060  -0.49200   0.00000   0.00000  -0.00000
  14         D1        -0.00000   0.00000   0.82036  -0.00000  -0.00000
                           6         7         8         9        10
     Eigenvalues --     0.16000   0.16000   0.19598   0.22057   0.36022
   1         R1         0.00000   0.00000   0.00000  -1.00000  -0.00000
   2         R2        -0.00000   0.00000   1.00000   0.00000  -0.00000
   3         R3         0.00000   0.00000   0.00000   0.00000  -1.00000
   4         R4         0.00000   0.00000   0.00000   0.00000   0.00000
   5         R5        -0.00000   0.00000   0.00000  -0.00000   0.00000
   6         A1        -0.31225  -0.36049  -0.00000   0.00000  -0.00000
   7         A2         0.10115  -0.45285   0.00000  -0.00000  -0.00000
   8         A3        -0.10041   0.81328   0.00000   0.00000   0.00000
   9         A4        -0.65914  -0.00017  -0.00000  -0.00000  -0.00000
  10         A5         0.26523  -0.04196   0.00000   0.00000   0.00000
  11         A6         0.61431   0.04219  -0.00000  -0.00000  -0.00000
  12         A7        -0.00000   0.00000   0.00000  -0.00000   0.00000
  13         A8        -0.00000  -0.00000  -0.00000  -0.00000  -0.00000
  14         D1         0.00000  -0.00000  -0.00000   0.00000   0.00000
                          11        12
     Eigenvalues --     0.36033   0.36033
   1         R1         0.00000  -0.00000
   2         R2         0.00000   0.00000
   3         R3        -0.00000  -0.00000
   4         R4        -0.70685  -0.70736
   5         R5        -0.70736   0.70685
   6         A1         0.00000  -0.00000
   7         A2        -0.00000  -0.00000
   8         A3         0.00000   0.00000
   9         A4        -0.00000  -0.00000
  10         A5        -0.00000  -0.00000
  11         A6         0.00000   0.00000
  12         A7        -0.00000   0.00000
  13         A8        -0.00000   0.00000
  14         D1        -0.00000  -0.00000
 Eigenvalue     1 is   2.30D-03 should be less than     0.000000 Eigenvector:
                          A8        A7        R1        A3        D1
   1                    0.87060   0.49200  -0.00000  -0.00000  -0.00000
                          A2        A5        A4        R5        A1
   1                    0.00000   0.00000  -0.00000  -0.00000   0.00000
 RLam0= 2.30D-03.
 Iter=   1 RLamda= 0.00000000D+00 Sum=-4.42438509D-04.
 Iter=   2 RLamda=-4.42438509D-04 Sum=-4.41003610D-04.
 Iter=   3 RLamda=-4.41003610D-04 Sum=-4.41008238D-04.
 RFO step:  Lambda0=2.300013745D-03 Lambda=-4.41003610D-04.
 Linear search not attempted -- option 19 set.
 Iteration  1 RMS(Cart)=  0.02287724 RMS(Int)=  0.00067100
 Iteration  2 RMS(Cart)=  0.00049533 RMS(Int)=  0.00010920
 Iteration  3 RMS(Cart)=  0.00000061 RMS(Int)=  0.00010920
 ITry= 1 IFail=0 DXMaxC= 4.59D-02 DCOld= 1.00D+10 DXMaxT= 1.00D-01 DXLimC= 3.00D+00 Rises=F
 ClnCor:  largest displacement from symmetrization is 2.34D-02 for atom     6.
 Variable       Old X    -DE/DX   Delta X   Delta X   Delta X     New X
                                 (Linear)    (Quad)   (Total)
    R1        2.34040   0.00415   0.00000   0.01880   0.01839   2.35879
    R2        3.15329   0.00536   0.00000   0.02731   0.02723   3.18052
    R3        2.04047   0.00363   0.00000   0.01005   0.01005   2.05052
    R4        2.04030   0.00370   0.00000   0.01026   0.00880   2.04909
    R5        2.04030   0.00370   0.00000   0.01026   0.00880   2.04909
    A1        1.79058   0.00077   0.00000   0.01202   0.01204   1.80262
    A2        1.79134   0.00069   0.00000   0.01155   0.00593   1.79726
    A3        1.79134   0.00069   0.00000   0.01155   0.00593   1.79726
    A4        2.01363   0.00001   0.00000  -0.00814  -0.00676   2.00688
    A5        2.01363  -0.00079   0.00000  -0.00851  -0.00676   2.00688
    A6        2.01322  -0.00074   0.00000  -0.00821  -0.00367   2.00956
    A7        3.14120   0.00001   0.00000  -0.02629  -0.02574   3.11546
    A8        3.14159  -0.00000   0.00000  -0.05038   0.00000   3.14159
    D1        2.41803  -0.00191   0.00000  -0.03455  -0.02387   2.39416
         Item               Value     Threshold  Converged?
 Maximum Force            0.005364     0.000450     NO 
 RMS     Force            0.002577     0.000300     NO 
 Maximum Displacement     0.045893     0.001800     NO 
 RMS     Displacement     0.018714     0.001200     NO 
 Predicted change in Energy=-2.115016D-04
 Lowest energy point so far.  Saving SCF results.
 Largest change from initial coordinates is atom    1       0.011 Angstoms.
 GradGradGradGradGradGradGradGradGradGradGradGradGradGradGradGradGradGrad

 Leave Link  103 at Wed Oct  7 13:40:29 2020, MaxMem=  2684354560 cpu:               3.6 elap:               0.6
 (Enter /udrive/faculty/rpeverati/g16/g16/l202.exe)
                          Input orientation:                          
 ---------------------------------------------------------------------
 Center     Atomic      Atomic             Coordinates (Angstroms)
 Number     Number       Type             X           Y           Z
 ---------------------------------------------------------------------
      1          1           0        0.011554    2.025253    0.000000
      2          9           0       -0.012489    0.777265    0.000000
      3          6           0       -0.000927   -0.905756    0.000000
      4          1           0        1.056821   -1.147797    0.000000
      5          1           0       -0.527319   -1.152850    0.915224
      6          1           0       -0.527319   -1.152850   -0.915224
 ---------------------------------------------------------------------
                    Distance matrix (angstroms):
                    1          2          3          4          5
     1  H    0.000000
     2  F    1.248219   0.000000
     3  C    2.931035   1.683061   0.000000
     4  H    3.340782   2.202110   1.085088   0.000000
     5  H    3.350874   2.197278   1.084333   1.829524   0.000000
     6  H    3.350874   2.197278   1.084333   1.829524   1.830448
                    6
     6  H    0.000000
 Stoichiometry    CH4F(2)
 Framework group  CS[SG(CH2F),X(H2)]
 Deg. of freedom     8
 Full point group                 CS      NOp   2
 RotChk:  IX=0 Diff= 9.71D-03
 Largest Abelian subgroup         CS      NOp   2
 Largest concise Abelian subgroup CS      NOp   2
                         Standard orientation:                         
 ---------------------------------------------------------------------
 Center     Atomic      Atomic             Coordinates (Angstroms)
 Number     Number       Type             X           Y           Z
 ---------------------------------------------------------------------
      1          1           0        0.030903    2.018109    0.000000
      2          9           0       -0.001712    0.770316    0.000000
      3          6           0       -0.001712   -0.912745   -0.000000
      4          1           0        1.054349   -1.162046    0.000000
      5          1           0       -0.529788   -1.156218    0.915224
      6          1           0       -0.529788   -1.156218   -0.915224
 ---------------------------------------------------------------------
 Rotational constants (GHZ):         149.7249497          16.3141353          16.3134113
 Leave Link  202 at Wed Oct  7 13:40:30 2020, MaxMem=  2684354560 cpu:               1.0 elap:               0.4
 (Enter /udrive/faculty/rpeverati/g16/g16/l301.exe)
 Standard basis: 6-31G(d) (5D, 7F)
 Ernie: Thresh=  0.10000D-02 Tol=  0.10000D-05 Strict=F.
 There are    28 symmetry adapted cartesian basis functions of A'  symmetry.
 There are    10 symmetry adapted cartesian basis functions of A"  symmetry.
 There are    26 symmetry adapted basis functions of A'  symmetry.
 There are    10 symmetry adapted basis functions of A"  symmetry.
    36 basis functions,    72 primitive gaussians,    38 cartesian basis functions
    10 alpha electrons        9 beta electrons
       nuclear repulsion energy        38.4990020326 Hartrees.
 IExCor= 1009 DFT=T Ex+Corr=PBE1PBE ExCW=0 ScaHFX=  0.250000
 ScaDFX=  0.750000  0.750000  1.000000  1.000000 ScalE2=  1.000000  1.000000
 IRadAn=      5 IRanWt=     -1 IRanGd=            0 ICorTp=0 IEmpDi=  4
 NAtoms=    6 NActive=    6 NUniq=    5 SFac= 1.44D+00 NAtFMM=   60 NAOKFM=F Big=F
 Integral buffers will be    131072 words long.
 Raffenetti 2 integral format.
 Two-electron integral symmetry is turned on.
 Leave Link  301 at Wed Oct  7 13:40:30 2020, MaxMem=  2684354560 cpu:               1.6 elap:               0.5
 (Enter /udrive/faculty/rpeverati/g16/g16/l302.exe)
 NPDir=0 NMtPBC=     1 NCelOv=     1 NCel=       1 NClECP=     1 NCelD=      1
         NCelK=      1 NCelE2=     1 NClLst=     1 CellRange=     0.0.
 One-electron integrals computed using PRISM.
 One-electron integral symmetry used in STVInt
 NBasis=    36 RedAO= T EigKep=  2.13D-02  NBF=    26    10
 NBsUse=    36 1.00D-06 EigRej= -1.00D+00 NBFU=    26    10
 Precomputing XC quadrature grid using
 IXCGrd= 4 IRadAn=           5 IRanWt=          -1 IRanGd=           0 AccXCQ= 0.00D+00.
 Generated NRdTot=       0 NPtTot=           0 NUsed=           0 NTot=          32
 NSgBfM=    38    38    38    38    38 MxSgAt=     6 MxSgA2=     6.
 Leave Link  302 at Wed Oct  7 13:40:31 2020, MaxMem=  2684354560 cpu:               3.2 elap:               0.6
 (Enter /udrive/faculty/rpeverati/g16/g16/l303.exe)
 DipDrv:  MaxL=1.
 Leave Link  303 at Wed Oct  7 13:40:32 2020, MaxMem=  2684354560 cpu:               1.3 elap:               0.4
 (Enter /udrive/faculty/rpeverati/g16/g16/l401.exe)
 Initial guess from the checkpoint file:  "MN_53_hfch3ts_BH76_PBE0_631Gs.chk"
 SCF N**3 symmetry information disabled.
 B after Tr=    -0.000000    0.000000    0.000000
         Rot=    0.999998    0.000000   -0.000000    0.001796 Ang=   0.21 deg.
 Guess basis will be translated and rotated to current coordinates.
 JPrj=2 DoOrth=T DoCkMO=T.
 Initial guess orbital symmetries:
 Alpha Orbitals:
       Occupied  (A') (A') (A') (A') (A') (A') (A") (A") (A') (A')
       Virtual   (A') (A') (A') (A") (A') (A") (A') (A') (A') (A")
                 (A') (A') (A') (A") (A') (A") (A') (A') (A") (A')
                 (A') (A") (A') (A') (A") (A')
 Beta  Orbitals:
       Occupied  (A') (A') (A') (A') (A') (A') (A") (A") (A')
       Virtual   (A') (A') (A') (A') (A") (A') (A") (A') (A') (A')
                 (A") (A') (A') (A') (A") (A') (A") (A') (A') (A")
                 (A') (A') (A") (A') (A') (A") (A')
 The electronic state of the initial guess is 2-A'.
 Initial guess <Sx>= 0.0000 <Sy>= 0.0000 <Sz>= 0.5000 <S**2>= 0.7668 S= 0.5084
 Generating alternative initial guess.
 ExpMin= 1.61D-01 ExpMax= 7.00D+03 ExpMxC= 1.05D+03 IAcc=2 IRadAn=         4 AccDes= 0.00D+00
 Harris functional with IExCor= 1009 and IRadAn=       4 diagonalized for initial guess.
 HarFok:  IExCor= 1009 AccDes= 0.00D+00 IRadAn=         4 IDoV= 1 UseB2=F ITyADJ=14
 ICtDFT=  3500011 ScaDFX=  1.000000  1.000000  1.000000  1.000000
 FoFCou: FMM=F IPFlag=           0 FMFlag=      100000 FMFlg1=           0
         NFxFlg=           0 DoJE=T BraDBF=F KetDBF=T FulRan=T
         wScrn=  0.000000 ICntrl=       500 IOpCl=  0 I1Cent=   200000004 NGrid=           0
         NMat0=    1 NMatS0=      1 NMatT0=    0 NMatD0=    1 NMtDS0=    0 NMtDT0=    0
 Petite list used in FoFCou.
 Harris En= -140.057077009526    
 Leave Link  401 at Wed Oct  7 13:40:33 2020, MaxMem=  2684354560 cpu:               7.5 elap:               1.1
 (Enter /udrive/faculty/rpeverati/g16/g16/l502.exe)
 Keep R1 and R2 ints in memory in symmetry-blocked form, NReq=10589866.
 FoFCou: FMM=F IPFlag=           0 FMFlag=           0 FMFlg1=           0
         NFxFlg=           0 DoJE=F BraDBF=F KetDBF=F FulRan=T
         wScrn=  0.000000 ICntrl=       600 IOpCl=  0 I1Cent=           0 NGrid=           0
         NMat0=    1 NMatS0=    666 NMatT0=    0 NMatD0=    1 NMtDS0=    0 NMtDT0=    0
 Petite list used in FoFCou.
 UHF open shell SCF:
 Using DIIS extrapolation, IDIIS=  1040.
 NGot=  2684354560 LenX=  2684115610 LenY=  2684113725
 Requested convergence on RMS density matrix=1.00D-08 within 120 cycles.
 Requested convergence on MAX density matrix=1.00D-06.
 Requested convergence on             energy=1.00D-06.
 No special actions if energy rises.
 Integral accuracy reduced to 1.0D-05 until final iterations.

 Cycle   1  Pass 0  IDiag  1:
 E= -140.032857733512    
 DIIS: error= 1.12D-03 at cycle   1 NSaved=   1.
 NSaved= 1 IEnMin= 1 EnMin= -140.032857733512     IErMin= 1 ErrMin= 1.12D-03
 ErrMax= 1.12D-03  0.00D+00 EMaxC= 1.00D-01 BMatC= 2.31D-04 BMatP= 2.31D-04
 IDIUse=3 WtCom= 9.89D-01 WtEn= 1.12D-02
 Coeff-Com:  0.100D+01
 Coeff-En:   0.100D+01
 Coeff:      0.100D+01
 Gap=     0.218 Goal=   None    Shift=    0.000
 Gap=     0.345 Goal=   None    Shift=    0.000
 GapD=    0.218 DampG=1.000 DampE=1.000 DampFc=1.0000 IDamp=-1.
 RMSDP=3.58D-04 MaxDP=3.84D-03              OVMax= 5.63D-03

 Cycle   2  Pass 0  IDiag  1:
 E= -140.032939812055     Delta-E=       -0.000082078543 Rises=F Damp=F
 DIIS: error= 4.51D-04 at cycle   2 NSaved=   2.
 NSaved= 2 IEnMin= 2 EnMin= -140.032939812055     IErMin= 2 ErrMin= 4.51D-04
 ErrMax= 4.51D-04  0.00D+00 EMaxC= 1.00D-01 BMatC= 2.62D-05 BMatP= 2.31D-04
 IDIUse=3 WtCom= 9.95D-01 WtEn= 4.51D-03
 Coeff-Com:  0.133D+00 0.867D+00
 Coeff-En:   0.000D+00 0.100D+01
 Coeff:      0.133D+00 0.867D+00
 Gap=     0.217 Goal=   None    Shift=    0.000
 Gap=     0.345 Goal=   None    Shift=    0.000
 RMSDP=1.67D-04 MaxDP=3.25D-03 DE=-8.21D-05 OVMax= 3.69D-03

 Cycle   3  Pass 0  IDiag  1:
 E= -140.032943194818     Delta-E=       -0.000003382763 Rises=F Damp=F
 DIIS: error= 4.67D-04 at cycle   3 NSaved=   3.
 NSaved= 3 IEnMin= 3 EnMin= -140.032943194818     IErMin= 2 ErrMin= 4.51D-04
 ErrMax= 4.67D-04  0.00D+00 EMaxC= 1.00D-01 BMatC= 2.30D-05 BMatP= 2.62D-05
 IDIUse=3 WtCom= 9.95D-01 WtEn= 4.67D-03
 Coeff-Com: -0.320D-01 0.484D+00 0.548D+00
 Coeff-En:   0.000D+00 0.354D+00 0.646D+00
 Coeff:     -0.318D-01 0.484D+00 0.548D+00
 Gap=     0.217 Goal=   None    Shift=    0.000
 Gap=     0.345 Goal=   None    Shift=    0.000
 RMSDP=6.46D-05 MaxDP=8.34D-04 DE=-3.38D-06 OVMax= 1.38D-03

 Cycle   4  Pass 0  IDiag  1:
 E= -140.032948938279     Delta-E=       -0.000005743461 Rises=F Damp=F
 DIIS: error= 5.37D-05 at cycle   4 NSaved=   4.
 NSaved= 4 IEnMin= 4 EnMin= -140.032948938279     IErMin= 4 ErrMin= 5.37D-05
 ErrMax= 5.37D-05  0.00D+00 EMaxC= 1.00D-01 BMatC= 2.80D-07 BMatP= 2.30D-05
 IDIUse=1 WtCom= 1.00D+00 WtEn= 0.00D+00
 Coeff-Com: -0.111D-01 0.229D-01 0.594D-01 0.929D+00
 Coeff:     -0.111D-01 0.229D-01 0.594D-01 0.929D+00
 Gap=     0.217 Goal=   None    Shift=    0.000
 Gap=     0.345 Goal=   None    Shift=    0.000
 RMSDP=2.67D-05 MaxDP=4.61D-04 DE=-5.74D-06 OVMax= 7.26D-04

 Cycle   5  Pass 0  IDiag  1:
 E= -140.032949123296     Delta-E=       -0.000000185017 Rises=F Damp=F
 DIIS: error= 5.66D-05 at cycle   5 NSaved=   5.
 NSaved= 5 IEnMin= 5 EnMin= -140.032949123296     IErMin= 4 ErrMin= 5.37D-05
 ErrMax= 5.66D-05  0.00D+00 EMaxC= 1.00D-01 BMatC= 2.92D-07 BMatP= 2.80D-07
 IDIUse=1 WtCom= 1.00D+00 WtEn= 0.00D+00
 Coeff-Com: -0.173D-02-0.634D-01-0.639D-01 0.533D+00 0.596D+00
 Coeff:     -0.173D-02-0.634D-01-0.639D-01 0.533D+00 0.596D+00
 Gap=     0.217 Goal=   None    Shift=    0.000
 Gap=     0.345 Goal=   None    Shift=    0.000
 RMSDP=6.80D-06 MaxDP=9.63D-05 DE=-1.85D-07 OVMax= 1.93D-04

 Initial convergence to 1.0D-05 achieved.  Increase integral accuracy.
 Cycle   6  Pass 1  IDiag  1:
 E= -140.032950158540     Delta-E=       -0.000001035244 Rises=F Damp=F
 DIIS: error= 2.04D-05 at cycle   1 NSaved=   1.
 NSaved= 1 IEnMin= 1 EnMin= -140.032950158540     IErMin= 1 ErrMin= 2.04D-05
 ErrMax= 2.04D-05  0.00D+00 EMaxC= 1.00D-01 BMatC= 3.35D-08 BMatP= 3.35D-08
 IDIUse=1 WtCom= 1.00D+00 WtEn= 0.00D+00
 Coeff-Com:  0.100D+01
 Coeff:      0.100D+01
 Gap=     0.217 Goal=   None    Shift=    0.000
 Gap=     0.345 Goal=   None    Shift=    0.000
 RMSDP=6.80D-06 MaxDP=9.63D-05 DE=-1.04D-06 OVMax= 8.87D-05

 Cycle   7  Pass 1  IDiag  1:
 E= -140.032950164683     Delta-E=       -0.000000006143 Rises=F Damp=F
 DIIS: error= 2.12D-05 at cycle   2 NSaved=   2.
 NSaved= 2 IEnMin= 2 EnMin= -140.032950164683     IErMin= 1 ErrMin= 2.04D-05
 ErrMax= 2.12D-05  0.00D+00 EMaxC= 1.00D-01 BMatC= 4.29D-08 BMatP= 3.35D-08
 IDIUse=1 WtCom= 1.00D+00 WtEn= 0.00D+00
 Coeff-Com:  0.537D+00 0.463D+00
 Coeff:      0.537D+00 0.463D+00
 Gap=     0.217 Goal=   None    Shift=    0.000
 Gap=     0.345 Goal=   None    Shift=    0.000
 RMSDP=1.80D-06 MaxDP=2.96D-05 DE=-6.14D-09 OVMax= 4.08D-05

 Cycle   8  Pass 1  IDiag  1:
 E= -140.032950172058     Delta-E=       -0.000000007375 Rises=F Damp=F
 DIIS: error= 4.83D-06 at cycle   3 NSaved=   3.
 NSaved= 3 IEnMin= 3 EnMin= -140.032950172058     IErMin= 3 ErrMin= 4.83D-06
 ErrMax= 4.83D-06  0.00D+00 EMaxC= 1.00D-01 BMatC= 1.64D-09 BMatP= 3.35D-08
 IDIUse=1 WtCom= 1.00D+00 WtEn= 0.00D+00
 Coeff-Com: -0.139D+00 0.353D-01 0.110D+01
 Coeff:     -0.139D+00 0.353D-01 0.110D+01
 Gap=     0.217 Goal=   None    Shift=    0.000
 Gap=     0.345 Goal=   None    Shift=    0.000
 RMSDP=1.81D-06 MaxDP=3.05D-05 DE=-7.38D-09 OVMax= 4.98D-05

 Cycle   9  Pass 1  IDiag  1:
 E= -140.032950173317     Delta-E=       -0.000000001259 Rises=F Damp=F
 DIIS: error= 3.06D-06 at cycle   4 NSaved=   4.
 NSaved= 4 IEnMin= 4 EnMin= -140.032950173317     IErMin= 4 ErrMin= 3.06D-06
 ErrMax= 3.06D-06  0.00D+00 EMaxC= 1.00D-01 BMatC= 7.06D-10 BMatP= 1.64D-09
 IDIUse=1 WtCom= 1.00D+00 WtEn= 0.00D+00
 Coeff-Com: -0.189D+00-0.104D+00 0.495D+00 0.797D+00
 Coeff:     -0.189D+00-0.104D+00 0.495D+00 0.797D+00
 Gap=     0.217 Goal=   None    Shift=    0.000
 Gap=     0.345 Goal=   None    Shift=    0.000
 RMSDP=5.29D-07 MaxDP=5.88D-06 DE=-1.26D-09 OVMax= 1.78D-05

 Cycle  10  Pass 1  IDiag  1:
 E= -140.032950173588     Delta-E=       -0.000000000270 Rises=F Damp=F
 DIIS: error= 1.33D-06 at cycle   5 NSaved=   5.
 NSaved= 5 IEnMin= 5 EnMin= -140.032950173588     IErMin= 5 ErrMin= 1.33D-06
 ErrMax= 1.33D-06  0.00D+00 EMaxC= 1.00D-01 BMatC= 1.23D-10 BMatP= 7.06D-10
 IDIUse=1 WtCom= 1.00D+00 WtEn= 0.00D+00
 Coeff-Com: -0.857D-01-0.625D-01 0.131D+00 0.442D+00 0.575D+00
 Coeff:     -0.857D-01-0.625D-01 0.131D+00 0.442D+00 0.575D+00
 Gap=     0.217 Goal=   None    Shift=    0.000
 Gap=     0.345 Goal=   None    Shift=    0.000
 RMSDP=2.41D-07 MaxDP=4.67D-06 DE=-2.70D-10 OVMax= 6.24D-06

 Cycle  11  Pass 1  IDiag  1:
 E= -140.032950173627     Delta-E=       -0.000000000039 Rises=F Damp=F
 DIIS: error= 1.26D-07 at cycle   6 NSaved=   6.
 NSaved= 6 IEnMin= 6 EnMin= -140.032950173627     IErMin= 6 ErrMin= 1.26D-07
 ErrMax= 1.26D-07  0.00D+00 EMaxC= 1.00D-01 BMatC= 7.78D-13 BMatP= 1.23D-10
 IDIUse=1 WtCom= 1.00D+00 WtEn= 0.00D+00
 Coeff-Com:  0.135D-01 0.786D-02-0.270D-01-0.617D-01-0.432D-01 0.111D+01
 Coeff:      0.135D-01 0.786D-02-0.270D-01-0.617D-01-0.432D-01 0.111D+01
 Gap=     0.217 Goal=   None    Shift=    0.000
 Gap=     0.345 Goal=   None    Shift=    0.000
 RMSDP=2.30D-08 MaxDP=2.77D-07 DE=-3.90D-11 OVMax= 3.49D-07

 Cycle  12  Pass 1  IDiag  1:
 E= -140.032950173627     Delta-E=       -0.000000000000 Rises=F Damp=F
 DIIS: error= 4.07D-08 at cycle   7 NSaved=   7.
 NSaved= 7 IEnMin= 7 EnMin= -140.032950173627     IErMin= 7 ErrMin= 4.07D-08
 ErrMax= 4.07D-08  0.00D+00 EMaxC= 1.00D-01 BMatC= 1.02D-13 BMatP= 7.78D-13
 IDIUse=1 WtCom= 1.00D+00 WtEn= 0.00D+00
 Coeff-Com:  0.112D-01 0.815D-02-0.188D-01-0.544D-01-0.732D-01 0.125D+00
 Coeff-Com:  0.100D+01
 Coeff:      0.112D-01 0.815D-02-0.188D-01-0.544D-01-0.732D-01 0.125D+00
 Coeff:      0.100D+01
 Gap=     0.217 Goal=   None    Shift=    0.000
 Gap=     0.345 Goal=   None    Shift=    0.000
 RMSDP=1.05D-08 MaxDP=9.91D-08 DE=-2.84D-13 OVMax= 1.22D-07

 Cycle  13  Pass 1  IDiag  1:
 E= -140.032950173627     Delta-E=       -0.000000000000 Rises=F Damp=F
 DIIS: error= 4.86D-09 at cycle   8 NSaved=   8.
 NSaved= 8 IEnMin= 8 EnMin= -140.032950173627     IErMin= 8 ErrMin= 4.86D-09
 ErrMax= 4.86D-09  0.00D+00 EMaxC= 1.00D-01 BMatC= 2.16D-15 BMatP= 1.02D-13
 IDIUse=1 WtCom= 1.00D+00 WtEn= 0.00D+00
 Coeff-Com: -0.228D-02-0.152D-02 0.415D-02 0.107D-01 0.122D-01-0.778D-01
 Coeff-Com: -0.128D+00 0.118D+01
 Coeff:     -0.228D-02-0.152D-02 0.415D-02 0.107D-01 0.122D-01-0.778D-01
 Coeff:     -0.128D+00 0.118D+01
 Gap=     0.217 Goal=   None    Shift=    0.000
 Gap=     0.345 Goal=   None    Shift=    0.000
 RMSDP=1.92D-09 MaxDP=1.63D-08 DE=-1.71D-13 OVMax= 2.53D-08

 SCF Done:  E(UPBE1PBE) =  -140.032950174     A.U. after   13 cycles
            NFock= 13  Conv=0.19D-08     -V/T= 2.0042
 <Sx>= 0.0000 <Sy>= 0.0000 <Sz>= 0.5000 <S**2>= 0.7678 S= 0.5088
 <L.S>= 0.000000000000E+00
 KE= 1.394527006861D+02 PE=-4.089797914657D+02 EE= 9.099513857329D+01
 Annihilation of the first spin contaminant:
 S**2 before annihilation     0.7678,   after     0.7500
 Leave Link  502 at Wed Oct  7 13:40:35 2020, MaxMem=  2684354560 cpu:              21.2 elap:               2.1
 (Enter /udrive/faculty/rpeverati/g16/g16/l508.exe)
 QCSCF skips out because SCF is already converged.
 Leave Link  508 at Wed Oct  7 13:40:36 2020, MaxMem=  2684354560 cpu:               0.7 elap:               0.5
 (Enter /udrive/faculty/rpeverati/g16/g16/l701.exe)
 ... and contract with generalized density number  0.
 Compute integral first derivatives.
 Leave Link  701 at Wed Oct  7 13:40:37 2020, MaxMem=  2684354560 cpu:               3.8 elap:               0.8
 (Enter /udrive/faculty/rpeverati/g16/g16/l702.exe)
 L702 exits ... SP integral derivatives will be done elsewhere.
 Leave Link  702 at Wed Oct  7 13:40:38 2020, MaxMem=  2684354560 cpu:               1.5 elap:               0.6
 (Enter /udrive/faculty/rpeverati/g16/g16/l703.exe)
 Integral derivatives from FoFJK, PRISM(SPDF).
 Compute integral first derivatives, UseDBF=F ICtDFT=           0.
 Calling FoFJK, ICntrl=      2127 FMM=F ISym2X=1 I1Cent= 0 IOpClX= 1 NMat=1 NMatS=1 NMatT=0.
 FoFJK:  IHMeth= 1 ICntrl=    2127 DoSepK=F KAlg= 0 I1Cent=           0 FoldK=F
 IRaf=         0 NMat=       1 IRICut=       1 DoRegI=T DoRafI=F ISym2E= 1 IDoP0=0 IntGTp=1.
 FoFCou: FMM=F IPFlag=           0 FMFlag=      100000 FMFlg1=         800
         NFxFlg=           0 DoJE=F BraDBF=F KetDBF=F FulRan=T
         wScrn=  0.000000 ICntrl=      2127 IOpCl=  1 I1Cent=           0 NGrid=           0
         NMat0=    1 NMatS0=      1 NMatT0=    0 NMatD0=    1 NMtDS0=    0 NMtDT0=    0
 Petite list used in FoFCou.
 Leave Link  703 at Wed Oct  7 13:40:39 2020, MaxMem=  2684354560 cpu:               7.4 elap:               1.0
 (Enter /udrive/faculty/rpeverati/g16/g16/l716.exe)
 Dipole        = 4.33107628D-03-5.23056611D-01-4.44089210D-16
 ***** Axes restored to original set *****
 -------------------------------------------------------------------
 Center     Atomic                   Forces (Hartrees/Bohr)
 Number     Number              X              Y              Z
 -------------------------------------------------------------------
      1        1          -0.000182104    0.000221087   -0.000000000
      2        9           0.000477954    0.001438165    0.000000000
      3        6           0.000299477   -0.000342838    0.000000000
      4        1          -0.000020891   -0.000165213   -0.000000000
      5        1          -0.000287218   -0.000575601    0.000263038
      6        1          -0.000287218   -0.000575601   -0.000263038
 -------------------------------------------------------------------
 Cartesian Forces:  Max     0.001438165 RMS     0.000445954
 Leave Link  716 at Wed Oct  7 13:40:40 2020, MaxMem=  2684354560 cpu:               2.3 elap:               0.7
 (Enter /udrive/faculty/rpeverati/g16/g16/l103.exe)

 GradGradGradGradGradGradGradGradGradGradGradGradGradGradGradGradGradGrad
 Berny optimization.
 Optmz: redundant internal coordinate code flag= 1
 Red2BG:  D1=  2.51D-01 OD1=  8.02D-02 B2RMS=  0.00D+00 IAprox=0
 FormGI is forming the generalized inverse of G from B-inverse, IUseBI=4.
 Internal  Forces:  Max     0.001657181 RMS     0.000546220
 Search for a saddle point.
 Step number   2 out of a maximum of   50
 All quantities printed in internal units (Hartrees-Bohrs-Radians)
 Swapping is turned off.
 Update second derivatives using D2CorX and points    1    2
 The second derivative matrix:
                          R1        R2        R3        R4        R5
           R1           0.22042
           R2          -0.00926   0.16560
           R3           0.00025  -0.00445   0.36054
           R4           0.00053  -0.00333   0.00044   0.36086
           R5           0.00053  -0.00333   0.00044   0.00052   0.36086
           A1          -0.00579  -0.01656  -0.00287  -0.00224  -0.00224
           A2          -0.00372  -0.00975  -0.00188  -0.00150  -0.00150
           A3          -0.00372  -0.00975  -0.00188  -0.00150  -0.00150
           A4           0.00604   0.01443   0.00310   0.00253   0.00253
           A5           0.00234   0.00762   0.00113   0.00085   0.00085
           A6           0.00132   0.00422   0.00064   0.00048   0.00048
           A7          -0.00316   0.00676  -0.00215  -0.00227  -0.00227
           A8          -0.00000  -0.00000  -0.00000  -0.00000  -0.00000
           D1          -0.00913  -0.00517  -0.00530  -0.00492  -0.00492
                          A1        A2        A3        A4        A5
           A1           0.15118
           A2          -0.00511   0.15708
           A3          -0.00511  -0.00292   0.15708
           A4           0.00741   0.00417   0.00417   0.15415
           A5           0.00415   0.00244   0.00244  -0.00361   0.15809
           A6           0.00229   0.00135   0.00135  -0.00199  -0.00106
           A7           0.00514   0.00363   0.00363  -0.00641  -0.00173
           A8          -0.00000  -0.00000  -0.00000   0.00000   0.00000
           D1          -0.00072   0.00045   0.00045  -0.00218   0.00124
                          A6        A7        A8        D1
           A6           0.15941
           A7          -0.00100   0.01098
           A8           0.00000   0.00000   0.00230
           D1           0.00063   0.01590   0.00000   0.02419
 ITU=  0  0
 Eigenvectors of the second derivative matrix:
                           1         2         3         4         5
     Eigenvalues --     0.00230   0.00966   0.06100   0.15528   0.16000
   1         R1         0.00000   0.01222   0.00551   0.09870   0.00000
   2         R2         0.00000  -0.03264  -0.11473   0.49751  -0.00000
   3         R3         0.00000   0.00506   0.00368   0.01525   0.00000
   4         R4         0.00000   0.00538   0.00511   0.01159   0.00000
   5         R5         0.00000   0.00538   0.00511   0.01159   0.00000
   6         A1         0.00000   0.02975  -0.27819   0.61854   0.32522
   7         A2         0.00000   0.03881  -0.24328  -0.34439  -0.16151
   8         A3         0.00000   0.03881  -0.24328  -0.34439  -0.16217
   9         A4        -0.00000  -0.03388   0.31802   0.00925   0.00452
  10         A5        -0.00000  -0.02002   0.12853  -0.21950   0.64534
  11         A6         0.00000  -0.02447   0.11140   0.26223  -0.65220
  12         A7        -0.00000   0.99044   0.12736   0.03291   0.00000
  13         A8         1.00000   0.00000   0.00000  -0.00000  -0.00000
  14         D1        -0.00000  -0.10810   0.80293   0.06568   0.00000
                           6         7         8         9        10
     Eigenvalues --     0.16000   0.16031   0.16888   0.22211   0.36022
   1         R1        -0.00000  -0.01624  -0.13665  -0.98543   0.00055
   2         R2         0.00000  -0.00110  -0.84246   0.16536   0.00764
   3         R3        -0.00000  -0.00294  -0.01778   0.00777  -0.86556
   4         R4         0.00000  -0.00281  -0.01338   0.00839   0.35409
   5         R5         0.00000  -0.00281  -0.01338   0.00839   0.35409
   6         A1        -0.00015   0.14180   0.40238   0.00263   0.00077
   7         A2         0.70718   0.11061  -0.17466  -0.01293  -0.00063
   8         A3        -0.70703   0.11061  -0.17466  -0.01293  -0.00063
   9         A4        -0.00000   0.69922  -0.03822  -0.00394  -0.00028
  10         A5        -0.00030  -0.49539  -0.14432   0.00664  -0.00003
  11         A6         0.00030  -0.46953   0.14426   0.01428   0.00067
  12         A7        -0.00000  -0.01199  -0.03171   0.02079   0.00089
  13         A8         0.00000  -0.00000   0.00000   0.00000   0.00000
  14         D1        -0.00000  -0.01443  -0.06236   0.01854   0.00031
                          11        12
     Eigenvalues --     0.36033   0.36201
   1         R1         0.00000  -0.00812
   2         R2         0.00000   0.03330
   3         R3         0.00000  -0.50016
   4         R4        -0.70711  -0.61170
   5         R5         0.70711  -0.61170
   6         A1         0.00000   0.00068
   7         A2        -0.00000  -0.00544
   8         A3        -0.00000  -0.00544
   9         A4        -0.00000  -0.00005
  10         A5        -0.00000   0.00224
  11         A6         0.00000   0.00526
  12         A7         0.00000   0.01194
  13         A8        -0.00000   0.00000
  14         D1         0.00000   0.00886
 Eigenvalue     1 is   2.30D-03 should be less than     0.000000 Eigenvector:
                          A8        A7        R2        D1        A1
   1                    1.00000  -0.00000   0.00000  -0.00000   0.00000
                          A4        R1        A3        A5        R3
   1                   -0.00000   0.00000   0.00000  -0.00000   0.00000
 RLam0= 2.30D-03.
 Iter=   1 RLamda= 0.00000000D+00 Sum=-5.02389453D-05.
 Iter=   2 RLamda=-5.02389453D-05 Sum=-5.01067288D-05.
 Iter=   3 RLamda=-5.01067288D-05 Sum=-5.01070751D-05.
 RFO step:  Lambda0=2.300010000D-03 Lambda=-5.01067288D-05.
 Linear search not attempted -- option 19 set.
 Iteration  1 RMS(Cart)=  0.01958480 RMS(Int)=  0.00101859
 Iteration  2 RMS(Cart)=  0.00107404 RMS(Int)=  0.00001725
 Iteration  3 RMS(Cart)=  0.00000261 RMS(Int)=  0.00001696
 Iteration  4 RMS(Cart)=  0.00000000 RMS(Int)=  0.00001696
 ITry= 1 IFail=0 DXMaxC= 4.43D-02 DCOld= 1.00D+10 DXMaxT= 1.00D-01 DXLimC= 3.00D+00 Rises=F
 ClnCor:  largest displacement from symmetrization is 2.15D-02 for atom     2.
 Variable       Old X    -DE/DX   Delta X   Delta X   Delta X     New X
                                 (Linear)    (Quad)   (Total)
    R1        2.35879   0.00022   0.00000   0.00189   0.00153   2.36032
    R2        3.18052   0.00166   0.00000   0.00927   0.00921   3.18973
    R3        2.05052   0.00002   0.00000   0.00036   0.00036   2.05088
    R4        2.04909   0.00049   0.00000   0.00166   0.00012   2.04921
    R5        2.04909   0.00049   0.00000   0.00166   0.00012   2.04921
    A1        1.80262  -0.00016   0.00000   0.00253   0.00253   1.80514
    A2        1.79726   0.00037   0.00000   0.00566   0.00049   1.79775
    A3        1.79726   0.00037   0.00000   0.00566   0.00049   1.79775
    A4        2.00688   0.00008   0.00000  -0.00325  -0.00148   2.00540
    A5        2.00688  -0.00012   0.00000  -0.00266  -0.00148   2.00540
    A6        2.00956  -0.00039   0.00000  -0.00420   0.00040   2.00996
    A7        3.11546   0.00044   0.00000   0.04730   0.04784   3.16330
    A8        3.14159   0.00000   0.00000  -0.05118   0.00000   3.14159
    D1        2.39416  -0.00047   0.00000  -0.01346  -0.00368   2.39049
         Item               Value     Threshold  Converged?
 Maximum Force            0.001657     0.000450     NO 
 RMS     Force            0.000546     0.000300     NO 
 Maximum Displacement     0.044324     0.001800     NO 
 RMS     Displacement     0.018779     0.001200     NO 
 Predicted change in Energy=-1.701490D-05
 Lowest energy point so far.  Saving SCF results.
 Largest change from initial coordinates is atom    4       0.008 Angstoms.
 GradGradGradGradGradGradGradGradGradGradGradGradGradGradGradGradGradGrad

 Leave Link  103 at Wed Oct  7 13:40:41 2020, MaxMem=  2684354560 cpu:               3.8 elap:               0.8
 (Enter /udrive/faculty/rpeverati/g16/g16/l202.exe)
                          Input orientation:                          
 ---------------------------------------------------------------------
 Center     Atomic      Atomic             Coordinates (Angstroms)
 Number     Number       Type             X           Y           Z
 ---------------------------------------------------------------------
      1          1           0       -0.008492    2.031760   -0.000000
      2          9           0        0.010967    0.782881   -0.000000
      3          6           0        0.000630   -0.905020    0.000000
      4          1           0        1.054679   -1.163491    0.000000
      5          1           0       -0.528524   -1.145784    0.915394
      6          1           0       -0.528524   -1.145784   -0.915394
 ---------------------------------------------------------------------
                    Distance matrix (angstroms):
                    1          2          3          4          5
     1  H    0.000000
     2  F    1.249030   0.000000
     3  C    2.936794   1.687933   0.000000
     4  H    3.367485   2.208552   1.085277   0.000000
     5  H    3.347412   2.201987   1.084397   1.828877   0.000000
     6  H    3.347412   2.201987   1.084397   1.828877   1.830789
                    6
     6  H    0.000000
 Stoichiometry    CH4F(2)
 Framework group  CS[SG(CH2F),X(H2)]
 Deg. of freedom     8
 Full point group                 CS      NOp   2
 RotChk:  IX=0 Diff= 1.84D-02
 Largest Abelian subgroup         CS      NOp   2
 Largest concise Abelian subgroup CS      NOp   2
                         Standard orientation:                         
 ---------------------------------------------------------------------
 Center     Atomic      Atomic             Coordinates (Angstroms)
 Number     Number       Type             X           Y           Z
 ---------------------------------------------------------------------
      1          1           0       -0.025693    2.021508   -0.000000
      2          9           0        0.001412    0.772772   -0.000000
      3          6           0        0.001412   -0.915160    0.000000
      4          1           0        1.057024   -1.167172    0.000000
      5          1           0       -0.526257   -1.159161    0.915394
      6          1           0       -0.526257   -1.159161   -0.915394
 ---------------------------------------------------------------------
 Rotational constants (GHZ):         149.7929213          16.2296928          16.2275223
 Leave Link  202 at Wed Oct  7 13:40:42 2020, MaxMem=  2684354560 cpu:               0.9 elap:               0.5
 (Enter /udrive/faculty/rpeverati/g16/g16/l301.exe)
 Standard basis: 6-31G(d) (5D, 7F)
 Ernie: Thresh=  0.10000D-02 Tol=  0.10000D-05 Strict=F.
 There are    28 symmetry adapted cartesian basis functions of A'  symmetry.
 There are    10 symmetry adapted cartesian basis functions of A"  symmetry.
 There are    26 symmetry adapted basis functions of A'  symmetry.
 There are    10 symmetry adapted basis functions of A"  symmetry.
    36 basis functions,    72 primitive gaussians,    38 cartesian basis functions
    10 alpha electrons        9 beta electrons
       nuclear repulsion energy        38.4281861485 Hartrees.
 IExCor= 1009 DFT=T Ex+Corr=PBE1PBE ExCW=0 ScaHFX=  0.250000
 ScaDFX=  0.750000  0.750000  1.000000  1.000000 ScalE2=  1.000000  1.000000
 IRadAn=      5 IRanWt=     -1 IRanGd=            0 ICorTp=0 IEmpDi=  4
 NAtoms=    6 NActive=    6 NUniq=    5 SFac= 1.44D+00 NAtFMM=   60 NAOKFM=F Big=F
 Integral buffers will be    131072 words long.
 Raffenetti 2 integral format.
 Two-electron integral symmetry is turned on.
 Leave Link  301 at Wed Oct  7 13:40:43 2020, MaxMem=  2684354560 cpu:               1.8 elap:               0.5
 (Enter /udrive/faculty/rpeverati/g16/g16/l302.exe)
 NPDir=0 NMtPBC=     1 NCelOv=     1 NCel=       1 NClECP=     1 NCelD=      1
         NCelK=      1 NCelE2=     1 NClLst=     1 CellRange=     0.0.
 One-electron integrals computed using PRISM.
 One-electron integral symmetry used in STVInt
 NBasis=    36 RedAO= T EigKep=  2.14D-02  NBF=    26    10
 NBsUse=    36 1.00D-06 EigRej= -1.00D+00 NBFU=    26    10
 Precomputing XC quadrature grid using
 IXCGrd= 4 IRadAn=           5 IRanWt=          -1 IRanGd=           0 AccXCQ= 0.00D+00.
 Generated NRdTot=       0 NPtTot=           0 NUsed=           0 NTot=          32
 NSgBfM=    38    38    38    38    38 MxSgAt=     6 MxSgA2=     6.
 Leave Link  302 at Wed Oct  7 13:40:43 2020, MaxMem=  2684354560 cpu:               3.4 elap:               0.6
 (Enter /udrive/faculty/rpeverati/g16/g16/l303.exe)
 DipDrv:  MaxL=1.
 Leave Link  303 at Wed Oct  7 13:40:44 2020, MaxMem=  2684354560 cpu:               1.1 elap:               0.4
 (Enter /udrive/faculty/rpeverati/g16/g16/l401.exe)
 Initial guess from the checkpoint file:  "MN_53_hfch3ts_BH76_PBE0_631Gs.chk"
 SCF N**3 symmetry information disabled.
 B after Tr=    -0.000000   -0.000000    0.000000
         Rot=    0.999996   -0.000000    0.000000   -0.002946 Ang=  -0.34 deg.
 Guess basis will be translated and rotated to current coordinates.
 JPrj=2 DoOrth=T DoCkMO=T.
 Initial guess orbital symmetries:
 Alpha Orbitals:
       Occupied  (A') (A') (A') (A') (A') (A") (A') (A') (A") (A')
       Virtual   (A') (A') (A') (A") (A') (A') (A") (A') (A') (A')
                 (A") (A') (A") (A') (A") (A') (A') (A') (A') (A")
                 (A') (A") (A') (A') (A") (A')
 Beta  Orbitals:
       Occupied  (A') (A') (A') (A') (A') (A") (A') (A") (A')
       Virtual   (A') (A') (A') (A') (A") (A') (A') (A") (A') (A')
                 (A') (A") (A') (A") (A') (A") (A') (A') (A') (A')
[...]
     17  0.115742D-03  0.146820D-02  0.194455D-03 -0.709310D-02 -0.173559D-01
     18  0.587790D-04  0.925978D-04  0.503367D-04  0.154282D-02  0.210687D-02
                6             7             8             9            10 
      6  0.238514D-01
      7  0.000000D+00  0.624524D+00
      8  0.000000D+00 -0.798367D-03  0.648917D-01
      9 -0.263551D-01  0.000000D+00  0.000000D+00  0.624623D+00
     10  0.000000D+00 -0.344031D+00  0.657904D-01  0.000000D+00  0.357868D+00
     11  0.000000D+00  0.712876D-01 -0.426655D-01  0.000000D+00 -0.700118D-01
     12  0.846325D-03  0.000000D+00  0.000000D+00 -0.560879D-01  0.000000D+00
     13 -0.152154D-02 -0.128243D+00 -0.325107D-01  0.124909D+00 -0.917585D-02
     14  0.122516D-01 -0.352557D-01 -0.422321D-01  0.610954D-01  0.338963D-02
     15  0.352111D-02  0.124900D+00  0.563592D-01 -0.272268D+00 -0.323525D-02
     16  0.152154D-02 -0.128243D+00 -0.325107D-01 -0.124909D+00 -0.917585D-02
     17 -0.122516D-01 -0.352557D-01 -0.422321D-01 -0.610954D-01  0.338963D-02
     18  0.352111D-02 -0.124900D+00 -0.563592D-01 -0.272268D+00  0.323525D-02
               11            12            13            14            15 
     11  0.475573D-01
     12  0.000000D+00  0.478943D-01
     13 -0.758136D-02  0.255049D-01  0.125557D+00
     14  0.545714D-02 -0.687173D-02  0.346116D-01  0.472286D-01
     15 -0.498259D-03  0.369965D-02 -0.134448D+00 -0.599711D-01  0.280588D+00
     16 -0.758136D-02 -0.255049D-01  0.101457D-01  0.423186D-02  0.143849D-01
     17  0.545714D-02  0.687173D-02  0.423186D-02  0.543405D-02  0.630966D-02
     18  0.498259D-03  0.369965D-02 -0.143849D-01 -0.630966D-02 -0.155916D-01
               16            17            18 
     16  0.125557D+00
     17  0.346116D-01  0.472286D-01
     18  0.134448D+00  0.599711D-01  0.280588D+00
 FormGI is forming the generalized inverse of G from B-inverse, IUseBI=4.
 Force constants in internal coordinates: 
                1             2             3             4             5 
      1 -0.337060D-01
      2  0.165943D+00 -0.146564D-01
      3 -0.438243D-03  0.116649D-02  0.372777D+00
      4 -0.441456D-03  0.117042D-02  0.472583D-03  0.372829D+00
      5 -0.441456D-03  0.117042D-02  0.472583D-03  0.469367D-03  0.372829D+00
      6 -0.643954D-03  0.797828D-02 -0.416021D-02 -0.697575D-04 -0.165803D-02
      7 -0.733450D-03  0.817351D-02 -0.742382D-04 -0.416406D-02 -0.165809D-02
      8 -0.733450D-03  0.817351D-02 -0.742382D-04 -0.700819D-04 -0.575207D-02
      9 -0.112518D-04  0.122509D-03  0.502019D-02  0.502284D-02 -0.101280D-01
     10  0.784561D-03 -0.904976D-02  0.761055D-02 -0.944703D-02  0.841910D-02
     11  0.786315D-03 -0.904577D-02 -0.945278D-02  0.760722D-02  0.841160D-02
     12  0.120116D-04 -0.273907D-04 -0.321689D-03  0.160019D-03  0.160019D-03
     13  0.000000D+00  0.000000D+00  0.000000D+00 -0.133698D-03  0.133698D-03
     14  0.181612D-02 -0.209320D-01  0.591146D-02  0.591701D-02  0.338768D-02
                6             7             8             9            10 
      6  0.682984D-01
      7 -0.269512D-01  0.683786D-01
      8 -0.272405D-01 -0.272752D-01  0.678002D-01
      9  0.737824D-02  0.740567D-02  0.464603D-02  0.613015D-01
     10 -0.739440D-02 -0.104784D-01 -0.722416D-02 -0.378425D-01  0.864952D-01
     11 -0.104172D-01 -0.738110D-02 -0.723459D-02 -0.378314D-01 -0.301307D-01
     12 -0.106186D-02  0.516852D-03  0.516852D-03 -0.695091D-04 -0.721104D-04
     13 -0.609384D-05 -0.433764D-03  0.421578D-03 -0.581306D-04  0.685484D-04
     14 -0.894863D-02 -0.896077D-02 -0.942147D-02  0.100831D-01  0.504784D-02
               11            12            13            14 
     11  0.864994D-01
     12  0.162633D-03  0.165931D-01
     13  0.308623D-05  0.000000D+00  0.381309D-02
     14  0.506011D-02 -0.593652D-05 -0.970450D-05  0.279942D-01
 Leave Link  716 at Wed Oct  7 13:41:55 2020, MaxMem=  2684354560 cpu:               1.9 elap:               0.5
 (Enter /udrive/faculty/rpeverati/g16/g16/l103.exe)

 GradGradGradGradGradGradGradGradGradGradGradGradGradGradGradGradGradGrad
 Berny optimization.
 Optmz: redundant internal coordinate code flag= 1
 Red2BG:  D1=  2.51D-01 OD1=  4.53D-14 B2RMS=  0.00D+00 IAprox=1
 Red2BG is reusing G-inverse.
 Internal  Forces:  Max     0.000061193 RMS     0.000035457
 Search for a local minimum.
 Step number   1 out of a maximum of    2
 All quantities printed in internal units (Hartrees-Bohrs-Radians)
 Second derivative matrix not updated -- analytic derivatives used.
 The second derivative matrix:
                          R1        R2        R3        R4        R5
           R1          -0.03371
           R2           0.16594  -0.01466
           R3          -0.00044   0.00117   0.37278
           R4          -0.00044   0.00117   0.00047   0.37283
           R5          -0.00044   0.00117   0.00047   0.00047   0.37283
           A1          -0.00064   0.00798  -0.00416  -0.00007  -0.00166
           A2          -0.00073   0.00817  -0.00007  -0.00416  -0.00166
           A3          -0.00073   0.00817  -0.00007  -0.00007  -0.00575
           A4          -0.00001   0.00012   0.00502   0.00502  -0.01013
           A5           0.00078  -0.00905   0.00761  -0.00945   0.00842
           A6           0.00079  -0.00905  -0.00945   0.00761   0.00841
           A7           0.00001  -0.00003  -0.00032   0.00016   0.00016
           A8          -0.00000   0.00000  -0.00000  -0.00013   0.00013
           D1           0.00182  -0.02093   0.00591   0.00592   0.00339
                          A1        A2        A3        A4        A5
           A1           0.06830
           A2          -0.02695   0.06838
           A3          -0.02724  -0.02728   0.06780
           A4           0.00738   0.00741   0.00465   0.06130
           A5          -0.00739  -0.01048  -0.00722  -0.03784   0.08650
           A6          -0.01042  -0.00738  -0.00723  -0.03783  -0.03013
           A7          -0.00106   0.00052   0.00052  -0.00007  -0.00007
           A8          -0.00001  -0.00043   0.00042  -0.00006   0.00007
           D1          -0.00895  -0.00896  -0.00942   0.01008   0.00505
                          A6        A7        A8        D1
           A6           0.08650
           A7           0.00016   0.01659
           A8           0.00000  -0.00000   0.00381
           D1           0.00506  -0.00001  -0.00001   0.02799
 ITU=  0
 Eigenvectors of the second derivative matrix:
                           1         2         3         4         5
     Eigenvalues --    -0.19225   0.00381   0.01657   0.04063   0.09471
   1         R1        -0.72094   0.00000   0.00014   0.17349  -0.00972
   2         R2         0.68749   0.00000  -0.00003   0.06441  -0.00671
   3         R3        -0.00283  -0.00000   0.00102  -0.02160  -0.01876
   4         R4        -0.00285   0.00040  -0.00050  -0.02160   0.01293
   5         R5        -0.00340  -0.00040  -0.00050  -0.01171   0.00777
   6         A1        -0.02432  -0.00000   0.01345  -0.25947  -0.79039
   7         A2        -0.02501   0.00467  -0.00663  -0.25907   0.50662
   8         A3        -0.02521  -0.00468  -0.00663  -0.24756   0.30579
   9         A4         0.00615   0.00040   0.00045   0.31505   0.03916
  10         A5         0.02446  -0.00039   0.00045   0.12544   0.07495
  11         A6         0.02446   0.00000  -0.00103   0.12546  -0.13035
  12         A7         0.00013   0.00000   0.99986   0.00001   0.01586
  13         A8        -0.00001   0.99998  -0.00000  -0.00017  -0.00093
  14         D1         0.06700   0.00018   0.00004   0.79889  -0.00179
                           6         7         8         9        10
     Eigenvalues --     0.09479   0.11473   0.11603   0.14703   0.37341
   1         R1        -0.02176  -0.18950  -0.00274  -0.64316   0.00031
   2         R2        -0.01581  -0.16414  -0.00236  -0.70424   0.00222
   3         R3        -0.00102  -0.01463   0.04445   0.00147   0.68513
   4         R4        -0.01380  -0.01348  -0.04474   0.00147   0.41556
   5         R5         0.01974   0.05793   0.00071  -0.01861  -0.59525
   6         A1        -0.09703   0.16928  -0.10900  -0.07689  -0.00503
   7         A2        -0.61375   0.16816   0.11449  -0.07877  -0.00127
   8         A3         0.76720  -0.02751  -0.00141  -0.06096   0.01295
   9         A4         0.10109   0.67952   0.00829  -0.12612   0.04335
  10         A5        -0.11335  -0.44550  -0.70219   0.14333  -0.01521
  11         A6        -0.02942  -0.46321   0.69128   0.14288  -0.03307
  12         A7         0.00230  -0.00187   0.00317   0.00030  -0.00069
  13         A8         0.00639  -0.00133  -0.00080   0.00016  -0.00036
  14         D1        -0.00436   0.03018   0.00051   0.13165   0.01324
                          11        12
     Eigenvalues --     0.37352   0.37428
   1         R1         0.00007   0.00090
   2         R2         0.00040  -0.00157
   3         R3        -0.59312  -0.41926
   4         R4         0.79164  -0.44452
   5         R5        -0.13029  -0.79019
   6         A1         0.00925   0.01013
   7         A2        -0.01009   0.01050
   8         A3         0.00281   0.01515
   9         A4         0.00875   0.01691
  10         A5        -0.05095  -0.02086
  11         A6         0.04077  -0.02249
  12         A7         0.00082  -0.00018
  13         A8        -0.00033  -0.00013
  14         D1         0.00216  -0.02347
 Eigenvalue     1 is  -1.92D-01 should be greater than     0.000000 Eigenvector:
                          R1        R2        D1        A3        A2
   1                   -0.72094   0.68749   0.06700  -0.02521  -0.02501
                          A6        A5        A1        A4        R5
   1                    0.02446   0.02446  -0.02432   0.00615  -0.00340
 Angle between quadratic step and forces=  34.77 degrees.
 Linear search not attempted -- first point.
 Iteration  1 RMS(Cart)=  0.00044452 RMS(Int)=  0.00000023
 Iteration  2 RMS(Cart)=  0.00000020 RMS(Int)=  0.00000011
 ITry= 1 IFail=0 DXMaxC= 1.03D-03 DCOld= 1.00D+10 DXMaxT= 3.00D-01 DXLimC= 3.00D+00 Rises=F
 ClnCor:  largest displacement from symmetrization is 2.35D-07 for atom     6.
 Variable       Old X    -DE/DX   Delta X   Delta X   Delta X     New X
                                 (Linear)    (Quad)   (Total)
    R1        2.36730  -0.00005   0.00000  -0.00050  -0.00050   2.36680
    R2        3.18398  -0.00004   0.00000  -0.00034  -0.00034   3.18364
    R3        2.05064   0.00002   0.00000   0.00005   0.00005   2.05069
    R4        2.05058   0.00003   0.00000   0.00011   0.00011   2.05069
    R5        2.05058   0.00003   0.00000   0.00011   0.00011   2.05069
    A1        1.80317  -0.00006   0.00000  -0.00043  -0.00043   1.80274
    A2        1.80196   0.00005   0.00000   0.00076   0.00076   1.80272
    A3        1.80196   0.00005   0.00000   0.00076   0.00076   1.80272
    A4        2.00527   0.00001   0.00000  -0.00021  -0.00021   2.00507
    A5        2.00527  -0.00001   0.00000  -0.00021  -0.00021   2.00507
    A6        2.00546  -0.00003   0.00000  -0.00039  -0.00039   2.00507
    A7        3.14066   0.00002   0.00000   0.00094   0.00094   3.14160
    A8        3.14159   0.00000   0.00000   0.00000   0.00000   3.14159
    D1        2.38484  -0.00004   0.00000  -0.00103  -0.00103   2.38382
         Item               Value     Threshold  Converged?
 Maximum Force            0.000061     0.000450     YES
 RMS     Force            0.000035     0.000300     YES
 Maximum Displacement     0.001035     0.001800     YES
 RMS     Displacement     0.000445     0.001200     YES
 Predicted change in Energy=-1.078180D-07
 Optimization completed.
    -- Stationary point found.
                           ----------------------------
                           !   Optimized Parameters   !
                           ! (Angstroms and Degrees)  !
 --------------------------                            --------------------------
 ! Name  Definition              Value          Derivative Info.                !
 --------------------------------------------------------------------------------
 ! R1    R(1,2)                  1.2527         -DE/DX =    0.0                 !
 ! R2    R(2,3)                  1.6849         -DE/DX =    0.0                 !
 ! R3    R(3,4)                  1.0852         -DE/DX =    0.0                 !
 ! R4    R(3,5)                  1.0851         -DE/DX =    0.0                 !
 ! R5    R(3,6)                  1.0851         -DE/DX =    0.0                 !
 ! A1    A(2,3,4)              103.3138         -DE/DX =   -0.0001              !
 ! A2    A(2,3,5)              103.245          -DE/DX =    0.0001              !
 ! A3    A(2,3,6)              103.245          -DE/DX =    0.0001              !
 ! A4    A(4,3,5)              114.8937         -DE/DX =    0.0                 !
 ! A5    A(4,3,6)              114.8937         -DE/DX =    0.0                 !
 ! A6    A(5,3,6)              114.9043         -DE/DX =    0.0                 !
 ! A7    L(1,2,3,4,-1)         179.9467         -DE/DX =    0.0                 !
 ! A8    L(1,2,3,4,-2)         180.0            -DE/DX =    0.0                 !
 ! D1    D(4,3,6,5)            136.6415         -DE/DX =    0.0                 !
 --------------------------------------------------------------------------------
 GradGradGradGradGradGradGradGradGradGradGradGradGradGradGradGradGradGrad

 Leave Link  103 at Wed Oct  7 13:41:56 2020, MaxMem=  2684354560 cpu:               2.2 elap:               0.6
 (Enter /udrive/faculty/rpeverati/g16/g16/l9999.exe)

 ----------------------------------------------------------------------

 Electric dipole moment (input orientation):
 (Debye = 10**-18 statcoulomb cm , SI units = C m)
                  (au)            (Debye)         (10**-30 SI)
   Tot        0.531628D+00      0.135126D+01      0.450733D+01
   x         -0.409118D-03     -0.103987D-02     -0.346864D-02
   y         -0.531628D+00     -0.135126D+01     -0.450733D+01
   z          0.000000D+00      0.000000D+00      0.000000D+00

 Dipole polarizability, Alpha (input orientation).
 (esu units = cm**3 , SI units = C**2 m**2 J**-1)
 Alpha(0;0):
               (au)            (10**-24 esu)      (10**-40 SI)
   iso        0.261981D+02      0.388215D+01      0.431948D+01
   aniso      0.398834D+02      0.591010D+01      0.657588D+01
   xx         0.129034D+02      0.191209D+01      0.212748D+01
   yx         0.488146D-01      0.723358D-02      0.804845D-02
   yy         0.527869D+02      0.782221D+01      0.870339D+01
   zx         0.000000D+00      0.000000D+00      0.000000D+00
   zy         0.000000D+00      0.000000D+00      0.000000D+00
   zz         0.129039D+02      0.191216D+01      0.212757D+01

 ----------------------------------------------------------------------

 Dipole orientation:
     1          0.00316804         -0.00000244         -3.84505353
     9          0.00063082         -0.00000049         -1.47775135
     6          0.00018174         -0.00000014          1.70622967
     1          1.99564205         -0.00153576          2.17874017
     1         -0.99673548          1.72929010          2.17590710
     1         -0.99939587         -1.72775397          2.17590710

 Electric dipole moment (dipole orientation):
 (Debye = 10**-18 statcoulomb cm , SI units = C m)
                  (au)            (Debye)         (10**-30 SI)
   Tot        0.531628D+00      0.135126D+01      0.450733D+01
   x          0.000000D+00      0.000000D+00      0.000000D+00
   y          0.000000D+00      0.000000D+00      0.000000D+00
   z          0.531628D+00      0.135126D+01      0.450733D+01

 Dipole polarizability, Alpha (dipole orientation).
 (esu units = cm**3 , SI units = C**2 m**2 J**-1)
 Alpha(0;0):
               (au)            (10**-24 esu)      (10**-40 SI)
   iso        0.261981D+02      0.388215D+01      0.431948D+01
   aniso      0.398834D+02      0.591010D+01      0.657588D+01
   xx         0.129033D+02      0.191208D+01      0.212747D+01
   yx         0.000000D+00      0.000000D+00      0.000000D+00
   yy         0.129039D+02      0.191216D+01      0.212757D+01
   zx        -0.181220D-01     -0.268540D-02     -0.298791D-02
   zy         0.139458D-04      0.206655D-05      0.229935D-05
   zz         0.527870D+02      0.782222D+01      0.870340D+01

 ----------------------------------------------------------------------

 Test job not archived.
 1\1\GINC-NODE13\Freq\UPBE1PBE\6-31G(d)\C1H4F1(2)\RPEVERATI\07-Oct-2020
 \0\\#P Freq PBE1PBE/6-31G* 5D 7F Integral=UltraFineGrid SCF=(NoSymm,XQ
 C,MaxCyc=120) IOp(1/33=1) Geom=Check Guess=Read\\TS search on BH76.\\0
 ,2\H,0.0032422817,2.0347128125,0.\F,0.0009356002,0.7819918518,0.\C,-0.
 0005986598,-0.9028976622,0.\H,1.0551610438,-1.1537519932,0.\H,-0.52903
 97075,-1.1510336657,0.9146947408\H,-0.5290397075,-1.1510336657,-0.9146
 947408\\Version=ES64L-G16RevA.03\State=2-A'\HF=-140.0329654\S2=0.76795
 3\S2-1=0.\S2A=0.750042\RMSD=1.302e-09\RMSF=4.188e-05\ZeroPoint=0.03892
 71\Thermal=0.0428146\Dipole=-0.0004091,-0.531628,0.\DipoleDeriv=0.0746
 093,-0.0031405,0.,-0.0020012,-1.5163109,0.,0.,0.,0.0745857,-0.257375,0
 .0042841,0.,0.0040415,2.8040664,0.,0.,0.,-0.2573093,0.1759658,-0.00111
 08,0.,-0.0022198,-1.3143931,0.,0.,0.,0.1757915,-0.0634638,0.0291091,0.
 ,0.0413044,0.008399,0.,0.,0.,0.0681057,0.0351318,-0.0145709,0.0570321,
 -0.0205624,0.0091193,0.0355219,0.0570099,0.025175,-0.0305868,0.0351318
 ,-0.0145709,-0.0570321,-0.0205624,0.0091193,-0.0355219,-0.0570099,-0.0
 25175,-0.0305868\Polar=12.9033933,0.0488146,52.7869229,0.,0.,12.903920
 3\Quadrupole=-0.2051451,0.4098929,-0.2047478,0.0005618,0.,0.\PG=CS [SG
 (C1H2F1),X(H2)]\NImag=1\\0.00298149,-0.00007567,-0.03370588,0.,0.,0.00
 298062,-0.00539092,0.00020678,0.,0.02386111,0.00039524,0.19964846,0.,-
 0.00048792,-0.38024751,0.,0.,-0.00538488,0.,0.,0.02385144,0.00236188,-
 0.00013227,0.,-0.02636899,0.00015454,0.,0.62452368,-0.00032224,-0.1703
 0451,0.,0.00035157,0.23254243,0.,-0.00079837,0.06489170,0.,0.,0.002355
 66,0.,0.,-0.02635511,0.,0.,0.62462297,0.00008381,-0.00011198,0.,0.0044
 3118,-0.00244586,0.,-0.34403119,0.06579038,0.,0.35786790,-0.00022881,0
 .00142552,0.,0.01411577,-0.01723165,0.,0.07128757,-0.04266547,0.,-0.07
 001180,0.04755733,0.,0.,-0.00005208,0.,0.,0.00084632,0.,0.,-0.05608789
 ,0.,0.,0.04789434,-0.00001813,0.00005657,-0.00005948,0.00173381,0.0011
 9200,-0.00152154,-0.12824269,-0.03251068,0.12490913,-0.00917585,-0.007
 58136,0.02550488,0.12555720,0.00011574,0.00146820,-0.00019445,-0.00709
 310,-0.01735587,0.01225156,-0.03525574,-0.04223208,0.06109543,0.003389
 63,0.00545714,-0.00687173,0.03461161,0.04722856,-0.00005878,-0.0000926
 0,0.00005034,-0.00154282,-0.00210687,0.00352111,0.12489996,0.05635920,
 -0.27226782,-0.00323525,-0.00049826,0.00369965,-0.13444805,-0.05997114
 ,0.28058834,-0.00001813,0.00005657,0.00005948,0.00173381,0.00119200,0.
 00152154,-0.12824269,-0.03251068,-0.12490913,-0.00917585,-0.00758136,-
 0.02550488,0.01014567,0.00423186,0.01438494,0.12555720,0.00011574,0.00
 146820,0.00019445,-0.00709310,-0.01735587,-0.01225156,-0.03525574,-0.0
 4223208,-0.06109543,0.00338963,0.00545714,0.00687173,0.00423186,0.0054
 3405,0.00630966,0.03461161,0.04722856,0.00005878,0.00009260,0.00005034
 ,0.00154282,0.00210687,0.00352111,-0.12489996,-0.05635920,-0.27226782,
 0.00323525,0.00049826,0.00369965,-0.01438494,-0.00630966,-0.01559162,0
 .13444805,0.05997114,0.28058834\\0.00000712,0.00004677,0.,-0.00004827,
 -0.00000817,0.,0.00002727,-0.00013879,0.,-0.00001812,-0.00000676,0.,0.
 00001600,0.00005347,-0.00001267,0.00001600,0.00005347,0.00001267\\\@


 IF AT FIRST YOU DON'T SUCCEED, TRY LOOKING IN 
 THE WASTEBASKET FOR THE DIRECTIONS.
 Job cpu time:       0 days  0 hours  2 minutes 21.2 seconds.
 Elapsed time:       0 days  0 hours  0 minutes 20.1 seconds.
 File lengths (MBytes):  RWF=      7 Int=      0 D2E=      0 Chk=      1 Scr=      1
 Normal termination of Gaussian 16 at Wed Oct  7 13:41:57 2020.
