 Entering Gaussian System, Link 0=g16
 Input=MN_56_HF_upper_BH76_PBE0_631Gs.in
 Output=MN_56_HF_upper_BH76_PBE0_631Gs.log
 Initial command:
 /udrive/faculty/rpeverati/g16/g16/l1.exe "/udrive/scratch-directories/gaussian09/rpeverati/Gau-21710.inp" -scrdir="/udrive/scratch-directories/gaussian09/rpeverati/"
 Entering Link 1 = /udrive/faculty/rpeverati/g16/g16/l1.exe PID=     21726.
  
 Copyright (c) 1988,1990,1992,1993,1995,1998,2003,2009,2016,
            Gaussian, Inc.  All Rights Reserved.
  
 This is part of the Gaussian(R) 16 program.  It is based on
 the Gaussian(R) 09 system (copyright 2009, Gaussian, Inc.),
 the Gaussian(R) 03 system (copyright 2003, Gaussian, Inc.),
 the Gaussian(R) 98 system (copyright 1998, Gaussian, Inc.),
 the Gaussian(R) 94 system (copyright 1995, Gaussian, Inc.),
 the Gaussian 92(TM) system (copyright 1992, Gaussian, Inc.),
 the Gaussian 90(TM) system (copyright 1990, Gaussian, Inc.),
 the Gaussian 88(TM) system (copyright 1988, Gaussian, Inc.),
 the Gaussian 86(TM) system (copyright 1986, Carnegie Mellon
 University), and the Gaussian 82(TM) system (copyright 1983,
 Carnegie Mellon University). Gaussian is a federally registered
 trademark of Gaussian, Inc.
  
 This software contains proprietary and confidential information,
 including trade secrets, belonging to Gaussian, Inc.
  
 This software is provided under written license and may be
 used, copied, transmitted, or stored only in accord with that
 written license.
  
 The following legend is applicable only to US Government
 contracts under FAR:
  
                    RESTRICTED RIGHTS LEGEND
  
 Use, reproduction and disclosure by the US Government is
 subject to restrictions as set forth in subparagraphs (a)
 and (c) of the Commercial Computer Software - Restricted
 Rights clause in FAR 52.227-19.
  
 Gaussian, Inc.
 340 Quinnipiac St., Bldg. 40, Wallingford CT 06492
  
  
 ---------------------------------------------------------------
 Warning -- This program may not be used in any manner that
 competes with the business of Gaussian, Inc. or will provide
 assistance to any competitor of Gaussian, Inc.  The licensee
 of this program is prohibited from giving any competitor of
 Gaussian, Inc. access to this program.  By using this program,
 the user acknowledges that Gaussian, Inc. is engaged in the
 business of creating and licensing software in the field of
 computational chemistry and represents and warrants to the
 licensee that it is not a competitor of Gaussian, Inc. and that
 it will not use this program in any manner prohibited above.
 ---------------------------------------------------------------
  

 Cite this work as:
 Gaussian 16, Revision A.03,
 M. J. Frisch, G. W. Trucks, H. B. Schlegel, G. E. Scuseria, 
 M. A. Robb, J. R. Cheeseman, G. Scalmani, V. Barone, 
 G. A. Petersson, H. Nakatsuji, X. Li, M. Caricato, A. V. Marenich, 
 J. Bloino, B. G. Janesko, R. Gomperts, B. Mennucci, H. P. Hratchian, 
 J. V. Ortiz, A. F. Izmaylov, J. L. Sonnenberg, D. Williams-Young, 
 F. Ding, F. Lipparini, F. Egidi, J. Goings, B. Peng, A. Petrone, 
 T. Henderson, D. Ranasinghe, V. G. Zakrzewski, J. Gao, N. Rega, 
 G. Zheng, W. Liang, M. Hada, M. Ehara, K. Toyota, R. Fukuda, 
 J. Hasegawa, M. Ishida, T. Nakajima, Y. Honda, O. Kitao, H. Nakai, 
 T. Vreven, K. Throssell, J. A. Montgomery, Jr., J. E. Peralta, 
 F. Ogliaro, M. J. Bearpark, J. J. Heyd, E. N. Brothers, K. N. Kudin, 
 V. N. Staroverov, T. A. Keith, R. Kobayashi, J. Normand, 
 K. Raghavachari, A. P. Rendell, J. C. Burant, S. S. Iyengar, 
 J. Tomasi, M. Cossi, J. M. Millam, M. Klene, C. Adamo, R. Cammi, 
 J. W. Ochterski, R. L. Martin, K. Morokuma, O. Farkas, 
 J. B. Foresman, and D. J. Fox, Gaussian, Inc., Wallingford CT, 2016.
 
 ******************************************
 Gaussian 16:  ES64L-G16RevA.03 25-Dec-2016
                 7-Oct-2020 
 ******************************************
 %NoSave
 %nproc=12
 Will use up to   12 processors via shared memory.
 %mem=20GB
 %chk=MN_56_HF_upper_BH76_PBE0_631Gs
 ----------------------------------------------------------------------
 #P Opt(MaxCyc=100) PBE1PBE/6-31G* 5D 7F Integral=UltraFineGrid SCF=(No
 Symm,XQC,MaxCyc=120) IOp(1/33=1)
 ----------------------------------------------------------------------
 1/6=100,18=20,19=15,26=4,33=1,38=1/1,3;
 2/9=110,12=2,17=6,18=5,40=1/2;
 3/5=1,6=6,7=1,8=11,11=2,25=1,30=1,71=1,74=-13,75=-5/1,2,3;
 4/9=2/1;
 5/5=2,7=120,8=3,13=1,38=5/2,8;
 6/7=2,8=2,9=2,10=2,28=1/1;
 7//1,2,3,16;
 1/6=100,18=20,19=15,26=4,33=1/3(2);
 2/9=110/2;
 99//99;
 2/9=110/2;
 3/5=1,6=6,7=1,8=11,11=2,25=1,30=1,71=1,74=-13,75=-5/1,2,3;
 4/5=5,9=2,16=3,69=1/1;
 5/5=2,7=120,8=3,13=1,38=5/2,8;
 7//1,2,3,16;
 1/6=100,18=20,19=15,26=4,33=1/3(-5);
 2/9=110/2;
 6/7=2,8=2,9=2,10=2,19=2,28=1/1;
 99/9=1/99;
 Leave Link    1 at Wed Oct  7 13:40:26 2020, MaxMem=  2684354560 cpu:               4.6 elap:               0.5
 (Enter /udrive/faculty/rpeverati/g16/g16/l101.exe)
 ONIOM data not found on unit 2.
 ------------------
 TS search on BH76.
 ------------------
 TstMul:  ICh=     0
 TstMul:  Mul=     1
 TstMul:  ICh=     0
 TstMul:  Mul=     1
 Symbolic Z-matrix:
 Charge =  0 Multiplicity = 1
 F                     0.        0.        0.09154 
 H                     0.        0.       -0.82384 
 
 RdStrC is calling ZToCFu for IStruc=1 NZ=     2.
 PrtBox:  NBox=     1 Levels=  0 BoxLen=    8.00 SMaxX=        1.73
          Shift=            0.000000            0.000000            1.556840
 Box      1 Number                   0 centers from      1 to      2:
 After GenITR:
 ITRead=  0  0
 MicOpt= -1 -1
 ITRead=  0  0
 MicOpt= -1 -1
 NAtoms=      2 NQM=        2 NQMF=       0 NMMI=      0 NMMIF=      0
                NMic=       0 NMicF=      0.
                    Isotopes and Nuclear Properties:
 (Nuclear quadrupole moments (NQMom) in fm**2, nuclear magnetic moments (NMagM)
  in nuclear magnetons)

  Atom         1           2
 IAtWgt=          19           1
 AtmWgt=  18.9984033   1.0078250
 NucSpn=           1           1
 AtZEff=   0.0000000   0.0000000
 NQMom=    0.0000000   0.0000000
 NMagM=    2.6288670   2.7928460
 AtZNuc=   9.0000000   1.0000000
 No MM parameters found.
 Leave Link  101 at Wed Oct  7 13:40:27 2020, MaxMem=  2684354560 cpu:               9.4 elap:               0.9
 (Enter /udrive/faculty/rpeverati/g16/g16/l103.exe)

 GradGradGradGradGradGradGradGradGradGradGradGradGradGradGradGradGradGrad
 Berny optimization.
 Optmz: redundant internal coordinate code flag= 1
 Initialization pass.
                           ----------------------------
                           !    Initial Parameters    !
                           ! (Angstroms and Degrees)  !
 --------------------------                            --------------------------
 ! Name  Definition              Value          Derivative Info.                !
 --------------------------------------------------------------------------------
 ! R1    R(1,2)                  0.9154         estimate D2E/DX2                !
 --------------------------------------------------------------------------------
 Maximum allowed force set to 1.00D+20.
 Trust Radius=3.00D-01 FncErr=1.00D-07 GrdErr=1.00D-06 EigMax=2.50D+02 EigMin=1.00D-04
 Number of steps in this run=    100 maximum allowed number of steps=    100.
 GradGradGradGradGradGradGradGradGradGradGradGradGradGradGradGradGradGrad

 Leave Link  103 at Wed Oct  7 13:40:28 2020, MaxMem=  2684354560 cpu:               0.7 elap:               0.4
 (Enter /udrive/faculty/rpeverati/g16/g16/l202.exe)
                          Input orientation:                          
 ---------------------------------------------------------------------
 Center     Atomic      Atomic             Coordinates (Angstroms)
 Number     Number       Type             X           Y           Z
 ---------------------------------------------------------------------
      1          9           0        0.000000    0.000000    0.091538
      2          1           0        0.000000    0.000000   -0.823844
 ---------------------------------------------------------------------
 Stoichiometry    FH
 Framework group  C*V[C*(HF)]
 Deg. of freedom     1
 Full point group                 C*V     NOp   4
 Largest Abelian subgroup         C2V     NOp   4
 Largest concise Abelian subgroup C1      NOp   1
                         Standard orientation:                         
 ---------------------------------------------------------------------
 Center     Atomic      Atomic             Coordinates (Angstroms)
 Number     Number       Type             X           Y           Z
 ---------------------------------------------------------------------
      1          9           0        0.000000    0.000000    0.091538
      2          1           0        0.000000    0.000000   -0.823844
 ---------------------------------------------------------------------
 Rotational constants (GHZ):           0.0000000         630.1951796         630.1951796
 Leave Link  202 at Wed Oct  7 13:40:28 2020, MaxMem=  2684354560 cpu:               0.7 elap:               0.3
 (Enter /udrive/faculty/rpeverati/g16/g16/l301.exe)
 Standard basis: 6-31G(d) (5D, 7F)
 Ernie: Thresh=  0.10000D-02 Tol=  0.10000D-05 Strict=F.
 There are    10 symmetry adapted cartesian basis functions of A1  symmetry.
 There are     1 symmetry adapted cartesian basis functions of A2  symmetry.
 There are     3 symmetry adapted cartesian basis functions of B1  symmetry.
 There are     3 symmetry adapted cartesian basis functions of B2  symmetry.
 There are     9 symmetry adapted basis functions of A1  symmetry.
 There are     1 symmetry adapted basis functions of A2  symmetry.
 There are     3 symmetry adapted basis functions of B1  symmetry.
 There are     3 symmetry adapted basis functions of B2  symmetry.
    16 basis functions,    32 primitive gaussians,    17 cartesian basis functions
     5 alpha electrons        5 beta electrons
       nuclear repulsion energy         5.2028474614 Hartrees.
 IExCor= 1009 DFT=T Ex+Corr=PBE1PBE ExCW=0 ScaHFX=  0.250000
 ScaDFX=  0.750000  0.750000  1.000000  1.000000 ScalE2=  1.000000  1.000000
 IRadAn=      5 IRanWt=     -1 IRanGd=            0 ICorTp=0 IEmpDi=  4
 NAtoms=    2 NActive=    2 NUniq=    2 SFac= 1.00D+00 NAtFMM=   60 NAOKFM=F Big=F
 Integral buffers will be    131072 words long.
 Raffenetti 2 integral format.
 Two-electron integral symmetry is turned on.
 Leave Link  301 at Wed Oct  7 13:40:29 2020, MaxMem=  2684354560 cpu:               1.7 elap:               0.5
 (Enter /udrive/faculty/rpeverati/g16/g16/l302.exe)
 NPDir=0 NMtPBC=     1 NCelOv=     1 NCel=       1 NClECP=     1 NCelD=      1
         NCelK=      1 NCelE2=     1 NClLst=     1 CellRange=     0.0.
 One-electron integrals computed using PRISM.
 One-electron integral symmetry used in STVInt
 NBasis=    16 RedAO= T EigKep=  9.30D-02  NBF=     9     1     3     3
 NBsUse=    16 1.00D-06 EigRej= -1.00D+00 NBFU=     9     1     3     3
 Precomputing XC quadrature grid using
 IXCGrd= 4 IRadAn=           5 IRanWt=          -1 IRanGd=           0 AccXCQ= 0.00D+00.
 Generated NRdTot=       0 NPtTot=           0 NUsed=           0 NTot=          32
 NSgBfM=    17    17    17    17    17 MxSgAt=     2 MxSgA2=     2.
 Leave Link  302 at Wed Oct  7 13:40:30 2020, MaxMem=  2684354560 cpu:               3.5 elap:               0.6
 (Enter /udrive/faculty/rpeverati/g16/g16/l303.exe)
 DipDrv:  MaxL=1.
 Leave Link  303 at Wed Oct  7 13:40:30 2020, MaxMem=  2684354560 cpu:               1.1 elap:               0.4
 (Enter /udrive/faculty/rpeverati/g16/g16/l401.exe)
 SCF N**3 symmetry information disabled.
 ExpMin= 1.61D-01 ExpMax= 7.00D+03 ExpMxC= 1.05D+03 IAcc=3 IRadAn=         5 AccDes= 0.00D+00
 Harris functional with IExCor= 1009 and IRadAn=       5 diagonalized for initial guess.
 HarFok:  IExCor= 1009 AccDes= 0.00D+00 IRadAn=         5 IDoV= 1 UseB2=F ITyADJ=14
 ICtDFT=  3500011 ScaDFX=  1.000000  1.000000  1.000000  1.000000
 FoFCou: FMM=F IPFlag=           0 FMFlag=      100000 FMFlg1=           0
         NFxFlg=           0 DoJE=T BraDBF=F KetDBF=T FulRan=T
         wScrn=  0.000000 ICntrl=       500 IOpCl=  0 I1Cent=   200000004 NGrid=           0
         NMat0=    1 NMatS0=      1 NMatT0=    0 NMatD0=    1 NMtDS0=    0 NMtDT0=    0
 Petite list used in FoFCou.
 Harris En= -100.343206085540    
 JPrj=0 DoOrth=F DoCkMO=F.
 Initial guess orbital symmetries:
       Occupied  (SG) (SG) (SG) (PI) (PI)
       Virtual   (SG) (SG) (PI) (PI) (SG) (SG) (PI) (PI) (DLTA)
                 (DLTA) (SG)
 The electronic state of the initial guess is 1-SG.
 Leave Link  401 at Wed Oct  7 13:40:31 2020, MaxMem=  2684354560 cpu:               4.7 elap:               0.7
 (Enter /udrive/faculty/rpeverati/g16/g16/l502.exe)
 Keep R1 ints in memory in symmetry-blocked form, NReq=10348527.
 FoFCou: FMM=F IPFlag=           0 FMFlag=           0 FMFlg1=           0
         NFxFlg=           0 DoJE=F BraDBF=F KetDBF=F FulRan=T
         wScrn=  0.000000 ICntrl=       600 IOpCl=  0 I1Cent=           0 NGrid=           0
         NMat0=    1 NMatS0=    136 NMatT0=    0 NMatD0=    1 NMtDS0=    0 NMtDT0=    0
 Petite list used in FoFCou.
 Closed shell SCF:
 Using DIIS extrapolation, IDIIS=  1040.
 NGot=  2684354560 LenX=  2684349303 LenY=  2684348421
 Requested convergence on RMS density matrix=1.00D-08 within 120 cycles.
 Requested convergence on MAX density matrix=1.00D-06.
 Requested convergence on             energy=1.00D-06.
 No special actions if energy rises.
 Integral accuracy reduced to 1.0D-05 until final iterations.

 Cycle   1  Pass 0  IDiag  1:
 E= -100.293615293701    
 DIIS: error= 5.08D-02 at cycle   1 NSaved=   1.
 NSaved= 1 IEnMin= 1 EnMin= -100.293615293701     IErMin= 1 ErrMin= 5.08D-02
 ErrMax= 5.08D-02  0.00D+00 EMaxC= 1.00D-01 BMatC= 4.58D-02 BMatP= 4.58D-02
 IDIUse=3 WtCom= 4.92D-01 WtEn= 5.08D-01
 Coeff-Com:  0.100D+01
 Coeff-En:   0.100D+01
 Coeff:      0.100D+01
 Gap=     0.388 Goal=   None    Shift=    0.000
 GapD=    0.388 DampG=1.000 DampE=0.500 DampFc=0.5000 IDamp=-1.
 Damping current iteration by 5.00D-01
 RMSDP=1.51D-02 MaxDP=1.03D-01              OVMax= 1.22D-01

 Cycle   2  Pass 0  IDiag  1:
 E= -100.306819317774     Delta-E=       -0.013204024072 Rises=F Damp=T
 DIIS: error= 6.65D-03 at cycle   2 NSaved=   2.
 NSaved= 2 IEnMin= 2 EnMin= -100.306819317774     IErMin= 2 ErrMin= 6.65D-03
 ErrMax= 6.65D-03  0.00D+00 EMaxC= 1.00D-01 BMatC= 9.31D-04 BMatP= 4.58D-02
 IDIUse=3 WtCom= 9.34D-01 WtEn= 6.65D-02
 Coeff-Com:  0.859D-01 0.914D+00
 Coeff-En:   0.132D+00 0.868D+00
 Coeff:      0.890D-01 0.911D+00
 Gap=     0.479 Goal=   None    Shift=    0.000
 RMSDP=1.12D-03 MaxDP=9.16D-03 DE=-1.32D-02 OVMax= 6.01D-02

 Cycle   3  Pass 0  IDiag  1:
 E= -100.323024315956     Delta-E=       -0.016204998183 Rises=F Damp=F
 DIIS: error= 9.30D-04 at cycle   3 NSaved=   3.
 NSaved= 3 IEnMin= 3 EnMin= -100.323024315956     IErMin= 3 ErrMin= 9.30D-04
 ErrMax= 9.30D-04  0.00D+00 EMaxC= 1.00D-01 BMatC= 1.40D-05 BMatP= 9.31D-04
 IDIUse=3 WtCom= 9.91D-01 WtEn= 9.30D-03
 Coeff-Com:  0.130D-01 0.521D-01 0.935D+00
 Coeff-En:   0.000D+00 0.000D+00 0.100D+01
 Coeff:      0.129D-01 0.516D-01 0.935D+00
 Gap=     0.484 Goal=   None    Shift=    0.000
 RMSDP=1.61D-04 MaxDP=8.99D-04 DE=-1.62D-02 OVMax= 1.31D-03

 Cycle   4  Pass 0  IDiag  1:
 E= -100.323034690651     Delta-E=       -0.000010374694 Rises=F Damp=F
 DIIS: error= 1.89D-04 at cycle   4 NSaved=   4.
 NSaved= 4 IEnMin= 4 EnMin= -100.323034690651     IErMin= 4 ErrMin= 1.89D-04
 ErrMax= 1.89D-04  0.00D+00 EMaxC= 1.00D-01 BMatC= 7.36D-07 BMatP= 1.40D-05
 IDIUse=3 WtCom= 9.98D-01 WtEn= 1.89D-03
 Coeff-Com:  0.175D-02-0.767D-02 0.182D+00 0.824D+00
 Coeff-En:   0.000D+00 0.000D+00 0.000D+00 0.100D+01
 Coeff:      0.174D-02-0.765D-02 0.181D+00 0.824D+00
 Gap=     0.484 Goal=   None    Shift=    0.000
 RMSDP=2.54D-05 MaxDP=1.05D-04 DE=-1.04D-05 OVMax= 1.80D-04

 Cycle   5  Pass 0  IDiag  1:
 E= -100.323035193827     Delta-E=       -0.000000503177 Rises=F Damp=F
 DIIS: error= 9.62D-06 at cycle   5 NSaved=   5.
 NSaved= 5 IEnMin= 5 EnMin= -100.323035193827     IErMin= 5 ErrMin= 9.62D-06
 ErrMax= 9.62D-06  0.00D+00 EMaxC= 1.00D-01 BMatC= 1.25D-09 BMatP= 7.36D-07
 IDIUse=1 WtCom= 1.00D+00 WtEn= 0.00D+00
 Coeff-Com:  0.288D-04-0.123D-03-0.905D-02-0.301D-01 0.104D+01
 Coeff:      0.288D-04-0.123D-03-0.905D-02-0.301D-01 0.104D+01
 Gap=     0.484 Goal=   None    Shift=    0.000
 RMSDP=1.49D-06 MaxDP=9.23D-06 DE=-5.03D-07 OVMax= 8.56D-06

 Initial convergence to 1.0D-05 achieved.  Increase integral accuracy.
 Cycle   6  Pass 1  IDiag  1:
 E= -100.323035260435     Delta-E=       -0.000000066607 Rises=F Damp=F
 DIIS: error= 6.81D-07 at cycle   1 NSaved=   1.
 NSaved= 1 IEnMin= 1 EnMin= -100.323035260435     IErMin= 1 ErrMin= 6.81D-07
 ErrMax= 6.81D-07  0.00D+00 EMaxC= 1.00D-01 BMatC= 8.94D-12 BMatP= 8.94D-12
 IDIUse=1 WtCom= 1.00D+00 WtEn= 0.00D+00
 Coeff-Com:  0.100D+01
 Coeff:      0.100D+01
 Gap=     0.484 Goal=   None    Shift=    0.000
 RMSDP=1.49D-06 MaxDP=9.23D-06 DE=-6.66D-08 OVMax= 1.08D-06

 Cycle   7  Pass 1  IDiag  1:
 E= -100.323035260437     Delta-E=       -0.000000000002 Rises=F Damp=F
 DIIS: error= 6.27D-07 at cycle   2 NSaved=   2.
 NSaved= 2 IEnMin= 2 EnMin= -100.323035260437     IErMin= 2 ErrMin= 6.27D-07
 ErrMax= 6.27D-07  0.00D+00 EMaxC= 1.00D-01 BMatC= 7.18D-12 BMatP= 8.94D-12
 IDIUse=1 WtCom= 1.00D+00 WtEn= 0.00D+00
 Coeff-Com:  0.470D+00 0.530D+00
 Coeff:      0.470D+00 0.530D+00
 Gap=     0.484 Goal=   None    Shift=    0.000
 RMSDP=9.96D-08 MaxDP=6.79D-07 DE=-2.44D-12 OVMax= 7.97D-07

 Cycle   8  Pass 1  IDiag  1:
 E= -100.323035260441     Delta-E=       -0.000000000004 Rises=F Damp=F
 DIIS: error= 1.15D-07 at cycle   3 NSaved=   3.
 NSaved= 3 IEnMin= 3 EnMin= -100.323035260441     IErMin= 3 ErrMin= 1.15D-07
 ErrMax= 1.15D-07  0.00D+00 EMaxC= 1.00D-01 BMatC= 1.80D-13 BMatP= 7.18D-12
 IDIUse=1 WtCom= 1.00D+00 WtEn= 0.00D+00
 Coeff-Com:  0.891D-02 0.135D+00 0.856D+00
 Coeff:      0.891D-02 0.135D+00 0.856D+00
 Gap=     0.484 Goal=   None    Shift=    0.000
 RMSDP=1.32D-08 MaxDP=9.53D-08 DE=-4.28D-12 OVMax= 7.57D-08

 Cycle   9  Pass 1  IDiag  1:
 E= -100.323035260441     Delta-E=       -0.000000000000 Rises=F Damp=F
 DIIS: error= 1.17D-08 at cycle   4 NSaved=   4.
 NSaved= 4 IEnMin= 4 EnMin= -100.323035260441     IErMin= 4 ErrMin= 1.17D-08
 ErrMax= 1.17D-08  0.00D+00 EMaxC= 1.00D-01 BMatC= 2.16D-15 BMatP= 1.80D-13
 IDIUse=1 WtCom= 1.00D+00 WtEn= 0.00D+00
 Coeff-Com: -0.159D-01 0.131D-01 0.147D+00 0.856D+00
 Coeff:     -0.159D-01 0.131D-01 0.147D+00 0.856D+00
 Gap=     0.484 Goal=   None    Shift=    0.000
 RMSDP=1.50D-09 MaxDP=6.29D-09 DE=-8.53D-14 OVMax= 1.28D-08

 SCF Done:  E(RPBE1PBE) =  -100.323035260     A.U. after    9 cycles
            NFock=  9  Conv=0.15D-08     -V/T= 2.0030
 KE= 1.000200306754D+02 PE=-2.507240251193D+02 EE= 4.517811172204D+01
 Leave Link  502 at Wed Oct  7 13:40:33 2020, MaxMem=  2684354560 cpu:               7.3 elap:               1.1
 (Enter /udrive/faculty/rpeverati/g16/g16/l508.exe)
 QCSCF skips out because SCF is already converged.
 Leave Link  508 at Wed Oct  7 13:40:33 2020, MaxMem=  2684354560 cpu:               0.3 elap:               0.3
 (Enter /udrive/faculty/rpeverati/g16/g16/l601.exe)
 Copying SCF densities to generalized density rwf, IOpCl= 0 IROHF=0.

 **********************************************************************

            Population analysis using the SCF density.

 **********************************************************************

 Orbital symmetries:
       Occupied  (SG) (SG) (SG) (PI) (PI)
       Virtual   (SG) (SG) (PI) (PI) (SG) (SG) (PI) (PI) (DLTA)
                 (DLTA) (SG)
 The electronic state is 1-SG.
 Alpha  occ. eigenvalues --  -24.73946  -1.20323  -0.53826  -0.39327  -0.39327
 Alpha virt. eigenvalues --    0.09072   0.84856   1.20798   1.20798   1.28561
 Alpha virt. eigenvalues --    1.67650   1.80996   1.80996   1.88126   1.88126
 Alpha virt. eigenvalues --    2.66648
          Condensed to atoms (all electrons):
               1          2
     1  F    9.291411   0.208863
     2  H    0.208863   0.290862
 Mulliken charges:
               1
     1  F   -0.500275
     2  H    0.500275
 Sum of Mulliken charges =  -0.00000
 Mulliken charges with hydrogens summed into heavy atoms:
               1
     1  F   -0.000000
 Electronic spatial extent (au):  <R**2>=             13.2393
 Charge=             -0.0000 electrons
 Dipole moment (field-independent basis, Debye):
    X=              0.0000    Y=              0.0000    Z=             -1.8607  Tot=              1.8607
 Quadrupole moment (field-independent basis, Debye-Ang):
   XX=             -5.3933   YY=             -5.3933   ZZ=             -3.3984
   XY=              0.0000   XZ=              0.0000   YZ=              0.0000
 Traceless Quadrupole moment (field-independent basis, Debye-Ang):
   XX=             -0.6650   YY=             -0.6650   ZZ=              1.3300
   XY=              0.0000   XZ=              0.0000   YZ=              0.0000
 Octapole moment (field-independent basis, Debye-Ang**2):
  XXX=              0.0000  YYY=              0.0000  ZZZ=             -1.7145  XYY=              0.0000
  XXY=             -0.0000  XXZ=             -0.1429  XZZ=              0.0000  YZZ=              0.0000
  YYZ=             -0.1429  XYZ=              0.0000
 Hexadecapole moment (field-independent basis, Debye-Ang**3):
 XXXX=             -2.9013 YYYY=             -2.9013 ZZZZ=             -2.8039 XXXY=              0.0000
 XXXZ=              0.0000 YYYX=              0.0000 YYYZ=              0.0000 ZZZX=              0.0000
 ZZZY=              0.0000 XXYY=             -0.9671 XXZZ=             -1.1706 YYZZ=             -1.1706
 XXYZ=              0.0000 YYXZ=              0.0000 ZZXY=              0.0000
 N-N= 5.202847461447D+00 E-N=-2.507240251557D+02  KE= 1.000200306754D+02
 No NMR shielding tensors so no spin-rotation constants.
 Leave Link  601 at Wed Oct  7 13:40:34 2020, MaxMem=  2684354560 cpu:               3.5 elap:               0.7
 (Enter /udrive/faculty/rpeverati/g16/g16/l701.exe)
 ... and contract with generalized density number  0.
 Compute integral first derivatives.
 Leave Link  701 at Wed Oct  7 13:40:35 2020, MaxMem=  2684354560 cpu:               3.4 elap:               0.6
 (Enter /udrive/faculty/rpeverati/g16/g16/l702.exe)
 L702 exits ... SP integral derivatives will be done elsewhere.
 Leave Link  702 at Wed Oct  7 13:40:36 2020, MaxMem=  2684354560 cpu:               1.2 elap:               0.4
 (Enter /udrive/faculty/rpeverati/g16/g16/l703.exe)
 Integral derivatives from FoFJK, PRISM(SPDF).
 Compute integral first derivatives, UseDBF=F ICtDFT=           0.
 Calling FoFJK, ICntrl=      2127 FMM=F ISym2X=1 I1Cent= 0 IOpClX= 0 NMat=1 NMatS=1 NMatT=0.
 FoFJK:  IHMeth= 1 ICntrl=    2127 DoSepK=F KAlg= 0 I1Cent=           0 FoldK=F
 IRaf=         0 NMat=       1 IRICut=       1 DoRegI=T DoRafI=F ISym2E= 1 IDoP0=0 IntGTp=1.
 FoFCou: FMM=F IPFlag=           0 FMFlag=      100000 FMFlg1=         800
         NFxFlg=           0 DoJE=F BraDBF=F KetDBF=F FulRan=T
         wScrn=  0.000000 ICntrl=      2127 IOpCl=  0 I1Cent=           0 NGrid=           0
         NMat0=    1 NMatS0=      1 NMatT0=    0 NMatD0=    1 NMtDS0=    0 NMtDT0=    0
 Petite list used in FoFCou.
 Leave Link  703 at Wed Oct  7 13:40:37 2020, MaxMem=  2684354560 cpu:               4.9 elap:               0.8
 (Enter /udrive/faculty/rpeverati/g16/g16/l716.exe)
 Dipole        = 0.00000000D+00 1.71368190D-32-7.32060340D-01
 ***** Axes restored to original set *****
 -------------------------------------------------------------------
 Center     Atomic                   Forces (Hartrees/Bohr)
 Number     Number              X              Y              Z
 -------------------------------------------------------------------
      1        9          -0.000000000   -0.000000000    0.017433323
      2        1           0.000000000    0.000000000   -0.017433323
 -------------------------------------------------------------------
 Cartesian Forces:  Max     0.017433323 RMS     0.010065134
 Leave Link  716 at Wed Oct  7 13:40:37 2020, MaxMem=  2684354560 cpu:               1.5 elap:               0.5
 (Enter /udrive/faculty/rpeverati/g16/g16/l103.exe)

 GradGradGradGradGradGradGradGradGradGradGradGradGradGradGradGradGradGrad
 Berny optimization.
 Optmz: redundant internal coordinate code flag= 1
 FormGI is forming the generalized inverse of G from B-inverse, IUseBI=4.
 Internal  Forces:  Max     0.017433323 RMS     0.017433323
 Search for a local minimum.
 Step number   1 out of a maximum of  100
 All quantities printed in internal units (Hartrees-Bohrs-Radians)
 RMS Force = .17433D-01 SwitMx=.10000D-02 MixMth= 1
 Mixed Optimization -- RFO/linear search
 Second derivative matrix not updated -- first step.
 The second derivative matrix:
                          R1
           R1           0.66293
 ITU=  0
 Eigenvectors of the second derivative matrix:
                           1
     Eigenvalues --     0.66293
   1         R1         1.00000
 RFO step:  Lambda=-4.58131939D-04 EMin= 6.62933168D-01
 Linear search not attempted -- first point.
 Iteration  1 RMS(Cart)=  0.01858213 RMS(Int)=  0.00000000
 Iteration  2 RMS(Cart)=  0.00000000 RMS(Int)=  0.00000000
 ITry= 1 IFail=0 DXMaxC= 1.31D-02 DCOld= 1.00D+10 DXMaxT= 3.00D-01 DXLimC= 3.00D+00 Rises=F
 ClnCor:  largest displacement from symmetrization is 0.00D+00 for atom     0.
 Variable       Old X    -DE/DX   Delta X   Delta X   Delta X     New X
                                 (Linear)    (Quad)   (Total)
    R1        1.72982   0.01743   0.00000   0.02628   0.02628   1.75610
         Item               Value     Threshold  Converged?
 Maximum Force            0.017433     0.000450     NO 
 RMS     Force            0.017433     0.000300     NO 
 Maximum Displacement     0.013140     0.001800     NO 
 RMS     Displacement     0.018582     0.001200     NO 
 Predicted change in Energy=-2.292242D-04
 Lowest energy point so far.  Saving SCF results.
 Largest change from initial coordinates is atom    1       0.007 Angstoms.
 GradGradGradGradGradGradGradGradGradGradGradGradGradGradGradGradGradGrad

 Leave Link  103 at Wed Oct  7 13:40:38 2020, MaxMem=  2684354560 cpu:               2.4 elap:               0.6
 (Enter /udrive/faculty/rpeverati/g16/g16/l202.exe)
                          Input orientation:                          
 ---------------------------------------------------------------------
 Center     Atomic      Atomic             Coordinates (Angstroms)
 Number     Number       Type             X           Y           Z
 ---------------------------------------------------------------------
      1          9           0        0.000000    0.000000    0.098491
      2          1           0        0.000000    0.000000   -0.830797
 ---------------------------------------------------------------------
 Stoichiometry    FH
 Framework group  C*V[C*(HF)]
 Deg. of freedom     1
 Full point group                 C*V     NOp   4
 RotChk:  IX=0 Diff= 0.00D+00
 Largest Abelian subgroup         C2V     NOp   4
 Largest concise Abelian subgroup C1      NOp   1
                         Standard orientation:                         
 ---------------------------------------------------------------------
 Center     Atomic      Atomic             Coordinates (Angstroms)
 Number     Number       Type             X           Y           Z
 ---------------------------------------------------------------------
      1          9           0        0.000000    0.000000    0.092929
      2          1           0        0.000000    0.000000   -0.836360
 ---------------------------------------------------------------------
 Rotational constants (GHZ):           0.0000000         611.4752483         611.4752483
 Leave Link  202 at Wed Oct  7 13:40:39 2020, MaxMem=  2684354560 cpu:               1.3 elap:               0.4
 (Enter /udrive/faculty/rpeverati/g16/g16/l301.exe)
 Standard basis: 6-31G(d) (5D, 7F)
 Ernie: Thresh=  0.10000D-02 Tol=  0.10000D-05 Strict=F.
 There are    10 symmetry adapted cartesian basis functions of A1  symmetry.
 There are     1 symmetry adapted cartesian basis functions of A2  symmetry.
 There are     3 symmetry adapted cartesian basis functions of B1  symmetry.
 There are     3 symmetry adapted cartesian basis functions of B2  symmetry.
 There are     9 symmetry adapted basis functions of A1  symmetry.
 There are     1 symmetry adapted basis functions of A2  symmetry.
 There are     3 symmetry adapted basis functions of B1  symmetry.
 There are     3 symmetry adapted basis functions of B2  symmetry.
    16 basis functions,    32 primitive gaussians,    17 cartesian basis functions
     5 alpha electrons        5 beta electrons
       nuclear repulsion energy         5.1249896882 Hartrees.
 IExCor= 1009 DFT=T Ex+Corr=PBE1PBE ExCW=0 ScaHFX=  0.250000
 ScaDFX=  0.750000  0.750000  1.000000  1.000000 ScalE2=  1.000000  1.000000
 IRadAn=      5 IRanWt=     -1 IRanGd=            0 ICorTp=0 IEmpDi=  4
 NAtoms=    2 NActive=    2 NUniq=    2 SFac= 1.00D+00 NAtFMM=   60 NAOKFM=F Big=F
 Integral buffers will be    131072 words long.
 Raffenetti 2 integral format.
 Two-electron integral symmetry is turned on.
 Leave Link  301 at Wed Oct  7 13:40:40 2020, MaxMem=  2684354560 cpu:               2.1 elap:               0.6
 (Enter /udrive/faculty/rpeverati/g16/g16/l302.exe)
 NPDir=0 NMtPBC=     1 NCelOv=     1 NCel=       1 NClECP=     1 NCelD=      1
         NCelK=      1 NCelE2=     1 NClLst=     1 CellRange=     0.0.
 One-electron integrals computed using PRISM.
 One-electron integral symmetry used in STVInt
 NBasis=    16 RedAO= T EigKep=  9.68D-02  NBF=     9     1     3     3
 NBsUse=    16 1.00D-06 EigRej= -1.00D+00 NBFU=     9     1     3     3
 Precomputing XC quadrature grid using
 IXCGrd= 4 IRadAn=           5 IRanWt=          -1 IRanGd=           0 AccXCQ= 0.00D+00.
 Generated NRdTot=       0 NPtTot=           0 NUsed=           0 NTot=          32
 NSgBfM=    17    17    17    17    17 MxSgAt=     2 MxSgA2=     2.
 Leave Link  302 at Wed Oct  7 13:40:41 2020, MaxMem=  2684354560 cpu:               3.9 elap:               0.8
 (Enter /udrive/faculty/rpeverati/g16/g16/l303.exe)
 DipDrv:  MaxL=1.
 Leave Link  303 at Wed Oct  7 13:40:42 2020, MaxMem=  2684354560 cpu:               2.0 elap:               0.7
 (Enter /udrive/faculty/rpeverati/g16/g16/l401.exe)
 Initial guess from the checkpoint file:  "MN_56_HF_upper_BH76_PBE0_631Gs.chk"
 SCF N**3 symmetry information disabled.
 B after Tr=     0.000000    0.000000   -0.000000
         Rot=    1.000000    0.000000    0.000000    0.000000 Ang=   0.00 deg.
 Guess basis will be translated and rotated to current coordinates.
 JPrj=2 DoOrth=T DoCkMO=T.
 Initial guess orbital symmetries:
       Occupied  (SG) (SG) (SG) (PI) (PI)
       Virtual   (SG) (SG) (PI) (PI) (SG) (SG) (PI) (PI) (DLTA)
                 (DLTA) (SG)
 The electronic state of the initial guess is 1-SG.
 Leave Link  401 at Wed Oct  7 13:40:42 2020, MaxMem=  2684354560 cpu:               2.1 elap:               0.5
 (Enter /udrive/faculty/rpeverati/g16/g16/l502.exe)
 Keep R1 ints in memory in symmetry-blocked form, NReq=10348527.
 FoFCou: FMM=F IPFlag=           0 FMFlag=           0 FMFlg1=           0
         NFxFlg=           0 DoJE=F BraDBF=F KetDBF=F FulRan=T
         wScrn=  0.000000 ICntrl=       600 IOpCl=  0 I1Cent=           0 NGrid=           0
         NMat0=    1 NMatS0=    136 NMatT0=    0 NMatD0=    1 NMtDS0=    0 NMtDT0=    0
 Petite list used in FoFCou.
 Closed shell SCF:
 Using DIIS extrapolation, IDIIS=  1040.
 NGot=  2684354560 LenX=  2684349303 LenY=  2684348421
 Requested convergence on RMS density matrix=1.00D-08 within 120 cycles.
 Requested convergence on MAX density matrix=1.00D-06.
 Requested convergence on             energy=1.00D-06.
 No special actions if energy rises.

 Cycle   1  Pass 1  IDiag  1:
 E= -100.323207464608    
 DIIS: error= 1.98D-03 at cycle   1 NSaved=   1.
 NSaved= 1 IEnMin= 1 EnMin= -100.323207464608     IErMin= 1 ErrMin= 1.98D-03
 ErrMax= 1.98D-03  0.00D+00 EMaxC= 1.00D-01 BMatC= 6.37D-05 BMatP= 6.37D-05
 IDIUse=3 WtCom= 9.80D-01 WtEn= 1.98D-02
 Coeff-Com:  0.100D+01
 Coeff-En:   0.100D+01
 Coeff:      0.100D+01
 Gap=     0.476 Goal=   None    Shift=    0.000
 GapD=    0.476 DampG=2.000 DampE=1.000 DampFc=2.0000 IDamp=-1.
 RMSDP=5.16D-04 MaxDP=3.30D-03              OVMax= 4.98D-03

 Cycle   2  Pass 1  IDiag  1:
 E= -100.323261772858     Delta-E=       -0.000054308250 Rises=F Damp=F
 DIIS: error= 1.22D-03 at cycle   2 NSaved=   2.
 NSaved= 2 IEnMin= 2 EnMin= -100.323261772858     IErMin= 2 ErrMin= 1.22D-03
 ErrMax= 1.22D-03  0.00D+00 EMaxC= 1.00D-01 BMatC= 2.21D-05 BMatP= 6.37D-05
 IDIUse=3 WtCom= 9.88D-01 WtEn= 1.22D-02
 Coeff-Com:  0.321D+00 0.679D+00
 Coeff-En:   0.000D+00 0.100D+01
 Coeff:      0.317D+00 0.683D+00
 Gap=     0.478 Goal=   None    Shift=    0.000
 RMSDP=2.04D-04 MaxDP=1.30D-03 DE=-5.43D-05 OVMax= 1.17D-03

 Cycle   3  Pass 1  IDiag  1:
 E= -100.323271808752     Delta-E=       -0.000010035894 Rises=F Damp=F
 DIIS: error= 4.96D-04 at cycle   3 NSaved=   3.
 NSaved= 3 IEnMin= 3 EnMin= -100.323271808752     IErMin= 3 ErrMin= 4.96D-04
 ErrMax= 4.96D-04  0.00D+00 EMaxC= 1.00D-01 BMatC= 4.39D-06 BMatP= 2.21D-05
 IDIUse=3 WtCom= 9.95D-01 WtEn= 4.96D-03
 Coeff-Com: -0.420D-02 0.303D+00 0.701D+00
 Coeff-En:   0.000D+00 0.137D+00 0.863D+00
 Coeff:     -0.417D-02 0.302D+00 0.702D+00
 Gap=     0.477 Goal=   None    Shift=    0.000
 RMSDP=7.73D-05 MaxDP=5.63D-04 DE=-1.00D-05 OVMax= 6.95D-04

 Cycle   4  Pass 1  IDiag  1:
 E= -100.323274527029     Delta-E=       -0.000002718277 Rises=F Damp=F
 DIIS: error= 4.64D-05 at cycle   4 NSaved=   4.
 NSaved= 4 IEnMin= 4 EnMin= -100.323274527029     IErMin= 4 ErrMin= 4.64D-05
 ErrMax= 4.64D-05  0.00D+00 EMaxC= 1.00D-01 BMatC= 4.84D-08 BMatP= 4.39D-06
 IDIUse=1 WtCom= 1.00D+00 WtEn= 0.00D+00
 Coeff-Com: -0.103D-01 0.439D-01 0.175D+00 0.791D+00
 Coeff:     -0.103D-01 0.439D-01 0.175D+00 0.791D+00
 Gap=     0.478 Goal=   None    Shift=    0.000
 RMSDP=6.77D-06 MaxDP=3.59D-05 DE=-2.72D-06 OVMax= 5.55D-05

 Cycle   5  Pass 1  IDiag  1:
 E= -100.323274559192     Delta-E=       -0.000000032163 Rises=F Damp=F
 DIIS: error= 2.29D-06 at cycle   5 NSaved=   5.
 NSaved= 5 IEnMin= 5 EnMin= -100.323274559192     IErMin= 5 ErrMin= 2.29D-06
 ErrMax= 2.29D-06  0.00D+00 EMaxC= 1.00D-01 BMatC= 7.26D-11 BMatP= 4.84D-08
 IDIUse=1 WtCom= 1.00D+00 WtEn= 0.00D+00
 Coeff-Com:  0.486D-03-0.493D-02-0.111D-01-0.389D-01 0.105D+01
 Coeff:      0.486D-03-0.493D-02-0.111D-01-0.389D-01 0.105D+01
 Gap=     0.478 Goal=   None    Shift=    0.000
 RMSDP=4.42D-07 MaxDP=2.32D-06 DE=-3.22D-08 OVMax= 2.84D-06

 Cycle   6  Pass 1  IDiag  1:
 E= -100.323274559252     Delta-E=       -0.000000000060 Rises=F Damp=F
 DIIS: error= 7.43D-08 at cycle   6 NSaved=   6.
 NSaved= 6 IEnMin= 6 EnMin= -100.323274559252     IErMin= 6 ErrMin= 7.43D-08
 ErrMax= 7.43D-08  0.00D+00 EMaxC= 1.00D-01 BMatC= 1.29D-13 BMatP= 7.26D-11
 IDIUse=1 WtCom= 1.00D+00 WtEn= 0.00D+00
 Coeff-Com: -0.768D-05 0.143D-03 0.268D-03-0.738D-03-0.392D-01 0.104D+01
 Coeff:     -0.768D-05 0.143D-03 0.268D-03-0.738D-03-0.392D-01 0.104D+01
 Gap=     0.478 Goal=   None    Shift=    0.000
 RMSDP=1.20D-08 MaxDP=7.14D-08 DE=-6.03D-11 OVMax= 6.44D-08

 Cycle   7  Pass 1  IDiag  1:
 E= -100.323274559252     Delta-E=       -0.000000000000 Rises=F Damp=F
 DIIS: error= 1.99D-09 at cycle   7 NSaved=   7.
 NSaved= 7 IEnMin= 7 EnMin= -100.323274559252     IErMin= 7 ErrMin= 1.99D-09
 ErrMax= 1.99D-09  0.00D+00 EMaxC= 1.00D-01 BMatC= 8.49D-17 BMatP= 1.29D-13
 IDIUse=1 WtCom= 1.00D+00 WtEn= 0.00D+00
 Coeff-Com: -0.278D-06 0.504D-05 0.897D-05-0.730D-04-0.164D-02 0.441D-01
 Coeff-Com:  0.958D+00
 Coeff:     -0.278D-06 0.504D-05 0.897D-05-0.730D-04-0.164D-02 0.441D-01
 Coeff:      0.958D+00
 Gap=     0.478 Goal=   None    Shift=    0.000
 RMSDP=3.41D-10 MaxDP=1.85D-09 DE=-4.26D-14 OVMax= 2.92D-09

 SCF Done:  E(RPBE1PBE) =  -100.323274559     A.U. after    7 cycles
            NFock=  7  Conv=0.34D-09     -V/T= 2.0033
 KE= 9.999048160993D+01 PE=-2.505628251981D+02 EE= 4.512407934079D+01
 Leave Link  502 at Wed Oct  7 13:40:44 2020, MaxMem=  2684354560 cpu:               6.2 elap:               0.8
 (Enter /udrive/faculty/rpeverati/g16/g16/l508.exe)
 QCSCF skips out because SCF is already converged.
 Leave Link  508 at Wed Oct  7 13:40:44 2020, MaxMem=  2684354560 cpu:               0.3 elap:               0.3
 (Enter /udrive/faculty/rpeverati/g16/g16/l701.exe)
 ... and contract with generalized density number  0.
 Compute integral first derivatives.
 Leave Link  701 at Wed Oct  7 13:40:45 2020, MaxMem=  2684354560 cpu:               3.4 elap:               0.6
 (Enter /udrive/faculty/rpeverati/g16/g16/l702.exe)
 L702 exits ... SP integral derivatives will be done elsewhere.
 Leave Link  702 at Wed Oct  7 13:40:45 2020, MaxMem=  2684354560 cpu:               1.1 elap:               0.4
 (Enter /udrive/faculty/rpeverati/g16/g16/l703.exe)
 Integral derivatives from FoFJK, PRISM(SPDF).
 Compute integral first derivatives, UseDBF=F ICtDFT=           0.
 Calling FoFJK, ICntrl=      2127 FMM=F ISym2X=1 I1Cent= 0 IOpClX= 0 NMat=1 NMatS=1 NMatT=0.
 FoFJK:  IHMeth= 1 ICntrl=    2127 DoSepK=F KAlg= 0 I1Cent=           0 FoldK=F
 IRaf=         0 NMat=       1 IRICut=       1 DoRegI=T DoRafI=F ISym2E= 1 IDoP0=0 IntGTp=1.
 FoFCou: FMM=F IPFlag=           0 FMFlag=      100000 FMFlg1=         800
         NFxFlg=           0 DoJE=F BraDBF=F KetDBF=F FulRan=T
         wScrn=  0.000000 ICntrl=      2127 IOpCl=  0 I1Cent=           0 NGrid=           0
         NMat0=    1 NMatS0=      1 NMatT0=    0 NMatD0=    1 NMtDS0=    0 NMtDT0=    0
 Petite list used in FoFCou.
 Leave Link  703 at Wed Oct  7 13:40:46 2020, MaxMem=  2684354560 cpu:               4.7 elap:               0.7
 (Enter /udrive/faculty/rpeverati/g16/g16/l716.exe)
 Dipole        = 0.00000000D+00-4.61597464D-32-7.39535346D-01
 ***** Axes restored to original set *****
 -------------------------------------------------------------------
 Center     Atomic                   Forces (Hartrees/Bohr)
 Number     Number              X              Y              Z
 -------------------------------------------------------------------
      1        9           0.000000000    0.000000000    0.001049934
      2        1          -0.000000000   -0.000000000   -0.001049934
 -------------------------------------------------------------------
 Cartesian Forces:  Max     0.001049934 RMS     0.000606180
 Leave Link  716 at Wed Oct  7 13:40:47 2020, MaxMem=  2684354560 cpu:               0.8 elap:               0.3
 (Enter /udrive/faculty/rpeverati/g16/g16/l103.exe)

 GradGradGradGradGradGradGradGradGradGradGradGradGradGradGradGradGradGrad
 Berny optimization.
 Optmz: redundant internal coordinate code flag= 1
 Using GEDIIS/GDIIS optimizer.
 Red2BG:  D1=  2.00D+00 OD1=  0.00D+00 B2RMS=  0.00D+00 IAprox=1
 Red2BG is reusing G-inverse.
 Internal  Forces:  Max     0.001049934 RMS     0.001049934
 Search for a local minimum.
 Step number   2 out of a maximum of  100
 All quantities printed in internal units (Hartrees-Bohrs-Radians)
 RMS Force = .10499D-02 SwitMx=.10000D-02 MixMth= 1
 Mixed Optimization -- RFO/linear search
 Update second derivatives using D2CorX and points    1    2
 DE= -2.39D-04 DEPred=-2.29D-04 R= 1.04D+00
 TightC=F SS=  1.41D+00  RLast= 2.63D-02 DXNew= 5.0454D-01 7.8837D-02
 Trust test= 1.04D+00 RLast= 2.63D-02 DXMaxT set to 3.00D-01
 The second derivative matrix:
                          R1
           R1           0.62344
 ITU=  1  0
 Use linear search instead of GDIIS.
 Eigenvectors of the second derivative matrix:
                           1
     Eigenvalues --     0.62344
   1         R1         1.00000
 RFO step:  Lambda= 0.00000000D+00 EMin= 6.23438087D-01
 Quartic linear search produced a step of  0.06764.
 Iteration  1 RMS(Cart)=  0.00125684 RMS(Int)=  0.00000000
 Iteration  2 RMS(Cart)=  0.00000000 RMS(Int)=  0.00000000
 ITry= 1 IFail=0 DXMaxC= 8.89D-04 DCOld= 1.00D+10 DXMaxT= 3.00D-01 DXLimC= 3.00D+00 Rises=F
 ClnCor:  largest displacement from symmetrization is 0.00D+00 for atom     0.
 Variable       Old X    -DE/DX   Delta X   Delta X   Delta X     New X
                                 (Linear)    (Quad)   (Total)
    R1        1.75610   0.00105   0.00178   0.00000   0.00178   1.75788
         Item               Value     Threshold  Converged?
 Maximum Force            0.001050     0.000450     NO 
 RMS     Force            0.001050     0.000300     NO 
 Maximum Displacement     0.000889     0.001800     YES
 RMS     Displacement     0.001257     0.001200     NO 
 Predicted change in Energy=-8.813834D-07
 Lowest energy point so far.  Saving SCF results.
 Largest change from initial coordinates is atom    2       0.013 Angstoms.
 GradGradGradGradGradGradGradGradGradGradGradGradGradGradGradGradGradGrad

 Leave Link  103 at Wed Oct  7 13:40:47 2020, MaxMem=  2684354560 cpu:               1.1 elap:               0.4
 (Enter /udrive/faculty/rpeverati/g16/g16/l202.exe)
                          Input orientation:                          
 ---------------------------------------------------------------------
 Center     Atomic      Atomic             Coordinates (Angstroms)
 Number     Number       Type             X           Y           Z
 ---------------------------------------------------------------------
      1          9           0        0.000000    0.000000    0.098962
      2          1           0        0.000000    0.000000   -0.831268
 ---------------------------------------------------------------------
 Stoichiometry    FH
 Framework group  C*V[C*(HF)]
 Deg. of freedom     1
 Full point group                 C*V     NOp   4
 RotChk:  IX=0 Diff= 0.00D+00
 Largest Abelian subgroup         C2V     NOp   4
 Largest concise Abelian subgroup C1      NOp   1
                         Standard orientation:                         
 ---------------------------------------------------------------------
 Center     Atomic      Atomic             Coordinates (Angstroms)
 Number     Number       Type             X           Y           Z
 ---------------------------------------------------------------------
      1          9           0        0.000000    0.000000    0.093023
      2          1           0        0.000000    0.000000   -0.837206
 ---------------------------------------------------------------------
 Rotational constants (GHZ):           0.0000000         610.2393144         610.2393144
 Leave Link  202 at Wed Oct  7 13:40:48 2020, MaxMem=  2684354560 cpu:               1.3 elap:               0.5
 (Enter /udrive/faculty/rpeverati/g16/g16/l301.exe)
 Standard basis: 6-31G(d) (5D, 7F)
 Ernie: Thresh=  0.10000D-02 Tol=  0.10000D-05 Strict=F.
 There are    10 symmetry adapted cartesian basis functions of A1  symmetry.
 There are     1 symmetry adapted cartesian basis functions of A2  symmetry.
 There are     3 symmetry adapted cartesian basis functions of B1  symmetry.
 There are     3 symmetry adapted cartesian basis functions of B2  symmetry.
 There are     9 symmetry adapted basis functions of A1  symmetry.
 There are     1 symmetry adapted basis functions of A2  symmetry.
 There are     3 symmetry adapted basis functions of B1  symmetry.
 There are     3 symmetry adapted basis functions of B2  symmetry.
    16 basis functions,    32 primitive gaussians,    17 cartesian basis functions
     5 alpha electrons        5 beta electrons
       nuclear repulsion energy         5.1198076696 Hartrees.
 IExCor= 1009 DFT=T Ex+Corr=PBE1PBE ExCW=0 ScaHFX=  0.250000
 ScaDFX=  0.750000  0.750000  1.000000  1.000000 ScalE2=  1.000000  1.000000
 IRadAn=      5 IRanWt=     -1 IRanGd=            0 ICorTp=0 IEmpDi=  4
 NAtoms=    2 NActive=    2 NUniq=    2 SFac= 1.00D+00 NAtFMM=   60 NAOKFM=F Big=F
 Integral buffers will be    131072 words long.
 Raffenetti 2 integral format.
 Two-electron integral symmetry is turned on.
 Leave Link  301 at Wed Oct  7 13:40:49 2020, MaxMem=  2684354560 cpu:               1.7 elap:               0.5
 (Enter /udrive/faculty/rpeverati/g16/g16/l302.exe)
 NPDir=0 NMtPBC=     1 NCelOv=     1 NCel=       1 NClECP=     1 NCelD=      1
         NCelK=      1 NCelE2=     1 NClLst=     1 CellRange=     0.0.
 One-electron integrals computed using PRISM.
 One-electron integral symmetry used in STVInt
 NBasis=    16 RedAO= T EigKep=  9.70D-02  NBF=     9     1     3     3
 NBsUse=    16 1.00D-06 EigRej= -1.00D+00 NBFU=     9     1     3     3
 Precomputing XC quadrature grid using
 IXCGrd= 4 IRadAn=           5 IRanWt=          -1 IRanGd=           0 AccXCQ= 0.00D+00.
 Generated NRdTot=       0 NPtTot=           0 NUsed=           0 NTot=          32
 NSgBfM=    17    17    17    17    17 MxSgAt=     2 MxSgA2=     2.
 Leave Link  302 at Wed Oct  7 13:40:50 2020, MaxMem=  2684354560 cpu:               3.5 elap:               0.6
 (Enter /udrive/faculty/rpeverati/g16/g16/l303.exe)
 DipDrv:  MaxL=1.
 Leave Link  303 at Wed Oct  7 13:40:50 2020, MaxMem=  2684354560 cpu:               1.8 elap:               0.6
 (Enter /udrive/faculty/rpeverati/g16/g16/l401.exe)
 Initial guess from the checkpoint file:  "MN_56_HF_upper_BH76_PBE0_631Gs.chk"
 SCF N**3 symmetry information disabled.
 B after Tr=     0.000000    0.000000    0.000000
         Rot=    1.000000    0.000000    0.000000    0.000000 Ang=   0.00 deg.
 Guess basis will be translated and rotated to current coordinates.
 JPrj=2 DoOrth=T DoCkMO=T.
 Initial guess orbital symmetries:
       Occupied  (SG) (SG) (SG) (PI) (PI)
       Virtual   (SG) (SG) (PI) (PI) (SG) (SG) (PI) (PI) (DLTA)
                 (DLTA) (SG)
 The electronic state of the initial guess is 1-SG.
 Leave Link  401 at Wed Oct  7 13:40:51 2020, MaxMem=  2684354560 cpu:               2.2 elap:               0.5
 (Enter /udrive/faculty/rpeverati/g16/g16/l502.exe)
 Keep R1 ints in memory in symmetry-blocked form, NReq=10348527.
 FoFCou: FMM=F IPFlag=           0 FMFlag=           0 FMFlg1=           0
         NFxFlg=           0 DoJE=F BraDBF=F KetDBF=F FulRan=T
         wScrn=  0.000000 ICntrl=       600 IOpCl=  0 I1Cent=           0 NGrid=           0
         NMat0=    1 NMatS0=    136 NMatT0=    0 NMatD0=    1 NMtDS0=    0 NMtDT0=    0
 Petite list used in FoFCou.
 Closed shell SCF:
 Using DIIS extrapolation, IDIIS=  1040.
 NGot=  2684354560 LenX=  2684349303 LenY=  2684348421
 Requested convergence on RMS density matrix=1.00D-08 within 120 cycles.
 Requested convergence on MAX density matrix=1.00D-06.
 Requested convergence on             energy=1.00D-06.
 No special actions if energy rises.

 Cycle   1  Pass 1  IDiag  1:
 E= -100.323275191913    
 DIIS: error= 1.32D-04 at cycle   1 NSaved=   1.
 NSaved= 1 IEnMin= 1 EnMin= -100.323275191913     IErMin= 1 ErrMin= 1.32D-04
 ErrMax= 1.32D-04  0.00D+00 EMaxC= 1.00D-01 BMatC= 2.81D-07 BMatP= 2.81D-07
 IDIUse=3 WtCom= 9.99D-01 WtEn= 1.32D-03
 Coeff-Com:  0.100D+01
 Coeff-En:   0.100D+01
 Coeff:      0.100D+01
 Gap=     0.477 Goal=   None    Shift=    0.000
 RMSDP=3.44D-05 MaxDP=2.20D-04              OVMax= 3.34D-04

 Cycle   2  Pass 1  IDiag  1:
 E= -100.323275434170     Delta-E=       -0.000000242257 Rises=F Damp=F
 DIIS: error= 8.15D-05 at cycle   2 NSaved=   2.
 NSaved= 2 IEnMin= 2 EnMin= -100.323275434170     IErMin= 2 ErrMin= 8.15D-05
 ErrMax= 8.15D-05  0.00D+00 EMaxC= 1.00D-01 BMatC= 9.79D-08 BMatP= 2.81D-07
 IDIUse=1 WtCom= 1.00D+00 WtEn= 0.00D+00
 Coeff-Com:  0.322D+00 0.678D+00
 Coeff:      0.322D+00 0.678D+00
 Gap=     0.477 Goal=   None    Shift=    0.000
 RMSDP=1.35D-05 MaxDP=8.61D-05 DE=-2.42D-07 OVMax= 7.77D-05

 Cycle   3  Pass 1  IDiag  1:
 E= -100.323275479109     Delta-E=       -0.000000044939 Rises=F Damp=F
 DIIS: error= 3.23D-05 at cycle   3 NSaved=   3.
 NSaved= 3 IEnMin= 3 EnMin= -100.323275479109     IErMin= 3 ErrMin= 3.23D-05
 ErrMax= 3.23D-05  0.00D+00 EMaxC= 1.00D-01 BMatC= 1.87D-08 BMatP= 9.79D-08
 IDIUse=1 WtCom= 1.00D+00 WtEn= 0.00D+00
 Coeff-Com: -0.368D-02 0.298D+00 0.705D+00
 Coeff:     -0.368D-02 0.298D+00 0.705D+00
 Gap=     0.477 Goal=   None    Shift=    0.000
 RMSDP=5.07D-06 MaxDP=3.70D-05 DE=-4.49D-08 OVMax= 4.59D-05

 Cycle   4  Pass 1  IDiag  1:
 E= -100.323275490722     Delta-E=       -0.000000011613 Rises=F Damp=F
 DIIS: error= 3.08D-06 at cycle   4 NSaved=   4.
 NSaved= 4 IEnMin= 4 EnMin= -100.323275490722     IErMin= 4 ErrMin= 3.08D-06
 ErrMax= 3.08D-06  0.00D+00 EMaxC= 1.00D-01 BMatC= 2.09D-10 BMatP= 1.87D-08
 IDIUse=1 WtCom= 1.00D+00 WtEn= 0.00D+00
 Coeff-Com: -0.104D-01 0.427D-01 0.175D+00 0.793D+00
 Coeff:     -0.104D-01 0.427D-01 0.175D+00 0.793D+00
 Gap=     0.477 Goal=   None    Shift=    0.000
 RMSDP=4.46D-07 MaxDP=2.35D-06 DE=-1.16D-08 OVMax= 3.66D-06

 Cycle   5  Pass 1  IDiag  1:
 E= -100.323275490862     Delta-E=       -0.000000000140 Rises=F Damp=F
 DIIS: error= 1.47D-07 at cycle   5 NSaved=   5.
 NSaved= 5 IEnMin= 5 EnMin= -100.323275490862     IErMin= 5 ErrMin= 1.47D-07
 ErrMax= 1.47D-07  0.00D+00 EMaxC= 1.00D-01 BMatC= 3.02D-13 BMatP= 2.09D-10
 IDIUse=1 WtCom= 1.00D+00 WtEn= 0.00D+00
 Coeff-Com:  0.476D-03-0.479D-02-0.110D-01-0.377D-01 0.105D+01
 Coeff:      0.476D-03-0.479D-02-0.110D-01-0.377D-01 0.105D+01
 Gap=     0.477 Goal=   None    Shift=    0.000
 RMSDP=2.93D-08 MaxDP=1.50D-07 DE=-1.40D-10 OVMax= 1.93D-07

 Cycle   6  Pass 1  IDiag  1:
 E= -100.323275490862     Delta-E=       -0.000000000000 Rises=F Damp=F
 DIIS: error= 5.25D-09 at cycle   6 NSaved=   6.
 NSaved= 6 IEnMin= 6 EnMin= -100.323275490862     IErMin= 6 ErrMin= 5.25D-09
 ErrMax= 5.25D-09  0.00D+00 EMaxC= 1.00D-01 BMatC= 6.29D-16 BMatP= 3.02D-13
 IDIUse=1 WtCom= 1.00D+00 WtEn= 0.00D+00
 Coeff-Com: -0.737D-05 0.138D-03 0.272D-03-0.815D-03-0.396D-01 0.104D+01
 Coeff:     -0.737D-05 0.138D-03 0.272D-03-0.815D-03-0.396D-01 0.104D+01
 Gap=     0.477 Goal=   None    Shift=    0.000
 RMSDP=8.26D-10 MaxDP=4.99D-09 DE=-1.85D-13 OVMax= 4.37D-09

 SCF Done:  E(RPBE1PBE) =  -100.323275491     A.U. after    6 cycles
            NFock=  6  Conv=0.83D-09     -V/T= 2.0033
 KE= 9.998853915818D+01 PE=-2.505520911817D+02 EE= 4.512046886308D+01
 Leave Link  502 at Wed Oct  7 13:40:52 2020, MaxMem=  2684354560 cpu:               6.4 elap:               1.0
 (Enter /udrive/faculty/rpeverati/g16/g16/l508.exe)
 QCSCF skips out because SCF is already converged.
 Leave Link  508 at Wed Oct  7 13:40:53 2020, MaxMem=  2684354560 cpu:               0.3 elap:               0.3
 (Enter /udrive/faculty/rpeverati/g16/g16/l701.exe)
 ... and contract with generalized density number  0.
 Compute integral first derivatives.
 Leave Link  701 at Wed Oct  7 13:40:54 2020, MaxMem=  2684354560 cpu:               3.1 elap:               0.7
 (Enter /udrive/faculty/rpeverati/g16/g16/l702.exe)
 L702 exits ... SP integral derivatives will be done elsewhere.
 Leave Link  702 at Wed Oct  7 13:40:55 2020, MaxMem=  2684354560 cpu:               1.2 elap:               0.4
 (Enter /udrive/faculty/rpeverati/g16/g16/l703.exe)
 Integral derivatives from FoFJK, PRISM(SPDF).
 Compute integral first derivatives, UseDBF=F ICtDFT=           0.
 Calling FoFJK, ICntrl=      2127 FMM=F ISym2X=1 I1Cent= 0 IOpClX= 0 NMat=1 NMatS=1 NMatT=0.
 FoFJK:  IHMeth= 1 ICntrl=    2127 DoSepK=F KAlg= 0 I1Cent=           0 FoldK=F
 IRaf=         0 NMat=       1 IRICut=       1 DoRegI=T DoRafI=F ISym2E= 1 IDoP0=0 IntGTp=1.
 FoFCou: FMM=F IPFlag=           0 FMFlag=      100000 FMFlg1=         800
         NFxFlg=           0 DoJE=F BraDBF=F KetDBF=F FulRan=T
         wScrn=  0.000000 ICntrl=      2127 IOpCl=  0 I1Cent=           0 NGrid=           0
         NMat0=    1 NMatS0=      1 NMatT0=    0 NMatD0=    1 NMtDS0=    0 NMtDT0=    0
 Petite list used in FoFCou.
 Leave Link  703 at Wed Oct  7 13:40:56 2020, MaxMem=  2684354560 cpu:               4.3 elap:               0.7
 (Enter /udrive/faculty/rpeverati/g16/g16/l716.exe)
 Dipole        = 0.00000000D+00-2.06146503D-32-7.40035793D-01
 ***** Axes restored to original set *****
 -------------------------------------------------------------------
 Center     Atomic                   Forces (Hartrees/Bohr)
 Number     Number              X              Y              Z
 -------------------------------------------------------------------
      1        9          -0.000000000   -0.000000000   -0.000000495
      2        1           0.000000000    0.000000000    0.000000495
 -------------------------------------------------------------------
 Cartesian Forces:  Max     0.000000495 RMS     0.000000286
 Leave Link  716 at Wed Oct  7 13:40:56 2020, MaxMem=  2684354560 cpu:               1.1 elap:               0.6
 (Enter /udrive/faculty/rpeverati/g16/g16/l103.exe)

 GradGradGradGradGradGradGradGradGradGradGradGradGradGradGradGradGradGrad
 Berny optimization.
 Optmz: redundant internal coordinate code flag= 1
 Using GEDIIS/GDIIS optimizer.
 Red2BG:  D1=  2.00D+00 OD1=  0.00D+00 B2RMS=  0.00D+00 IAprox=1
 Red2BG is reusing G-inverse.
 Internal  Forces:  Max     0.000000495 RMS     0.000000495
 Search for a local minimum.
 Step number   3 out of a maximum of  100
 All quantities printed in internal units (Hartrees-Bohrs-Radians)
 RMS Force = .49494D-06 SwitMx=.10000D-02 MixMth= 2
 Mixed Optimization -- En-DIIS/RFO-DIIS
 Update second derivatives using D2CorX and points    2    3
 DE= -9.32D-07 DEPred=-8.81D-07 R= 1.06D+00
 Trust test= 1.06D+00 RLast= 1.78D-03 DXMaxT set to 3.00D-01
 The second derivative matrix:
                          R1
           R1           0.59098
 ITU=  0  1
 Use linear search instead of GDIIS.
 Eigenvectors of the second derivative matrix:
                           1
     Eigenvalues --     0.59098
   1         R1         1.00000
 RFO step:  Lambda= 0.00000000D+00 EMin= 5.90978876D-01
 Quartic linear search produced a step of -0.00047.
 Iteration  1 RMS(Cart)=  0.00000059 RMS(Int)=  0.00000000
 ITry= 1 IFail=0 DXMaxC= 4.20D-07 DCOld= 1.00D+10 DXMaxT= 3.00D-01 DXLimC= 3.00D+00 Rises=F
 ClnCor:  largest displacement from symmetrization is 2.22D-16 for atom     2.
 Variable       Old X    -DE/DX   Delta X   Delta X   Delta X     New X
                                 (Linear)    (Quad)   (Total)
    R1        1.75788  -0.00000  -0.00000   0.00000  -0.00000   1.75788
         Item               Value     Threshold  Converged?
 Maximum Force            0.000000     0.000450     YES
 RMS     Force            0.000000     0.000300     YES
 Maximum Displacement     0.000000     0.001800     YES
 RMS     Displacement     0.000001     0.001200     YES
 Predicted change in Energy=-2.072490D-13
 Optimization completed.
    -- Stationary point found.
                           ----------------------------
                           !   Optimized Parameters   !
                           ! (Angstroms and Degrees)  !
 --------------------------                            --------------------------
 ! Name  Definition              Value          Derivative Info.                !
 --------------------------------------------------------------------------------
 ! R1    R(1,2)                  0.9302         -DE/DX =    0.0                 !
 --------------------------------------------------------------------------------
 Lowest energy point so far.  Saving SCF results.
 Largest change from initial coordinates is atom    2       0.013 Angstoms.
 GradGradGradGradGradGradGradGradGradGradGradGradGradGradGradGradGradGrad

 Leave Link  103 at Wed Oct  7 13:40:57 2020, MaxMem=  2684354560 cpu:               1.6 elap:               0.5
 (Enter /udrive/faculty/rpeverati/g16/g16/l202.exe)
                          Input orientation:                          
 ---------------------------------------------------------------------
 Center     Atomic      Atomic             Coordinates (Angstroms)
 Number     Number       Type             X           Y           Z
 ---------------------------------------------------------------------
      1          9           0        0.000000    0.000000    0.098962
      2          1           0        0.000000    0.000000   -0.831268
 ---------------------------------------------------------------------
 Stoichiometry    FH
 Framework group  C*V[C*(HF)]
 Deg. of freedom     1
 Full point group                 C*V     NOp   4
 RotChk:  IX=0 Diff= 0.00D+00
 Largest Abelian subgroup         C2V     NOp   4
 Largest concise Abelian subgroup C1      NOp   1
                         Standard orientation:                         
 ---------------------------------------------------------------------
 Center     Atomic      Atomic             Coordinates (Angstroms)
 Number     Number       Type             X           Y           Z
 ---------------------------------------------------------------------
      1          9           0        0.000000    0.000000    0.093023
      2          1           0        0.000000    0.000000   -0.837206
 ---------------------------------------------------------------------
 Rotational constants (GHZ):           0.0000000         610.2393144         610.2393144
 Leave Link  202 at Wed Oct  7 13:40:58 2020, MaxMem=  2684354560 cpu:               1.4 elap:               0.4
 (Enter /udrive/faculty/rpeverati/g16/g16/l601.exe)
 Copying SCF densities to generalized density rwf, IOpCl= 0 IROHF=0.

 **********************************************************************

            Population analysis using the SCF density.

 **********************************************************************

 Orbital symmetries:
       Occupied  (SG) (SG) (SG) (PI) (PI)
       Virtual   (SG) (SG) (PI) (PI) (SG) (SG) (PI) (PI) (DLTA)
                 (DLTA) (SG)
 The electronic state is 1-SG.
 Alpha  occ. eigenvalues --  -24.74001  -1.19829  -0.53479  -0.39185  -0.39185
 Alpha virt. eigenvalues --    0.08522   0.83346   1.20870   1.20870   1.28859
 Alpha virt. eigenvalues --    1.67185   1.81288   1.81288   1.88267   1.88267
 Alpha virt. eigenvalues --    2.63745
          Condensed to atoms (all electrons):
               1          2
     1  F    9.292565   0.206401
     2  H    0.206401   0.294634
 Mulliken charges:
               1
     1  F   -0.498966
     2  H    0.498966
 Sum of Mulliken charges =  -0.00000
 Mulliken charges with hydrogens summed into heavy atoms:
               1
     1  F   -0.000000
 Electronic spatial extent (au):  <R**2>=             13.3179
 Charge=             -0.0000 electrons
 Dipole moment (field-independent basis, Debye):
    X=              0.0000    Y=             -0.0000    Z=             -1.8810  Tot=              1.8810
 Quadrupole moment (field-independent basis, Debye-Ang):
   XX=             -5.4060   YY=             -5.4060   ZZ=             -3.3604
   XY=              0.0000   XZ=              0.0000   YZ=              0.0000
 Traceless Quadrupole moment (field-independent basis, Debye-Ang):
   XX=             -0.6819   YY=             -0.6819   ZZ=              1.3638
   XY=              0.0000   XZ=              0.0000   YZ=              0.0000
 Octapole moment (field-independent basis, Debye-Ang**2):
  XXX=              0.0000  YYY=              0.0000  ZZZ=             -1.7658  XYY=              0.0000
  XXY=             -0.0000  XXZ=             -0.1367  XZZ=              0.0000  YZZ=             -0.0000
  YYZ=             -0.1367  XYZ=              0.0000
 Hexadecapole moment (field-independent basis, Debye-Ang**3):
 XXXX=             -2.9148 YYYY=             -2.9148 ZZZZ=             -2.8152 XXXY=              0.0000
 XXXZ=              0.0000 YYYX=              0.0000 YYYZ=              0.0000 ZZZX=              0.0000
 ZZZY=             -0.0000 XXYY=             -0.9716 XXZZ=             -1.1893 YYZZ=             -1.1893
 XXYZ=             -0.0000 YYXZ=              0.0000 ZZXY=              0.0000
 N-N= 5.119807669601D+00 E-N=-2.505520912729D+02  KE= 9.998853915818D+01
 No NMR shielding tensors so no spin-rotation constants.
 Leave Link  601 at Wed Oct  7 13:40:59 2020, MaxMem=  2684354560 cpu:               2.9 elap:               0.5
 (Enter /udrive/faculty/rpeverati/g16/g16/l9999.exe)

 Test job not archived.
 1\1\GINC-NODE27\FOpt\RPBE1PBE\6-31G(d)\F1H1\RPEVERATI\07-Oct-2020\0\\#
 P Opt(MaxCyc=100) PBE1PBE/6-31G* 5D 7F Integral=UltraFineGrid SCF=(NoS
 ymm,XQC,MaxCyc=120) IOp(1/33=1)\\TS search on BH76.\\0,1\F,0.,0.,0.098
 9615715\H,0.,0.,-0.8312676881\\Version=ES64L-G16RevA.03\State=1-SG\HF=
 -100.3232755\RMSD=8.263e-10\RMSF=2.858e-07\Dipole=0.,0.,-0.7400358\Qua
 drupole=-0.5069646,-0.5069646,1.0139292,0.,0.,0.\PG=C*V [C*(H1F1)]\\@


 IN SO FAR AS QUANTUM MECHANICS IS CORRECT, CHEMICAL 
 QUESTIONS ARE PROBLEMS IN APPLIED MATHEMATICS.

                    -- EYRING, WALTER, & KIMBALL, 1944
 Job cpu time:       0 days  0 hours  1 minutes 55.2 seconds.
 Elapsed time:       0 days  0 hours  0 minutes 24.2 seconds.
 File lengths (MBytes):  RWF=      5 Int=      0 D2E=      0 Chk=      1 Scr=      1
 Normal termination of Gaussian 16 at Wed Oct  7 13:41:00 2020.
