 Entering Gaussian System, Link 0=g16
 Input=MN_58_hn2_BH76_PBE0_631Gs.in
 Output=MN_58_hn2_BH76_PBE0_631Gs.log
 Initial command:
 /udrive/faculty/rpeverati/g16/g16/l1.exe "/udrive/scratch-directories/gaussian09/rpeverati/Gau-29925.inp" -scrdir="/udrive/scratch-directories/gaussian09/rpeverati/"
 Entering Link 1 = /udrive/faculty/rpeverati/g16/g16/l1.exe PID=     29926.
  
 Copyright (c) 1988,1990,1992,1993,1995,1998,2003,2009,2016,
            Gaussian, Inc.  All Rights Reserved.
  
 This is part of the Gaussian(R) 16 program.  It is based on
 the Gaussian(R) 09 system (copyright 2009, Gaussian, Inc.),
 the Gaussian(R) 03 system (copyright 2003, Gaussian, Inc.),
 the Gaussian(R) 98 system (copyright 1998, Gaussian, Inc.),
 the Gaussian(R) 94 system (copyright 1995, Gaussian, Inc.),
 the Gaussian 92(TM) system (copyright 1992, Gaussian, Inc.),
 the Gaussian 90(TM) system (copyright 1990, Gaussian, Inc.),
 the Gaussian 88(TM) system (copyright 1988, Gaussian, Inc.),
 the Gaussian 86(TM) system (copyright 1986, Carnegie Mellon
 University), and the Gaussian 82(TM) system (copyright 1983,
 Carnegie Mellon University). Gaussian is a federally registered
 trademark of Gaussian, Inc.
  
 This software contains proprietary and confidential information,
 including trade secrets, belonging to Gaussian, Inc.
  
 This software is provided under written license and may be
 used, copied, transmitted, or stored only in accord with that
 written license.
  
 The following legend is applicable only to US Government
 contracts under FAR:
  
                    RESTRICTED RIGHTS LEGEND
  
 Use, reproduction and disclosure by the US Government is
 subject to restrictions as set forth in subparagraphs (a)
 and (c) of the Commercial Computer Software - Restricted
 Rights clause in FAR 52.227-19.
  
 Gaussian, Inc.
 340 Quinnipiac St., Bldg. 40, Wallingford CT 06492
  
  
 ---------------------------------------------------------------
 Warning -- This program may not be used in any manner that
 competes with the business of Gaussian, Inc. or will provide
 assistance to any competitor of Gaussian, Inc.  The licensee
 of this program is prohibited from giving any competitor of
 Gaussian, Inc. access to this program.  By using this program,
 the user acknowledges that Gaussian, Inc. is engaged in the
 business of creating and licensing software in the field of
 computational chemistry and represents and warrants to the
 licensee that it is not a competitor of Gaussian, Inc. and that
 it will not use this program in any manner prohibited above.
 ---------------------------------------------------------------
  

 Cite this work as:
 Gaussian 16, Revision A.03,
 M. J. Frisch, G. W. Trucks, H. B. Schlegel, G. E. Scuseria, 
 M. A. Robb, J. R. Cheeseman, G. Scalmani, V. Barone, 
 G. A. Petersson, H. Nakatsuji, X. Li, M. Caricato, A. V. Marenich, 
 J. Bloino, B. G. Janesko, R. Gomperts, B. Mennucci, H. P. Hratchian, 
 J. V. Ortiz, A. F. Izmaylov, J. L. Sonnenberg, D. Williams-Young, 
 F. Ding, F. Lipparini, F. Egidi, J. Goings, B. Peng, A. Petrone, 
 T. Henderson, D. Ranasinghe, V. G. Zakrzewski, J. Gao, N. Rega, 
 G. Zheng, W. Liang, M. Hada, M. Ehara, K. Toyota, R. Fukuda, 
 J. Hasegawa, M. Ishida, T. Nakajima, Y. Honda, O. Kitao, H. Nakai, 
 T. Vreven, K. Throssell, J. A. Montgomery, Jr., J. E. Peralta, 
 F. Ogliaro, M. J. Bearpark, J. J. Heyd, E. N. Brothers, K. N. Kudin, 
 V. N. Staroverov, T. A. Keith, R. Kobayashi, J. Normand, 
 K. Raghavachari, A. P. Rendell, J. C. Burant, S. S. Iyengar, 
 J. Tomasi, M. Cossi, J. M. Millam, M. Klene, C. Adamo, R. Cammi, 
 J. W. Ochterski, R. L. Martin, K. Morokuma, O. Farkas, 
 J. B. Foresman, and D. J. Fox, Gaussian, Inc., Wallingford CT, 2016.
 
 ******************************************
 Gaussian 16:  ES64L-G16RevA.03 25-Dec-2016
                 7-Oct-2020 
 ******************************************
 %NoSave
 %nproc=12
 Will use up to   12 processors via shared memory.
 %mem=20GB
 %chk=MN_58_hn2_BH76_PBE0_631Gs
 ----------------------------------------------------------------------
 #P Opt(MaxCyc=100) PBE1PBE/6-31G* 5D 7F Integral=UltraFineGrid SCF=(No
 Symm,XQC,MaxCyc=120) IOp(1/33=1)
 ----------------------------------------------------------------------
 1/6=100,18=20,19=15,26=4,33=1,38=1/1,3;
 2/9=110,12=2,17=6,18=5,40=1/2;
 3/5=1,6=6,7=1,8=11,11=2,25=1,30=1,71=1,74=-13,75=-5/1,2,3;
 4/9=2/1;
 5/5=2,7=120,8=3,13=1,38=5/2,8;
 6/7=2,8=2,9=2,10=2,28=1/1;
 7//1,2,3,16;
 1/6=100,18=20,19=15,26=4,33=1/3(2);
 2/9=110/2;
 99//99;
 2/9=110/2;
 3/5=1,6=6,7=1,8=11,11=2,25=1,30=1,71=1,74=-13,75=-5/1,2,3;
 4/5=5,9=2,16=3,69=1/1;
 5/5=2,7=120,8=3,13=1,38=5/2,8;
 7//1,2,3,16;
 1/6=100,18=20,19=15,26=4,33=1/3(-5);
 2/9=110/2;
 6/7=2,8=2,9=2,10=2,19=2,28=1/1;
 99/9=1/99;
 Leave Link    1 at Wed Oct  7 13:40:42 2020, MaxMem=  2684354560 cpu:               9.1 elap:               0.9
 (Enter /udrive/faculty/rpeverati/g16/g16/l101.exe)
 ONIOM data not found on unit 2.
 ------------------
 TS search on BH76.
 ------------------
 TstMul:  ICh=     0
 TstMul:  Mul=     2
 TstMul:  ICh=     0
 TstMul:  Mul=     2
 Symbolic Z-matrix:
 Charge =  0 Multiplicity = 2
 N                    -0.06244   0.65949   0. 
 N                    -0.06244  -0.51871   0. 
 H                     0.8742   -0.98548   0. 
 
 RdStrC is calling ZToCFu for IStruc=1 NZ=     3.
 PrtBox:  NBox=     1 Levels=  1 BoxLen=    8.00 SMaxX=        3.11
          Shift=            0.117998            1.862280            0.000000
 Box      1 Number                   0 centers from      1 to      3:
 After GenITR:
 ITRead=  0  0  0
 MicOpt= -1 -1 -1
 ITRead=  0  0  0
 MicOpt= -1 -1 -1
 NAtoms=      3 NQM=        3 NQMF=       0 NMMI=      0 NMMIF=      0
                NMic=       0 NMicF=      0.
                    Isotopes and Nuclear Properties:
 (Nuclear quadrupole moments (NQMom) in fm**2, nuclear magnetic moments (NMagM)
  in nuclear magnetons)

  Atom         1           2           3
 IAtWgt=          14          14           1
 AtmWgt=  14.0030740  14.0030740   1.0078250
 NucSpn=           2           2           1
 AtZEff=   0.0000000   0.0000000   0.0000000
 NQMom=    2.0440000   2.0440000   0.0000000
 NMagM=    0.4037610   0.4037610   2.7928460
 AtZNuc=   7.0000000   7.0000000   1.0000000
 No MM parameters found.
 Leave Link  101 at Wed Oct  7 13:40:44 2020, MaxMem=  2684354560 cpu:              14.0 elap:               1.4
 (Enter /udrive/faculty/rpeverati/g16/g16/l103.exe)

 GradGradGradGradGradGradGradGradGradGradGradGradGradGradGradGradGradGrad
 Berny optimization.
 Optmz: redundant internal coordinate code flag= 1
 Initialization pass.
                           ----------------------------
                           !    Initial Parameters    !
                           ! (Angstroms and Degrees)  !
 --------------------------                            --------------------------
 ! Name  Definition              Value          Derivative Info.                !
 --------------------------------------------------------------------------------
 ! R1    R(1,2)                  1.1782         estimate D2E/DX2                !
 ! R2    R(2,3)                  1.0465         estimate D2E/DX2                !
 ! A1    A(1,2,3)              116.4891         estimate D2E/DX2                !
 --------------------------------------------------------------------------------
 Maximum allowed force set to 1.00D+20.
 Trust Radius=3.00D-01 FncErr=1.00D-07 GrdErr=1.00D-06 EigMax=2.50D+02 EigMin=1.00D-04
 Number of steps in this run=    100 maximum allowed number of steps=    100.
 GradGradGradGradGradGradGradGradGradGradGradGradGradGradGradGradGradGrad

 Leave Link  103 at Wed Oct  7 13:40:45 2020, MaxMem=  2684354560 cpu:               0.9 elap:               0.5
 (Enter /udrive/faculty/rpeverati/g16/g16/l202.exe)
                          Input orientation:                          
 ---------------------------------------------------------------------
 Center     Atomic      Atomic             Coordinates (Angstroms)
 Number     Number       Type             X           Y           Z
 ---------------------------------------------------------------------
      1          7           0       -0.062442    0.659492    0.000000
      2          7           0       -0.062442   -0.518709    0.000000
      3          1           0        0.874195   -0.985476    0.000000
 ---------------------------------------------------------------------
                    Distance matrix (angstroms):
                    1          2          3
     1  N    0.000000
     2  N    1.178201   0.000000
     3  H    1.892937   1.046499   0.000000
 Stoichiometry    HN2(2)
 Framework group  CS[SG(HN2)]
 Deg. of freedom     3
 Full point group                 CS      NOp   2
 Largest Abelian subgroup         CS      NOp   2
 Largest concise Abelian subgroup C1      NOp   1
                         Standard orientation:                         
 ---------------------------------------------------------------------
 Center     Atomic      Atomic             Coordinates (Angstroms)
 Number     Number       Type             X           Y           Z
 ---------------------------------------------------------------------
      1          7           0       -0.062442    0.659492    0.000000
      2          7           0       -0.062442   -0.518710    0.000000
      3          1           0        0.874195   -0.985477    0.000000
 ---------------------------------------------------------------------
 Rotational constants (GHZ):         663.8594863          46.3822203          43.3532368
 Leave Link  202 at Wed Oct  7 13:40:46 2020, MaxMem=  2684354560 cpu:               1.3 elap:               0.4
 (Enter /udrive/faculty/rpeverati/g16/g16/l301.exe)
 Standard basis: 6-31G(d) (5D, 7F)
 Ernie: Thresh=  0.10000D-02 Tol=  0.10000D-05 Strict=F.
 There are    24 symmetry adapted cartesian basis functions of A'  symmetry.
 There are     8 symmetry adapted cartesian basis functions of A"  symmetry.
 There are    22 symmetry adapted basis functions of A'  symmetry.
 There are     8 symmetry adapted basis functions of A"  symmetry.
    30 basis functions,    60 primitive gaussians,    32 cartesian basis functions
     8 alpha electrons        7 beta electrons
       nuclear repulsion energy        27.5043762580 Hartrees.
 IExCor= 1009 DFT=T Ex+Corr=PBE1PBE ExCW=0 ScaHFX=  0.250000
 ScaDFX=  0.750000  0.750000  1.000000  1.000000 ScalE2=  1.000000  1.000000
 IRadAn=      5 IRanWt=     -1 IRanGd=            0 ICorTp=0 IEmpDi=  4
 NAtoms=    3 NActive=    3 NUniq=    3 SFac= 1.00D+00 NAtFMM=   60 NAOKFM=F Big=F
 Integral buffers will be    131072 words long.
 Raffenetti 2 integral format.
 Two-electron integral symmetry is turned on.
 Leave Link  301 at Wed Oct  7 13:40:46 2020, MaxMem=  2684354560 cpu:               2.0 elap:               0.7
 (Enter /udrive/faculty/rpeverati/g16/g16/l302.exe)
 NPDir=0 NMtPBC=     1 NCelOv=     1 NCel=       1 NClECP=     1 NCelD=      1
         NCelK=      1 NCelE2=     1 NClLst=     1 CellRange=     0.0.
 One-electron integrals computed using PRISM.
 One-electron integral symmetry used in STVInt
 NBasis=    30 RedAO= T EigKep=  7.30D-03  NBF=    22     8
 NBsUse=    30 1.00D-06 EigRej= -1.00D+00 NBFU=    22     8
 Precomputing XC quadrature grid using
 IXCGrd= 4 IRadAn=           5 IRanWt=          -1 IRanGd=           0 AccXCQ= 0.00D+00.
 Generated NRdTot=       0 NPtTot=           0 NUsed=           0 NTot=          32
 NSgBfM=    32    32    32    32    32 MxSgAt=     3 MxSgA2=     3.
 Leave Link  302 at Wed Oct  7 13:40:47 2020, MaxMem=  2684354560 cpu:               3.1 elap:               0.5
 (Enter /udrive/faculty/rpeverati/g16/g16/l303.exe)
 DipDrv:  MaxL=1.
 Leave Link  303 at Wed Oct  7 13:40:48 2020, MaxMem=  2684354560 cpu:               1.5 elap:               0.7
 (Enter /udrive/faculty/rpeverati/g16/g16/l401.exe)
 SCF N**3 symmetry information disabled.
 ExpMin= 1.61D-01 ExpMax= 4.17D+03 ExpMxC= 6.27D+02 IAcc=3 IRadAn=         5 AccDes= 0.00D+00
 Harris functional with IExCor= 1009 and IRadAn=       5 diagonalized for initial guess.
 HarFok:  IExCor= 1009 AccDes= 0.00D+00 IRadAn=         5 IDoV= 1 UseB2=F ITyADJ=14
 ICtDFT=  3500011 ScaDFX=  1.000000  1.000000  1.000000  1.000000
 FoFCou: FMM=F IPFlag=           0 FMFlag=      100000 FMFlg1=           0
         NFxFlg=           0 DoJE=T BraDBF=F KetDBF=T FulRan=T
         wScrn=  0.000000 ICntrl=       500 IOpCl=  0 I1Cent=   200000004 NGrid=           0
         NMat0=    1 NMatS0=      1 NMatT0=    0 NMatD0=    1 NMtDS0=    0 NMtDT0=    0
 Petite list used in FoFCou.
 Harris En= -109.870690556221    
 JPrj=0 DoOrth=F DoCkMO=F.
 Initial guess orbital symmetries:
 Alpha Orbitals:
       Occupied  (A') (A') (A') (A') (A') (A") (A') (A')
       Virtual   (A") (A') (A') (A') (A") (A') (A') (A') (A") (A')
                 (A') (A') (A") (A') (A") (A') (A") (A') (A') (A")
                 (A') (A')
 Beta  Orbitals:
       Occupied  (A') (A') (A') (A') (A') (A") (A')
       Virtual   (A') (A") (A') (A') (A') (A") (A') (A') (A') (A")
                 (A') (A') (A') (A") (A') (A") (A') (A") (A') (A')
                 (A") (A') (A')
 The electronic state of the initial guess is 2-A'.
 Initial guess <Sx>= 0.0000 <Sy>= 0.0000 <Sz>= 0.5000 <S**2>= 0.7500 S= 0.5000
 Leave Link  401 at Wed Oct  7 13:40:49 2020, MaxMem=  2684354560 cpu:               4.8 elap:               0.8
 (Enter /udrive/faculty/rpeverati/g16/g16/l502.exe)
 Keep R1 and R2 ints in memory in symmetry-blocked form, NReq=10465801.
 FoFCou: FMM=F IPFlag=           0 FMFlag=           0 FMFlg1=           0
         NFxFlg=           0 DoJE=F BraDBF=F KetDBF=F FulRan=T
         wScrn=  0.000000 ICntrl=       600 IOpCl=  0 I1Cent=           0 NGrid=           0
         NMat0=    1 NMatS0=    465 NMatT0=    0 NMatD0=    1 NMtDS0=    0 NMtDT0=    0
 Petite list used in FoFCou.
 UHF open shell SCF:
 Using DIIS extrapolation, IDIIS=  1040.
 NGot=  2684354560 LenX=  2684235289 LenY=  2684233824
 Requested convergence on RMS density matrix=1.00D-08 within 120 cycles.
 Requested convergence on MAX density matrix=1.00D-06.
 Requested convergence on             energy=1.00D-06.
 No special actions if energy rises.
 Integral accuracy reduced to 1.0D-05 until final iterations.

 Cycle   1  Pass 0  IDiag  1:
 E= -109.890994248560    
 DIIS: error= 1.84D-02 at cycle   1 NSaved=   1.
 NSaved= 1 IEnMin= 1 EnMin= -109.890994248560     IErMin= 1 ErrMin= 1.84D-02
 ErrMax= 1.84D-02  0.00D+00 EMaxC= 1.00D-01 BMatC= 3.61D-02 BMatP= 3.61D-02
 IDIUse=3 WtCom= 8.16D-01 WtEn= 1.84D-01
 Coeff-Com:  0.100D+01
 Coeff-En:   0.100D+01
 Coeff:      0.100D+01
 Gap=     0.190 Goal=   None    Shift=    0.000
 Gap=     0.337 Goal=   None    Shift=    0.000
 GapD=    0.190 DampG=1.000 DampE=0.500 DampFc=0.5000 IDamp=-1.
 Damping current iteration by 5.00D-01
 RMSDP=5.86D-03 MaxDP=5.58D-02              OVMax= 5.74D-02

 Cycle   2  Pass 0  IDiag  1:
 E= -109.896021066310     Delta-E=       -0.005026817749 Rises=F Damp=T
 DIIS: error= 4.99D-03 at cycle   2 NSaved=   2.
 NSaved= 2 IEnMin= 2 EnMin= -109.896021066310     IErMin= 2 ErrMin= 4.99D-03
 ErrMax= 4.99D-03  0.00D+00 EMaxC= 1.00D-01 BMatC= 5.97D-03 BMatP= 3.61D-02
 IDIUse=3 WtCom= 9.50D-01 WtEn= 4.99D-02
 Coeff-Com: -0.247D+00 0.125D+01
 Coeff-En:   0.000D+00 0.100D+01
 Coeff:     -0.235D+00 0.123D+01
 Gap=     0.188 Goal=   None    Shift=    0.000
 Gap=     0.343 Goal=   None    Shift=    0.000
 RMSDP=1.66D-03 MaxDP=2.03D-02 DE=-5.03D-03 OVMax= 3.39D-02

 Cycle   3  Pass 0  IDiag  1:
 E= -109.900633023520     Delta-E=       -0.004611957211 Rises=F Damp=F
 DIIS: error= 6.32D-03 at cycle   3 NSaved=   3.
 NSaved= 3 IEnMin= 3 EnMin= -109.900633023520     IErMin= 2 ErrMin= 4.99D-03
 ErrMax= 6.32D-03  0.00D+00 EMaxC= 1.00D-01 BMatC= 2.88D-03 BMatP= 5.97D-03
 IDIUse=3 WtCom= 9.37D-01 WtEn= 6.32D-02
 Coeff-Com: -0.187D+00 0.572D+00 0.615D+00
 Coeff-En:   0.000D+00 0.000D+00 0.100D+01
 Coeff:     -0.175D+00 0.535D+00 0.640D+00
 Gap=     0.188 Goal=   None    Shift=    0.000
 Gap=     0.345 Goal=   None    Shift=    0.000
 RMSDP=1.01D-03 MaxDP=1.06D-02 DE=-4.61D-03 OVMax= 1.97D-02

 Cycle   4  Pass 0  IDiag  1:
 E= -109.900839919458     Delta-E=       -0.000206895938 Rises=F Damp=F
 DIIS: error= 6.50D-03 at cycle   4 NSaved=   4.
 NSaved= 4 IEnMin= 4 EnMin= -109.900839919458     IErMin= 2 ErrMin= 4.99D-03
 ErrMax= 6.50D-03  0.00D+00 EMaxC= 1.00D-01 BMatC= 2.48D-03 BMatP= 2.88D-03
 IDIUse=3 WtCom= 9.35D-01 WtEn= 6.50D-02
 Coeff-Com: -0.815D-01 0.109D+00 0.497D+00 0.476D+00
 Coeff-En:   0.000D+00 0.000D+00 0.426D+00 0.574D+00
 Coeff:     -0.762D-01 0.102D+00 0.492D+00 0.482D+00
 Gap=     0.190 Goal=   None    Shift=    0.000
 Gap=     0.345 Goal=   None    Shift=    0.000
 RMSDP=5.38D-04 MaxDP=7.30D-03 DE=-2.07D-04 OVMax= 1.26D-02

 Cycle   5  Pass 0  IDiag  1:
 E= -109.901362401411     Delta-E=       -0.000522481953 Rises=F Damp=F
 DIIS: error= 5.92D-04 at cycle   5 NSaved=   5.
 NSaved= 5 IEnMin= 5 EnMin= -109.901362401411     IErMin= 5 ErrMin= 5.92D-04
 ErrMax= 5.92D-04  0.00D+00 EMaxC= 1.00D-01 BMatC= 2.54D-05 BMatP= 2.48D-03
 IDIUse=3 WtCom= 9.94D-01 WtEn= 5.92D-03
 Coeff-Com:  0.173D-01-0.562D-01-0.428D-01 0.249D-01 0.106D+01
 Coeff-En:   0.000D+00 0.000D+00 0.000D+00 0.000D+00 0.100D+01
 Coeff:      0.172D-01-0.559D-01-0.425D-01 0.247D-01 0.106D+01
 Gap=     0.190 Goal=   None    Shift=    0.000
 Gap=     0.345 Goal=   None    Shift=    0.000
 RMSDP=1.57D-04 MaxDP=1.77D-03 DE=-5.22D-04 OVMax= 3.22D-03

 Cycle   6  Pass 0  IDiag  1:
 E= -109.901385028031     Delta-E=       -0.000022626620 Rises=F Damp=F
 DIIS: error= 4.35D-04 at cycle   6 NSaved=   6.
 NSaved= 6 IEnMin= 6 EnMin= -109.901385028031     IErMin= 6 ErrMin= 4.35D-04
 ErrMax= 4.35D-04  0.00D+00 EMaxC= 1.00D-01 BMatC= 4.47D-06 BMatP= 2.54D-05
 IDIUse=3 WtCom= 9.96D-01 WtEn= 4.35D-03
 Coeff-Com:  0.915D-02-0.933D-02-0.571D-01-0.752D-01-0.996D-01 0.123D+01
 Coeff-En:   0.000D+00 0.000D+00 0.000D+00 0.000D+00 0.000D+00 0.100D+01
 Coeff:      0.911D-02-0.929D-02-0.568D-01-0.748D-01-0.991D-01 0.123D+01
 Gap=     0.190 Goal=   None    Shift=    0.000
 Gap=     0.346 Goal=   None    Shift=    0.000
 RMSDP=1.03D-04 MaxDP=1.57D-03 DE=-2.26D-05 OVMax= 3.00D-03

 Cycle   7  Pass 0  IDiag  1:
 E= -109.901392281559     Delta-E=       -0.000007253528 Rises=F Damp=F
 DIIS: error= 1.95D-04 at cycle   7 NSaved=   7.
 NSaved= 7 IEnMin= 7 EnMin= -109.901392281559     IErMin= 7 ErrMin= 1.95D-04
 ErrMax= 1.95D-04  0.00D+00 EMaxC= 1.00D-01 BMatC= 9.15D-07 BMatP= 4.47D-06
 IDIUse=3 WtCom= 9.98D-01 WtEn= 1.95D-03
 Coeff-Com: -0.550D-02 0.114D-01 0.280D-01 0.196D-01-0.148D+00-0.488D+00
 Coeff-Com:  0.158D+01
 Coeff-En:   0.000D+00 0.000D+00 0.000D+00 0.000D+00 0.000D+00 0.000D+00
 Coeff-En:   0.100D+01
 Coeff:     -0.549D-02 0.114D-01 0.280D-01 0.195D-01-0.148D+00-0.487D+00
 Coeff:      0.158D+01
 Gap=     0.190 Goal=   None    Shift=    0.000
 Gap=     0.346 Goal=   None    Shift=    0.000
 RMSDP=7.03D-05 MaxDP=1.11D-03 DE=-7.25D-06 OVMax= 2.15D-03

 Cycle   8  Pass 0  IDiag  1:
 E= -109.901394387987     Delta-E=       -0.000002106428 Rises=F Damp=F
 DIIS: error= 7.55D-05 at cycle   8 NSaved=   8.
 NSaved= 8 IEnMin= 8 EnMin= -109.901394387987     IErMin= 8 ErrMin= 7.55D-05
 ErrMax= 7.55D-05  0.00D+00 EMaxC= 1.00D-01 BMatC= 1.30D-07 BMatP= 9.15D-07
 IDIUse=1 WtCom= 1.00D+00 WtEn= 0.00D+00
 Coeff-Com: -0.190D-02 0.231D-02 0.996D-02 0.161D-01 0.164D-01-0.234D+00
 Coeff-Com:  0.522D-01 0.114D+01
 Coeff:     -0.190D-02 0.231D-02 0.996D-02 0.161D-01 0.164D-01-0.234D+00
 Coeff:      0.522D-01 0.114D+01
 Gap=     0.190 Goal=   None    Shift=    0.000
 Gap=     0.346 Goal=   None    Shift=    0.000
 RMSDP=2.22D-05 MaxDP=3.48D-04 DE=-2.11D-06 OVMax= 6.67D-04

 Cycle   9  Pass 0  IDiag  1:
 E= -109.901394596673     Delta-E=       -0.000000208686 Rises=F Damp=F
 DIIS: error= 1.94D-05 at cycle   9 NSaved=   9.
 NSaved= 9 IEnMin= 9 EnMin= -109.901394596673     IErMin= 9 ErrMin= 1.94D-05
 ErrMax= 1.94D-05  0.00D+00 EMaxC= 1.00D-01 BMatC= 1.06D-08 BMatP= 1.30D-07
 IDIUse=1 WtCom= 1.00D+00 WtEn= 0.00D+00
 Coeff-Com:  0.871D-03-0.174D-02-0.520D-02-0.368D-02 0.220D-01 0.830D-01
 Coeff-Com: -0.219D+00-0.122D+00 0.125D+01
 Coeff:      0.871D-03-0.174D-02-0.520D-02-0.368D-02 0.220D-01 0.830D-01
 Coeff:     -0.219D+00-0.122D+00 0.125D+01
 Gap=     0.190 Goal=   None    Shift=    0.000
 Gap=     0.346 Goal=   None    Shift=    0.000
 RMSDP=6.55D-06 MaxDP=1.05D-04 DE=-2.09D-07 OVMax= 2.06D-04

 Initial convergence to 1.0D-05 achieved.  Increase integral accuracy.
 Cycle  10  Pass 1  IDiag  1:
 E= -109.901395618397     Delta-E=       -0.000001021724 Rises=F Damp=F
 DIIS: error= 1.82D-06 at cycle   1 NSaved=   1.
 NSaved= 1 IEnMin= 1 EnMin= -109.901395618397     IErMin= 1 ErrMin= 1.82D-06
 ErrMax= 1.82D-06  0.00D+00 EMaxC= 1.00D-01 BMatC= 3.15D-10 BMatP= 3.15D-10
 IDIUse=1 WtCom= 1.00D+00 WtEn= 0.00D+00
 Coeff-Com:  0.100D+01
 Coeff:      0.100D+01
 Gap=     0.190 Goal=   None    Shift=    0.000
 Gap=     0.346 Goal=   None    Shift=    0.000
 RMSDP=6.55D-06 MaxDP=1.05D-04 DE=-1.02D-06 OVMax= 1.63D-05

 Cycle  11  Pass 1  IDiag  1:
 E= -109.901395618508     Delta-E=       -0.000000000111 Rises=F Damp=F
 DIIS: error= 3.30D-06 at cycle   2 NSaved=   2.
 NSaved= 2 IEnMin= 2 EnMin= -109.901395618508     IErMin= 1 ErrMin= 1.82D-06
 ErrMax= 3.30D-06  0.00D+00 EMaxC= 1.00D-01 BMatC= 4.97D-10 BMatP= 3.15D-10
 IDIUse=1 WtCom= 1.00D+00 WtEn= 0.00D+00
 Coeff-Com:  0.587D+00 0.413D+00
 Coeff:      0.587D+00 0.413D+00
 Gap=     0.190 Goal=   None    Shift=    0.000
 Gap=     0.346 Goal=   None    Shift=    0.000
 RMSDP=2.93D-07 MaxDP=3.91D-06 DE=-1.11D-10 OVMax= 7.01D-06

 Cycle  12  Pass 1  IDiag  1:
 E= -109.901395618608     Delta-E=       -0.000000000100 Rises=F Damp=F
 DIIS: error= 1.22D-06 at cycle   3 NSaved=   3.
 NSaved= 3 IEnMin= 3 EnMin= -109.901395618608     IErMin= 3 ErrMin= 1.22D-06
 ErrMax= 1.22D-06  0.00D+00 EMaxC= 1.00D-01 BMatC= 6.91D-11 BMatP= 3.15D-10
 IDIUse=1 WtCom= 1.00D+00 WtEn= 0.00D+00
 Coeff-Com: -0.478D-01 0.233D+00 0.815D+00
 Coeff:     -0.478D-01 0.233D+00 0.815D+00
 Gap=     0.190 Goal=   None    Shift=    0.000
 Gap=     0.346 Goal=   None    Shift=    0.000
 RMSDP=1.74D-07 MaxDP=2.15D-06 DE=-1.00D-10 OVMax= 4.37D-06

 Cycle  13  Pass 1  IDiag  1:
 E= -109.901395618639     Delta-E=       -0.000000000031 Rises=F Damp=F
 DIIS: error= 4.94D-07 at cycle   4 NSaved=   4.
 NSaved= 4 IEnMin= 4 EnMin= -109.901395618639     IErMin= 4 ErrMin= 4.94D-07
 ErrMax= 4.94D-07  0.00D+00 EMaxC= 1.00D-01 BMatC= 7.18D-12 BMatP= 6.91D-11
 IDIUse=1 WtCom= 1.00D+00 WtEn= 0.00D+00
 Coeff-Com: -0.114D+00-0.658D-01 0.884D-01 0.109D+01
 Coeff:     -0.114D+00-0.658D-01 0.884D-01 0.109D+01
 Gap=     0.190 Goal=   None    Shift=    0.000
 Gap=     0.346 Goal=   None    Shift=    0.000
 RMSDP=1.11D-07 MaxDP=1.61D-06 DE=-3.08D-11 OVMax= 3.13D-06

 Cycle  14  Pass 1  IDiag  1:
 E= -109.901395618647     Delta-E=       -0.000000000008 Rises=F Damp=F
 DIIS: error= 2.21D-07 at cycle   5 NSaved=   5.
 NSaved= 5 IEnMin= 5 EnMin= -109.901395618647     IErMin= 5 ErrMin= 2.21D-07
 ErrMax= 2.21D-07  0.00D+00 EMaxC= 1.00D-01 BMatC= 1.34D-12 BMatP= 7.18D-12
 IDIUse=1 WtCom= 1.00D+00 WtEn= 0.00D+00
 Coeff-Com: -0.124D-01-0.283D-01-0.883D-01 0.198D+00 0.931D+00
 Coeff:     -0.124D-01-0.283D-01-0.883D-01 0.198D+00 0.931D+00
 Gap=     0.190 Goal=   None    Shift=    0.000
 Gap=     0.346 Goal=   None    Shift=    0.000
 RMSDP=4.22D-08 MaxDP=6.25D-07 DE=-7.87D-12 OVMax= 1.17D-06

 Cycle  15  Pass 1  IDiag  1:
 E= -109.901395618648     Delta-E=       -0.000000000002 Rises=F Damp=F
 DIIS: error= 1.00D-07 at cycle   6 NSaved=   6.
 NSaved= 6 IEnMin= 6 EnMin= -109.901395618648     IErMin= 6 ErrMin= 1.00D-07
 ErrMax= 1.00D-07  0.00D+00 EMaxC= 1.00D-01 BMatC= 3.64D-13 BMatP= 1.34D-12
 IDIUse=1 WtCom= 1.00D+00 WtEn= 0.00D+00
 Coeff-Com:  0.250D-01 0.128D-01-0.293D-01-0.272D+00 0.551D-01 0.121D+01
 Coeff:      0.250D-01 0.128D-01-0.293D-01-0.272D+00 0.551D-01 0.121D+01
 Gap=     0.190 Goal=   None    Shift=    0.000
 Gap=     0.346 Goal=   None    Shift=    0.000
 RMSDP=3.55D-08 MaxDP=5.30D-07 DE=-1.53D-12 OVMax= 9.70D-07

 Cycle  16  Pass 1  IDiag  1:
 E= -109.901395618649     Delta-E=       -0.000000000001 Rises=F Damp=F
 DIIS: error= 4.52D-08 at cycle   7 NSaved=   7.
 NSaved= 7 IEnMin= 7 EnMin= -109.901395618649     IErMin= 7 ErrMin= 4.52D-08
 ErrMax= 4.52D-08  0.00D+00 EMaxC= 1.00D-01 BMatC= 7.11D-14 BMatP= 3.64D-13
 IDIUse=1 WtCom= 1.00D+00 WtEn= 0.00D+00
 Coeff-Com:  0.330D-02 0.988D-02 0.258D-01-0.617D-01-0.266D+00 0.397D-01
 Coeff-Com:  0.125D+01
 Coeff:      0.330D-02 0.988D-02 0.258D-01-0.617D-01-0.266D+00 0.397D-01
 Coeff:      0.125D+01
 Gap=     0.190 Goal=   None    Shift=    0.000
 Gap=     0.346 Goal=   None    Shift=    0.000
 RMSDP=1.90D-08 MaxDP=2.86D-07 DE=-5.68D-13 OVMax= 5.57D-07

 Cycle  17  Pass 1  IDiag  1:
 E= -109.901395618649     Delta-E=       -0.000000000000 Rises=F Damp=F
 DIIS: error= 1.41D-08 at cycle   8 NSaved=   8.
 NSaved= 8 IEnMin= 8 EnMin= -109.901395618649     IErMin= 8 ErrMin= 1.41D-08
 ErrMax= 1.41D-08  0.00D+00 EMaxC= 1.00D-01 BMatC= 6.63D-15 BMatP= 7.11D-14
 IDIUse=1 WtCom= 1.00D+00 WtEn= 0.00D+00
 Coeff-Com: -0.370D-02 0.234D-03 0.266D-02 0.376D-01-0.905D-02-0.157D+00
 Coeff-Com: -0.123D-01 0.114D+01
 Coeff:     -0.370D-02 0.234D-03 0.266D-02 0.376D-01-0.905D-02-0.157D+00
 Coeff:     -0.123D-01 0.114D+01
 Gap=     0.190 Goal=   None    Shift=    0.000
 Gap=     0.346 Goal=   None    Shift=    0.000
 RMSDP=4.60D-09 MaxDP=6.76D-08 DE=-1.14D-13 OVMax= 1.31D-07

 SCF Done:  E(UPBE1PBE) =  -109.901395619     A.U. after   17 cycles
            NFock= 17  Conv=0.46D-08     -V/T= 2.0057
 <Sx>= 0.0000 <Sy>= 0.0000 <Sz>= 0.5000 <S**2>= 0.7553 S= 0.5027
 <L.S>= 0.000000000000E+00
 KE= 1.092797510423D+02 PE=-3.122198794237D+02 EE= 6.553435650474D+01
 Annihilation of the first spin contaminant:
 S**2 before annihilation     0.7553,   after     0.7500
 Leave Link  502 at Wed Oct  7 13:40:52 2020, MaxMem=  2684354560 cpu:              21.4 elap:               2.4
 (Enter /udrive/faculty/rpeverati/g16/g16/l508.exe)
 QCSCF skips out because SCF is already converged.
 Leave Link  508 at Wed Oct  7 13:40:53 2020, MaxMem=  2684354560 cpu:               0.4 elap:               0.6
 (Enter /udrive/faculty/rpeverati/g16/g16/l601.exe)
 Copying SCF densities to generalized density rwf, IOpCl= 1 IROHF=0.

 **********************************************************************

            Population analysis using the SCF density.

 **********************************************************************

 Orbital symmetries:
 Alpha Orbitals:
       Occupied  (A') (A') (A') (A') (A') (A") (A') (A')
       Virtual   (A") (A') (A') (A') (A") (A') (A') (A") (A') (A')
                 (A') (A') (A") (A') (A") (A') (A") (A') (A') (A")
                 (A') (A')
 Beta  Orbitals:
       Occupied  (A') (A') (A') (A') (A') (A") (A')
       Virtual   (A') (A") (A') (A') (A') (A") (A') (A') (A") (A')
                 (A') (A') (A') (A") (A") (A') (A') (A") (A') (A')
                 (A") (A') (A')
 The electronic state is 2-A'.
 Alpha  occ. eigenvalues --  -14.47657 -14.47131  -1.10218  -0.69748  -0.50435
 Alpha  occ. eigenvalues --   -0.43865  -0.43336  -0.22545
 Alpha virt. eigenvalues --   -0.03530   0.09286   0.39007   0.63440   0.65074
 Alpha virt. eigenvalues --    0.67298   0.70607   0.77385   0.77385   0.82640
 Alpha virt. eigenvalues --    0.95952   1.27280   1.47246   1.49313   1.51044
 Alpha virt. eigenvalues --    1.69389   1.89301   2.17215   2.40590   2.53941
 Alpha virt. eigenvalues --    2.57336   2.75313
  Beta  occ. eigenvalues --  -14.47347 -14.45432  -1.08238  -0.66716  -0.45348
  Beta  occ. eigenvalues --   -0.42967  -0.39369
  Beta virt. eigenvalues --   -0.04789  -0.02039   0.11580   0.40573   0.64317
  Beta virt. eigenvalues --    0.65533   0.70215   0.76451   0.78390   0.78952
  Beta virt. eigenvalues --    0.85852   0.97037   1.28994   1.49277   1.52105
  Beta virt. eigenvalues --    1.52450   1.74289   1.93258   2.19745   2.42469
  Beta virt. eigenvalues --    2.54743   2.60756   2.76773
          Condensed to atoms (all electrons):
               1          2          3
     1  N    6.720224   0.427127  -0.070331
     2  N    0.427127   6.611292   0.224088
     3  H   -0.070331   0.224088   0.506717
          Atomic-Atomic Spin Densities.
               1          2          3
     1  N    0.959903  -0.148245  -0.055965
     2  N   -0.148245   0.284154  -0.045664
     3  H   -0.055965  -0.045664   0.255691
 Mulliken charges and spin densities:
               1          2
     1  N   -0.077019   0.755693
     2  N   -0.262507   0.090245
     3  H    0.339526   0.154062
 Sum of Mulliken charges =  -0.00000   1.00000
 Mulliken charges and spin densities with hydrogens summed into heavy atoms:
               1          2
     1  N   -0.077019   0.755693
     2  N    0.077019   0.244307
 Electronic spatial extent (au):  <R**2>=             48.9158
 Charge=             -0.0000 electrons
 Dipole moment (field-independent basis, Debye):
    X=              1.4865    Y=             -1.2665    Z=              0.0000  Tot=              1.9528
 Quadrupole moment (field-independent basis, Debye-Ang):
   XX=            -10.6394   YY=            -11.8788   ZZ=            -11.0079
   XY=             -1.4466   XZ=              0.0000   YZ=              0.0000
 Traceless Quadrupole moment (field-independent basis, Debye-Ang):
   XX=              0.5359   YY=             -0.7034   ZZ=              0.1675
   XY=             -1.4466   XZ=              0.0000   YZ=              0.0000
 Octapole moment (field-independent basis, Debye-Ang**2):
  XXX=              1.7464  YYY=             -2.6202  ZZZ=              0.0000  XYY=              1.8434
  XXY=             -1.1475  XXZ=              0.0000  XZZ=              0.2486  YZZ=             -0.0589
  YYZ=              0.0000  XYZ=              0.0000
 Hexadecapole moment (field-independent basis, Debye-Ang**3):
 XXXX=            -11.8316 YYYY=            -37.4011 ZZZZ=             -8.9372 XXXY=              0.5219
 XXXZ=              0.0000 YYYX=              0.0640 YYYZ=              0.0000 ZZZX=              0.0000
 ZZZY=              0.0000 XXYY=             -7.7221 XXZZ=             -3.6209 YYZZ=             -7.4868
 XXYZ=              0.0000 YYXZ=              0.0000 ZZXY=              0.4630
 N-N= 2.750437625798D+01 E-N=-3.122198793556D+02  KE= 1.092797510423D+02
                          Isotropic Fermi Contact Couplings
        Atom                 a.u.       MegaHertz       Gauss      10(-4) cm-1
     1  N(14)              0.09769      31.56489      11.26314      10.52891
     2  N(14)              0.19627      63.41719      22.62883      21.15370
     3  H(1)               0.08344     372.98263     133.08948     124.41361
 --------------------------------------------------------
       Center         ----  Spin Dipole Couplings  ----
                      3XX-RR        3YY-RR        3ZZ-RR
 --------------------------------------------------------
     1   Atom        1.711958     -0.904779     -0.807179
     2   Atom        0.213233      0.079318     -0.292551
     3   Atom        0.001646      0.016263     -0.017909
 --------------------------------------------------------
                        XY            XZ            YZ
 --------------------------------------------------------
     1   Atom        0.287344      0.000000      0.000000
     2   Atom        0.336842      0.000000      0.000000
     3   Atom       -0.021763      0.000000      0.000000
 --------------------------------------------------------


 ---------------------------------------------------------------------------------
              Anisotropic Spin Dipole Couplings in Principal Axis System
 ---------------------------------------------------------------------------------

       Atom             a.u.   MegaHertz   Gauss  10(-4) cm-1        Axes

              Baa    -0.9360   -36.098   -12.881   -12.041 -0.1079  0.9942  0.0000
     1 N(14)  Bbb    -0.8072   -31.131   -11.108   -10.384  0.0000  0.0000  1.0000
              Bcc     1.7431    67.229    23.989    22.425  0.9942  0.1079  0.0000
 
              Baa    -0.2926   -11.283    -4.026    -3.764  0.0000  0.0000  1.0000
     2 N(14)  Bbb    -0.1972    -7.604    -2.713    -2.536 -0.6344  0.7730  0.0000
              Bcc     0.4897    18.887     6.739     6.300  0.7730  0.6344  0.0000
 
              Baa    -0.0179    -9.555    -3.410    -3.187  0.0000  0.0000  1.0000
     3 H(1)   Bbb    -0.0140    -7.471    -2.666    -2.492  0.8119  0.5838  0.0000
              Bcc     0.0319    17.027     6.076     5.680 -0.5838  0.8119  0.0000
 

 ---------------------------------------------------------------------------------

 No NMR shielding tensors so no spin-rotation constants.
 Leave Link  601 at Wed Oct  7 13:40:54 2020, MaxMem=  2684354560 cpu:               4.9 elap:               0.8
 (Enter /udrive/faculty/rpeverati/g16/g16/l701.exe)
 ... and contract with generalized density number  0.
 Compute integral first derivatives.
 Leave Link  701 at Wed Oct  7 13:40:55 2020, MaxMem=  2684354560 cpu:               3.4 elap:               0.7
 (Enter /udrive/faculty/rpeverati/g16/g16/l702.exe)
 L702 exits ... SP integral derivatives will be done elsewhere.
 Leave Link  702 at Wed Oct  7 13:40:56 2020, MaxMem=  2684354560 cpu:               1.4 elap:               0.8
 (Enter /udrive/faculty/rpeverati/g16/g16/l703.exe)
 Integral derivatives from FoFJK, PRISM(SPDF).
 Compute integral first derivatives, UseDBF=F ICtDFT=           0.
 Calling FoFJK, ICntrl=      2127 FMM=F ISym2X=1 I1Cent= 0 IOpClX= 1 NMat=1 NMatS=1 NMatT=0.
 FoFJK:  IHMeth= 1 ICntrl=    2127 DoSepK=F KAlg= 0 I1Cent=           0 FoldK=F
 IRaf=         0 NMat=       1 IRICut=       1 DoRegI=T DoRafI=F ISym2E= 1 IDoP0=0 IntGTp=1.
 FoFCou: FMM=F IPFlag=           0 FMFlag=      100000 FMFlg1=         800
         NFxFlg=           0 DoJE=F BraDBF=F KetDBF=F FulRan=T
         wScrn=  0.000000 ICntrl=      2127 IOpCl=  1 I1Cent=           0 NGrid=           0
         NMat0=    1 NMatS0=      1 NMatT0=    0 NMatD0=    1 NMtDS0=    0 NMtDT0=    0
 Petite list used in FoFCou.
 Leave Link  703 at Wed Oct  7 13:40:58 2020, MaxMem=  2684354560 cpu:               5.3 elap:               0.9
 (Enter /udrive/faculty/rpeverati/g16/g16/l716.exe)
 Dipole        = 5.84819137D-01-4.98267669D-01 0.00000000D+00
 ***** Axes restored to original set *****
 -------------------------------------------------------------------
 Center     Atomic                   Forces (Hartrees/Bohr)
 Number     Number              X              Y              Z
 -------------------------------------------------------------------
      1        7          -0.000433331   -0.001997422   -0.000000000
      2        7          -0.004611380    0.005055529   -0.000000000
      3        1           0.005044711   -0.003058106   -0.000000000
 -------------------------------------------------------------------
 Cartesian Forces:  Max     0.005055529 RMS     0.003087642
 Leave Link  716 at Wed Oct  7 13:40:58 2020, MaxMem=  2684354560 cpu:               1.9 elap:               0.4
 (Enter /udrive/faculty/rpeverati/g16/g16/l103.exe)

 GradGradGradGradGradGradGradGradGradGradGradGradGradGradGradGradGradGrad
 Berny optimization.
 Optmz: redundant internal coordinate code flag= 1
 FormGI is forming the generalized inverse of G from B-inverse, IUseBI=4.
 Internal  Forces:  Max     0.005878953 RMS     0.003627681
 Search for a local minimum.
 Step number   1 out of a maximum of  100
 All quantities printed in internal units (Hartrees-Bohrs-Radians)
 RMS Force = .36277D-02 SwitMx=.10000D-02 MixMth= 1
 Mixed Optimization -- RFO/linear search
 Second derivative matrix not updated -- first step.
 The second derivative matrix:
                          R1        R2        A1
           R1           1.16586
           R2           0.00000   0.40365
           A1           0.00000   0.00000   0.16000
 ITU=  0
 Eigenvectors of the second derivative matrix:
                           1         2         3
     Eigenvalues --     0.16000   0.40365   1.16586
   1         R1         0.00000   0.00000  -1.00000
   2         R2         0.00000   1.00000   0.00000
   3         A1        -1.00000   0.00000  -0.00000
 Iter=   1 RLamda= 0.00000000D+00 Sum=-9.48507507D-05.
 Iter=   2 RLamda=-9.48507507D-05 Sum=-9.48269175D-05.
 Iter=   3 RLamda=-9.48269175D-05 Sum=-9.48269234D-05.
 RFO step:  Lambda=-9.48269175D-05 EMin= 1.60000000D-01
 Linear search not attempted -- first point.
 Iteration  1 RMS(Cart)=  0.00830492 RMS(Int)=  0.00002312
 Iteration  2 RMS(Cart)=  0.00002089 RMS(Int)=  0.00000000
 Iteration  3 RMS(Cart)=  0.00000000 RMS(Int)=  0.00000000
 ITry= 1 IFail=0 DXMaxC= 9.41D-03 DCOld= 1.00D+10 DXMaxT= 3.00D-01 DXLimC= 3.00D+00 Rises=F
 ClnCor:  largest displacement from symmetrization is 0.00D+00 for atom     0.
 Variable       Old X    -DE/DX   Delta X   Delta X   Delta X     New X
                                 (Linear)    (Quad)   (Total)
    R1        2.22648  -0.00200   0.00000  -0.00171  -0.00171   2.22476
    R2        1.97760   0.00588   0.00000   0.01456   0.01456   1.99216
    A1        2.03312   0.00096   0.00000   0.00602   0.00602   2.03914
         Item               Value     Threshold  Converged?
 Maximum Force            0.005879     0.000450     NO 
 RMS     Force            0.003628     0.000300     NO 
 Maximum Displacement     0.009412     0.001800     NO 
 RMS     Displacement     0.008314     0.001200     NO 
 Predicted change in Energy=-4.742537D-05
 Lowest energy point so far.  Saving SCF results.
 Largest change from initial coordinates is atom    3       0.006 Angstoms.
 GradGradGradGradGradGradGradGradGradGradGradGradGradGradGradGradGradGrad

 Leave Link  103 at Wed Oct  7 13:40:59 2020, MaxMem=  2684354560 cpu:               2.7 elap:               0.6
 (Enter /udrive/faculty/rpeverati/g16/g16/l202.exe)
                          Input orientation:                          
 ---------------------------------------------------------------------
 Center     Atomic      Atomic             Coordinates (Angstroms)
 Number     Number       Type             X           Y           Z
 ---------------------------------------------------------------------
      1          7           0       -0.064978    0.661529    0.000000
      2          7           0       -0.063497   -0.515765    0.000000
      3          1           0        0.877787   -0.990457    0.000000
 ---------------------------------------------------------------------
                    Distance matrix (angstroms):
                    1          2          3
     1  N    0.000000
     2  N    1.177295   0.000000
     3  H    1.902068   1.054205   0.000000
 Stoichiometry    HN2(2)
 Framework group  CS[SG(HN2)]
 Deg. of freedom     3
 Full point group                 CS      NOp   2
 RotChk:  IX=0 Diff= 1.78D-03
 Largest Abelian subgroup         CS      NOp   2
 Largest concise Abelian subgroup C1      NOp   1
                         Standard orientation:                         
 ---------------------------------------------------------------------
 Center     Atomic      Atomic             Coordinates (Angstroms)
 Number     Number       Type             X           Y           Z
 ---------------------------------------------------------------------
      1          7           0       -0.062712    0.659616    0.000000
      2          7           0       -0.062712   -0.517679    0.000000
      3          1           0        0.877973   -0.993555    0.000000
 ---------------------------------------------------------------------
 Rotational constants (GHZ):         659.4893863          46.3598679          43.3149722
 Leave Link  202 at Wed Oct  7 13:41:00 2020, MaxMem=  2684354560 cpu:               1.5 elap:               0.6
 (Enter /udrive/faculty/rpeverati/g16/g16/l301.exe)
 Standard basis: 6-31G(d) (5D, 7F)
 Ernie: Thresh=  0.10000D-02 Tol=  0.10000D-05 Strict=F.
 There are    24 symmetry adapted cartesian basis functions of A'  symmetry.
 There are     8 symmetry adapted cartesian basis functions of A"  symmetry.
 There are    22 symmetry adapted basis functions of A'  symmetry.
 There are     8 symmetry adapted basis functions of A"  symmetry.
    30 basis functions,    60 primitive gaussians,    32 cartesian basis functions
     8 alpha electrons        7 beta electrons
       nuclear repulsion energy        27.4860558007 Hartrees.
 IExCor= 1009 DFT=T Ex+Corr=PBE1PBE ExCW=0 ScaHFX=  0.250000
 ScaDFX=  0.750000  0.750000  1.000000  1.000000 ScalE2=  1.000000  1.000000
 IRadAn=      5 IRanWt=     -1 IRanGd=            0 ICorTp=0 IEmpDi=  4
 NAtoms=    3 NActive=    3 NUniq=    3 SFac= 1.00D+00 NAtFMM=   60 NAOKFM=F Big=F
 Integral buffers will be    131072 words long.
 Raffenetti 2 integral format.
 Two-electron integral symmetry is turned on.
 Leave Link  301 at Wed Oct  7 13:41:01 2020, MaxMem=  2684354560 cpu:               1.8 elap:               0.6
 (Enter /udrive/faculty/rpeverati/g16/g16/l302.exe)
 NPDir=0 NMtPBC=     1 NCelOv=     1 NCel=       1 NClECP=     1 NCelD=      1
         NCelK=      1 NCelE2=     1 NClLst=     1 CellRange=     0.0.
 One-electron integrals computed using PRISM.
 One-electron integral symmetry used in STVInt
 NBasis=    30 RedAO= T EigKep=  7.28D-03  NBF=    22     8
 NBsUse=    30 1.00D-06 EigRej= -1.00D+00 NBFU=    22     8
 Precomputing XC quadrature grid using
 IXCGrd= 4 IRadAn=           5 IRanWt=          -1 IRanGd=           0 AccXCQ= 0.00D+00.
 Generated NRdTot=       0 NPtTot=           0 NUsed=           0 NTot=          32
 NSgBfM=    32    32    32    32    32 MxSgAt=     3 MxSgA2=     3.
 Leave Link  302 at Wed Oct  7 13:41:02 2020, MaxMem=  2684354560 cpu:               3.4 elap:               0.8
 (Enter /udrive/faculty/rpeverati/g16/g16/l303.exe)
 DipDrv:  MaxL=1.
 Leave Link  303 at Wed Oct  7 13:41:03 2020, MaxMem=  2684354560 cpu:               1.4 elap:               0.6
 (Enter /udrive/faculty/rpeverati/g16/g16/l401.exe)
 Initial guess from the checkpoint file:  "MN_58_hn2_BH76_PBE0_631Gs.chk"
 SCF N**3 symmetry information disabled.
 B after Tr=    -0.000000   -0.000000    0.000000
         Rot=    1.000000    0.000000   -0.000000    0.000266 Ang=   0.03 deg.
 Guess basis will be translated and rotated to current coordinates.
 JPrj=2 DoOrth=T DoCkMO=T.
 Initial guess orbital symmetries:
 Alpha Orbitals:
       Occupied  (A') (A') (A') (A') (A') (A") (A') (A')
       Virtual   (A") (A') (A') (A') (A") (A') (A') (A") (A') (A')
                 (A') (A') (A") (A') (A") (A') (A") (A') (A') (A")
                 (A') (A')
 Beta  Orbitals:
       Occupied  (A') (A') (A') (A') (A') (A") (A')
       Virtual   (A') (A") (A') (A') (A') (A") (A') (A') (A") (A')
                 (A') (A') (A') (A") (A") (A') (A') (A") (A') (A')
                 (A") (A') (A')
 The electronic state of the initial guess is 2-A'.
 Initial guess <Sx>= 0.0000 <Sy>= 0.0000 <Sz>= 0.5000 <S**2>= 0.7553 S= 0.5027
 Leave Link  401 at Wed Oct  7 13:41:04 2020, MaxMem=  2684354560 cpu:               4.7 elap:               0.8
 (Enter /udrive/faculty/rpeverati/g16/g16/l502.exe)
 Keep R1 and R2 ints in memory in symmetry-blocked form, NReq=10465801.
 FoFCou: FMM=F IPFlag=           0 FMFlag=           0 FMFlg1=           0
         NFxFlg=           0 DoJE=F BraDBF=F KetDBF=F FulRan=T
         wScrn=  0.000000 ICntrl=       600 IOpCl=  0 I1Cent=           0 NGrid=           0
         NMat0=    1 NMatS0=    465 NMatT0=    0 NMatD0=    1 NMtDS0=    0 NMtDT0=    0
 Petite list used in FoFCou.
 UHF open shell SCF:
 Using DIIS extrapolation, IDIIS=  1040.
 NGot=  2684354560 LenX=  2684235289 LenY=  2684233824
 Requested convergence on RMS density matrix=1.00D-08 within 120 cycles.
 Requested convergence on MAX density matrix=1.00D-06.
 Requested convergence on             energy=1.00D-06.
 No special actions if energy rises.

 Cycle   1  Pass 1  IDiag  1:
 E= -109.901430923960    
 DIIS: error= 5.79D-04 at cycle   1 NSaved=   1.
 NSaved= 1 IEnMin= 1 EnMin= -109.901430923960     IErMin= 1 ErrMin= 5.79D-04
 ErrMax= 5.79D-04  0.00D+00 EMaxC= 1.00D-01 BMatC= 5.03D-05 BMatP= 5.03D-05
 IDIUse=3 WtCom= 9.94D-01 WtEn= 5.79D-03
 Coeff-Com:  0.100D+01
 Coeff-En:   0.100D+01
 Coeff:      0.100D+01
 Gap=     0.190 Goal=   None    Shift=    0.000
 Gap=     0.345 Goal=   None    Shift=    0.000
 RMSDP=2.45D-04 MaxDP=3.22D-03              OVMax= 3.96D-03

 Cycle   2  Pass 1  IDiag  1:
 E= -109.901446772000     Delta-E=       -0.000015848041 Rises=F Damp=F
 DIIS: error= 6.37D-04 at cycle   2 NSaved=   2.
 NSaved= 2 IEnMin= 2 EnMin= -109.901446772000     IErMin= 1 ErrMin= 5.79D-04
 ErrMax= 6.37D-04  0.00D+00 EMaxC= 1.00D-01 BMatC= 3.16D-05 BMatP= 5.03D-05
 IDIUse=3 WtCom= 9.94D-01 WtEn= 6.37D-03
 Coeff-Com:  0.412D+00 0.588D+00
 Coeff-En:   0.000D+00 0.100D+01
 Coeff:      0.409D+00 0.591D+00
 Gap=     0.190 Goal=   None    Shift=    0.000
 Gap=     0.346 Goal=   None    Shift=    0.000
 RMSDP=1.08D-04 MaxDP=1.17D-03 DE=-1.58D-05 OVMax= 1.98D-03

 Cycle   3  Pass 1  IDiag  1:
 E= -109.901448832045     Delta-E=       -0.000002060044 Rises=F Damp=F
 DIIS: error= 5.58D-04 at cycle   3 NSaved=   3.
 NSaved= 3 IEnMin= 3 EnMin= -109.901448832045     IErMin= 3 ErrMin= 5.58D-04
 ErrMax= 5.58D-04  0.00D+00 EMaxC= 1.00D-01 BMatC= 2.20D-05 BMatP= 3.16D-05
 IDIUse=3 WtCom= 9.94D-01 WtEn= 5.58D-03
 Coeff-Com:  0.223D-02 0.453D+00 0.545D+00
 Coeff-En:   0.000D+00 0.427D+00 0.573D+00
 Coeff:      0.222D-02 0.452D+00 0.545D+00
 Gap=     0.190 Goal=   None    Shift=    0.000
 Gap=     0.346 Goal=   None    Shift=    0.000
 RMSDP=6.16D-05 MaxDP=5.26D-04 DE=-2.06D-06 OVMax= 1.01D-03

 Cycle   4  Pass 1  IDiag  1:
 E= -109.901453730650     Delta-E=       -0.000004898606 Rises=F Damp=F
 DIIS: error= 7.88D-05 at cycle   4 NSaved=   4.
 NSaved= 4 IEnMin= 4 EnMin= -109.901453730650     IErMin= 4 ErrMin= 7.88D-05
 ErrMax= 7.88D-05  0.00D+00 EMaxC= 1.00D-01 BMatC= 5.29D-07 BMatP= 2.20D-05
 IDIUse=1 WtCom= 1.00D+00 WtEn= 0.00D+00
 Coeff-Com: -0.261D-01 0.586D-01 0.174D+00 0.794D+00
 Coeff:     -0.261D-01 0.586D-01 0.174D+00 0.794D+00
 Gap=     0.190 Goal=   None    Shift=    0.000
 Gap=     0.346 Goal=   None    Shift=    0.000
 RMSDP=2.47D-05 MaxDP=3.37D-04 DE=-4.90D-06 OVMax= 3.63D-04

 Cycle   5  Pass 1  IDiag  1:
 E= -109.901453914762     Delta-E=       -0.000000184112 Rises=F Damp=F
 DIIS: error= 3.14D-05 at cycle   5 NSaved=   5.
 NSaved= 5 IEnMin= 5 EnMin= -109.901453914762     IErMin= 5 ErrMin= 3.14D-05
 ErrMax= 3.14D-05  0.00D+00 EMaxC= 1.00D-01 BMatC= 4.96D-08 BMatP= 5.29D-07
 IDIUse=1 WtCom= 1.00D+00 WtEn= 0.00D+00
 Coeff-Com: -0.522D-02-0.591D-01-0.380D-01 0.841D-01 0.102D+01
 Coeff:     -0.522D-02-0.591D-01-0.380D-01 0.841D-01 0.102D+01
 Gap=     0.190 Goal=   None    Shift=    0.000
 Gap=     0.346 Goal=   None    Shift=    0.000
 RMSDP=1.05D-05 MaxDP=1.22D-04 DE=-1.84D-07 OVMax= 1.33D-04

 Cycle   6  Pass 1  IDiag  1:
 E= -109.901453944489     Delta-E=       -0.000000029727 Rises=F Damp=F
 DIIS: error= 7.41D-06 at cycle   6 NSaved=   6.
 NSaved= 6 IEnMin= 6 EnMin= -109.901453944489     IErMin= 6 ErrMin= 7.41D-06
 ErrMax= 7.41D-06  0.00D+00 EMaxC= 1.00D-01 BMatC= 6.12D-09 BMatP= 4.96D-08
 IDIUse=1 WtCom= 1.00D+00 WtEn= 0.00D+00
 Coeff-Com:  0.379D-02-0.219D-01-0.327D-01-0.115D+00 0.266D+00 0.900D+00
 Coeff:      0.379D-02-0.219D-01-0.327D-01-0.115D+00 0.266D+00 0.900D+00
 Gap=     0.190 Goal=   None    Shift=    0.000
 Gap=     0.346 Goal=   None    Shift=    0.000
 RMSDP=3.93D-06 MaxDP=5.24D-05 DE=-2.97D-08 OVMax= 5.67D-05

 Cycle   7  Pass 1  IDiag  1:
 E= -109.901453947859     Delta-E=       -0.000000003370 Rises=F Damp=F
 DIIS: error= 2.73D-06 at cycle   7 NSaved=   7.
 NSaved= 7 IEnMin= 7 EnMin= -109.901453947859     IErMin= 7 ErrMin= 2.73D-06
 ErrMax= 2.73D-06  0.00D+00 EMaxC= 1.00D-01 BMatC= 3.02D-10 BMatP= 6.12D-09
 IDIUse=1 WtCom= 1.00D+00 WtEn= 0.00D+00
 Coeff-Com:  0.356D-03 0.204D-02-0.723D-03-0.128D-01-0.245D-01 0.704D-01
 Coeff-Com:  0.965D+00
 Coeff:      0.356D-03 0.204D-02-0.723D-03-0.128D-01-0.245D-01 0.704D-01
 Coeff:      0.965D+00
 Gap=     0.190 Goal=   None    Shift=    0.000
 Gap=     0.346 Goal=   None    Shift=    0.000
 RMSDP=5.55D-07 MaxDP=6.54D-06 DE=-3.37D-09 OVMax= 1.28D-05

 Cycle   8  Pass 1  IDiag  1:
 E= -109.901453948146     Delta-E=       -0.000000000287 Rises=F Damp=F
 DIIS: error= 1.64D-06 at cycle   8 NSaved=   8.
 NSaved= 8 IEnMin= 8 EnMin= -109.901453948146     IErMin= 8 ErrMin= 1.64D-06
 ErrMax= 1.64D-06  0.00D+00 EMaxC= 1.00D-01 BMatC= 7.15D-11 BMatP= 3.02D-10
 IDIUse=1 WtCom= 1.00D+00 WtEn= 0.00D+00
 Coeff-Com: -0.586D-03 0.238D-02 0.458D-02 0.174D-01-0.237D-01-0.141D+00
 Coeff-Com: -0.230D+00 0.137D+01
 Coeff:     -0.586D-03 0.238D-02 0.458D-02 0.174D-01-0.237D-01-0.141D+00
 Coeff:     -0.230D+00 0.137D+01
 Gap=     0.190 Goal=   None    Shift=    0.000
 Gap=     0.346 Goal=   None    Shift=    0.000
 RMSDP=4.70D-07 MaxDP=6.93D-06 DE=-2.87D-10 OVMax= 1.34D-05

 Cycle   9  Pass 1  IDiag  1:
 E= -109.901453948283     Delta-E=       -0.000000000137 Rises=F Damp=F
 DIIS: error= 8.30D-07 at cycle   9 NSaved=   9.
 NSaved= 9 IEnMin= 9 EnMin= -109.901453948283     IErMin= 9 ErrMin= 8.30D-07
 ErrMax= 8.30D-07  0.00D+00 EMaxC= 1.00D-01 BMatC= 1.66D-11 BMatP= 7.15D-11
 IDIUse=1 WtCom= 1.00D+00 WtEn= 0.00D+00
 Coeff-Com:  0.197D-03-0.190D-02-0.195D-02-0.566D-02 0.182D-01 0.550D-01
 Coeff-Com: -0.128D+00-0.730D+00 0.179D+01
 Coeff:      0.197D-03-0.190D-02-0.195D-02-0.566D-02 0.182D-01 0.550D-01
 Coeff:     -0.128D+00-0.730D+00 0.179D+01
 Gap=     0.190 Goal=   None    Shift=    0.000
 Gap=     0.346 Goal=   None    Shift=    0.000
 RMSDP=3.57D-07 MaxDP=5.65D-06 DE=-1.37D-10 OVMax= 1.08D-05

 Cycle  10  Pass 1  IDiag  1:
 E= -109.901453948322     Delta-E=       -0.000000000040 Rises=F Damp=F
 DIIS: error= 1.50D-07 at cycle  10 NSaved=  10.
 NSaved=10 IEnMin=10 EnMin= -109.901453948322     IErMin=10 ErrMin= 1.50D-07
 ErrMax= 1.50D-07  0.00D+00 EMaxC= 1.00D-01 BMatC= 6.07D-13 BMatP= 1.66D-11
 IDIUse=1 WtCom= 1.00D+00 WtEn= 0.00D+00
 Coeff-Com:  0.450D-04-0.125D-03-0.381D-03-0.128D-02 0.830D-03 0.128D-01
 Coeff-Com:  0.204D-01-0.908D-01-0.383D-01 0.110D+01
 Coeff:      0.450D-04-0.125D-03-0.381D-03-0.128D-02 0.830D-03 0.128D-01
 Coeff:      0.204D-01-0.908D-01-0.383D-01 0.110D+01
 Gap=     0.190 Goal=   None    Shift=    0.000
 Gap=     0.346 Goal=   None    Shift=    0.000
 RMSDP=4.98D-08 MaxDP=7.05D-07 DE=-3.97D-11 OVMax= 1.32D-06

 Cycle  11  Pass 1  IDiag  1:
 E= -109.901453948323     Delta-E=       -0.000000000001 Rises=F Damp=F
 DIIS: error= 1.43D-08 at cycle  11 NSaved=  11.
 NSaved=11 IEnMin=11 EnMin= -109.901453948323     IErMin=11 ErrMin= 1.43D-08
 ErrMax= 1.43D-08  0.00D+00 EMaxC= 1.00D-01 BMatC= 1.70D-14 BMatP= 6.07D-13
 IDIUse=1 WtCom= 1.00D+00 WtEn= 0.00D+00
 Coeff-Com: -0.617D-05 0.652D-04 0.595D-04 0.181D-03-0.821D-03-0.151D-02
 Coeff-Com:  0.456D-02 0.266D-01-0.727D-01 0.159D-01 0.103D+01
 Coeff:     -0.617D-05 0.652D-04 0.595D-04 0.181D-03-0.821D-03-0.151D-02
 Coeff:      0.456D-02 0.266D-01-0.727D-01 0.159D-01 0.103D+01
 Gap=     0.190 Goal=   None    Shift=    0.000
 Gap=     0.346 Goal=   None    Shift=    0.000
 RMSDP=7.27D-09 MaxDP=8.12D-08 DE=-8.53D-13 OVMax= 1.59D-07

 SCF Done:  E(UPBE1PBE) =  -109.901453948     A.U. after   11 cycles
            NFock= 11  Conv=0.73D-08     -V/T= 2.0058
 <Sx>= 0.0000 <Sy>= 0.0000 <Sz>= 0.5000 <S**2>= 0.7554 S= 0.5027
 <L.S>= 0.000000000000E+00
 KE= 1.092707362269D+02 PE=-3.121769247901D+02 EE= 6.551867881414D+01
 Annihilation of the first spin contaminant:
 S**2 before annihilation     0.7554,   after     0.7500
 Leave Link  502 at Wed Oct  7 13:41:07 2020, MaxMem=  2684354560 cpu:              19.3 elap:               2.2
 (Enter /udrive/faculty/rpeverati/g16/g16/l508.exe)
 QCSCF skips out because SCF is already converged.
 Leave Link  508 at Wed Oct  7 13:41:08 2020, MaxMem=  2684354560 cpu:               0.4 elap:               0.5
 (Enter /udrive/faculty/rpeverati/g16/g16/l701.exe)
 ... and contract with generalized density number  0.
 Compute integral first derivatives.
 Leave Link  701 at Wed Oct  7 13:41:09 2020, MaxMem=  2684354560 cpu:               3.0 elap:               0.8
 (Enter /udrive/faculty/rpeverati/g16/g16/l702.exe)
 L702 exits ... SP integral derivatives will be done elsewhere.
 Leave Link  702 at Wed Oct  7 13:41:10 2020, MaxMem=  2684354560 cpu:               1.7 elap:               0.6
 (Enter /udrive/faculty/rpeverati/g16/g16/l703.exe)
 Integral derivatives from FoFJK, PRISM(SPDF).
 Compute integral first derivatives, UseDBF=F ICtDFT=           0.
 Calling FoFJK, ICntrl=      2127 FMM=F ISym2X=1 I1Cent= 0 IOpClX= 1 NMat=1 NMatS=1 NMatT=0.
 FoFJK:  IHMeth= 1 ICntrl=    2127 DoSepK=F KAlg= 0 I1Cent=           0 FoldK=F
 IRaf=         0 NMat=       1 IRICut=       1 DoRegI=T DoRafI=F ISym2E= 1 IDoP0=0 IntGTp=1.
 FoFCou: FMM=F IPFlag=           0 FMFlag=      100000 FMFlg1=         800
         NFxFlg=           0 DoJE=F BraDBF=F KetDBF=F FulRan=T
         wScrn=  0.000000 ICntrl=      2127 IOpCl=  1 I1Cent=           0 NGrid=           0
         NMat0=    1 NMatS0=      1 NMatT0=    0 NMatD0=    1 NMtDS0=    0 NMtDT0=    0
 Petite list used in FoFCou.
 Leave Link  703 at Wed Oct  7 13:41:11 2020, MaxMem=  2684354560 cpu:               7.7 elap:               1.2
 (Enter /udrive/faculty/rpeverati/g16/g16/l716.exe)
 Dipole        = 5.81246642D-01-4.99555322D-01 0.00000000D+00
 ***** Axes restored to original set *****
 -------------------------------------------------------------------
 Center     Atomic                   Forces (Hartrees/Bohr)
 Number     Number              X              Y              Z
 -------------------------------------------------------------------
      1        7           0.000061183   -0.001861748   -0.000000000
      2        7          -0.001330443    0.002427314   -0.000000000
      3        1           0.001269261   -0.000565565   -0.000000000
 -------------------------------------------------------------------
 Cartesian Forces:  Max     0.002427314 RMS     0.001204744
 Leave Link  716 at Wed Oct  7 13:41:12 2020, MaxMem=  2684354560 cpu:               1.6 elap:               0.6
 (Enter /udrive/faculty/rpeverati/g16/g16/l103.exe)

 GradGradGradGradGradGradGradGradGradGradGradGradGradGradGradGradGradGrad
 Berny optimization.
 Optmz: redundant internal coordinate code flag= 1
 Using GEDIIS/GDIIS optimizer.
 Red2BG:  D1=  6.91D-01 OD1=  2.36D-03 B2RMS=  0.00D+00 IAprox=0
 FormGI is forming the generalized inverse of G from B-inverse, IUseBI=4.
 Internal  Forces:  Max     0.001861689 RMS     0.001342795
 Search for a local minimum.
 Step number   2 out of a maximum of  100
 All quantities printed in internal units (Hartrees-Bohrs-Radians)
 RMS Force = .13428D-02 SwitMx=.10000D-02 MixMth= 1
 Mixed Optimization -- RFO/linear search
 Update second derivatives using D2CorX and points    1    2
 DE= -5.83D-05 DEPred=-4.74D-05 R= 1.23D+00
 TightC=F SS=  1.41D+00  RLast= 1.58D-02 DXNew= 5.0454D-01 4.7548D-02
 Trust test= 1.23D+00 RLast= 1.58D-02 DXMaxT set to 3.00D-01
 The second derivative matrix:
                          R1        R2        A1
           R1           1.12404
           R2           0.11539   0.31853
           A1           0.01824   0.00841   0.16683
 ITU=  1  0
 Use linear search instead of GDIIS.
 Eigenvectors of the second derivative matrix:
                           1         2         3
     Eigenvalues --     0.16621   0.30258   1.14063
   1         R1        -0.01362   0.13990   0.99007
   2         R2        -0.04484  -0.98925   0.13916
   3         A1         0.99890  -0.04250   0.01974
 Iter=   1 RLamda= 0.00000000D+00 Sum=-4.21241585D-06.
 Iter=   2 RLamda=-4.21241585D-06 Sum=-4.21237357D-06.
 RFO step:  Lambda=-4.21241585D-06 EMin= 1.66207667D-01
 Quartic linear search produced a step of  0.32672.
 Iteration  1 RMS(Cart)=  0.00222563 RMS(Int)=  0.00000119
 Iteration  2 RMS(Cart)=  0.00000100 RMS(Int)=  0.00000000
 ITry= 1 IFail=0 DXMaxC= 2.29D-03 DCOld= 1.00D+10 DXMaxT= 3.00D-01 DXLimC= 3.00D+00 Rises=F
 ClnCor:  largest displacement from symmetrization is 1.91D-15 for atom     3.
 Variable       Old X    -DE/DX   Delta X   Delta X   Delta X     New X
                                 (Linear)    (Quad)   (Total)
    R1        2.22476  -0.00186  -0.00056  -0.00164  -0.00220   2.22256
    R2        1.99216   0.00139   0.00476   0.00060   0.00535   1.99751
    A1        2.03914  -0.00013   0.00197  -0.00264  -0.00068   2.03846
         Item               Value     Threshold  Converged?
 Maximum Force            0.001862     0.000450     NO 
 RMS     Force            0.001343     0.000300     NO 
 Maximum Displacement     0.002286     0.001800     NO 
 RMS     Displacement     0.002226     0.001200     NO 
 Predicted change in Energy=-5.653942D-06
 Lowest energy point so far.  Saving SCF results.
 Largest change from initial coordinates is atom    3       0.010 Angstoms.
 GradGradGradGradGradGradGradGradGradGradGradGradGradGradGradGradGradGrad

 Leave Link  103 at Wed Oct  7 13:41:13 2020, MaxMem=  2684354560 cpu:               1.7 elap:               0.7
 (Enter /udrive/faculty/rpeverati/g16/g16/l202.exe)
                          Input orientation:                          
 ---------------------------------------------------------------------
 Center     Atomic      Atomic             Coordinates (Angstroms)
 Number     Number       Type             X           Y           Z
 ---------------------------------------------------------------------
      1          7           0       -0.065010    0.661272    0.000000
      2          7           0       -0.064675   -0.514858    0.000000
      3          1           0        0.878996   -0.991106    0.000000
 ---------------------------------------------------------------------
                    Distance matrix (angstroms):
                    1          2          3
     1  N    0.000000
     2  N    1.176130   0.000000
     3  H    1.903024   1.057037   0.000000
 Stoichiometry    HN2(2)
 Framework group  CS[SG(HN2)]
 Deg. of freedom     3
 Full point group                 CS      NOp   2
 RotChk:  IX=0 Diff= 1.38D-03
 Largest Abelian subgroup         CS      NOp   2
 Largest concise Abelian subgroup C1      NOp   1
                         Standard orientation:                         
 ---------------------------------------------------------------------
 Center     Atomic      Atomic             Coordinates (Angstroms)
 Number     Number       Type             X           Y           Z
 ---------------------------------------------------------------------
      1          7           0       -0.062902    0.659037    0.000000
      2          7           0       -0.062902   -0.517093    0.000000
      3          1           0        0.880634   -0.993609    0.000000
 ---------------------------------------------------------------------
 Rotational constants (GHZ):         655.7096241          46.4376630          43.3664320
 Leave Link  202 at Wed Oct  7 13:41:14 2020, MaxMem=  2684354560 cpu:               0.8 elap:               0.4
 (Enter /udrive/faculty/rpeverati/g16/g16/l301.exe)
 Standard basis: 6-31G(d) (5D, 7F)
 Ernie: Thresh=  0.10000D-02 Tol=  0.10000D-05 Strict=F.
 There are    24 symmetry adapted cartesian basis functions of A'  symmetry.
 There are     8 symmetry adapted cartesian basis functions of A"  symmetry.
 There are    22 symmetry adapted basis functions of A'  symmetry.
 There are     8 symmetry adapted basis functions of A"  symmetry.
    30 basis functions,    60 primitive gaussians,    32 cartesian basis functions
     8 alpha electrons        7 beta electrons
       nuclear repulsion energy        27.4974703326 Hartrees.
 IExCor= 1009 DFT=T Ex+Corr=PBE1PBE ExCW=0 ScaHFX=  0.250000
 ScaDFX=  0.750000  0.750000  1.000000  1.000000 ScalE2=  1.000000  1.000000
 IRadAn=      5 IRanWt=     -1 IRanGd=            0 ICorTp=0 IEmpDi=  4
 NAtoms=    3 NActive=    3 NUniq=    3 SFac= 1.00D+00 NAtFMM=   60 NAOKFM=F Big=F
 Integral buffers will be    131072 words long.
 Raffenetti 2 integral format.
 Two-electron integral symmetry is turned on.
 Leave Link  301 at Wed Oct  7 13:41:15 2020, MaxMem=  2684354560 cpu:               1.6 elap:               0.6
 (Enter /udrive/faculty/rpeverati/g16/g16/l302.exe)
 NPDir=0 NMtPBC=     1 NCelOv=     1 NCel=       1 NClECP=     1 NCelD=      1
         NCelK=      1 NCelE2=     1 NClLst=     1 CellRange=     0.0.
 One-electron integrals computed using PRISM.
 One-electron integral symmetry used in STVInt
 NBasis=    30 RedAO= T EigKep=  7.25D-03  NBF=    22     8
 NBsUse=    30 1.00D-06 EigRej= -1.00D+00 NBFU=    22     8
 Precomputing XC quadrature grid using
 IXCGrd= 4 IRadAn=           5 IRanWt=          -1 IRanGd=           0 AccXCQ= 0.00D+00.
 Generated NRdTot=       0 NPtTot=           0 NUsed=           0 NTot=          32
 NSgBfM=    32    32    32    32    32 MxSgAt=     3 MxSgA2=     3.
 Leave Link  302 at Wed Oct  7 13:41:16 2020, MaxMem=  2684354560 cpu:               3.2 elap:               0.6
 (Enter /udrive/faculty/rpeverati/g16/g16/l303.exe)
 DipDrv:  MaxL=1.
 Leave Link  303 at Wed Oct  7 13:41:17 2020, MaxMem=  2684354560 cpu:               1.7 elap:               0.6
 (Enter /udrive/faculty/rpeverati/g16/g16/l401.exe)
 Initial guess from the checkpoint file:  "MN_58_hn2_BH76_PBE0_631Gs.chk"
 SCF N**3 symmetry information disabled.
 B after Tr=     0.000000    0.000000    0.000000
         Rot=    1.000000    0.000000    0.000000   -0.000207 Ang=  -0.02 deg.
 Guess basis will be translated and rotated to current coordinates.
 JPrj=2 DoOrth=T DoCkMO=T.
 Initial guess orbital symmetries:
 Alpha Orbitals:
       Occupied  (A') (A') (A') (A') (A') (A") (A') (A')
       Virtual   (A") (A') (A') (A') (A") (A') (A') (A") (A') (A')
                 (A') (A') (A") (A') (A") (A') (A") (A') (A') (A")
                 (A') (A')
 Beta  Orbitals:
       Occupied  (A') (A') (A') (A') (A') (A") (A')
       Virtual   (A') (A") (A') (A') (A') (A") (A') (A') (A") (A')
                 (A') (A') (A') (A") (A") (A') (A') (A") (A') (A')
                 (A") (A') (A')
 The electronic state of the initial guess is 2-A'.
 Initial guess <Sx>= 0.0000 <Sy>= 0.0000 <Sz>= 0.5000 <S**2>= 0.7554 S= 0.5027
 Leave Link  401 at Wed Oct  7 13:41:18 2020, MaxMem=  2684354560 cpu:               4.3 elap:               1.0
 (Enter /udrive/faculty/rpeverati/g16/g16/l502.exe)
 Keep R1 and R2 ints in memory in symmetry-blocked form, NReq=10465801.
 FoFCou: FMM=F IPFlag=           0 FMFlag=           0 FMFlg1=           0
         NFxFlg=           0 DoJE=F BraDBF=F KetDBF=F FulRan=T
         wScrn=  0.000000 ICntrl=       600 IOpCl=  0 I1Cent=           0 NGrid=           0
         NMat0=    1 NMatS0=    465 NMatT0=    0 NMatD0=    1 NMtDS0=    0 NMtDT0=    0
 Petite list used in FoFCou.
 UHF open shell SCF:
 Using DIIS extrapolation, IDIIS=  1040.
 NGot=  2684354560 LenX=  2684235289 LenY=  2684233824
 Requested convergence on RMS density matrix=1.00D-08 within 120 cycles.
 Requested convergence on MAX density matrix=1.00D-06.
 Requested convergence on             energy=1.00D-06.
 No special actions if energy rises.

 Cycle   1  Pass 1  IDiag  1:
 E= -109.901455314940    
 DIIS: error= 2.31D-04 at cycle   1 NSaved=   1.
 NSaved= 1 IEnMin= 1 EnMin= -109.901455314940     IErMin= 1 ErrMin= 2.31D-04
 ErrMax= 2.31D-04  0.00D+00 EMaxC= 1.00D-01 BMatC= 8.79D-06 BMatP= 8.79D-06
 IDIUse=3 WtCom= 9.98D-01 WtEn= 2.31D-03
 Coeff-Com:  0.100D+01
 Coeff-En:   0.100D+01
 Coeff:      0.100D+01
 Gap=     0.190 Goal=   None    Shift=    0.000
 Gap=     0.346 Goal=   None    Shift=    0.000
 RMSDP=1.00D-04 MaxDP=1.31D-03              OVMax= 1.65D-03

 Cycle   2  Pass 1  IDiag  1:
 E= -109.901458693086     Delta-E=       -0.000003378146 Rises=F Damp=F
 DIIS: error= 2.23D-04 at cycle   2 NSaved=   2.
 NSaved= 2 IEnMin= 2 EnMin= -109.901458693086     IErMin= 2 ErrMin= 2.23D-04
 ErrMax= 2.23D-04  0.00D+00 EMaxC= 1.00D-01 BMatC= 3.70D-06 BMatP= 8.79D-06
 IDIUse=3 WtCom= 9.98D-01 WtEn= 2.23D-03
 Coeff-Com:  0.327D+00 0.673D+00
 Coeff-En:   0.000D+00 0.100D+01
 Coeff:      0.326D+00 0.674D+00
 Gap=     0.190 Goal=   None    Shift=    0.000
 Gap=     0.346 Goal=   None    Shift=    0.000
 RMSDP=4.66D-05 MaxDP=4.42D-04 DE=-3.38D-06 OVMax= 7.85D-04

 Cycle   3  Pass 1  IDiag  1:
 E= -109.901458593963     Delta-E=        0.000000099123 Rises=F Damp=F
 DIIS: error= 2.57D-04 at cycle   3 NSaved=   3.
 NSaved= 3 IEnMin= 2 EnMin= -109.901458693086     IErMin= 2 ErrMin= 2.23D-04
 ErrMax= 2.57D-04  0.00D+00 EMaxC= 1.00D-01 BMatC= 4.56D-06 BMatP= 3.70D-06
 IDIUse=3 WtCom= 3.84D-01 WtEn= 6.16D-01
 Coeff-Com: -0.302D-01 0.537D+00 0.493D+00
 Coeff-En:   0.000D+00 0.522D+00 0.478D+00
 Coeff:     -0.116D-01 0.528D+00 0.484D+00
 Gap=     0.190 Goal=   None    Shift=    0.000
 Gap=     0.346 Goal=   None    Shift=    0.000
 RMSDP=2.57D-05 MaxDP=2.29D-04 DE= 9.91D-08 OVMax= 4.44D-04

 Cycle   4  Pass 1  IDiag  1:
 E= -109.901459591797     Delta-E=       -0.000000997834 Rises=F Damp=F
 DIIS: error= 2.21D-05 at cycle   4 NSaved=   4.
 NSaved= 4 IEnMin= 4 EnMin= -109.901459591797     IErMin= 4 ErrMin= 2.21D-05
 ErrMax= 2.21D-05  0.00D+00 EMaxC= 1.00D-01 BMatC= 4.94D-08 BMatP= 3.70D-06
 IDIUse=1 WtCom= 1.00D+00 WtEn= 0.00D+00
 Coeff-Com: -0.225D-01-0.269D-01 0.611D-01 0.988D+00
 Coeff:     -0.225D-01-0.269D-01 0.611D-01 0.988D+00
 Gap=     0.190 Goal=   None    Shift=    0.000
 Gap=     0.346 Goal=   None    Shift=    0.000
 RMSDP=9.47D-06 MaxDP=1.27D-04 DE=-9.98D-07 OVMax= 1.37D-04

 Cycle   5  Pass 1  IDiag  1:
 E= -109.901459615612     Delta-E=       -0.000000023815 Rises=F Damp=F
 DIIS: error= 6.12D-06 at cycle   5 NSaved=   5.
 NSaved= 5 IEnMin= 5 EnMin= -109.901459615612     IErMin= 5 ErrMin= 6.12D-06
 ErrMax= 6.12D-06  0.00D+00 EMaxC= 1.00D-01 BMatC= 3.23D-09 BMatP= 4.94D-08
 IDIUse=1 WtCom= 1.00D+00 WtEn= 0.00D+00
 Coeff-Com:  0.626D-02-0.601D-01-0.494D-01-0.633D-01 0.117D+01
 Coeff:      0.626D-02-0.601D-01-0.494D-01-0.633D-01 0.117D+01
 Gap=     0.190 Goal=   None    Shift=    0.000
 Gap=     0.346 Goal=   None    Shift=    0.000
 RMSDP=4.44D-06 MaxDP=6.18D-05 DE=-2.38D-08 OVMax= 6.61D-05

 Cycle   6  Pass 1  IDiag  1:
 E= -109.901459618391     Delta-E=       -0.000000002779 Rises=F Damp=F
 DIIS: error= 2.46D-06 at cycle   6 NSaved=   6.
 NSaved= 6 IEnMin= 6 EnMin= -109.901459618391     IErMin= 6 ErrMin= 2.46D-06
 ErrMax= 2.46D-06  0.00D+00 EMaxC= 1.00D-01 BMatC= 4.56D-10 BMatP= 3.23D-09
 IDIUse=1 WtCom= 1.00D+00 WtEn= 0.00D+00
 Coeff-Com:  0.273D-02-0.156D-01-0.202D-01-0.966D-01 0.347D+00 0.783D+00
 Coeff:      0.273D-02-0.156D-01-0.202D-01-0.966D-01 0.347D+00 0.783D+00
 Gap=     0.190 Goal=   None    Shift=    0.000
 Gap=     0.346 Goal=   None    Shift=    0.000
 RMSDP=5.90D-07 MaxDP=4.23D-06 DE=-2.78D-09 OVMax= 8.58D-06

 Cycle   7  Pass 1  IDiag  1:
 E= -109.901459618586     Delta-E=       -0.000000000195 Rises=F Damp=F
 DIIS: error= 7.77D-07 at cycle   7 NSaved=   7.
 NSaved= 7 IEnMin= 7 EnMin= -109.901459618586     IErMin= 7 ErrMin= 7.77D-07
 ErrMax= 7.77D-07  0.00D+00 EMaxC= 1.00D-01 BMatC= 4.41D-11 BMatP= 4.56D-10
 IDIUse=1 WtCom= 1.00D+00 WtEn= 0.00D+00
 Coeff-Com: -0.922D-04 0.406D-02 0.195D-02-0.870D-02-0.570D-01 0.162D+00
 Coeff-Com:  0.898D+00
 Coeff:     -0.922D-04 0.406D-02 0.195D-02-0.870D-02-0.570D-01 0.162D+00
 Coeff:      0.898D+00
 Gap=     0.190 Goal=   None    Shift=    0.000
 Gap=     0.346 Goal=   None    Shift=    0.000
 RMSDP=1.75D-07 MaxDP=2.61D-06 DE=-1.95D-10 OVMax= 4.51D-06

 Cycle   8  Pass 1  IDiag  1:
 E= -109.901459618618     Delta-E=       -0.000000000032 Rises=F Damp=F
 DIIS: error= 5.33D-07 at cycle   8 NSaved=   8.
 NSaved= 8 IEnMin= 8 EnMin= -109.901459618618     IErMin= 8 ErrMin= 5.33D-07
 ErrMax= 5.33D-07  0.00D+00 EMaxC= 1.00D-01 BMatC= 7.85D-12 BMatP= 4.41D-11
 IDIUse=1 WtCom= 1.00D+00 WtEn= 0.00D+00
 Coeff-Com: -0.369D-03 0.187D-02 0.268D-02 0.134D-01-0.453D-01-0.888D-01
 Coeff-Com: -0.665D-02 0.112D+01
 Coeff:     -0.369D-03 0.187D-02 0.268D-02 0.134D-01-0.453D-01-0.888D-01
 Coeff:     -0.665D-02 0.112D+01
 Gap=     0.190 Goal=   None    Shift=    0.000
 Gap=     0.346 Goal=   None    Shift=    0.000
 RMSDP=1.28D-07 MaxDP=1.87D-06 DE=-3.17D-11 OVMax= 3.59D-06

 Cycle   9  Pass 1  IDiag  1:
 E= -109.901459618630     Delta-E=       -0.000000000013 Rises=F Damp=F
 DIIS: error= 2.97D-07 at cycle   9 NSaved=   9.
 NSaved= 9 IEnMin= 9 EnMin= -109.901459618630     IErMin= 9 ErrMin= 2.97D-07
 ErrMax= 2.97D-07  0.00D+00 EMaxC= 1.00D-01 BMatC= 2.32D-12 BMatP= 7.85D-12
 IDIUse=1 WtCom= 1.00D+00 WtEn= 0.00D+00
 Coeff-Com:  0.203D-03-0.216D-02-0.172D-02-0.343D-02 0.372D-01-0.883D-02
 Coeff-Com: -0.261D+00-0.511D+00 0.175D+01
 Coeff:      0.203D-03-0.216D-02-0.172D-02-0.343D-02 0.372D-01-0.883D-02
 Coeff:     -0.261D+00-0.511D+00 0.175D+01
 Gap=     0.190 Goal=   None    Shift=    0.000
 Gap=     0.346 Goal=   None    Shift=    0.000
 RMSDP=1.24D-07 MaxDP=1.93D-06 DE=-1.26D-11 OVMax= 3.73D-06

 Cycle  10  Pass 1  IDiag  1:
 E= -109.901459618636     Delta-E=       -0.000000000005 Rises=F Damp=F
 DIIS: error= 6.37D-08 at cycle  10 NSaved=  10.
 NSaved=10 IEnMin=10 EnMin= -109.901459618636     IErMin=10 ErrMin= 6.37D-08
 ErrMax= 6.37D-08  0.00D+00 EMaxC= 1.00D-01 BMatC= 1.32D-13 BMatP= 2.32D-12
 IDIUse=1 WtCom= 1.00D+00 WtEn= 0.00D+00
 Coeff-Com:  0.401D-04-0.158D-03-0.360D-03-0.225D-02 0.606D-02 0.120D-01
 Coeff-Com:  0.178D-01-0.142D+00-0.636D-01 0.117D+01
 Coeff:      0.401D-04-0.158D-03-0.360D-03-0.225D-02 0.606D-02 0.120D-01
 Coeff:      0.178D-01-0.142D+00-0.636D-01 0.117D+01
 Gap=     0.190 Goal=   None    Shift=    0.000
 Gap=     0.346 Goal=   None    Shift=    0.000
 RMSDP=2.87D-08 MaxDP=4.09D-07 DE=-5.49D-12 OVMax= 7.70D-07

 Cycle  11  Pass 1  IDiag  1:
 E= -109.901459618636     Delta-E=       -0.000000000000 Rises=F Damp=F
 DIIS: error= 4.56D-09 at cycle  11 NSaved=  11.
 NSaved=11 IEnMin=11 EnMin= -109.901459618636     IErMin=11 ErrMin= 4.56D-09
 ErrMax= 4.56D-09  0.00D+00 EMaxC= 1.00D-01 BMatC= 2.11D-15 BMatP= 1.32D-13
 IDIUse=1 WtCom= 1.00D+00 WtEn= 0.00D+00
 Coeff-Com: -0.332D-05 0.639D-04 0.397D-04-0.901D-04-0.788D-03 0.847D-03
 Coeff-Com:  0.101D-01 0.638D-02-0.613D-01 0.752D-01 0.970D+00
 Coeff:     -0.332D-05 0.639D-04 0.397D-04-0.901D-04-0.788D-03 0.847D-03
 Coeff:      0.101D-01 0.638D-02-0.613D-01 0.752D-01 0.970D+00
 Gap=     0.190 Goal=   None    Shift=    0.000
 Gap=     0.346 Goal=   None    Shift=    0.000
 RMSDP=2.04D-09 MaxDP=2.58D-08 DE=-2.27D-13 OVMax= 4.72D-08

 SCF Done:  E(UPBE1PBE) =  -109.901459619     A.U. after   11 cycles
            NFock= 11  Conv=0.20D-08     -V/T= 2.0058
 <Sx>= 0.0000 <Sy>= 0.0000 <Sz>= 0.5000 <S**2>= 0.7554 S= 0.5027
 <L.S>= 0.000000000000E+00
 KE= 1.092716584594D+02 PE=-3.121997031040D+02 EE= 6.552911469332D+01
 Annihilation of the first spin contaminant:
 S**2 before annihilation     0.7554,   after     0.7500
 Leave Link  502 at Wed Oct  7 13:41:21 2020, MaxMem=  2684354560 cpu:              18.3 elap:               2.4
 (Enter /udrive/faculty/rpeverati/g16/g16/l508.exe)
 QCSCF skips out because SCF is already converged.
 Leave Link  508 at Wed Oct  7 13:41:22 2020, MaxMem=  2684354560 cpu:               0.5 elap:               0.6
 (Enter /udrive/faculty/rpeverati/g16/g16/l701.exe)
 ... and contract with generalized density number  0.
 Compute integral first derivatives.
 Leave Link  701 at Wed Oct  7 13:41:23 2020, MaxMem=  2684354560 cpu:               3.3 elap:               0.8
 (Enter /udrive/faculty/rpeverati/g16/g16/l702.exe)
 L702 exits ... SP integral derivatives will be done elsewhere.
 Leave Link  702 at Wed Oct  7 13:41:24 2020, MaxMem=  2684354560 cpu:               1.5 elap:               0.6
 (Enter /udrive/faculty/rpeverati/g16/g16/l703.exe)
 Integral derivatives from FoFJK, PRISM(SPDF).
 Compute integral first derivatives, UseDBF=F ICtDFT=           0.
 Calling FoFJK, ICntrl=      2127 FMM=F ISym2X=1 I1Cent= 0 IOpClX= 1 NMat=1 NMatS=1 NMatT=0.
 FoFJK:  IHMeth= 1 ICntrl=    2127 DoSepK=F KAlg= 0 I1Cent=           0 FoldK=F
 IRaf=         0 NMat=       1 IRICut=       1 DoRegI=T DoRafI=F ISym2E= 1 IDoP0=0 IntGTp=1.
 FoFCou: FMM=F IPFlag=           0 FMFlag=      100000 FMFlg1=         800
         NFxFlg=           0 DoJE=F BraDBF=F KetDBF=F FulRan=T
         wScrn=  0.000000 ICntrl=      2127 IOpCl=  1 I1Cent=           0 NGrid=           0
         NMat0=    1 NMatS0=      1 NMatT0=    0 NMatD0=    1 NMtDS0=    0 NMtDT0=    0
 Petite list used in FoFCou.
 Leave Link  703 at Wed Oct  7 13:41:25 2020, MaxMem=  2684354560 cpu:               4.5 elap:               0.8
 (Enter /udrive/faculty/rpeverati/g16/g16/l716.exe)
 Dipole        = 5.79798556D-01-4.98274259D-01 0.00000000D+00
 ***** Axes restored to original set *****
 -------------------------------------------------------------------
 Center     Atomic                   Forces (Hartrees/Bohr)
 Number     Number              X              Y              Z
 -------------------------------------------------------------------
      1        7          -0.000037481    0.000043671   -0.000000000
      2        7           0.000070586   -0.000014564   -0.000000000
      3        1          -0.000033104   -0.000029107   -0.000000000
 -------------------------------------------------------------------
 Cartesian Forces:  Max     0.000070586 RMS     0.000034074
 Leave Link  716 at Wed Oct  7 13:41:26 2020, MaxMem=  2684354560 cpu:               1.5 elap:               0.5
 (Enter /udrive/faculty/rpeverati/g16/g16/l103.exe)

 GradGradGradGradGradGradGradGradGradGradGradGradGradGradGradGradGradGrad
 Berny optimization.
 Optmz: redundant internal coordinate code flag= 1
 Using GEDIIS/GDIIS optimizer.
 Red2BG:  D1=  6.90D-01 OD1=  1.54D-03 B2RMS=  0.00D+00 IAprox=0
 FormGI is forming the generalized inverse of G from B-inverse, IUseBI=4.
 Internal  Forces:  Max     0.000082419 RMS     0.000054734
 Search for a local minimum.
 Step number   3 out of a maximum of  100
 All quantities printed in internal units (Hartrees-Bohrs-Radians)
 RMS Force = .54734D-04 SwitMx=.10000D-02 MixMth= 2
 Mixed Optimization -- En-DIIS/RFO-DIIS
 Update second derivatives using D2CorX and points    1    2    3
 DE= -5.67D-06 DEPred=-5.65D-06 R= 1.00D+00
 TightC=F SS=  1.41D+00  RLast= 5.83D-03 DXNew= 5.0454D-01 1.7481D-02
 Trust test= 1.00D+00 RLast= 5.83D-03 DXMaxT set to 3.00D-01
 The second derivative matrix:
                          R1        R2        A1
           R1           1.13581
           R2           0.11513   0.30903
           A1           0.03271  -0.00538   0.16773
 ITU=  1  1  0
 Use linear search instead of GDIIS.
 Eigenvectors of the second derivative matrix:
                           1         2         3
     Eigenvalues --     0.16596   0.29404   1.15256
   1         R1        -0.04207   0.13221   0.99033
   2         R2         0.07130  -0.98828   0.13496
   3         A1         0.99657   0.07629   0.03215
 Iter=   1 RLamda= 0.00000000D+00 Sum=-3.72349984D-08.
 Iter=   2 RLamda=-3.72349984D-08 Sum=-3.72349901D-08.
 RFO step:  Lambda=-3.72349984D-08 EMin= 1.65964700D-01
 Quartic linear search produced a step of -0.02049.
 Iteration  1 RMS(Cart)=  0.00029533 RMS(Int)=  0.00000005
 Iteration  2 RMS(Cart)=  0.00000005 RMS(Int)=  0.00000000
 ITry= 1 IFail=0 DXMaxC= 2.96D-04 DCOld= 1.00D+10 DXMaxT= 3.00D-01 DXLimC= 3.00D+00 Rises=F
 ClnCor:  largest displacement from symmetrization is 1.39D-17 for atom     1.
 Variable       Old X    -DE/DX   Delta X   Delta X   Delta X     New X
                                 (Linear)    (Quad)   (Total)
    R1        2.22256   0.00004   0.00005  -0.00001   0.00003   2.22259
    R2        1.99751  -0.00002  -0.00011   0.00005  -0.00006   1.99745
    A1        2.03846   0.00008   0.00001   0.00047   0.00048   2.03895
         Item               Value     Threshold  Converged?
 Maximum Force            0.000082     0.000450     YES
 RMS     Force            0.000055     0.000300     YES
 Maximum Displacement     0.000296     0.001800     YES
 RMS     Displacement     0.000295     0.001200     YES
 Predicted change in Energy=-2.106518D-08
 Optimization completed.
    -- Stationary point found.
                           ----------------------------
                           !   Optimized Parameters   !
                           ! (Angstroms and Degrees)  !
 --------------------------                            --------------------------
 ! Name  Definition              Value          Derivative Info.                !
 --------------------------------------------------------------------------------
 ! R1    R(1,2)                  1.1761         -DE/DX =    0.0                 !
 ! R2    R(2,3)                  1.057          -DE/DX =    0.0                 !
 ! A1    A(1,2,3)              116.7953         -DE/DX =    0.0001              !
 --------------------------------------------------------------------------------
 Lowest energy point so far.  Saving SCF results.
 Largest change from initial coordinates is atom    3       0.010 Angstoms.
 GradGradGradGradGradGradGradGradGradGradGradGradGradGradGradGradGradGrad

 Leave Link  103 at Wed Oct  7 13:41:27 2020, MaxMem=  2684354560 cpu:               1.1 elap:               0.7
 (Enter /udrive/faculty/rpeverati/g16/g16/l202.exe)
                          Input orientation:                          
 ---------------------------------------------------------------------
 Center     Atomic      Atomic             Coordinates (Angstroms)
 Number     Number       Type             X           Y           Z
 ---------------------------------------------------------------------
      1          7           0       -0.065010    0.661272    0.000000
      2          7           0       -0.064675   -0.514858    0.000000
      3          1           0        0.878996   -0.991106    0.000000
 ---------------------------------------------------------------------
                    Distance matrix (angstroms):
                    1          2          3
     1  N    0.000000
     2  N    1.176130   0.000000
     3  H    1.903024   1.057037   0.000000
 Stoichiometry    HN2(2)
 Framework group  CS[SG(HN2)]
 Deg. of freedom     3
 Full point group                 CS      NOp   2
 RotChk:  IX=0 Diff= 0.00D+00
 Largest Abelian subgroup         CS      NOp   2
 Largest concise Abelian subgroup C1      NOp   1
                         Standard orientation:                         
 ---------------------------------------------------------------------
 Center     Atomic      Atomic             Coordinates (Angstroms)
 Number     Number       Type             X           Y           Z
 ---------------------------------------------------------------------
      1          7           0       -0.062902    0.659037    0.000000
      2          7           0       -0.062902   -0.517093    0.000000
      3          1           0        0.880634   -0.993609    0.000000
 ---------------------------------------------------------------------
 Rotational constants (GHZ):         655.7096241          46.4376630          43.3664320
 Leave Link  202 at Wed Oct  7 13:41:28 2020, MaxMem=  2684354560 cpu:               1.8 elap:               0.6
 (Enter /udrive/faculty/rpeverati/g16/g16/l601.exe)
 Copying SCF densities to generalized density rwf, IOpCl= 1 IROHF=0.

 **********************************************************************

            Population analysis using the SCF density.

 **********************************************************************

 Orbital symmetries:
 Alpha Orbitals:
       Occupied  (A') (A') (A') (A') (A') (A") (A') (A')
       Virtual   (A") (A') (A') (A') (A") (A') (A') (A") (A') (A')
                 (A') (A') (A") (A') (A") (A') (A") (A') (A') (A")
                 (A') (A')
 Beta  Orbitals:
       Occupied  (A') (A') (A') (A') (A') (A") (A')
       Virtual   (A') (A") (A') (A') (A') (A") (A') (A') (A") (A')
                 (A') (A') (A') (A") (A") (A') (A') (A") (A') (A')
                 (A") (A') (A')
 The electronic state is 2-A'.
 Alpha  occ. eigenvalues --  -14.47762 -14.47109  -1.10285  -0.69490  -0.50422
 Alpha  occ. eigenvalues --   -0.43932  -0.43368  -0.22494
 Alpha virt. eigenvalues --   -0.03453   0.09002   0.39149   0.63382   0.65022
 Alpha virt. eigenvalues --    0.67223   0.70244   0.77391   0.77542   0.82505
 Alpha virt. eigenvalues --    0.95780   1.27413   1.47246   1.49369   1.51168
 Alpha virt. eigenvalues --    1.69254   1.89472   2.16338   2.40824   2.54146
 Alpha virt. eigenvalues --    2.57335   2.75548
  Beta  occ. eigenvalues --  -14.47457 -14.45424  -1.08323  -0.66449  -0.45349
  Beta  occ. eigenvalues --   -0.43038  -0.39429
  Beta virt. eigenvalues --   -0.04841  -0.01972   0.11412   0.40701   0.64249
  Beta virt. eigenvalues --    0.65479   0.70037   0.76192   0.78392   0.79094
  Beta virt. eigenvalues --    0.85792   0.96833   1.29113   1.49294   1.52190
  Beta virt. eigenvalues --    1.52476   1.74105   1.93382   2.18874   2.42678
  Beta virt. eigenvalues --    2.54949   2.60763   2.76995
          Condensed to atoms (all electrons):
               1          2          3
     1  N    6.717025   0.429418  -0.071017
     2  N    0.429418   6.612358   0.218677
     3  H   -0.071017   0.218677   0.516460
          Atomic-Atomic Spin Densities.
               1          2          3
     1  N    0.952316  -0.146863  -0.056749
     2  N   -0.146863   0.284022  -0.048919
     3  H   -0.056749  -0.048919   0.268725
 Mulliken charges and spin densities:
               1          2
     1  N   -0.075426   0.748704
     2  N   -0.260454   0.088240
     3  H    0.335880   0.163056
 Sum of Mulliken charges =  -0.00000   1.00000
 Mulliken charges and spin densities with hydrogens summed into heavy atoms:
               1          2
     1  N   -0.075426   0.748704
     2  N    0.075426   0.251296
 Electronic spatial extent (au):  <R**2>=             48.9669
 Charge=             -0.0000 electrons
 Dipole moment (field-independent basis, Debye):
    X=              1.4737    Y=             -1.2665    Z=              0.0000  Tot=              1.9431
 Quadrupole moment (field-independent basis, Debye-Ang):
   XX=            -10.6488   YY=            -11.8726   ZZ=            -11.0143
   XY=             -1.4391   XZ=              0.0000   YZ=              0.0000
 Traceless Quadrupole moment (field-independent basis, Debye-Ang):
   XX=              0.5298   YY=             -0.6941   ZZ=              0.1643
   XY=             -1.4391   XZ=              0.0000   YZ=              0.0000
 Octapole moment (field-independent basis, Debye-Ang**2):
  XXX=              1.7098  YYY=             -2.6046  ZZZ=              0.0000  XYY=              1.8337
  XXY=             -1.1400  XXZ=              0.0000  XZZ=              0.2347  YZZ=             -0.0473
  YYZ=              0.0000  XYZ=              0.0000
 Hexadecapole moment (field-independent basis, Debye-Ang**3):
 XXXX=            -11.9447 YYYY=            -37.4211 ZZZZ=             -8.9438 XXXY=              0.5829
 XXXZ=              0.0000 YYYX=              0.1169 YYYZ=              0.0000 ZZZX=              0.0000
 ZZZY=              0.0000 XXYY=             -7.7331 XXZZ=             -3.6426 YYZZ=             -7.4981
 XXYZ=              0.0000 YYXZ=              0.0000 ZZXY=              0.4871
 N-N= 2.749747033264D+01 E-N=-3.121997031340D+02  KE= 1.092716584594D+02
                          Isotropic Fermi Contact Couplings
        Atom                 a.u.       MegaHertz       Gauss      10(-4) cm-1
     1  N(14)              0.09673      31.25428      11.15230      10.42531
     2  N(14)              0.20103      64.95508      23.17759      21.66668
     3  H(1)               0.08588     383.88681     136.98036     128.05086
 --------------------------------------------------------
       Center         ----  Spin Dipole Couplings  ----
                      3XX-RR        3YY-RR        3ZZ-RR
 --------------------------------------------------------
     1   Atom        1.697792     -0.895975     -0.801817
     2   Atom        0.199790      0.086324     -0.286114
     3   Atom        0.000859      0.015938     -0.016797
 --------------------------------------------------------
                        XY            XZ            YZ
 --------------------------------------------------------
     1   Atom        0.292063      0.000000      0.000000
     2   Atom        0.340150      0.000000      0.000000
     3   Atom       -0.020479      0.000000      0.000000
 --------------------------------------------------------


 ---------------------------------------------------------------------------------
              Anisotropic Spin Dipole Couplings in Principal Axis System
 ---------------------------------------------------------------------------------

       Atom             a.u.   MegaHertz   Gauss  10(-4) cm-1        Axes

              Baa    -0.9285   -35.808   -12.777   -11.944 -0.1105  0.9939  0.0000
     1 N(14)  Bbb    -0.8018   -30.924   -11.035   -10.315  0.0000  0.0000  1.0000
              Bcc     1.7303    66.733    23.812    22.260  0.9939  0.1105  0.0000
 
              Baa    -0.2861   -11.035    -3.937    -3.681  0.0000  0.0000  1.0000
     2 N(14)  Bbb    -0.2018    -7.783    -2.777    -2.596 -0.6463  0.7631  0.0000
              Bcc     0.4879    18.817     6.715     6.277  0.7631  0.6463  0.0000
 
              Baa    -0.0168    -8.962    -3.198    -2.990  0.0000  0.0000  1.0000
     3 H(1)   Bbb    -0.0134    -7.162    -2.556    -2.389  0.8202  0.5721  0.0000
              Bcc     0.0302    16.125     5.754     5.379 -0.5721  0.8202  0.0000
 

 ---------------------------------------------------------------------------------

 No NMR shielding tensors so no spin-rotation constants.
 Leave Link  601 at Wed Oct  7 13:41:29 2020, MaxMem=  2684354560 cpu:               5.3 elap:               0.9
 (Enter /udrive/faculty/rpeverati/g16/g16/l9999.exe)

 Test job not archived.
 1\1\GINC-NODE56\FOpt\UPBE1PBE\6-31G(d)\H1N2(2)\RPEVERATI\07-Oct-2020\0
 \\#P Opt(MaxCyc=100) PBE1PBE/6-31G* 5D 7F Integral=UltraFineGrid SCF=(
 NoSymm,XQC,MaxCyc=120) IOp(1/33=1)\\TS search on BH76.\\0,2\N,-0.06500
 97355,0.6612718364,0.\N,-0.0646750001,-0.5148584614,0.\H,0.8789964911,
 -0.9911061476,0.\\Version=ES64L-G16RevA.03\State=2-A'\HF=-109.9014596\
 S2=0.75545\S2-1=0.\S2A=0.750022\RMSD=2.041e-09\RMSF=3.407e-05\Dipole=0
 .5799403,-0.4981092,0.\Quadrupole=0.394475,-0.5166234,0.1221484,-1.069
 6856,0.,0.\PG=CS [SG(H1N2)]\\@


 LORD, MAN... WERE YE BUT WHYLES WHERE I AM, 
 THE GENTILES YE WAD NE'ER ENVY 'EM.        
 IT'S TRUE, THEY NEEDNA STARVE OR SWEAT,     
 THRO' WINTER'S CAULD OR SIMMER'S HEAT...  
 THEY'VE NAE SAIR WARK TO CRAZE THEIR BANES, 
 AND FILL AULD AGE WITH GRIPS AN' GRANES...  
                                             
 BUT HUMAN BODIES ARE SIC FOOLS              
 FOR A' THEIR COLLEGES AND SCHOOLS,           
 THAT WHEN NAE REAL ILLS PERPLEX THEM,       
 THEY MAK ENOW THEMSELVES TO VEX THEM,       
 AN' AYE THE LESS THEY HAE TO STURT THEM,    
 IN LIKE PROPORTION LESS WILL HURT THEM....  
                                             
                (ROBERT BURNS 'THE TWA DOGS')
 Job cpu time:       0 days  0 hours  2 minutes 59.2 seconds.
 Elapsed time:       0 days  0 hours  0 minutes 34.7 seconds.
 File lengths (MBytes):  RWF=      5 Int=      0 D2E=      0 Chk=      1 Scr=      1
 Normal termination of Gaussian 16 at Wed Oct  7 13:41:31 2020.
