 Entering Gaussian System, Link 0=g16
 Input=MN_62_hoch3fcomp2_BH76_PBE0_631Gs.in
 Output=MN_62_hoch3fcomp2_BH76_PBE0_631Gs.log
 Initial command:
 /udrive/faculty/rpeverati/g16/g16/l1.exe "/udrive/scratch-directories/gaussian09/rpeverati/Gau-40765.inp" -scrdir="/udrive/scratch-directories/gaussian09/rpeverati/"
 Entering Link 1 = /udrive/faculty/rpeverati/g16/g16/l1.exe PID=     40777.
  
 Copyright (c) 1988,1990,1992,1993,1995,1998,2003,2009,2016,
            Gaussian, Inc.  All Rights Reserved.
  
 This is part of the Gaussian(R) 16 program.  It is based on
 the Gaussian(R) 09 system (copyright 2009, Gaussian, Inc.),
 the Gaussian(R) 03 system (copyright 2003, Gaussian, Inc.),
 the Gaussian(R) 98 system (copyright 1998, Gaussian, Inc.),
 the Gaussian(R) 94 system (copyright 1995, Gaussian, Inc.),
 the Gaussian 92(TM) system (copyright 1992, Gaussian, Inc.),
 the Gaussian 90(TM) system (copyright 1990, Gaussian, Inc.),
 the Gaussian 88(TM) system (copyright 1988, Gaussian, Inc.),
 the Gaussian 86(TM) system (copyright 1986, Carnegie Mellon
 University), and the Gaussian 82(TM) system (copyright 1983,
 Carnegie Mellon University). Gaussian is a federally registered
 trademark of Gaussian, Inc.
  
 This software contains proprietary and confidential information,
 including trade secrets, belonging to Gaussian, Inc.
  
 This software is provided under written license and may be
 used, copied, transmitted, or stored only in accord with that
 written license.
  
 The following legend is applicable only to US Government
 contracts under FAR:
  
                    RESTRICTED RIGHTS LEGEND
  
 Use, reproduction and disclosure by the US Government is
 subject to restrictions as set forth in subparagraphs (a)
 and (c) of the Commercial Computer Software - Restricted
 Rights clause in FAR 52.227-19.
  
 Gaussian, Inc.
 340 Quinnipiac St., Bldg. 40, Wallingford CT 06492
  
  
 ---------------------------------------------------------------
 Warning -- This program may not be used in any manner that
 competes with the business of Gaussian, Inc. or will provide
 assistance to any competitor of Gaussian, Inc.  The licensee
 of this program is prohibited from giving any competitor of
 Gaussian, Inc. access to this program.  By using this program,
 the user acknowledges that Gaussian, Inc. is engaged in the
 business of creating and licensing software in the field of
 computational chemistry and represents and warrants to the
 licensee that it is not a competitor of Gaussian, Inc. and that
 it will not use this program in any manner prohibited above.
 ---------------------------------------------------------------
  

 Cite this work as:
 Gaussian 16, Revision A.03,
 M. J. Frisch, G. W. Trucks, H. B. Schlegel, G. E. Scuseria, 
 M. A. Robb, J. R. Cheeseman, G. Scalmani, V. Barone, 
 G. A. Petersson, H. Nakatsuji, X. Li, M. Caricato, A. V. Marenich, 
 J. Bloino, B. G. Janesko, R. Gomperts, B. Mennucci, H. P. Hratchian, 
 J. V. Ortiz, A. F. Izmaylov, J. L. Sonnenberg, D. Williams-Young, 
 F. Ding, F. Lipparini, F. Egidi, J. Goings, B. Peng, A. Petrone, 
 T. Henderson, D. Ranasinghe, V. G. Zakrzewski, J. Gao, N. Rega, 
 G. Zheng, W. Liang, M. Hada, M. Ehara, K. Toyota, R. Fukuda, 
 J. Hasegawa, M. Ishida, T. Nakajima, Y. Honda, O. Kitao, H. Nakai, 
 T. Vreven, K. Throssell, J. A. Montgomery, Jr., J. E. Peralta, 
 F. Ogliaro, M. J. Bearpark, J. J. Heyd, E. N. Brothers, K. N. Kudin, 
 V. N. Staroverov, T. A. Keith, R. Kobayashi, J. Normand, 
 K. Raghavachari, A. P. Rendell, J. C. Burant, S. S. Iyengar, 
 J. Tomasi, M. Cossi, J. M. Millam, M. Klene, C. Adamo, R. Cammi, 
 J. W. Ochterski, R. L. Martin, K. Morokuma, O. Farkas, 
 J. B. Foresman, and D. J. Fox, Gaussian, Inc., Wallingford CT, 2016.
 
 ******************************************
 Gaussian 16:  ES64L-G16RevA.03 25-Dec-2016
                 7-Oct-2020 
 ******************************************
 %NoSave
 %nproc=12
 Will use up to   12 processors via shared memory.
 %mem=20GB
 %chk=MN_62_hoch3fcomp2_BH76_PBE0_631Gs
 ----------------------------------------------------------------------
 #P Opt(MaxCyc=100) PBE1PBE/6-31G* 5D 7F Integral=UltraFineGrid SCF=(No
 Symm,XQC,MaxCyc=120) IOp(1/33=1)
 ----------------------------------------------------------------------
 1/6=100,18=20,19=15,26=4,33=1,38=1/1,3;
 2/9=110,12=2,17=6,18=5,40=1/2;
 3/5=1,6=6,7=1,8=11,11=2,25=1,30=1,71=1,74=-13,75=-5/1,2,3;
 4/9=2/1;
 5/5=2,7=120,8=3,13=1,38=5/2,8;
 6/7=2,8=2,9=2,10=2,28=1/1;
 7//1,2,3,16;
 1/6=100,18=20,19=15,26=4,33=1/3(2);
 2/9=110/2;
 99//99;
 2/9=110/2;
 3/5=1,6=6,7=1,8=11,11=2,25=1,30=1,71=1,74=-13,75=-5/1,2,3;
 4/5=5,9=2,16=3,69=1/1;
 5/5=2,7=120,8=3,13=1,38=5/2,8;
 7//1,2,3,16;
 1/6=100,18=20,19=15,26=4,33=1/3(-5);
 2/9=110/2;
 6/7=2,8=2,9=2,10=2,19=2,28=1/1;
 99/9=1/99;
 Leave Link    1 at Wed Oct  7 13:40:48 2020, MaxMem=  2684354560 cpu:               6.8 elap:               0.9
 (Enter /udrive/faculty/rpeverati/g16/g16/l101.exe)
 ONIOM data not found on unit 2.
 ------------------
 TS search on BH76.
 ------------------
 TstMul:  ICh=    -1
 TstMul:  Mul=     1
 TstMul:  ICh=    -1
 TstMul:  Mul=     1
 Symbolic Z-matrix:
 Charge = -1 Multiplicity = 1
 F                     1.89905  -0.07646  -0.0054 
 C                     0.48941   0.10548   0.00677 
 H                     0.0013   -0.78617  -0.36115 
 H                     0.17194   0.29836   1.02324 
 H                     0.24974   0.94747  -0.63089 
 O                    -2.16945  -0.07314  -0.00232 
 H                    -3.09537   0.1807   -0.00462 
 
 RdStrC is calling ZToCFu for IStruc=1 NZ=     7.
 PrtBox:  NBox=     2 Levels=  1 BoxLen=    8.00 SMaxX=        9.44
          Shift=            5.849400            1.485640            1.192200
 Box      1 Number                   0 centers from      1 to      6:
 Box      2 Number                   4 centers from      7 to      7:
 After GenITR:
 ITRead=  0  0  0  0  0  0  0
 MicOpt= -1 -1 -1 -1 -1 -1 -1
 Add virtual bond connecting atoms O6         and H3         Dist= 4.37D+00.
 ITRead=  0  0  0  0  0  0  0
 MicOpt= -1 -1 -1 -1 -1 -1 -1
 NAtoms=      7 NQM=        7 NQMF=       0 NMMI=      0 NMMIF=      0
                NMic=       0 NMicF=      0.
                    Isotopes and Nuclear Properties:
 (Nuclear quadrupole moments (NQMom) in fm**2, nuclear magnetic moments (NMagM)
  in nuclear magnetons)

  Atom         1           2           3           4           5           6           7
 IAtWgt=          19          12           1           1           1          16           1
 AtmWgt=  18.9984033  12.0000000   1.0078250   1.0078250   1.0078250  15.9949146   1.0078250
 NucSpn=           1           0           1           1           1           0           1
 AtZEff=   0.0000000   0.0000000   0.0000000   0.0000000   0.0000000   0.0000000   0.0000000
 NQMom=    0.0000000   0.0000000   0.0000000   0.0000000   0.0000000   0.0000000   0.0000000
 NMagM=    2.6288670   0.0000000   2.7928460   2.7928460   2.7928460   0.0000000   2.7928460
 AtZNuc=   9.0000000   6.0000000   1.0000000   1.0000000   1.0000000   8.0000000   1.0000000
 No MM parameters found.
 Leave Link  101 at Wed Oct  7 13:40:50 2020, MaxMem=  2684354560 cpu:              11.7 elap:               1.4
 (Enter /udrive/faculty/rpeverati/g16/g16/l103.exe)

 GradGradGradGradGradGradGradGradGradGradGradGradGradGradGradGradGradGrad
 Berny optimization.
 Optmz: redundant internal coordinate code flag= 1
 Initialization pass.
                           ----------------------------
                           !    Initial Parameters    !
                           ! (Angstroms and Degrees)  !
 --------------------------                            --------------------------
 ! Name  Definition              Value          Derivative Info.                !
 --------------------------------------------------------------------------------
 ! R1    R(1,2)                  1.4214         estimate D2E/DX2                !
 ! R2    R(2,3)                  1.081          estimate D2E/DX2                !
 ! R3    R(2,4)                  1.0822         estimate D2E/DX2                !
 ! R4    R(2,5)                  1.083          estimate D2E/DX2                !
 ! R5    R(3,6)                  2.3129         estimate D2E/DX2                !
 ! R6    R(6,7)                  0.9601         estimate D2E/DX2                !
 ! A1    A(1,2,3)              109.8338         estimate D2E/DX2                !
 ! A2    A(1,2,4)              108.7707         estimate D2E/DX2                !
 ! A3    A(1,2,5)              108.2965         estimate D2E/DX2                !
 ! A4    A(3,2,4)              109.5244         estimate D2E/DX2                !
 ! A5    A(3,2,5)              109.9335         estimate D2E/DX2                !
 ! A6    A(4,2,5)              110.4581         estimate D2E/DX2                !
 ! A7    A(2,3,6)               96.7014         estimate D2E/DX2                !
 ! A8    L(3,6,7,5,-1)         180.2727         estimate D2E/DX2                !
 ! A9    L(3,6,7,5,-2)         165.3128         estimate D2E/DX2                !
 ! D1    D(1,2,3,6)            176.0174         estimate D2E/DX2                !
 ! D2    D(4,2,3,6)             56.6215         estimate D2E/DX2                !
 ! D3    D(5,2,3,6)            -64.9173         estimate D2E/DX2                !
 --------------------------------------------------------------------------------
 Maximum allowed force set to 1.00D+20.
 Trust Radius=3.00D-01 FncErr=1.00D-07 GrdErr=1.00D-06 EigMax=2.50D+02 EigMin=1.00D-04
 Number of steps in this run=    100 maximum allowed number of steps=    100.
 GradGradGradGradGradGradGradGradGradGradGradGradGradGradGradGradGradGrad

 Leave Link  103 at Wed Oct  7 13:40:51 2020, MaxMem=  2684354560 cpu:               1.1 elap:               0.5
 (Enter /udrive/faculty/rpeverati/g16/g16/l202.exe)
                          Input orientation:                          
 ---------------------------------------------------------------------
 Center     Atomic      Atomic             Coordinates (Angstroms)
 Number     Number       Type             X           Y           Z
 ---------------------------------------------------------------------
      1          9           0        1.899053   -0.076457   -0.005404
      2          6           0        0.489413    0.105484    0.006768
      3          1           0        0.001304   -0.786167   -0.361155
      4          1           0        0.171943    0.298358    1.023244
      5          1           0        0.249744    0.947471   -0.630885
      6          8           0       -2.169447   -0.073143   -0.002320
      7          1           0       -3.095369    0.180697   -0.004624
 ---------------------------------------------------------------------
                    Distance matrix (angstroms):
                    1          2          3          4          5
     1  F    0.000000
     2  C    1.421385   0.000000
     3  H    2.057109   1.081045   0.000000
     4  H    2.044874   1.082225   1.766882   0.000000
     5  H    2.039577   1.083044   1.771998   1.778635   0.000000
     6  O    4.068502   2.664869   2.312861   2.583002   2.699857
     7  H    5.001038   3.585589   3.263637   3.427198   3.488542
                    6          7
     6  O    0.000000
     7  H    0.960090   0.000000
 Stoichiometry    CH4FO(1-)
 Framework group  C1[X(CH4FO)]
 Deg. of freedom    15
 Full point group                 C1      NOp   1
 Largest Abelian subgroup         C1      NOp   1
 Largest concise Abelian subgroup C1      NOp   1
                         Standard orientation:                         
 ---------------------------------------------------------------------
 Center     Atomic      Atomic             Coordinates (Angstroms)
 Number     Number       Type             X           Y           Z
 ---------------------------------------------------------------------
      1          9           0        1.899053   -0.076457   -0.005404
      2          6           0        0.489413    0.105484    0.006768
      3          1           0        0.001304   -0.786167   -0.361155
      4          1           0        0.171943    0.298358    1.023244
      5          1           0        0.249744    0.947470   -0.630885
      6          8           0       -2.169447   -0.073143   -0.002320
      7          1           0       -3.095369    0.180697   -0.004624
 ---------------------------------------------------------------------
 Rotational constants (GHZ):         141.9909320           3.2067010           3.1989530
 Leave Link  202 at Wed Oct  7 13:40:52 2020, MaxMem=  2684354560 cpu:               1.7 elap:               0.7
 (Enter /udrive/faculty/rpeverati/g16/g16/l301.exe)
 Standard basis: 6-31G(d) (5D, 7F)
 Ernie: Thresh=  0.10000D-02 Tol=  0.10000D-05 Strict=F.
 There are    53 symmetry adapted cartesian basis functions of A   symmetry.
 There are    50 symmetry adapted basis functions of A   symmetry.
    50 basis functions,   100 primitive gaussians,    53 cartesian basis functions
    14 alpha electrons       14 beta electrons
       nuclear repulsion energy        67.4307148412 Hartrees.
 IExCor= 1009 DFT=T Ex+Corr=PBE1PBE ExCW=0 ScaHFX=  0.250000
 ScaDFX=  0.750000  0.750000  1.000000  1.000000 ScalE2=  1.000000  1.000000
 IRadAn=      5 IRanWt=     -1 IRanGd=            0 ICorTp=0 IEmpDi=  4
 NAtoms=    7 NActive=    7 NUniq=    7 SFac= 1.00D+00 NAtFMM=   60 NAOKFM=F Big=F
 Integral buffers will be    131072 words long.
 Raffenetti 2 integral format.
 Two-electron integral symmetry is turned on.
 Leave Link  301 at Wed Oct  7 13:40:53 2020, MaxMem=  2684354560 cpu:               1.9 elap:               0.6
 (Enter /udrive/faculty/rpeverati/g16/g16/l302.exe)
 NPDir=0 NMtPBC=     1 NCelOv=     1 NCel=       1 NClECP=     1 NCelD=      1
         NCelK=      1 NCelE2=     1 NClLst=     1 CellRange=     0.0.
 One-electron integrals computed using PRISM.
 One-electron integral symmetry used in STVInt
 NBasis=    50 RedAO= T EigKep=  1.87D-02  NBF=    50
 NBsUse=    50 1.00D-06 EigRej= -1.00D+00 NBFU=    50
 Precomputing XC quadrature grid using
 IXCGrd= 4 IRadAn=           5 IRanWt=          -1 IRanGd=           0 AccXCQ= 0.00D+00.
 Generated NRdTot=       0 NPtTot=           0 NUsed=           0 NTot=          32
 NSgBfM=    53    53    53    53    53 MxSgAt=     7 MxSgA2=     7.
 Leave Link  302 at Wed Oct  7 13:40:55 2020, MaxMem=  2684354560 cpu:              11.2 elap:               1.6
 (Enter /udrive/faculty/rpeverati/g16/g16/l303.exe)
 DipDrv:  MaxL=1.
 Leave Link  303 at Wed Oct  7 13:40:56 2020, MaxMem=  2684354560 cpu:               2.3 elap:               0.7
 (Enter /udrive/faculty/rpeverati/g16/g16/l401.exe)
 SCF N**3 symmetry information disabled.
 ExpMin= 1.61D-01 ExpMax= 7.00D+03 ExpMxC= 1.05D+03 IAcc=3 IRadAn=         5 AccDes= 0.00D+00
 Harris functional with IExCor= 1009 and IRadAn=       5 diagonalized for initial guess.
 HarFok:  IExCor= 1009 AccDes= 0.00D+00 IRadAn=         5 IDoV= 1 UseB2=F ITyADJ=14
 ICtDFT=  3500011 ScaDFX=  1.000000  1.000000  1.000000  1.000000
 FoFCou: FMM=F IPFlag=           0 FMFlag=      100000 FMFlg1=           0
         NFxFlg=           0 DoJE=T BraDBF=F KetDBF=T FulRan=T
         wScrn=  0.000000 ICntrl=       500 IOpCl=  0 I1Cent=   200000004 NGrid=           0
         NMat0=    1 NMatS0=      1 NMatT0=    0 NMatD0=    1 NMtDS0=    0 NMtDT0=    0
 Petite list used in FoFCou.
 Harris En= -215.573172802103    
 JPrj=0 DoOrth=F DoCkMO=F.
 Leave Link  401 at Wed Oct  7 13:40:57 2020, MaxMem=  2684354560 cpu:               6.6 elap:               1.0
 (Enter /udrive/faculty/rpeverati/g16/g16/l502.exe)
 Keep R1 ints in memory in canonical form, NReq=11319949.
 FoFCou: FMM=F IPFlag=           0 FMFlag=           0 FMFlg1=           0
         NFxFlg=           0 DoJE=F BraDBF=F KetDBF=F FulRan=T
         wScrn=  0.000000 ICntrl=       600 IOpCl=  0 I1Cent=           0 NGrid=           0
         NMat0=    1 NMatS0=   1275 NMatT0=    0 NMatD0=    1 NMtDS0=    0 NMtDT0=    0
 Symmetry not used in FoFCou.
 Two-electron integral symmetry not used.
 Closed shell SCF:
 Using DIIS extrapolation, IDIIS=  1040.
 NGot=  2684354560 LenX=  2683534079 LenY=  2683530829
 Requested convergence on RMS density matrix=1.00D-08 within 120 cycles.
 Requested convergence on MAX density matrix=1.00D-06.
 Requested convergence on             energy=1.00D-06.
 No special actions if energy rises.
 Integral accuracy reduced to 1.0D-05 until final iterations.

 Cycle   1  Pass 0  IDiag  1:
 E= -215.030163201082    
 DIIS: error= 1.10D-01 at cycle   1 NSaved=   1.
 NSaved= 1 IEnMin= 1 EnMin= -215.030163201082     IErMin= 1 ErrMin= 1.10D-01
 ErrMax= 1.10D-01  0.00D+00 EMaxC= 1.00D-01 BMatC= 2.64D-01 BMatP= 2.64D-01
 IDIUse=3 WtCom= 0.00D+00 WtEn= 1.00D+00
 Coeff-Com:  0.100D+01
 Coeff-En:   0.100D+01
 Coeff:      0.100D+01
 Gap=     0.011 Goal=   None    Shift=    0.000
 GapD=    0.011 DampG=0.250 DampE=0.250 DampFc=0.2500 IDamp=-1.
 Damping current iteration by 2.50D-01
 RMSDP=3.62D-02 MaxDP=4.16D-01              OVMax= 4.30D-01

 Cycle   2  Pass 0  IDiag  1:
 E= -215.101643233495     Delta-E=       -0.071480032412 Rises=F Damp=T
 DIIS: error= 3.79D-02 at cycle   2 NSaved=   2.
 NSaved= 2 IEnMin= 2 EnMin= -215.101643233495     IErMin= 2 ErrMin= 3.79D-02
 ErrMax= 3.79D-02  0.00D+00 EMaxC= 1.00D-01 BMatC= 4.19D-02 BMatP= 2.64D-01
 IDIUse=3 WtCom= 6.21D-01 WtEn= 3.79D-01
 Coeff-Com: -0.556D+00 0.156D+01
 Coeff-En:   0.000D+00 0.100D+01
 Coeff:     -0.345D+00 0.135D+01
 Gap=     0.215 Goal=   None    Shift=    0.000
 RMSDP=7.01D-03 MaxDP=5.97D-02 DE=-7.15D-02 OVMax= 3.58D-01

 Cycle   3  Pass 0  IDiag  1:
 E= -215.238311335160     Delta-E=       -0.136668101665 Rises=F Damp=F
 DIIS: error= 1.76D-02 at cycle   3 NSaved=   3.
 NSaved= 3 IEnMin= 3 EnMin= -215.238311335160     IErMin= 3 ErrMin= 1.76D-02
 ErrMax= 1.76D-02  0.00D+00 EMaxC= 1.00D-01 BMatC= 9.91D-03 BMatP= 4.19D-02
 IDIUse=3 WtCom= 8.24D-01 WtEn= 1.76D-01
 Coeff-Com: -0.203D+00 0.685D+00 0.518D+00
 Coeff-En:   0.000D+00 0.000D+00 0.100D+01
 Coeff:     -0.168D+00 0.564D+00 0.603D+00
 Gap=     0.226 Goal=   None    Shift=    0.000
 RMSDP=2.18D-03 MaxDP=2.85D-02 DE=-1.37D-01 OVMax= 2.70D-02

 Cycle   4  Pass 0  IDiag  1:
 E= -215.247217061205     Delta-E=       -0.008905726045 Rises=F Damp=F
 DIIS: error= 4.86D-03 at cycle   4 NSaved=   4.
 NSaved= 4 IEnMin= 4 EnMin= -215.247217061205     IErMin= 4 ErrMin= 4.86D-03
 ErrMax= 4.86D-03  0.00D+00 EMaxC= 1.00D-01 BMatC= 8.12D-04 BMatP= 9.91D-03
 IDIUse=3 WtCom= 9.51D-01 WtEn= 4.86D-02
 Coeff-Com: -0.723D-01 0.135D+00 0.157D+00 0.781D+00
 Coeff-En:   0.000D+00 0.000D+00 0.000D+00 0.100D+01
 Coeff:     -0.688D-01 0.128D+00 0.149D+00 0.792D+00
 Gap=     0.213 Goal=   None    Shift=    0.000
 RMSDP=5.28D-04 MaxDP=6.25D-03 DE=-8.91D-03 OVMax= 6.43D-03

 Cycle   5  Pass 0  IDiag  1:
 E= -215.247899545156     Delta-E=       -0.000682483951 Rises=F Damp=F
 DIIS: error= 6.48D-04 at cycle   5 NSaved=   5.
 NSaved= 5 IEnMin= 5 EnMin= -215.247899545156     IErMin= 5 ErrMin= 6.48D-04
 ErrMax= 6.48D-04  0.00D+00 EMaxC= 1.00D-01 BMatC= 2.00D-05 BMatP= 8.12D-04
 IDIUse=3 WtCom= 9.94D-01 WtEn= 6.48D-03
 Coeff-Com: -0.155D-01 0.118D-01-0.993D-02 0.162D+00 0.852D+00
 Coeff-En:   0.000D+00 0.000D+00 0.000D+00 0.000D+00 0.100D+01
 Coeff:     -0.154D-01 0.117D-01-0.986D-02 0.161D+00 0.853D+00
 Gap=     0.210 Goal=   None    Shift=    0.000
 RMSDP=1.53D-04 MaxDP=1.44D-03 DE=-6.82D-04 OVMax= 1.58D-03

 Cycle   6  Pass 0  IDiag  1:
 E= -215.247920085680     Delta-E=       -0.000020540524 Rises=F Damp=F
 DIIS: error= 1.77D-04 at cycle   6 NSaved=   6.
 NSaved= 6 IEnMin= 6 EnMin= -215.247920085680     IErMin= 6 ErrMin= 1.77D-04
 ErrMax= 1.77D-04  0.00D+00 EMaxC= 1.00D-01 BMatC= 2.05D-06 BMatP= 2.00D-05
 IDIUse=3 WtCom= 9.98D-01 WtEn= 1.77D-03
 Coeff-Com: -0.460D-02 0.309D-02-0.101D-01 0.262D-01 0.352D+00 0.633D+00
 Coeff-En:   0.000D+00 0.000D+00 0.000D+00 0.000D+00 0.000D+00 0.100D+01
 Coeff:     -0.459D-02 0.308D-02-0.101D-01 0.262D-01 0.351D+00 0.634D+00
 Gap=     0.210 Goal=   None    Shift=    0.000
 RMSDP=3.41D-05 MaxDP=4.06D-04 DE=-2.05D-05 OVMax= 5.26D-04

 Cycle   7  Pass 0  IDiag  1:
 E= -215.247921442246     Delta-E=       -0.000001356566 Rises=F Damp=F
 DIIS: error= 7.66D-05 at cycle   7 NSaved=   7.
 NSaved= 7 IEnMin= 7 EnMin= -215.247921442246     IErMin= 7 ErrMin= 7.66D-05
 ErrMax= 7.66D-05  0.00D+00 EMaxC= 1.00D-01 BMatC= 3.64D-07 BMatP= 2.05D-06
 IDIUse=1 WtCom= 1.00D+00 WtEn= 0.00D+00
 Coeff-Com: -0.100D-04-0.578D-03-0.375D-02-0.114D-01 0.492D-01 0.325D+00
 Coeff-Com:  0.641D+00
 Coeff:     -0.100D-04-0.578D-03-0.375D-02-0.114D-01 0.492D-01 0.325D+00
 Coeff:      0.641D+00
 Gap=     0.210 Goal=   None    Shift=    0.000
 RMSDP=1.53D-05 MaxDP=1.69D-04 DE=-1.36D-06 OVMax= 1.50D-04

 Cycle   8  Pass 0  IDiag  1:
 E= -215.247921718811     Delta-E=       -0.000000276565 Rises=F Damp=F
 DIIS: error= 6.67D-06 at cycle   8 NSaved=   8.
 NSaved= 8 IEnMin= 8 EnMin= -215.247921718811     IErMin= 8 ErrMin= 6.67D-06
 ErrMax= 6.67D-06  0.00D+00 EMaxC= 1.00D-01 BMatC= 1.46D-09 BMatP= 3.64D-07
 IDIUse=1 WtCom= 1.00D+00 WtEn= 0.00D+00
 Coeff-Com:  0.335D-04 0.509D-04 0.489D-05-0.179D-02-0.498D-02 0.157D-01
 Coeff-Com:  0.527D-01 0.938D+00
 Coeff:      0.335D-04 0.509D-04 0.489D-05-0.179D-02-0.498D-02 0.157D-01
 Coeff:      0.527D-01 0.938D+00
 Gap=     0.210 Goal=   None    Shift=    0.000
 RMSDP=4.88D-06 MaxDP=6.65D-05 DE=-2.77D-07 OVMax= 5.57D-05

 Initial convergence to 1.0D-05 achieved.  Increase integral accuracy.
 Cycle   9  Pass 1  IDiag  1:
 E= -215.247920260773     Delta-E=        0.000001458038 Rises=F Damp=F
 DIIS: error= 2.41D-06 at cycle   1 NSaved=   1.
 NSaved= 1 IEnMin= 1 EnMin= -215.247920260773     IErMin= 1 ErrMin= 2.41D-06
 ErrMax= 2.41D-06  0.00D+00 EMaxC= 1.00D-01 BMatC= 1.83D-10 BMatP= 1.83D-10
 IDIUse=1 WtCom= 1.00D+00 WtEn= 0.00D+00
 Coeff-Com:  0.100D+01
 Coeff:      0.100D+01
 Gap=     0.210 Goal=   None    Shift=    0.000
 RMSDP=4.88D-06 MaxDP=6.65D-05 DE= 1.46D-06 OVMax= 1.15D-05

 Cycle  10  Pass 1  IDiag  1:
 E= -215.247920260944     Delta-E=       -0.000000000171 Rises=F Damp=F
 DIIS: error= 2.77D-06 at cycle   2 NSaved=   2.
 NSaved= 2 IEnMin= 2 EnMin= -215.247920260944     IErMin= 1 ErrMin= 2.41D-06
 ErrMax= 2.77D-06  0.00D+00 EMaxC= 1.00D-01 BMatC= 1.64D-10 BMatP= 1.83D-10
 IDIUse=1 WtCom= 1.00D+00 WtEn= 0.00D+00
 Coeff-Com:  0.485D+00 0.515D+00
 Coeff:      0.485D+00 0.515D+00
 Gap=     0.210 Goal=   None    Shift=    0.000
 RMSDP=3.25D-07 MaxDP=3.49D-06 DE=-1.71D-10 OVMax= 4.90D-06

 Cycle  11  Pass 1  IDiag  1:
 E= -215.247920261069     Delta-E=       -0.000000000124 Rises=F Damp=F
 DIIS: error= 7.09D-07 at cycle   3 NSaved=   3.
 NSaved= 3 IEnMin= 3 EnMin= -215.247920261069     IErMin= 3 ErrMin= 7.09D-07
 ErrMax= 7.09D-07  0.00D+00 EMaxC= 1.00D-01 BMatC= 1.22D-11 BMatP= 1.64D-10
 IDIUse=1 WtCom= 1.00D+00 WtEn= 0.00D+00
 Coeff-Com:  0.742D-01 0.229D+00 0.697D+00
 Coeff:      0.742D-01 0.229D+00 0.697D+00
 Gap=     0.210 Goal=   None    Shift=    0.000
 RMSDP=1.28D-07 MaxDP=1.66D-06 DE=-1.24D-10 OVMax= 1.34D-06

 Cycle  12  Pass 1  IDiag  1:
 E= -215.247920261079     Delta-E=       -0.000000000011 Rises=F Damp=F
 DIIS: error= 8.29D-08 at cycle   4 NSaved=   4.
 NSaved= 4 IEnMin= 4 EnMin= -215.247920261079     IErMin= 4 ErrMin= 8.29D-08
 ErrMax= 8.29D-08  0.00D+00 EMaxC= 1.00D-01 BMatC= 2.76D-13 BMatP= 1.22D-11
 IDIUse=1 WtCom= 1.00D+00 WtEn= 0.00D+00
 Coeff-Com: -0.220D-01 0.171D-01 0.145D+00 0.859D+00
 Coeff:     -0.220D-01 0.171D-01 0.145D+00 0.859D+00
 Gap=     0.210 Goal=   None    Shift=    0.000
 RMSDP=5.16D-08 MaxDP=7.08D-07 DE=-1.07D-11 OVMax= 5.73D-07

 Cycle  13  Pass 1  IDiag  1:
 E= -215.247920261080     Delta-E=       -0.000000000000 Rises=F Damp=F
 DIIS: error= 3.52D-08 at cycle   5 NSaved=   5.
 NSaved= 5 IEnMin= 5 EnMin= -215.247920261080     IErMin= 5 ErrMin= 3.52D-08
 ErrMax= 3.52D-08  0.00D+00 EMaxC= 1.00D-01 BMatC= 3.84D-14 BMatP= 2.76D-13
 IDIUse=1 WtCom= 1.00D+00 WtEn= 0.00D+00
 Coeff-Com: -0.133D-01-0.371D-02 0.202D-01 0.337D+00 0.660D+00
 Coeff:     -0.133D-01-0.371D-02 0.202D-01 0.337D+00 0.660D+00
 Gap=     0.210 Goal=   None    Shift=    0.000
 RMSDP=9.71D-09 MaxDP=1.26D-07 DE=-3.41D-13 OVMax= 1.07D-07

 SCF Done:  E(RPBE1PBE) =  -215.247920261     A.U. after   13 cycles
            NFock= 13  Conv=0.97D-08     -V/T= 2.0036
 KE= 2.144799095930D+02 PE=-6.526760975221D+02 EE= 1.555175528268D+02
 Leave Link  502 at Wed Oct  7 13:41:00 2020, MaxMem=  2684354560 cpu:              28.5 elap:               2.9
 (Enter /udrive/faculty/rpeverati/g16/g16/l508.exe)
 QCSCF skips out because SCF is already converged.
 Leave Link  508 at Wed Oct  7 13:41:01 2020, MaxMem=  2684354560 cpu:               1.2 elap:               0.4
 (Enter /udrive/faculty/rpeverati/g16/g16/l601.exe)
 Copying SCF densities to generalized density rwf, IOpCl= 0 IROHF=0.

 **********************************************************************

            Population analysis using the SCF density.

 **********************************************************************

 Orbital symmetries:
       Occupied  (A) (A) (A) (A) (A) (A) (A) (A) (A) (A) (A) (A)
                 (A) (A)
       Virtual   (A) (A) (A) (A) (A) (A) (A) (A) (A) (A) (A) (A)
                 (A) (A) (A) (A) (A) (A) (A) (A) (A) (A) (A) (A)
                 (A) (A) (A) (A) (A) (A) (A) (A) (A) (A) (A) (A)
 The electronic state is 1-A.
 Alpha  occ. eigenvalues --  -24.55949 -18.78058 -10.08210  -1.01031  -0.56061
 Alpha  occ. eigenvalues --   -0.51187  -0.29169  -0.28980  -0.28655  -0.15969
 Alpha  occ. eigenvalues --   -0.15684  -0.05080   0.10234   0.10356
 Alpha virt. eigenvalues --    0.31391   0.34835   0.37780   0.39334   0.42291
 Alpha virt. eigenvalues --    0.75443   0.76062   0.77339   1.07598   1.07936
 Alpha virt. eigenvalues --    1.10637   1.17151   1.23008   1.29770   1.32241
 Alpha virt. eigenvalues --    1.44848   1.45606   1.46053   1.65815   1.67876
 Alpha virt. eigenvalues --    1.72064   1.74660   2.03033   2.03108   2.13027
 Alpha virt. eigenvalues --    2.16987   2.19092   2.23111   2.23265   2.30244
 Alpha virt. eigenvalues --    2.39894   2.41133   2.60091   2.61325   2.87447
 Alpha virt. eigenvalues --    3.20930
          Condensed to atoms (all electrons):
               1          2          3          4          5          6
     1  F    9.339014   0.174296  -0.029898  -0.028771  -0.029161   0.000125
     2  C    0.174296   4.886181   0.355604   0.368284   0.368613   0.004173
     3  H   -0.029898   0.355604   0.541008  -0.037701  -0.035699   0.020568
     4  H   -0.028771   0.368284  -0.037701   0.570150  -0.037959   0.012721
     5  H   -0.029161   0.368613  -0.035699  -0.037959   0.585562   0.008661
     6  O    0.000125   0.004173   0.020568   0.012721   0.008661   8.927942
     7  H   -0.000007  -0.000947  -0.001546  -0.000380  -0.000250   0.154842
               7
     1  F   -0.000007
     2  C   -0.000947
     3  H   -0.001546
     4  H   -0.000380
     5  H   -0.000250
     6  O    0.154842
     7  H    0.619007
 Mulliken charges:
               1
     1  F   -0.425598
     2  C   -0.156204
     3  H    0.187663
     4  H    0.153656
     5  H    0.140234
     6  O   -1.129032
     7  H    0.229281
 Sum of Mulliken charges =  -1.00000
 Mulliken charges with hydrogens summed into heavy atoms:
               1
     1  F   -0.425598
     2  C    0.325348
     6  O   -0.899751
 Electronic spatial extent (au):  <R**2>=            361.6570
 Charge=             -1.0000 electrons
 Dipole moment (field-independent basis, Debye):
    X=              5.8125    Y=              0.7127    Z=              0.0165  Tot=              5.8561
 Quadrupole moment (field-independent basis, Debye-Ang):
   XX=            -40.7455   YY=            -19.6655   ZZ=            -19.6996
   XY=             -1.2892   XZ=              0.0152   YZ=              0.0134
 Traceless Quadrupole moment (field-independent basis, Debye-Ang):
   XX=            -14.0419   YY=              7.0380   ZZ=              7.0039
   XY=             -1.2892   XZ=              0.0152   YZ=              0.0134
 Octapole moment (field-independent basis, Debye-Ang**2):
  XXX=             26.1077  YYY=             -0.6366  ZZZ=              0.4315  XYY=              5.2601
  XXY=              4.4171  XXZ=              0.0012  XZZ=              5.4775  YZZ=              0.0811
  YYZ=             -0.4565  XYZ=             -0.0808
 Hexadecapole moment (field-independent basis, Debye-Ang**3):
 XXXX=           -395.5547 YYYY=            -23.6505 ZZZZ=            -22.4726 XXXY=            -12.0930
 XXXZ=              0.0018 YYYX=             -1.6049 YYYZ=             -0.1926 ZZZX=             -0.0527
 ZZZY=              0.1056 XXYY=            -65.3531 XXZZ=            -65.4544 YYZZ=             -7.6088
 XXYZ=             -0.0054 YYXZ=             -0.0701 ZZXY=             -0.5124
 N-N= 6.743071484120D+01 E-N=-6.526760955959D+02  KE= 2.144799095930D+02
 No NMR shielding tensors so no spin-rotation constants.
 Leave Link  601 at Wed Oct  7 13:41:03 2020, MaxMem=  2684354560 cpu:               8.6 elap:               1.4
 (Enter /udrive/faculty/rpeverati/g16/g16/l701.exe)
 ... and contract with generalized density number  0.
 Compute integral first derivatives.
 Leave Link  701 at Wed Oct  7 13:41:05 2020, MaxMem=  2684354560 cpu:               7.4 elap:               1.3
 (Enter /udrive/faculty/rpeverati/g16/g16/l702.exe)
 L702 exits ... SP integral derivatives will be done elsewhere.
 Leave Link  702 at Wed Oct  7 13:41:06 2020, MaxMem=  2684354560 cpu:               1.7 elap:               0.5
 (Enter /udrive/faculty/rpeverati/g16/g16/l703.exe)
 Integral derivatives from FoFJK, PRISM(SPDF).
 Compute integral first derivatives, UseDBF=F ICtDFT=           0.
 Calling FoFJK, ICntrl=      2127 FMM=F ISym2X=0 I1Cent= 0 IOpClX= 0 NMat=1 NMatS=1 NMatT=0.
 FoFJK:  IHMeth= 1 ICntrl=    2127 DoSepK=F KAlg= 0 I1Cent=           0 FoldK=F
 IRaf=         0 NMat=       1 IRICut=       1 DoRegI=T DoRafI=F ISym2E= 0 IDoP0=0 IntGTp=1.
 FoFCou: FMM=F IPFlag=           0 FMFlag=      100000 FMFlg1=         800
         NFxFlg=           0 DoJE=F BraDBF=F KetDBF=F FulRan=T
         wScrn=  0.000000 ICntrl=      2127 IOpCl=  0 I1Cent=           0 NGrid=           0
         NMat0=    1 NMatS0=      1 NMatT0=    0 NMatD0=    1 NMtDS0=    0 NMtDT0=    0
 Symmetry not used in FoFCou.
 Leave Link  703 at Wed Oct  7 13:41:07 2020, MaxMem=  2684354560 cpu:              11.0 elap:               1.6
 (Enter /udrive/faculty/rpeverati/g16/g16/l716.exe)
 Dipole        = 2.28682439D+00 2.80378738D-01 6.48032418D-03
 ***** Axes restored to original set *****
 -------------------------------------------------------------------
 Center     Atomic                   Forces (Hartrees/Bohr)
 Number     Number              X              Y              Z
 -------------------------------------------------------------------
      1        9          -0.001544682    0.000274055    0.000043539
      2        6           0.011721892   -0.001060321   -0.000077492
      3        1          -0.007188762   -0.002566116   -0.001282327
      4        1          -0.005263224    0.000954494    0.003402267
      5        1          -0.004229152    0.003405014   -0.002284290
      6        8           0.018456324   -0.006707131    0.000578270
      7        1          -0.011952395    0.005700005   -0.000379967
 -------------------------------------------------------------------
 Cartesian Forces:  Max     0.018456324 RMS     0.006314155
 Leave Link  716 at Wed Oct  7 13:41:08 2020, MaxMem=  2684354560 cpu:               1.7 elap:               0.6
 (Enter /udrive/faculty/rpeverati/g16/g16/l103.exe)

 GradGradGradGradGradGradGradGradGradGradGradGradGradGradGradGradGradGrad
 Berny optimization.
 Optmz: redundant internal coordinate code flag= 1
 FormGI is forming the generalized inverse of G from B-inverse, IUseBI=4.
 Internal  Forces:  Max     0.013035008 RMS     0.004998028
 Search for a local minimum.
 Step number   1 out of a maximum of  100
 All quantities printed in internal units (Hartrees-Bohrs-Radians)
 RMS Force = .49980D-02 SwitMx=.10000D-02 MixMth= 1
 Mixed Optimization -- RFO/linear search
 Second derivative matrix not updated -- first step.
 The second derivative matrix:
                          R1        R2        R3        R4        R5
           R1           0.42252
           R2           0.00000   0.35868
           R3           0.00000   0.00000   0.35727
           R4           0.00000   0.00000   0.00000   0.35629
           R5           0.00000   0.00000   0.00000   0.00000   0.02672
           R6           0.00000   0.00000   0.00000   0.00000   0.00000
           A1           0.00000   0.00000   0.00000   0.00000   0.00000
           A2           0.00000   0.00000   0.00000   0.00000   0.00000
           A3           0.00000   0.00000   0.00000   0.00000   0.00000
           A4           0.00000   0.00000   0.00000   0.00000   0.00000
           A5           0.00000   0.00000   0.00000   0.00000   0.00000
           A6           0.00000   0.00000   0.00000   0.00000   0.00000
           A7           0.00000   0.00000   0.00000   0.00000   0.00000
           A8           0.00000   0.00000   0.00000   0.00000   0.00000
           A9           0.00000   0.00000   0.00000   0.00000   0.00000
           D1           0.00000   0.00000   0.00000   0.00000   0.00000
           D2           0.00000   0.00000   0.00000   0.00000   0.00000
           D3           0.00000   0.00000   0.00000   0.00000   0.00000
                          R6        A1        A2        A3        A4
           R6           0.55454
           A1           0.00000   0.16000
           A2           0.00000   0.00000   0.16000
           A3           0.00000   0.00000   0.00000   0.16000
           A4           0.00000   0.00000   0.00000   0.00000   0.16000
           A5           0.00000   0.00000   0.00000   0.00000   0.00000
           A6           0.00000   0.00000   0.00000   0.00000   0.00000
           A7           0.00000   0.00000   0.00000   0.00000   0.00000
           A8           0.00000   0.00000   0.00000   0.00000   0.00000
           A9           0.00000   0.00000   0.00000   0.00000   0.00000
           D1           0.00000   0.00000   0.00000   0.00000   0.00000
           D2           0.00000   0.00000   0.00000   0.00000   0.00000
           D3           0.00000   0.00000   0.00000   0.00000   0.00000
                          A5        A6        A7        A8        A9
           A5           0.16000
           A6           0.00000   0.16000
           A7           0.00000   0.00000   0.25000
           A8           0.00000   0.00000   0.00000   0.01556
           A9           0.00000   0.00000   0.00000   0.00000   0.01556
           D1           0.00000   0.00000   0.00000   0.00000   0.00000
           D2           0.00000   0.00000   0.00000   0.00000   0.00000
           D3           0.00000   0.00000   0.00000   0.00000   0.00000
                          D1        D2        D3
           D1           0.00353
           D2           0.00000   0.00353
           D3           0.00000   0.00000   0.00353
 ITU=  0
 Eigenvectors of the second derivative matrix:
                           1         2         3         4         5
     Eigenvalues --     0.00353   0.01556   0.01556   0.02672   0.09881
   1         R1         0.00000   0.00000  -0.00000  -0.00000  -0.00000
   2         R2         0.00000   0.00000   0.00000   0.00000   0.00000
   3         R3         0.00000  -0.00000  -0.00000  -0.00000   0.00000
   4         R4        -0.00000  -0.00000   0.00000  -0.00000  -0.00000
   5         R5        -0.00000  -0.00000  -0.00000   1.00000   0.00000
   6         R6         0.00000   0.00000  -0.00000   0.00000   0.00000
   7         A1         0.00000   0.00000  -0.00000   0.00000   0.28675
   8         A2        -0.00000  -0.00000   0.00000  -0.00000   0.22801
   9         A3        -0.00000   0.00000   0.00000  -0.00000   0.34580
  10         A4         0.00000   0.00000  -0.00000   0.00000  -0.17509
  11         A5         0.00000  -0.00000   0.00000   0.00000  -0.11432
  12         A6         0.00000   0.00000  -0.00000   0.00000  -0.55804
  13         A7        -0.00000  -0.00000   0.00000  -0.00000   0.00000
  14         A8         0.00000   0.71649  -0.69760  -0.00000   0.00000
  15         A9        -0.00000   0.69760   0.71649   0.00000  -0.00000
  16         D1        -0.57735  -0.00000  -0.00000  -0.00000  -0.06133
  17         D2        -0.57735  -0.00000  -0.00000   0.00000  -0.40833
  18         D3        -0.57735  -0.00000  -0.00000  -0.00000   0.46966
                           6         7         8         9        10
     Eigenvalues --     0.09968   0.16000   0.16000   0.16000   0.25000
   1         R1        -0.00000  -0.00000   0.00000  -0.00000   0.00000
   2         R2        -0.00000  -0.00000   0.00000   0.00000  -0.00000
   3         R3        -0.00000  -0.00000   0.00000  -0.00000  -0.00000
   4         R4        -0.00000  -0.00000   0.00000  -0.00000  -0.00000
   5         R5        -0.00000   0.00000  -0.00000  -0.00000  -0.00000
   6         R6         0.00000   0.00000   0.00000  -0.00000  -0.00000
   7         A1        -0.03374   0.00308   0.80990  -0.20961  -0.00000
   8         A2        -0.52751  -0.25676  -0.42698  -0.22426   0.00000
   9         A3         0.45682   0.36266  -0.39875  -0.09769   0.00000
  10         A4        -0.22887   0.50971   0.04751   0.65626  -0.00000
  11         A5         0.26345  -0.72835  -0.01401   0.40538   0.00000
  12         A6         0.06804   0.11069  -0.01742  -0.54884  -0.00000
  13         A7         0.00000  -0.00000  -0.00000   0.00000  -1.00000
  14         A8        -0.00000  -0.00000  -0.00000   0.00000  -0.00000
  15         A9        -0.00000  -0.00000   0.00000  -0.00000   0.00000
  16         D1        -0.50328  -0.00000   0.00000   0.00000  -0.00000
  17         D2         0.30437  -0.00000   0.00000  -0.00000   0.00000
  18         D3         0.19890  -0.00000  -0.00000   0.00000   0.00000
                          11        12        13        14        15
     Eigenvalues --     0.35629   0.35727   0.35868   0.42252   0.55454
   1         R1         0.00000  -0.00000   0.00000  -1.00000  -0.00000
   2         R2         0.00000   0.00000  -1.00000  -0.00000   0.00000
   3         R3        -0.00000   1.00000   0.00000  -0.00000   0.00000
   4         R4        -1.00000  -0.00000  -0.00000  -0.00000  -0.00000
   5         R5        -0.00000   0.00000   0.00000   0.00000   0.00000
   6         R6        -0.00000   0.00000  -0.00000   0.00000  -1.00000
   7         A1         0.00000  -0.00000   0.00000   0.00000   0.00000
   8         A2        -0.00000  -0.00000  -0.00000  -0.00000  -0.00000
   9         A3        -0.00000   0.00000  -0.00000  -0.00000   0.00000
  10         A4        -0.00000   0.00000   0.00000  -0.00000   0.00000
  11         A5         0.00000  -0.00000   0.00000  -0.00000  -0.00000
  12         A6         0.00000   0.00000  -0.00000   0.00000  -0.00000
  13         A7         0.00000  -0.00000  -0.00000  -0.00000   0.00000
  14         A8         0.00000  -0.00000   0.00000   0.00000   0.00000
  15         A9        -0.00000   0.00000   0.00000   0.00000  -0.00000
  16         D1         0.00000  -0.00000   0.00000   0.00000  -0.00000
  17         D2         0.00000   0.00000  -0.00000   0.00000  -0.00000
  18         D3         0.00000  -0.00000  -0.00000  -0.00000  -0.00000
 Iter=   1 RLamda= 0.00000000D+00 Sum=-4.16813385D-03.
 Iter=   2 RLamda=-4.16813385D-03 Sum=-3.64056503D-03.
 Iter=   3 RLamda=-3.64056503D-03 Sum=-3.69514848D-03.
 Iter=   4 RLamda=-3.69514848D-03 Sum=-3.68937910D-03.
 Iter=   5 RLamda=-3.68937910D-03 Sum=-3.68998755D-03.
 Iter=   6 RLamda=-3.68998755D-03 Sum=-3.68992336D-03.
 Iter=   7 RLamda=-3.68992336D-03 Sum=-3.68993013D-03.
 RFO step:  Lambda=-3.68992336D-03 EMin= 3.53281448D-03
 Linear search not attempted -- first point.
 Maximum step size (   0.300) exceeded in Quadratic search.
    -- Step size scaled by   0.959
 Iteration  1 RMS(Cart)=  0.11645195 RMS(Int)=  0.00839069
 Iteration  2 RMS(Cart)=  0.00989584 RMS(Int)=  0.00027110
 Iteration  3 RMS(Cart)=  0.00007172 RMS(Int)=  0.00026288
 Iteration  4 RMS(Cart)=  0.00000001 RMS(Int)=  0.00026288
 ITry= 1 IFail=0 DXMaxC= 2.93D-01 DCOld= 1.00D+10 DXMaxT= 3.00D-01 DXLimC= 3.00D+00 Rises=F
 Variable       Old X    -DE/DX   Delta X   Delta X   Delta X     New X
                                 (Linear)    (Quad)   (Total)
    R1        2.68603  -0.00157   0.00000  -0.00353  -0.00353   2.68250
    R2        2.04288   0.00373   0.00000   0.00987   0.00987   2.05275
    R3        2.04511   0.00491   0.00000   0.01304   0.01304   2.05815
    R4        2.04666   0.00481   0.00000   0.01281   0.01281   2.05947
    R5        4.37067  -0.00638   0.00000  -0.20115  -0.20115   4.16953
    R6        1.81431   0.01304   0.00000   0.02239   0.02239   1.83670
    A1        1.91696   0.00275   0.00000   0.02265   0.02260   1.93956
    A2        1.89841   0.00278   0.00000   0.02258   0.02256   1.92096
    A3        1.89013   0.00231   0.00000   0.02026   0.02018   1.91031
    A4        1.91156  -0.00378   0.00000  -0.02556  -0.02589   1.88567
    A5        1.91870  -0.00259   0.00000  -0.01835  -0.01871   1.89999
    A6        1.92786  -0.00130   0.00000  -0.02032  -0.02099   1.90687
    A7        1.68776  -0.00988   0.00000  -0.03735  -0.03735   1.65040
    A8        3.14635  -0.00418   0.00000  -0.20822  -0.20822   2.93813
    A9        2.88525   0.00061   0.00000   0.03061   0.03061   2.91586
    D1        3.07208  -0.00039   0.00000  -0.04401  -0.04405   3.02803
    D2        0.98823  -0.00315   0.00000  -0.06982  -0.06928   0.91895
    D3       -1.13302   0.00255   0.00000  -0.01645  -0.01695  -1.14997
         Item               Value     Threshold  Converged?
 Maximum Force            0.013035     0.000450     NO 
 RMS     Force            0.004998     0.000300     NO 
 Maximum Displacement     0.293098     0.001800     NO 
 RMS     Displacement     0.123551     0.001200     NO 
 Predicted change in Energy=-2.016528D-03
 Lowest energy point so far.  Saving SCF results.
 Largest change from initial coordinates is atom    7       0.187 Angstoms.
 GradGradGradGradGradGradGradGradGradGradGradGradGradGradGradGradGradGrad

 Leave Link  103 at Wed Oct  7 13:41:11 2020, MaxMem=  2684354560 cpu:              20.5 elap:               2.2
 (Enter /udrive/faculty/rpeverati/g16/g16/l202.exe)
                          Input orientation:                          
 ---------------------------------------------------------------------
 Center     Atomic      Atomic             Coordinates (Angstroms)
 Number     Number       Type             X           Y           Z
 ---------------------------------------------------------------------
      1          9           0        1.867480   -0.023979    0.026347
      2          6           0        0.453279    0.094918   -0.004215
      3          1           0       -0.007768   -0.811962   -0.384984
      4          1           0        0.071362    0.271294    1.000389
      5          1           0        0.173003    0.929259   -0.646895
      6          8           0       -2.070446   -0.148072    0.030817
      7          1           0       -2.940268    0.284786    0.004165
 ---------------------------------------------------------------------
                    Distance matrix (angstroms):
                    1          2          3          4          5
     1  F    0.000000
     2  C    1.419519   0.000000
     3  H    2.075250   1.086269   0.000000
     4  H    2.064457   1.089127   1.760388   0.000000
     5  H    2.057467   1.089825   1.770064   1.776736   0.000000
     6  O    3.939884   2.535639   2.206419   2.388155   2.579341
     7  H    4.817704   3.398866   3.154973   3.172154   3.245255
                    6          7
     6  O    0.000000
     7  H    0.971940   0.000000
 Stoichiometry    CH4FO(1-)
 Framework group  C1[X(CH4FO)]
 Deg. of freedom    15
 Full point group                 C1      NOp   1
 RotChk:  IX=0 Diff= 2.51D-01
 Largest Abelian subgroup         C1      NOp   1
 Largest concise Abelian subgroup C1      NOp   1
                         Standard orientation:                         
 ---------------------------------------------------------------------
 Center     Atomic      Atomic             Coordinates (Angstroms)
 Number     Number       Type             X           Y           Z
 ---------------------------------------------------------------------
      1          9           0        1.856959   -0.061408    0.003044
      2          6           0        0.445849    0.092737   -0.003182
      3          1           0       -0.034788   -0.722872   -0.535865
      4          1           0        0.066174    0.099018    1.017605
      5          1           0        0.185574    1.032803   -0.489241
      6          8           0       -2.082763   -0.095885   -0.005803
      7          1           0       -2.942580    0.354380    0.045621
 ---------------------------------------------------------------------
 Rotational constants (GHZ):         139.6168083           3.4327918           3.4219664
 Leave Link  202 at Wed Oct  7 13:41:12 2020, MaxMem=  2684354560 cpu:               2.2 elap:               0.6
 (Enter /udrive/faculty/rpeverati/g16/g16/l301.exe)
 Standard basis: 6-31G(d) (5D, 7F)
 Ernie: Thresh=  0.10000D-02 Tol=  0.10000D-05 Strict=F.
 There are    53 symmetry adapted cartesian basis functions of A   symmetry.
 There are    50 symmetry adapted basis functions of A   symmetry.
    50 basis functions,   100 primitive gaussians,    53 cartesian basis functions
    14 alpha electrons       14 beta electrons
       nuclear repulsion energy        68.4925833769 Hartrees.
 IExCor= 1009 DFT=T Ex+Corr=PBE1PBE ExCW=0 ScaHFX=  0.250000
 ScaDFX=  0.750000  0.750000  1.000000  1.000000 ScalE2=  1.000000  1.000000
 IRadAn=      5 IRanWt=     -1 IRanGd=            0 ICorTp=0 IEmpDi=  4
 NAtoms=    7 NActive=    7 NUniq=    7 SFac= 1.00D+00 NAtFMM=   60 NAOKFM=F Big=F
 Integral buffers will be    131072 words long.
 Raffenetti 2 integral format.
 Two-electron integral symmetry is turned on.
 Leave Link  301 at Wed Oct  7 13:41:13 2020, MaxMem=  2684354560 cpu:               2.6 elap:               0.8
 (Enter /udrive/faculty/rpeverati/g16/g16/l302.exe)
 NPDir=0 NMtPBC=     1 NCelOv=     1 NCel=       1 NClECP=     1 NCelD=      1
         NCelK=      1 NCelE2=     1 NClLst=     1 CellRange=     0.0.
 One-electron integrals computed using PRISM.
 One-electron integral symmetry used in STVInt
 NBasis=    50 RedAO= T EigKep=  1.90D-02  NBF=    50
 NBsUse=    50 1.00D-06 EigRej= -1.00D+00 NBFU=    50
 Precomputing XC quadrature grid using
 IXCGrd= 4 IRadAn=           5 IRanWt=          -1 IRanGd=           0 AccXCQ= 0.00D+00.
 Generated NRdTot=       0 NPtTot=           0 NUsed=           0 NTot=          32
 NSgBfM=    53    53    53    53    53 MxSgAt=     7 MxSgA2=     7.
 Leave Link  302 at Wed Oct  7 13:41:15 2020, MaxMem=  2684354560 cpu:               9.4 elap:               1.5
 (Enter /udrive/faculty/rpeverati/g16/g16/l303.exe)
 DipDrv:  MaxL=1.
 Leave Link  303 at Wed Oct  7 13:41:16 2020, MaxMem=  2684354560 cpu:               2.5 elap:               0.7
 (Enter /udrive/faculty/rpeverati/g16/g16/l401.exe)
 Initial guess from the checkpoint file:  "MN_62_hoch3fcomp2_BH76_PBE0_631Gs.chk"
 SCF N**3 symmetry information disabled.
 B after Tr=     0.000000    0.000000   -0.000000
         Rot=    0.996659   -0.081670    0.000703   -0.000929 Ang=  -9.37 deg.
 Guess basis will be translated and rotated to current coordinates.
 JPrj=2 DoOrth=T DoCkMO=T.
 Generating alternative initial guess.
 ExpMin= 1.61D-01 ExpMax= 7.00D+03 ExpMxC= 1.05D+03 IAcc=2 IRadAn=         4 AccDes= 0.00D+00
 Harris functional with IExCor= 1009 and IRadAn=       4 diagonalized for initial guess.
 HarFok:  IExCor= 1009 AccDes= 0.00D+00 IRadAn=         4 IDoV= 1 UseB2=F ITyADJ=14
 ICtDFT=  3500011 ScaDFX=  1.000000  1.000000  1.000000  1.000000
 FoFCou: FMM=F IPFlag=           0 FMFlag=      100000 FMFlg1=           0
         NFxFlg=           0 DoJE=T BraDBF=F KetDBF=T FulRan=T
         wScrn=  0.000000 ICntrl=       500 IOpCl=  0 I1Cent=   200000004 NGrid=           0
         NMat0=    1 NMatS0=      1 NMatT0=    0 NMatD0=    1 NMtDS0=    0 NMtDT0=    0
 Petite list used in FoFCou.
 Harris En= -215.570399145967    
 Leave Link  401 at Wed Oct  7 13:41:19 2020, MaxMem=  2684354560 cpu:              22.7 elap:               2.6
 (Enter /udrive/faculty/rpeverati/g16/g16/l502.exe)
 Keep R1 ints in memory in canonical form, NReq=11319949.
 FoFCou: FMM=F IPFlag=           0 FMFlag=           0 FMFlg1=           0
         NFxFlg=           0 DoJE=F BraDBF=F KetDBF=F FulRan=T
         wScrn=  0.000000 ICntrl=       600 IOpCl=  0 I1Cent=           0 NGrid=           0
         NMat0=    1 NMatS0=   1275 NMatT0=    0 NMatD0=    1 NMtDS0=    0 NMtDT0=    0
 Symmetry not used in FoFCou.
 Two-electron integral symmetry not used.
 Closed shell SCF:
 Using DIIS extrapolation, IDIIS=  1040.
 NGot=  2684354560 LenX=  2683534079 LenY=  2683530829
 Requested convergence on RMS density matrix=1.00D-08 within 120 cycles.
 Requested convergence on MAX density matrix=1.00D-06.
 Requested convergence on             energy=1.00D-06.
 No special actions if energy rises.
 Integral accuracy reduced to 1.0D-05 until final iterations.

 Cycle   1  Pass 0  IDiag  1:
 E= -215.243058925890    
 DIIS: error= 1.26D-02 at cycle   1 NSaved=   1.
 NSaved= 1 IEnMin= 1 EnMin= -215.243058925890     IErMin= 1 ErrMin= 1.26D-02
 ErrMax= 1.26D-02  0.00D+00 EMaxC= 1.00D-01 BMatC= 4.07D-03 BMatP= 4.07D-03
 IDIUse=3 WtCom= 8.74D-01 WtEn= 1.26D-01
 Coeff-Com:  0.100D+01
 Coeff-En:   0.100D+01
 Coeff:      0.100D+01
 Recover alternate guess density for next cycle.
 RMSDP=9.60D-03 MaxDP=1.18D-01              OVMax= 0.00D+00

 Cycle   2  Pass 0  IDiag  1:
 E= -215.034047023104     Delta-E=        0.209011902786 Rises=F Damp=F
 Switch densities from cycles 1 and 2 for lowest energy.
 DIIS: error= 1.03D-01 at cycle   2 NSaved=   2.
 NSaved= 2 IEnMin= 1 EnMin= -215.243058925890     IErMin= 1 ErrMin= 1.26D-02
 ErrMax= 1.03D-01  0.00D+00 EMaxC= 1.00D+00 BMatC= 2.60D-01 BMatP= 4.07D-03
 IDIUse=1 WtCom= 1.00D+00 WtEn= 0.00D+00
 Coeff-Com:  0.989D+00 0.107D-01
 Coeff:      0.989D+00 0.107D-01
 Gap=     0.241 Goal=   None    Shift=    0.000
 RMSDP=2.70D-03 MaxDP=3.63D-02 DE= 2.09D-01 OVMax= 1.57D-01

 Cycle   3  Pass 0  IDiag  1:
 E= -215.250361971860     Delta-E=       -0.216314948757 Rises=F Damp=F
 DIIS: error= 3.00D-03 at cycle   3 NSaved=   3.
 NSaved= 3 IEnMin= 3 EnMin= -215.250361971860     IErMin= 3 ErrMin= 3.00D-03
 ErrMax= 3.00D-03  0.00D+00 EMaxC= 1.00D+00 BMatC= 2.97D-04 BMatP= 4.07D-03
 IDIUse=1 WtCom= 1.00D+00 WtEn= 0.00D+00
 Coeff-Com: -0.627D-01 0.273D-01 0.104D+01
 Coeff:     -0.627D-01 0.273D-01 0.104D+01
 Gap=     0.229 Goal=   None    Shift=    0.000
 RMSDP=6.56D-04 MaxDP=7.79D-03 DE=-2.16D-01 OVMax= 1.28D-02

 Cycle   4  Pass 0  IDiag  1:
 E= -215.250631401366     Delta-E=       -0.000269429506 Rises=F Damp=F
 DIIS: error= 1.53D-03 at cycle   4 NSaved=   4.
 NSaved= 4 IEnMin= 4 EnMin= -215.250631401366     IErMin= 4 ErrMin= 1.53D-03
 ErrMax= 1.53D-03  0.00D+00 EMaxC= 1.00D+00 BMatC= 1.33D-04 BMatP= 2.97D-04
 IDIUse=1 WtCom= 1.00D+00 WtEn= 0.00D+00
 Coeff-Com: -0.561D-01 0.151D-01 0.565D+00 0.476D+00
 Coeff:     -0.561D-01 0.151D-01 0.565D+00 0.476D+00
 Gap=     0.229 Goal=   None    Shift=    0.000
 RMSDP=1.52D-04 MaxDP=2.54D-03 DE=-2.69D-04 OVMax= 3.11D-03

 Cycle   5  Pass 0  IDiag  1:
 E= -215.250720664529     Delta-E=       -0.000089263162 Rises=F Damp=F
 DIIS: error= 1.60D-04 at cycle   5 NSaved=   5.
 NSaved= 5 IEnMin= 5 EnMin= -215.250720664529     IErMin= 5 ErrMin= 1.60D-04
 ErrMax= 1.60D-04  0.00D+00 EMaxC= 1.00D+00 BMatC= 1.91D-06 BMatP= 1.33D-04
 IDIUse=1 WtCom= 1.00D+00 WtEn= 0.00D+00
 Coeff-Com: -0.440D-02 0.238D-03-0.415D-03 0.910D-01 0.914D+00
 Coeff:     -0.440D-02 0.238D-03-0.415D-03 0.910D-01 0.914D+00
 Gap=     0.229 Goal=   None    Shift=    0.000
 RMSDP=6.40D-05 MaxDP=1.03D-03 DE=-8.93D-05 OVMax= 1.31D-03

 Cycle   6  Pass 0  IDiag  1:
 E= -215.250723175324     Delta-E=       -0.000002510796 Rises=F Damp=F
 DIIS: error= 4.01D-05 at cycle   6 NSaved=   6.
 NSaved= 6 IEnMin= 6 EnMin= -215.250723175324     IErMin= 6 ErrMin= 4.01D-05
 ErrMax= 4.01D-05  0.00D+00 EMaxC= 1.00D+00 BMatC= 1.04D-07 BMatP= 1.91D-06
 IDIUse=1 WtCom= 1.00D+00 WtEn= 0.00D+00
 Coeff-Com:  0.248D-02-0.783D-03-0.331D-01-0.669D-02 0.218D+00 0.820D+00
 Coeff:      0.248D-02-0.783D-03-0.331D-01-0.669D-02 0.218D+00 0.820D+00
 Gap=     0.229 Goal=   None    Shift=    0.000
 RMSDP=1.76D-05 MaxDP=2.74D-04 DE=-2.51D-06 OVMax= 3.62D-04

 Cycle   7  Pass 0  IDiag  1:
 E= -215.250723325529     Delta-E=       -0.000000150205 Rises=F Damp=F
 DIIS: error= 2.25D-05 at cycle   7 NSaved=   7.
 NSaved= 7 IEnMin= 7 EnMin= -215.250723325529     IErMin= 7 ErrMin= 2.25D-05
 ErrMax= 2.25D-05  0.00D+00 EMaxC= 1.00D+00 BMatC= 2.20D-08 BMatP= 1.04D-07
 IDIUse=1 WtCom= 1.00D+00 WtEn= 0.00D+00
 Coeff-Com:  0.124D-02-0.311D-03-0.143D-01-0.888D-02 0.395D-01 0.361D+00
 Coeff-Com:  0.622D+00
 Coeff:      0.124D-02-0.311D-03-0.143D-01-0.888D-02 0.395D-01 0.361D+00
 Coeff:      0.622D+00
 Gap=     0.229 Goal=   None    Shift=    0.000
 RMSDP=4.26D-06 MaxDP=4.59D-05 DE=-1.50D-07 OVMax= 7.20D-05

 Initial convergence to 1.0D-05 achieved.  Increase integral accuracy.
 Cycle   8  Pass 1  IDiag  1:
 E= -215.250721245710     Delta-E=        0.000002079819 Rises=F Damp=F
 DIIS: error= 3.24D-06 at cycle   1 NSaved=   1.
 NSaved= 1 IEnMin= 1 EnMin= -215.250721245710     IErMin= 1 ErrMin= 3.24D-06
 ErrMax= 3.24D-06  0.00D+00 EMaxC= 1.00D+00 BMatC= 6.41D-10 BMatP= 6.41D-10
 IDIUse=1 WtCom= 1.00D+00 WtEn= 0.00D+00
 Coeff-Com:  0.100D+01
 Coeff:      0.100D+01
 Gap=     0.229 Goal=   None    Shift=    0.000
 RMSDP=4.26D-06 MaxDP=4.59D-05 DE= 2.08D-06 OVMax= 2.72D-05

 Cycle   9  Pass 1  IDiag  1:
 E= -215.250721246029     Delta-E=       -0.000000000319 Rises=F Damp=F
 DIIS: error= 4.31D-06 at cycle   2 NSaved=   2.
 NSaved= 2 IEnMin= 2 EnMin= -215.250721246029     IErMin= 1 ErrMin= 3.24D-06
 ErrMax= 4.31D-06  0.00D+00 EMaxC= 1.00D+00 BMatC= 7.86D-10 BMatP= 6.41D-10
 IDIUse=1 WtCom= 1.00D+00 WtEn= 0.00D+00
 Coeff-Com:  0.528D+00 0.472D+00
 Coeff:      0.528D+00 0.472D+00
 Gap=     0.229 Goal=   None    Shift=    0.000
 RMSDP=5.88D-07 MaxDP=5.96D-06 DE=-3.19D-10 OVMax= 8.68D-06

 Cycle  10  Pass 1  IDiag  1:
 E= -215.250721246711     Delta-E=       -0.000000000681 Rises=F Damp=F
 DIIS: error= 9.19D-07 at cycle   3 NSaved=   3.
 NSaved= 3 IEnMin= 3 EnMin= -215.250721246711     IErMin= 3 ErrMin= 9.19D-07
 ErrMax= 9.19D-07  0.00D+00 EMaxC= 1.00D+00 BMatC= 2.52D-11 BMatP= 6.41D-10
 IDIUse=1 WtCom= 1.00D+00 WtEn= 0.00D+00
 Coeff-Com:  0.938D-01 0.167D+00 0.739D+00
 Coeff:      0.938D-01 0.167D+00 0.739D+00
 Gap=     0.229 Goal=   None    Shift=    0.000
 RMSDP=1.88D-07 MaxDP=2.69D-06 DE=-6.81D-10 OVMax= 3.53D-06

 Cycle  11  Pass 1  IDiag  1:
 E= -215.250721246736     Delta-E=       -0.000000000026 Rises=F Damp=F
 DIIS: error= 3.03D-07 at cycle   4 NSaved=   4.
 NSaved= 4 IEnMin= 4 EnMin= -215.250721246736     IErMin= 4 ErrMin= 3.03D-07
 ErrMax= 3.03D-07  0.00D+00 EMaxC= 1.00D+00 BMatC= 4.07D-12 BMatP= 2.52D-11
 IDIUse=1 WtCom= 1.00D+00 WtEn= 0.00D+00
 Coeff-Com: -0.391D-01 0.112D-02 0.304D+00 0.734D+00
 Coeff:     -0.391D-01 0.112D-02 0.304D+00 0.734D+00
 Gap=     0.229 Goal=   None    Shift=    0.000
 RMSDP=8.49D-08 MaxDP=1.16D-06 DE=-2.56D-11 OVMax= 1.64D-06

 Cycle  12  Pass 1  IDiag  1:
 E= -215.250721246741     Delta-E=       -0.000000000005 Rises=F Damp=F
 DIIS: error= 6.41D-08 at cycle   5 NSaved=   5.
 NSaved= 5 IEnMin= 5 EnMin= -215.250721246741     IErMin= 5 ErrMin= 6.41D-08
 ErrMax= 6.41D-08  0.00D+00 EMaxC= 1.00D+00 BMatC= 2.98D-13 BMatP= 4.07D-12
 IDIUse=1 WtCom= 1.00D+00 WtEn= 0.00D+00
 Coeff-Com: -0.259D-01-0.168D-01 0.491D-01 0.268D+00 0.725D+00
 Coeff:     -0.259D-01-0.168D-01 0.491D-01 0.268D+00 0.725D+00
 Gap=     0.229 Goal=   None    Shift=    0.000
 RMSDP=2.17D-08 MaxDP=3.43D-07 DE=-5.06D-12 OVMax= 4.39D-07

 Cycle  13  Pass 1  IDiag  1:
 E= -215.250721246741     Delta-E=        0.000000000000 Rises=F Damp=F
 DIIS: error= 2.62D-08 at cycle   6 NSaved=   6.
 NSaved= 6 IEnMin= 5 EnMin= -215.250721246741     IErMin= 6 ErrMin= 2.62D-08
 ErrMax= 2.62D-08  0.00D+00 EMaxC= 1.00D+00 BMatC= 3.64D-14 BMatP= 2.98D-13
 IDIUse=1 WtCom= 1.00D+00 WtEn= 0.00D+00
 Coeff-Com: -0.108D-01-0.842D-02 0.108D-01 0.959D-01 0.360D+00 0.553D+00
 Coeff:     -0.108D-01-0.842D-02 0.108D-01 0.959D-01 0.360D+00 0.553D+00
 Gap=     0.229 Goal=   None    Shift=    0.000
 RMSDP=3.44D-09 MaxDP=4.43D-08 DE= 0.00D+00 OVMax= 5.26D-08

 SCF Done:  E(RPBE1PBE) =  -215.250721247     A.U. after   13 cycles
            NFock= 13  Conv=0.34D-08     -V/T= 2.0037
 KE= 2.144499299023D+02 PE=-6.548814804226D+02 EE= 1.566882458967D+02
 Leave Link  502 at Wed Oct  7 13:41:23 2020, MaxMem=  2684354560 cpu:              28.8 elap:               3.4
 (Enter /udrive/faculty/rpeverati/g16/g16/l508.exe)
 QCSCF skips out because SCF is already converged.
 Leave Link  508 at Wed Oct  7 13:41:23 2020, MaxMem=  2684354560 cpu:               0.7 elap:               0.5
 (Enter /udrive/faculty/rpeverati/g16/g16/l701.exe)
 ... and contract with generalized density number  0.
 Compute integral first derivatives.
 Leave Link  701 at Wed Oct  7 13:41:25 2020, MaxMem=  2684354560 cpu:               8.0 elap:               1.4
 (Enter /udrive/faculty/rpeverati/g16/g16/l702.exe)
 L702 exits ... SP integral derivatives will be done elsewhere.
 Leave Link  702 at Wed Oct  7 13:41:26 2020, MaxMem=  2684354560 cpu:               1.7 elap:               0.6
 (Enter /udrive/faculty/rpeverati/g16/g16/l703.exe)
 Integral derivatives from FoFJK, PRISM(SPDF).
 Compute integral first derivatives, UseDBF=F ICtDFT=           0.
 Calling FoFJK, ICntrl=      2127 FMM=F ISym2X=0 I1Cent= 0 IOpClX= 0 NMat=1 NMatS=1 NMatT=0.
 FoFJK:  IHMeth= 1 ICntrl=    2127 DoSepK=F KAlg= 0 I1Cent=           0 FoldK=F
 IRaf=         0 NMat=       1 IRICut=       1 DoRegI=T DoRafI=F ISym2E= 0 IDoP0=0 IntGTp=1.
 FoFCou: FMM=F IPFlag=           0 FMFlag=      100000 FMFlg1=         800
         NFxFlg=           0 DoJE=F BraDBF=F KetDBF=F FulRan=T
         wScrn=  0.000000 ICntrl=      2127 IOpCl=  0 I1Cent=           0 NGrid=           0
         NMat0=    1 NMatS0=      1 NMatT0=    0 NMatD0=    1 NMtDS0=    0 NMtDT0=    0
 Symmetry not used in FoFCou.
 Leave Link  703 at Wed Oct  7 13:41:28 2020, MaxMem=  2684354560 cpu:              10.4 elap:               1.5
 (Enter /udrive/faculty/rpeverati/g16/g16/l716.exe)
 Dipole        = 2.05390834D+00 3.62669502D-01 2.13576254D-02
 ***** Axes restored to original set *****
 -------------------------------------------------------------------
 Center     Atomic                   Forces (Hartrees/Bohr)
 Number     Number              X              Y              Z
 -------------------------------------------------------------------
      1        9           0.001087266   -0.000259445   -0.000593951
      2        6           0.000118053    0.002369740    0.001987961
      3        1          -0.001508723   -0.001130409   -0.000947153
      4        1          -0.001511443   -0.000131317   -0.000693992
      5        1          -0.000071991    0.000344612   -0.000373464
      6        8           0.002412147   -0.004520158    0.001558678
      7        1          -0.000525310    0.003326977   -0.000938079
 -------------------------------------------------------------------
 Cartesian Forces:  Max     0.004520158 RMS     0.001684470
 Leave Link  716 at Wed Oct  7 13:41:29 2020, MaxMem=  2684354560 cpu:               2.1 elap:               0.6
 (Enter /udrive/faculty/rpeverati/g16/g16/l103.exe)

 GradGradGradGradGradGradGradGradGradGradGradGradGradGradGradGradGradGrad
 Berny optimization.
 Optmz: redundant internal coordinate code flag= 1
 Using GEDIIS/GDIIS optimizer.
 Red2BG:  D1=  6.53D-02 OD1=  1.85D-01 B2RMS=  0.00D+00 IAprox=0
 FormGI is forming the generalized inverse of G from B-inverse, IUseBI=4.
 Internal  Forces:  Max     0.005291522 RMS     0.001806414
 Search for a local minimum.
 Step number   2 out of a maximum of  100
 All quantities printed in internal units (Hartrees-Bohrs-Radians)
 RMS Force = .18064D-02 SwitMx=.10000D-02 MixMth= 1
 Mixed Optimization -- RFO/linear search
 Update second derivatives using D2CorX and points    1    2
 DE= -2.80D-03 DEPred=-2.02D-03 R= 1.39D+00
 TightC=F SS=  1.41D+00  RLast= 3.11D-01 DXNew= 5.0454D-01 9.3438D-01
 Trust test= 1.39D+00 RLast= 3.11D-01 DXMaxT set to 5.05D-01
 The second derivative matrix:
                          R1        R2        R3        R4        R5
           R1           0.42598
           R2          -0.00092   0.35625
           R3          -0.00566  -0.00039   0.36518
           R4          -0.00474  -0.00089   0.00623   0.36105
           R5           0.00423   0.00190  -0.00478  -0.00336   0.02847
           R6          -0.01133  -0.00341   0.01399   0.01036  -0.00660
           A1          -0.00295  -0.00121   0.00341   0.00243  -0.00135
           A2          -0.00004  -0.00305  -0.00210  -0.00240   0.00341
           A3          -0.00212  -0.00141   0.00208   0.00132  -0.00037
           A4           0.00183   0.00237  -0.00098  -0.00022  -0.00099
           A5           0.00293   0.00070  -0.00375  -0.00283   0.00192
           A6           0.00003   0.00285   0.00197   0.00225  -0.00319
           A7           0.00567   0.00437  -0.00511  -0.00304   0.00028
           A8          -0.00334   0.00488   0.00828   0.00777  -0.00859
           A9          -0.00047  -0.00011   0.00060   0.00045  -0.00031
           D1           0.00042  -0.00013  -0.00071  -0.00060   0.00054
           D2           0.00315  -0.00179  -0.00582  -0.00507   0.00492
           D3          -0.00428   0.00276   0.00815   0.00717  -0.00707
                          R6        A1        A2        A3        A4
           R6           0.57628
           A1           0.00487   0.16102
           A2          -0.00720  -0.00225   0.15650
           A3           0.00223   0.00034  -0.00223   0.15985
           A4           0.00084   0.00057   0.00324   0.00098   0.15792
           A5          -0.00606  -0.00140   0.00165  -0.00071  -0.00002
           A6           0.00675   0.00211   0.00326   0.00208  -0.00303
           A7          -0.00447  -0.00044   0.00665   0.00085  -0.00327
           A8           0.02050   0.00582   0.00460   0.00499  -0.00603
           A9           0.00097   0.00022  -0.00026   0.00011   0.00000
           D1          -0.00144  -0.00038  -0.00003  -0.00028   0.00025
           D2          -0.01259  -0.00339  -0.00112  -0.00263   0.00268
           D3           0.01792   0.00486   0.00191   0.00382  -0.00400
                          A5        A6        A7        A8        A9
           A5           0.16167
           A6          -0.00155   0.15696
           A7           0.00156  -0.00622   0.24638
           A8          -0.00502  -0.00427  -0.01422   0.01284
           A9          -0.00027   0.00025  -0.00025   0.00080   0.01561
           D1           0.00037   0.00003   0.00074  -0.00037  -0.00006
           D2           0.00319   0.00103   0.00724  -0.00163  -0.00051
           D3          -0.00452  -0.00176  -0.01058   0.00171   0.00072
                          D1        D2        D3
           D1           0.00358
           D2           0.00038   0.00606
           D3          -0.00051  -0.00332   0.00785
 ITU=  1  0
 Use linear search instead of GDIIS.
 Eigenvectors of the second derivative matrix:
                           1         2         3         4         5
     Eigenvalues --     0.00331   0.00697   0.01562   0.03087   0.09819
   1         R1        -0.00054  -0.00076  -0.00070  -0.01022  -0.00052
   2         R2         0.00496   0.01578   0.00076   0.00051  -0.00410
   3         R3         0.00444   0.01251   0.00175   0.01811  -0.00198
   4         R4         0.00475   0.01380   0.00159   0.01462  -0.00258
   5         R5        -0.09396  -0.33221  -0.05029   0.93530  -0.01473
   6         R6         0.00874   0.02581   0.00256   0.02093  -0.00464
   7         A1         0.00785   0.02279   0.00329   0.03724  -0.05981
   8         A2         0.01139   0.03703   0.00193   0.00271  -0.54749
   9         A3         0.00697   0.02015   0.00299   0.03557   0.40889
  10         A4        -0.01148  -0.03569  -0.00289  -0.02078  -0.20574
  11         A5        -0.00682  -0.01991  -0.00265  -0.02791   0.27921
  12         A6        -0.00860  -0.02646  -0.00289  -0.02901   0.12855
  13         A7        -0.01664  -0.05147  -0.00372  -0.02092   0.01428
  14         A8        -0.18925  -0.91108  -0.04707  -0.33976  -0.02201
  15         A9         0.01463   0.06055  -0.99758  -0.03024   0.00090
  16         D1        -0.56315   0.12635  -0.00089  -0.02489  -0.49987
  17         D2        -0.57459   0.08978  -0.00342  -0.03755   0.34456
  18         D3        -0.55402   0.15266   0.00315   0.02439   0.15209
                           6         7         8         9        10
     Eigenvalues --     0.10643   0.15799   0.16000   0.16428   0.24696
   1         R1         0.01534  -0.00322  -0.00000  -0.01476   0.03107
   2         R2         0.00411  -0.01105   0.00000   0.00160   0.03576
   3         R3        -0.02506  -0.00167  -0.00000   0.02972  -0.04597
   4         R4        -0.01910  -0.00401   0.00000   0.02424  -0.02832
   5         R5        -0.04140  -0.01309   0.00000   0.02811  -0.00235
   6         R6        -0.02301  -0.00772  -0.00000   0.02768  -0.01567
   7         A1         0.22050   0.20149  -0.64649  -0.51707   0.03676
   8         A2         0.18754  -0.48635   0.18096   0.14400  -0.03534
   9         A3         0.36629  -0.03187   0.54590  -0.15577   0.01712
  10         A4        -0.19101   0.77168   0.26562   0.18694   0.01988
  11         A5        -0.00357  -0.12734  -0.41941   0.71447  -0.03732
  12         A6        -0.60532  -0.32646   0.06956  -0.36382  -0.00174
  13         A7         0.01975   0.04309  -0.00000  -0.05482  -0.99314
  14         A8         0.08961  -0.03131   0.00000  -0.03177   0.05778
  15         A9         0.00498   0.00069   0.00000  -0.00305   0.00113
  16         D1        -0.11080   0.00395   0.00000   0.00944  -0.00608
  17         D2        -0.35354  -0.01646   0.00000   0.02678   0.00227
  18         D3         0.47952   0.00753  -0.00000  -0.04215   0.01386
                          11        12        13        14        15
     Eigenvalues --     0.35602   0.35695   0.36853   0.42620   0.58049
   1         R1        -0.01927   0.00668   0.12079  -0.98842   0.08051
   2         R2        -0.76225   0.64257  -0.06294   0.01390   0.01476
   3         R3         0.33738   0.48053   0.79909   0.08598  -0.07208
   4         R4        -0.55095  -0.59637   0.57503   0.07090  -0.05383
   5         R5        -0.00337   0.00260  -0.01555  -0.01105   0.01450
   6         R6        -0.00745   0.00769  -0.08453  -0.09230  -0.99066
   7         A1        -0.00234   0.00017   0.02473   0.01244  -0.02323
   8         A2         0.00764  -0.00407  -0.00480   0.00134   0.00791
   9         A3        -0.00061  -0.00040   0.01619   0.00876  -0.01565
  10         A4        -0.00658   0.00406  -0.00803  -0.00777   0.00431
  11         A5         0.00192   0.00007  -0.02490  -0.01257   0.02243
  12         A6        -0.00011   0.00024  -0.00413  -0.00278   0.00509
  13         A7        -0.02923   0.01859  -0.04651  -0.03343   0.01882
  14         A8        -0.01399   0.00661   0.02776   0.00865  -0.03926
  15         A9         0.00010  -0.00014   0.00192   0.00119  -0.00201
  16         D1         0.00078  -0.00028  -0.00338  -0.00149   0.00346
  17         D2        -0.00297   0.00201  -0.00736  -0.00572   0.00510
  18         D3        -0.00019  -0.00062   0.01598   0.00899  -0.01590
 Iter=   1 RLamda= 0.00000000D+00 Sum=-1.72435037D-03.
 Iter=   2 RLamda=-1.72435037D-03 Sum=-1.45854784D-03.
 Iter=   3 RLamda=-1.45854784D-03 Sum=-1.49182733D-03.
 Iter=   4 RLamda=-1.49182733D-03 Sum=-1.48753998D-03.
 Iter=   5 RLamda=-1.48753998D-03 Sum=-1.48809031D-03.
 Iter=   6 RLamda=-1.48809031D-03 Sum=-1.48801963D-03.
 Iter=   7 RLamda=-1.48801963D-03 Sum=-1.48802871D-03.
 RFO step:  Lambda=-1.48801963D-03 EMin= 3.31473748D-03
 Quartic linear search produced a step of  0.63897.
 Iteration  1 RMS(Cart)=  0.11662287 RMS(Int)=  0.06756717
 Iteration  2 RMS(Cart)=  0.06921073 RMS(Int)=  0.02116199
 Iteration  3 RMS(Cart)=  0.03209186 RMS(Int)=  0.00136181
 Iteration  4 RMS(Cart)=  0.00107737 RMS(Int)=  0.00030845
 Iteration  5 RMS(Cart)=  0.00000076 RMS(Int)=  0.00030845
 ITry= 1 IFail=0 DXMaxC= 5.89D-01 DCOld= 1.00D+10 DXMaxT= 5.05D-01 DXLimC= 3.00D+00 Rises=F
 Variable       Old X    -DE/DX   Delta X   Delta X   Delta X     New X
                                 (Linear)    (Quad)   (Total)
    R1        2.68250   0.00109  -0.00225   0.00438   0.00213   2.68463
    R2        2.05275   0.00204   0.00631   0.00787   0.01418   2.06693
    R3        2.05815  -0.00013   0.00833  -0.00192   0.00642   2.06457
    R4        2.05947   0.00038   0.00819   0.00035   0.00854   2.06801
    R5        4.16953  -0.00202  -0.12853  -0.02566  -0.15419   4.01534
    R6        1.83670   0.00198   0.01431   0.00348   0.01779   1.85449
    A1        1.93956  -0.00024   0.01444  -0.00404   0.01034   1.94990
    A2        1.92096   0.00163   0.01441   0.01621   0.03060   1.95156
    A3        1.91031  -0.00004   0.01290  -0.00383   0.00896   1.91927
    A4        1.88567  -0.00133  -0.01655  -0.00907  -0.02598   1.85968
    A5        1.89999   0.00020  -0.01196   0.00252  -0.00983   1.89016
    A6        1.90687  -0.00024  -0.01341  -0.00194  -0.01614   1.89073
    A7        1.65040  -0.00338  -0.02387  -0.01674  -0.04061   1.60979
    A8        2.93813  -0.00529  -0.13305  -0.34795  -0.48099   2.45714
    A9        2.91586   0.00017   0.01956  -0.00472   0.01484   2.93070
    D1        3.02803  -0.00007  -0.02815  -0.03833  -0.06654   2.96149
    D2        0.91895  -0.00107  -0.04427  -0.05002  -0.09363   0.82533
    D3       -1.14997  -0.00014  -0.01083  -0.04397  -0.05539  -1.20537
         Item               Value     Threshold  Converged?
 Maximum Force            0.005292     0.000450     NO 
 RMS     Force            0.001806     0.000300     NO 
 Maximum Displacement     0.589318     0.001800     NO 
 RMS     Displacement     0.202746     0.001200     NO 
 Predicted change in Energy=-2.350135D-03
 Lowest energy point so far.  Saving SCF results.
 Largest change from initial coordinates is atom    7       0.579 Angstoms.
 GradGradGradGradGradGradGradGradGradGradGradGradGradGradGradGradGradGrad

 Leave Link  103 at Wed Oct  7 13:41:32 2020, MaxMem=  2684354560 cpu:              22.7 elap:               2.4
 (Enter /udrive/faculty/rpeverati/g16/g16/l202.exe)
                          Input orientation:                          
 ---------------------------------------------------------------------
 Center     Atomic      Atomic             Coordinates (Angstroms)
 Number     Number       Type             X           Y           Z
 ---------------------------------------------------------------------
      1          9           0        1.807472    0.056483    0.053497
      2          6           0        0.388797    0.088964   -0.013852
      3          1           0       -0.018856   -0.843382   -0.414957
      4          1           0       -0.061427    0.226829    0.971996
      5          1           0        0.064036    0.911413   -0.658599
      6          8           0       -2.004966   -0.295952    0.105214
      7          1           0       -2.628415    0.451887   -0.017676
 ---------------------------------------------------------------------
                    Distance matrix (angstroms):
                    1          2          3          4          5
     1  F    0.000000
     2  C    1.420644   0.000000
     3  H    2.089182   1.093771   0.000000
     4  H    2.089364   1.092522   1.752370   0.000000
     5  H    2.068226   1.094344   1.773566   1.772917   0.000000
     6  O    3.829043   2.427434   2.124826   2.191336   2.514340
     7  H    4.454044   3.038963   2.940297   2.760349   2.805572
                    6          7
     6  O    0.000000
     7  H    0.981353   0.000000
 Stoichiometry    CH4FO(1-)
 Framework group  C1[X(CH4FO)]
 Deg. of freedom    15
 Full point group                 C1      NOp   1
 RotChk:  IX=0 Diff= 1.42D-01
 Largest Abelian subgroup         C1      NOp   1
 Largest concise Abelian subgroup C1      NOp   1
                         Standard orientation:                         
 ---------------------------------------------------------------------
 Center     Atomic      Atomic             Coordinates (Angstroms)
 Number     Number       Type             X           Y           Z
 ---------------------------------------------------------------------
      1          9           0        1.811264   -0.057600    0.021944
      2          6           0        0.399432    0.092658   -0.026901
      3          1           0       -0.067545   -0.671913   -0.654355
      4          1           0       -0.053064    0.001638    0.963335
      5          1           0        0.142086    1.075368   -0.433896
      6          8           0       -2.016884   -0.137707    0.001075
      7          1           0       -2.584369    0.659006    0.080222
 ---------------------------------------------------------------------
 Rotational constants (GHZ):         124.2678254           3.6811299           3.6569246
 Leave Link  202 at Wed Oct  7 13:41:33 2020, MaxMem=  2684354560 cpu:               1.2 elap:               0.7
 (Enter /udrive/faculty/rpeverati/g16/g16/l301.exe)
 Standard basis: 6-31G(d) (5D, 7F)
 Ernie: Thresh=  0.10000D-02 Tol=  0.10000D-05 Strict=F.
 There are    53 symmetry adapted cartesian basis functions of A   symmetry.
 There are    50 symmetry adapted basis functions of A   symmetry.
    50 basis functions,   100 primitive gaussians,    53 cartesian basis functions
    14 alpha electrons       14 beta electrons
       nuclear repulsion energy        69.5961180492 Hartrees.
 IExCor= 1009 DFT=T Ex+Corr=PBE1PBE ExCW=0 ScaHFX=  0.250000
 ScaDFX=  0.750000  0.750000  1.000000  1.000000 ScalE2=  1.000000  1.000000
 IRadAn=      5 IRanWt=     -1 IRanGd=            0 ICorTp=0 IEmpDi=  4
 NAtoms=    7 NActive=    7 NUniq=    7 SFac= 1.00D+00 NAtFMM=   60 NAOKFM=F Big=F
 Integral buffers will be    131072 words long.
 Raffenetti 2 integral format.
 Two-electron integral symmetry is turned on.
 Leave Link  301 at Wed Oct  7 13:41:33 2020, MaxMem=  2684354560 cpu:               2.3 elap:               0.6
 (Enter /udrive/faculty/rpeverati/g16/g16/l302.exe)
 NPDir=0 NMtPBC=     1 NCelOv=     1 NCel=       1 NClECP=     1 NCelD=      1
         NCelK=      1 NCelE2=     1 NClLst=     1 CellRange=     0.0.
 One-electron integrals computed using PRISM.
 One-electron integral symmetry used in STVInt
 NBasis=    50 RedAO= T EigKep=  1.90D-02  NBF=    50
 NBsUse=    50 1.00D-06 EigRej= -1.00D+00 NBFU=    50
 Precomputing XC quadrature grid using
 IXCGrd= 4 IRadAn=           5 IRanWt=          -1 IRanGd=           0 AccXCQ= 0.00D+00.
 Generated NRdTot=       0 NPtTot=           0 NUsed=           0 NTot=          32
 NSgBfM=    53    53    53    53    53 MxSgAt=     7 MxSgA2=     7.
 Leave Link  302 at Wed Oct  7 13:41:35 2020, MaxMem=  2684354560 cpu:               7.1 elap:               1.1
 (Enter /udrive/faculty/rpeverati/g16/g16/l303.exe)
 DipDrv:  MaxL=1.
 Leave Link  303 at Wed Oct  7 13:41:36 2020, MaxMem=  2684354560 cpu:               3.1 elap:               0.6
 (Enter /udrive/faculty/rpeverati/g16/g16/l401.exe)
 Initial guess from the checkpoint file:  "MN_62_hoch3fcomp2_BH76_PBE0_631Gs.chk"
 SCF N**3 symmetry information disabled.
 B after Tr=     0.000000   -0.000000    0.000000
         Rot=    0.999376   -0.035279    0.000807    0.001206 Ang=  -4.05 deg.
 Guess basis will be translated and rotated to current coordinates.
 JPrj=2 DoOrth=T DoCkMO=T.
 Generating alternative initial guess.
 ExpMin= 1.61D-01 ExpMax= 7.00D+03 ExpMxC= 1.05D+03 IAcc=2 IRadAn=         4 AccDes= 0.00D+00
 Harris functional with IExCor= 1009 and IRadAn=       4 diagonalized for initial guess.
 HarFok:  IExCor= 1009 AccDes= 0.00D+00 IRadAn=         4 IDoV= 1 UseB2=F ITyADJ=14
 ICtDFT=  3500011 ScaDFX=  1.000000  1.000000  1.000000  1.000000
 FoFCou: FMM=F IPFlag=           0 FMFlag=      100000 FMFlg1=           0
         NFxFlg=           0 DoJE=T BraDBF=F KetDBF=T FulRan=T
         wScrn=  0.000000 ICntrl=       500 IOpCl=  0 I1Cent=   200000004 NGrid=           0
         NMat0=    1 NMatS0=      1 NMatT0=    0 NMatD0=    1 NMtDS0=    0 NMtDT0=    0
 Petite list used in FoFCou.
 Harris En= -215.566258408705    
 Leave Link  401 at Wed Oct  7 13:41:38 2020, MaxMem=  2684354560 cpu:              12.6 elap:               1.9
 (Enter /udrive/faculty/rpeverati/g16/g16/l502.exe)
 Keep R1 ints in memory in canonical form, NReq=11319949.
 FoFCou: FMM=F IPFlag=           0 FMFlag=           0 FMFlg1=           0
         NFxFlg=           0 DoJE=F BraDBF=F KetDBF=F FulRan=T
         wScrn=  0.000000 ICntrl=       600 IOpCl=  0 I1Cent=           0 NGrid=           0
         NMat0=    1 NMatS0=   1275 NMatT0=    0 NMatD0=    1 NMtDS0=    0 NMtDT0=    0
 Symmetry not used in FoFCou.
 Two-electron integral symmetry not used.
 Closed shell SCF:
 Using DIIS extrapolation, IDIIS=  1040.
 NGot=  2684354560 LenX=  2683534079 LenY=  2683530829
 Requested convergence on RMS density matrix=1.00D-08 within 120 cycles.
 Requested convergence on MAX density matrix=1.00D-06.
 Requested convergence on             energy=1.00D-06.
 No special actions if energy rises.
 Integral accuracy reduced to 1.0D-05 until final iterations.

 Cycle   1  Pass 0  IDiag  1:
 E= -215.220859314189    
 DIIS: error= 2.86D-02 at cycle   1 NSaved=   1.
 NSaved= 1 IEnMin= 1 EnMin= -215.220859314189     IErMin= 1 ErrMin= 2.86D-02
 ErrMax= 2.86D-02  0.00D+00 EMaxC= 1.00D-01 BMatC= 1.65D-02 BMatP= 1.65D-02
 IDIUse=3 WtCom= 7.14D-01 WtEn= 2.86D-01
 Coeff-Com:  0.100D+01
 Coeff-En:   0.100D+01
 Coeff:      0.100D+01
 Recover alternate guess density for next cycle.
 RMSDP=1.08D-02 MaxDP=1.22D-01              OVMax= 0.00D+00

 Cycle   2  Pass 0  IDiag  1:
 E= -215.037421998496     Delta-E=        0.183437315693 Rises=F Damp=F
 Switch densities from cycles 1 and 2 for lowest energy.
 DIIS: error= 9.06D-02 at cycle   2 NSaved=   2.
 NSaved= 2 IEnMin= 1 EnMin= -215.220859314189     IErMin= 1 ErrMin= 2.86D-02
 ErrMax= 9.06D-02  0.00D+00 EMaxC= 1.00D+00 BMatC= 2.55D-01 BMatP= 1.65D-02
 IDIUse=1 WtCom= 1.00D+00 WtEn= 0.00D+00
 Coeff-Com:  0.973D+00 0.266D-01
 Coeff:      0.973D+00 0.266D-01
 Gap=     0.258 Goal=   None    Shift=    0.000
 RMSDP=5.55D-03 MaxDP=6.49D-02 DE= 1.83D-01 OVMax= 1.62D-01

 Cycle   3  Pass 0  IDiag  1:
 E= -215.249843491480     Delta-E=       -0.212421492984 Rises=F Damp=F
 DIIS: error= 9.81D-03 at cycle   3 NSaved=   3.
 NSaved= 3 IEnMin= 3 EnMin= -215.249843491480     IErMin= 3 ErrMin= 9.81D-03
 ErrMax= 9.81D-03  0.00D+00 EMaxC= 1.00D+00 BMatC= 2.88D-03 BMatP= 1.65D-02
 IDIUse=1 WtCom= 1.00D+00 WtEn= 0.00D+00
 Coeff-Com: -0.518D-01 0.937D-01 0.958D+00
 Coeff:     -0.518D-01 0.937D-01 0.958D+00
 Gap=     0.251 Goal=   None    Shift=    0.000
 RMSDP=1.67D-03 MaxDP=1.85D-02 DE=-2.12D-01 OVMax= 3.02D-02

 Cycle   4  Pass 0  IDiag  1:
 E= -215.252282856681     Delta-E=       -0.002439365202 Rises=F Damp=F
[...]
           D2           0.00209   0.02257  -0.00541  -0.00174   0.00322
           D3           0.00014  -0.01947   0.00451  -0.00005   0.00329
                          D1        D2        D3
           D1           0.02237
           D2          -0.01090   0.02785
           D3          -0.00702  -0.00638   0.02072
 ITU=  0  0  1  1  1  1  1  1 -1  0  1 -1  1  1  0  0 -1  0  0
 Eigenvectors of the second derivative matrix:
                           1         2         3         4         5
     Eigenvalues --     0.00129   0.00803   0.01329   0.01826   0.04256
   1         R1         0.00570  -0.00189   0.02340   0.03924  -0.00519
   2         R2        -0.01950  -0.10421  -0.04800   0.20528  -0.10576
   3         R3        -0.00091  -0.01788  -0.00441  -0.00032   0.02400
   4         R4        -0.00015  -0.02463  -0.01042   0.00034   0.01990
   5         R5         0.03550   0.31150   0.17386  -0.79847   0.38143
   6         R6         0.00038   0.00342  -0.00125  -0.00581  -0.00676
   7         A1         0.01835   0.01988   0.14044   0.09552  -0.18138
   8         A2         0.00477   0.04341  -0.00423  -0.00162   0.00097
   9         A3        -0.00062   0.02712   0.00635  -0.02693   0.01313
  10         A4        -0.01804  -0.08806  -0.04109   0.00033   0.16312
  11         A5        -0.00635  -0.02209  -0.10364  -0.04908   0.02773
  12         A6         0.00176   0.02559  -0.00219  -0.02530  -0.01963
  13         A7        -0.11395  -0.34100  -0.81517  -0.11532   0.33183
  14         A8        -0.22027   0.29586   0.16708   0.51327   0.74525
  15         A9         0.72746  -0.53318   0.26533   0.04033   0.32509
  16         D1        -0.36888  -0.37042   0.24739  -0.06717   0.06815
  17         D2        -0.37440  -0.37422   0.18438  -0.13329   0.07129
  18         D3        -0.36146  -0.33751   0.27668  -0.07192  -0.02282
                           6         7         8         9        10
     Eigenvalues --     0.08087   0.10029   0.12932   0.15074   0.18377
   1         R1        -0.20308   0.11217  -0.05564   0.08789   0.04637
   2         R2         0.04998   0.07789   0.01004  -0.15337  -0.31669
   3         R3         0.04305  -0.03416   0.03658   0.01720   0.03469
   4         R4         0.04964  -0.06520  -0.00680  -0.09311   0.02549
   5         R5         0.09788   0.03402   0.05271   0.00689   0.00865
   6         R6         0.00572  -0.00933  -0.00415  -0.03896  -0.02214
   7         A1         0.37567   0.03282   0.26002   0.35993   0.55908
   8         A2         0.29144   0.08711   0.31662  -0.48913  -0.35130
   9         A3         0.18569  -0.39498  -0.38701   0.26461  -0.45839
  10         A4        -0.12261   0.61361  -0.54053   0.10573   0.02659
  11         A5        -0.34703  -0.32044  -0.11383  -0.57100   0.40479
  12         A6        -0.41490  -0.03953   0.50904   0.34432  -0.26810
  13         A7         0.18791  -0.04676   0.13269   0.12812   0.06873
  14         A8         0.02271  -0.09067   0.06693   0.01507   0.04436
  15         A9         0.01651  -0.06892   0.05309  -0.00490  -0.00309
  16         D1         0.10666   0.41858   0.22286  -0.16840  -0.05640
  17         D2        -0.44941  -0.18811   0.03551   0.13640  -0.01371
  18         D3         0.35318  -0.32171  -0.18684  -0.00076   0.05017
                          11        12        13        14        15
     Eigenvalues --     0.22299   0.31392   0.35083   0.39811   0.49126
   1         R1        -0.15801   0.14257   0.90388  -0.25415   0.06458
   2         R2         0.86242  -0.05418   0.20447   0.08849   0.06562
   3         R3         0.19416   0.48109  -0.25290  -0.81054  -0.05603
   4         R4        -0.00512  -0.84806   0.02734  -0.49987  -0.11383
   5         R5         0.24966  -0.01696   0.10455   0.02587   0.02400
   6         R6        -0.06153  -0.07201  -0.09026  -0.09896   0.98532
   7         A1         0.17921  -0.04403   0.07192   0.04650   0.04467
   8         A2        -0.24615   0.07848   0.07725  -0.03444  -0.03295
   9         A3        -0.08535   0.01950   0.04112  -0.02626  -0.00921
  10         A4         0.02647  -0.04470  -0.14081  -0.02219  -0.00634
  11         A5         0.09850   0.05432   0.01647   0.04765   0.00129
  12         A6         0.00544  -0.06408  -0.06945  -0.01768  -0.00109
  13         A7        -0.00193   0.01237   0.07270   0.02853   0.01773
  14         A8         0.02846  -0.00282   0.00835   0.02657   0.01330
  15         A9        -0.00493   0.00969   0.00825   0.02653   0.00740
  16         D1        -0.10514   0.00742  -0.01890  -0.01275  -0.01086
  17         D2         0.07006  -0.03004  -0.06382   0.01629   0.00541
  18         D3        -0.01400   0.04315   0.09902   0.02239   0.00989
 DoSqrt=T IScMMF=    -3 MM Scaling Factor =       0.00000
 En-DIIS/RFO-DIIS/Sim-DIIS IScMMF=       -3 using points:    44   43   42   41   40   39   38
 Iter=   1 RLamda=-4.87131985D-02 Sum=-1.13228174D-08.
 Iter=   2 RLamda=-1.13228174D-08 Sum=-2.33781908D-08.
 Iter=   3 RLamda=-2.33781908D-08 Sum=-2.33781263D-08.
 RFO step:  Lambda=-2.33781908D-08.
 NNeg= 0 NGDIIS= 7 SimSw=  2.50D-01 Rises=F DC= -9.19D-08 SmlDif=  1.00D-05
 NRisDI= 0 DoIntr=F SqrtH=F CThrHd= 10.0 CDAdj=  3.0
 RMS Error=  0.5453674112D-03 NUsed= 7 OKEnD=F EnDIS=F
 Total RFO-DIIS matrix:
                 1             2             3             4             5 
      1   0.000000D+00 -0.100000D+01 -0.100000D+01 -0.100000D+01 -0.100000D+01
      2  -0.100000D+01  0.535366D-05  0.199316D-04  0.513710D-04  0.125906D-03
      3  -0.100000D+01  0.199316D-04  0.829255D-04  0.214555D-03  0.519432D-03
      4  -0.100000D+01  0.513710D-04  0.214555D-03  0.564031D-03  0.136892D-02
      5  -0.100000D+01  0.125906D-03  0.519432D-03  0.136892D-02  0.340003D-02
      6  -0.100000D+01  0.112577D-03  0.481182D-03  0.131657D-02  0.334572D-02
      7  -0.100000D+01  0.179619D-04  0.836597D-04  0.330533D-03  0.104956D-02
      8  -0.100000D+01 -0.152419D-03 -0.543548D-03 -0.123221D-02 -0.289526D-02
                 6             7             8 
      1  -0.100000D+01 -0.100000D+01 -0.100000D+01
      2   0.112577D-03  0.179619D-04 -0.152419D-03
      3   0.481182D-03  0.836597D-04 -0.543548D-03
      4   0.131657D-02  0.330533D-03 -0.123221D-02
      5   0.334572D-02  0.104956D-02 -0.289526D-02
      6   0.373551D-02  0.211327D-02 -0.988397D-03
      7   0.211327D-02  0.321236D-02  0.383197D-02
      8  -0.988397D-03  0.383197D-02  0.114930D-01
 InvSVX:  RCond= 4.35D-08 Info=           0 Equed=N FErr=  7.87D-13 BErr=  5.88D-17
 DIIS inversion failure, remove point   7.
 InvSVX:  RCond= 5.86D-08 Info=           0 Equed=N FErr=  6.27D-13 BErr=  4.74D-17
 DIIS inversion failure, remove point   6.
 InvSVX:  RCond= 7.13D-08 Info=           0 Equed=N FErr=  5.24D-13 BErr=  9.26D-17
 DIIS inversion failure, remove point   5.
 InvSVX:  RCond= 1.25D-07 Info=           0 Equed=N FErr=  6.59D-14 BErr=  7.86D-17
 RFO-DIIS uses    4 points instead of    7
 DidBck=F Rises=F RFO-DIIS coefs:    1.04581    0.00862   -0.02446   -0.02998    0.00000
                  RFO-DIIS coefs:    0.00000    0.00000
 Iteration  1 RMS(Cart)=  0.00067860 RMS(Int)=  0.00000062
 Iteration  2 RMS(Cart)=  0.00000055 RMS(Int)=  0.00000002
 ITry= 1 IFail=0 DXMaxC= 1.58D-03 DCOld= 1.00D+10 DXMaxT= 5.42D-01 DXLimC= 3.00D+00 Rises=F
 Variable       Old X    -DE/DX   Delta X   Delta X   Delta X     New X
                                 (Linear)    (Quad)   (Total)
    R1        2.67016  -0.00001  -0.00002  -0.00004  -0.00006   2.67010
    R2        2.22545   0.00003  -0.00008   0.00033   0.00025   2.22570
    R3        2.08709  -0.00001  -0.00001   0.00001  -0.00000   2.08709
    R4        2.08795  -0.00002   0.00001  -0.00005  -0.00004   2.08790
    R5        3.05659  -0.00000   0.00019  -0.00062  -0.00043   3.05616
    R6        1.83919  -0.00001   0.00001  -0.00002  -0.00002   1.83917
    A1        2.00506   0.00000  -0.00006   0.00003  -0.00002   2.00503
    A2        1.86745   0.00001  -0.00001   0.00006   0.00005   1.86750
    A3        1.86489  -0.00001   0.00003  -0.00011  -0.00008   1.86481
    A4        1.92582  -0.00001   0.00007  -0.00009  -0.00003   1.92579
    A5        1.92820   0.00003  -0.00006   0.00021   0.00015   1.92836
    A6        1.86601  -0.00001   0.00003  -0.00011  -0.00008   1.86593
    A7        2.91893  -0.00000   0.00025   0.00010   0.00035   2.91929
    A8        1.83571  -0.00000   0.00052  -0.00016   0.00037   1.83608
    A9        2.14742  -0.00000  -0.00156   0.00013  -0.00143   2.14599
    D1       -2.94212   0.00000   0.00062   0.00018   0.00081  -2.94131
    D2        1.22856  -0.00000   0.00063   0.00016   0.00078   1.22934
    D3       -0.83116   0.00000   0.00059   0.00022   0.00080  -0.83035
         Item               Value     Threshold  Converged?
 Maximum Force            0.000026     0.000450     YES
 RMS     Force            0.000012     0.000300     YES
 Maximum Displacement     0.001577     0.001800     YES
 RMS     Displacement     0.000679     0.001200     YES
 Predicted change in Energy=-1.149667D-08
 Optimization completed.
    -- Stationary point found.
                           ----------------------------
                           !   Optimized Parameters   !
                           ! (Angstroms and Degrees)  !
 --------------------------                            --------------------------
 ! Name  Definition              Value          Derivative Info.                !
 --------------------------------------------------------------------------------
 ! R1    R(1,2)                  1.413          -DE/DX =    0.0                 !
 ! R2    R(2,3)                  1.1777         -DE/DX =    0.0                 !
 ! R3    R(2,4)                  1.1044         -DE/DX =    0.0                 !
 ! R4    R(2,5)                  1.1049         -DE/DX =    0.0                 !
 ! R5    R(3,6)                  1.6175         -DE/DX =    0.0                 !
 ! R6    R(6,7)                  0.9733         -DE/DX =    0.0                 !
 ! A1    A(1,2,3)              114.8812         -DE/DX =    0.0                 !
 ! A2    A(1,2,4)              106.997          -DE/DX =    0.0                 !
 ! A3    A(1,2,5)              106.8501         -DE/DX =    0.0                 !
 ! A4    A(3,2,4)              110.3413         -DE/DX =    0.0                 !
 ! A5    A(3,2,5)              110.4779         -DE/DX =    0.0                 !
 ! A6    A(4,2,5)              106.9144         -DE/DX =    0.0                 !
 ! A7    A(2,3,6)              167.2426         -DE/DX =    0.0                 !
 ! A8    L(3,6,7,5,-1)         105.1785         -DE/DX =    0.0                 !
 ! A9    L(3,6,7,5,-2)         123.0383         -DE/DX =    0.0                 !
 ! D1    D(1,2,3,6)           -168.5711         -DE/DX =    0.0                 !
 ! D2    D(4,2,3,6)             70.3913         -DE/DX =    0.0                 !
 ! D3    D(5,2,3,6)            -47.6218         -DE/DX =    0.0                 !
 --------------------------------------------------------------------------------
 Lowest energy point so far.  Saving SCF results.
 Largest change from initial coordinates is atom    5       1.265 Angstoms.
 GradGradGradGradGradGradGradGradGradGradGradGradGradGradGradGradGradGrad

 Leave Link  103 at Wed Oct  7 13:54:13 2020, MaxMem=  2684354560 cpu:               4.1 elap:               0.8
 (Enter /udrive/faculty/rpeverati/g16/g16/l202.exe)
                          Input orientation:                          
 ---------------------------------------------------------------------
 Center     Atomic      Atomic             Coordinates (Angstroms)
 Number     Number       Type             X           Y           Z
 ---------------------------------------------------------------------
      1          9           0        1.418413   -0.348106   -0.560833
      2          6           0        0.394198    0.269333    0.191684
      3          1           0       -0.677159   -0.197755    0.047119
      4          1           0        0.696249    0.216098    1.252682
      5          1           0        0.390908    1.338139   -0.088375
      6          8           0       -2.256627   -0.545673    0.025480
      7          1           0       -2.419341   -0.135794   -0.842133
 ---------------------------------------------------------------------
                    Distance matrix (angstroms):
                    1          2          3          4          5
     1  F    0.000000
     2  C    1.412986   0.000000
     3  H    2.187152   1.177657   0.000000
     4  H    2.031916   1.104439   1.873741   0.000000
     5  H    2.030371   1.104893   1.875658   1.775006   0.000000
     6  O    3.726756   2.778261   1.617478   3.287217   3.251330
     7  H    3.853902   3.024716   1.956989   3.770806   3.261614
                    6          7
     6  O    0.000000
     7  H    0.973257   0.000000
 Stoichiometry    CH4FO(1-)
 Framework group  C1[X(CH4FO)]
 Deg. of freedom    15
 Full point group                 C1      NOp   1
 RotChk:  IX=3 Diff= 5.83D-15
 Largest Abelian subgroup         C1      NOp   1
 Largest concise Abelian subgroup C1      NOp   1
                         Standard orientation:                         
 ---------------------------------------------------------------------
 Center     Atomic      Atomic             Coordinates (Angstroms)
 Number     Number       Type             X           Y           Z
 ---------------------------------------------------------------------
      1          9           0        1.604386    0.459438   -0.025069
      2          6           0        0.592224   -0.525017    0.028834
      3          1           0       -0.506106   -0.112526   -0.073131
      4          1           0        0.805558   -1.251755   -0.774986
      5          1           0        0.716699   -1.060198    0.987414
      6          8           0       -2.106066    0.121899   -0.110671
      7          1           0       -2.160446    0.464446    0.798687
 ---------------------------------------------------------------------
 Rotational constants (GHZ):          39.7628171           3.8125074           3.5980284
 Leave Link  202 at Wed Oct  7 13:54:14 2020, MaxMem=  2684354560 cpu:               2.0 elap:               0.5
 (Enter /udrive/faculty/rpeverati/g16/g16/l601.exe)
 Copying SCF densities to generalized density rwf, IOpCl= 0 IROHF=0.

 **********************************************************************

            Population analysis using the SCF density.

 **********************************************************************

 Orbital symmetries:
       Occupied  (A) (A) (A) (A) (A) (A) (A) (A) (A) (A) (A) (A)
                 (A) (A)
       Virtual   (A) (A) (A) (A) (A) (A) (A) (A) (A) (A) (A) (A)
                 (A) (A) (A) (A) (A) (A) (A) (A) (A) (A) (A) (A)
                 (A) (A) (A) (A) (A) (A) (A) (A) (A) (A) (A) (A)
 The electronic state is 1-A.
 Alpha  occ. eigenvalues --  -24.54773 -18.82409 -10.06088  -0.99856  -0.60180
 Alpha  occ. eigenvalues --   -0.49190  -0.28331  -0.27644  -0.25760  -0.14633
 Alpha  occ. eigenvalues --   -0.13768  -0.08350   0.06396   0.06576
 Alpha virt. eigenvalues --    0.31155   0.33996   0.36059   0.38469   0.53390
 Alpha virt. eigenvalues --    0.74812   0.77259   0.80258   1.06105   1.08181
 Alpha virt. eigenvalues --    1.12277   1.17287   1.22856   1.28574   1.36926
 Alpha virt. eigenvalues --    1.43509   1.46846   1.47209   1.49696   1.73307
 Alpha virt. eigenvalues --    1.74401   1.81130   2.04027   2.04587   2.11957
 Alpha virt. eigenvalues --    2.13200   2.14034   2.18840   2.23209   2.30160
 Alpha virt. eigenvalues --    2.44003   2.46190   2.60333   2.65448   2.82161
 Alpha virt. eigenvalues --    3.20483
          Condensed to atoms (all electrons):
               1          2          3          4          5          6
     1  F    9.305499   0.180977  -0.006247  -0.033903  -0.035252   0.000349
     2  C    0.180977   5.440236   0.080694   0.309915   0.313495  -0.108114
     3  H   -0.006247   0.080694   0.509939  -0.009058  -0.012106   0.197846
     4  H   -0.033903   0.309915  -0.009058   0.710699  -0.052733   0.003095
     5  H   -0.035252   0.313495  -0.012106  -0.052733   0.716725   0.002588
     6  O    0.000349  -0.108114   0.197846   0.003095   0.002588   8.754190
     7  H   -0.000162   0.019081  -0.041889  -0.000035  -0.000903   0.171669
               7
     1  F   -0.000162
     2  C    0.019081
     3  H   -0.041889
     4  H   -0.000035
     5  H   -0.000903
     6  O    0.171669
     7  H    0.604101
 Mulliken charges:
               1
     1  F   -0.411261
     2  C   -0.236283
     3  H    0.280821
     4  H    0.072021
     5  H    0.068187
     6  O   -1.021622
     7  H    0.248138
 Sum of Mulliken charges =  -1.00000
 Mulliken charges with hydrogens summed into heavy atoms:
               1
     1  F   -0.411261
     2  C    0.184745
     6  O   -0.773484
 Electronic spatial extent (au):  <R**2>=            330.9177
 Charge=             -1.0000 electrons
 Dipole moment (field-independent basis, Debye):
    X=              5.4699    Y=             -0.7519    Z=              1.3433  Tot=              5.6823
 Quadrupole moment (field-independent basis, Debye-Ang):
   XX=            -41.2688   YY=            -20.6806   ZZ=            -19.2533
   XY=             -0.6041   XZ=             -2.9473   YZ=              0.7523
 Traceless Quadrupole moment (field-independent basis, Debye-Ang):
   XX=            -14.2013   YY=              6.3870   ZZ=              7.8143
   XY=             -0.6041   XZ=             -2.9473   YZ=              0.7523
 Octapole moment (field-independent basis, Debye-Ang**2):
  XXX=             40.9234  YYY=              5.0207  ZZZ=              0.2650  XYY=              2.8312
  XXY=             -0.0715  XXZ=              6.4377  XZZ=              1.7302  YZZ=              1.8368
  YYZ=              0.1867  XYZ=             -1.3626
 Hexadecapole moment (field-independent basis, Debye-Ang**3):
 XXXX=           -396.0849 YYYY=            -47.4127 ZZZZ=            -26.9311 XXXY=              5.2721
 XXXZ=            -14.9569 YYYX=              7.2430 YYYZ=              0.4315 ZZZX=             -1.6575
 ZZZY=              0.4676 XXYY=            -60.3196 XXZZ=            -51.7976 YYZZ=            -12.2292
 XXYZ=              3.2488 YYXZ=             -0.9723 ZZXY=              1.6707
 N-N= 6.817943409060D+01 E-N=-6.540724360517D+02  KE= 2.144262254925D+02
 No NMR shielding tensors so no spin-rotation constants.
 Leave Link  601 at Wed Oct  7 13:54:15 2020, MaxMem=  2684354560 cpu:               5.4 elap:               0.8
 (Enter /udrive/faculty/rpeverati/g16/g16/l9999.exe)

 Test job not archived.
 1\1\GINC-NODE55\FOpt\RPBE1PBE\6-31G(d)\C1H4F1O1(1-)\RPEVERATI\07-Oct-2
 020\0\\#P Opt(MaxCyc=100) PBE1PBE/6-31G* 5D 7F Integral=UltraFineGrid 
 SCF=(NoSymm,XQC,MaxCyc=120) IOp(1/33=1)\\TS search on BH76.\\-1,1\F,1.
 4184133206,-0.3481055541,-0.5608326426\C,0.3941981813,0.269333415,0.19
 1683788\H,-0.677158806,-0.1977545382,0.047118549\H,0.6962485634,0.2160
 97551,1.2526823701\H,0.3909075383,1.3381388932,-0.088374985\O,-2.25662
 66426,-0.5456729962,0.0254797248\H,-2.4193407338,-0.1357937571,-0.8421
 333399\\Version=ES64L-G16RevA.03\State=1-A\HF=-215.2609719\RMSD=6.985e
 -09\RMSF=1.474e-05\Dipole=2.0651024,0.7970824,-0.3129668\Quadrupole=-9
 .7727209,4.3378904,5.4348306,-2.7762118,3.0895058,-0.1523943\PG=C01 [X
 (C1H4F1O1)]\\@


 ... IT CAN BE VERY DIFFICULT, IN THESE COMPLEX TIMES,
 TO UNDERSTAND JUST HOW SCIENTISTS DO WHAT THEY DO.

                     DON MOSER IN THE FEBRUARY 1979 SMITHSONIAN
 Job cpu time:       0 days  1 hours 10 minutes 57.4 seconds.
 Elapsed time:       0 days  0 hours 10 minutes 43.4 seconds.
 File lengths (MBytes):  RWF=      5 Int=      0 D2E=      0 Chk=      1 Scr=      1
 Normal termination of Gaussian 16 at Wed Oct  7 13:54:16 2020.
