 Entering Gaussian System, Link 0=g16
 Input=MN_72_O_BH76_PBE0_631Gs.in
 Output=MN_72_O_BH76_PBE0_631Gs.log
 Initial command:
 /udrive/faculty/rpeverati/g16/g16/l1.exe "/udrive/scratch-directories/gaussian09/rpeverati/Gau-29385.inp" -scrdir="/udrive/scratch-directories/gaussian09/rpeverati/"
 Entering Link 1 = /udrive/faculty/rpeverati/g16/g16/l1.exe PID=     29400.
  
 Copyright (c) 1988,1990,1992,1993,1995,1998,2003,2009,2016,
            Gaussian, Inc.  All Rights Reserved.
  
 This is part of the Gaussian(R) 16 program.  It is based on
 the Gaussian(R) 09 system (copyright 2009, Gaussian, Inc.),
 the Gaussian(R) 03 system (copyright 2003, Gaussian, Inc.),
 the Gaussian(R) 98 system (copyright 1998, Gaussian, Inc.),
 the Gaussian(R) 94 system (copyright 1995, Gaussian, Inc.),
 the Gaussian 92(TM) system (copyright 1992, Gaussian, Inc.),
 the Gaussian 90(TM) system (copyright 1990, Gaussian, Inc.),
 the Gaussian 88(TM) system (copyright 1988, Gaussian, Inc.),
 the Gaussian 86(TM) system (copyright 1986, Carnegie Mellon
 University), and the Gaussian 82(TM) system (copyright 1983,
 Carnegie Mellon University). Gaussian is a federally registered
 trademark of Gaussian, Inc.
  
 This software contains proprietary and confidential information,
 including trade secrets, belonging to Gaussian, Inc.
  
 This software is provided under written license and may be
 used, copied, transmitted, or stored only in accord with that
 written license.
  
 The following legend is applicable only to US Government
 contracts under FAR:
  
                    RESTRICTED RIGHTS LEGEND
  
 Use, reproduction and disclosure by the US Government is
 subject to restrictions as set forth in subparagraphs (a)
 and (c) of the Commercial Computer Software - Restricted
 Rights clause in FAR 52.227-19.
  
 Gaussian, Inc.
 340 Quinnipiac St., Bldg. 40, Wallingford CT 06492
  
  
 ---------------------------------------------------------------
 Warning -- This program may not be used in any manner that
 competes with the business of Gaussian, Inc. or will provide
 assistance to any competitor of Gaussian, Inc.  The licensee
 of this program is prohibited from giving any competitor of
 Gaussian, Inc. access to this program.  By using this program,
 the user acknowledges that Gaussian, Inc. is engaged in the
 business of creating and licensing software in the field of
 computational chemistry and represents and warrants to the
 licensee that it is not a competitor of Gaussian, Inc. and that
 it will not use this program in any manner prohibited above.
 ---------------------------------------------------------------
  

 Cite this work as:
 Gaussian 16, Revision A.03,
 M. J. Frisch, G. W. Trucks, H. B. Schlegel, G. E. Scuseria, 
 M. A. Robb, J. R. Cheeseman, G. Scalmani, V. Barone, 
 G. A. Petersson, H. Nakatsuji, X. Li, M. Caricato, A. V. Marenich, 
 J. Bloino, B. G. Janesko, R. Gomperts, B. Mennucci, H. P. Hratchian, 
 J. V. Ortiz, A. F. Izmaylov, J. L. Sonnenberg, D. Williams-Young, 
 F. Ding, F. Lipparini, F. Egidi, J. Goings, B. Peng, A. Petrone, 
 T. Henderson, D. Ranasinghe, V. G. Zakrzewski, J. Gao, N. Rega, 
 G. Zheng, W. Liang, M. Hada, M. Ehara, K. Toyota, R. Fukuda, 
 J. Hasegawa, M. Ishida, T. Nakajima, Y. Honda, O. Kitao, H. Nakai, 
 T. Vreven, K. Throssell, J. A. Montgomery, Jr., J. E. Peralta, 
 F. Ogliaro, M. J. Bearpark, J. J. Heyd, E. N. Brothers, K. N. Kudin, 
 V. N. Staroverov, T. A. Keith, R. Kobayashi, J. Normand, 
 K. Raghavachari, A. P. Rendell, J. C. Burant, S. S. Iyengar, 
 J. Tomasi, M. Cossi, J. M. Millam, M. Klene, C. Adamo, R. Cammi, 
 J. W. Ochterski, R. L. Martin, K. Morokuma, O. Farkas, 
 J. B. Foresman, and D. J. Fox, Gaussian, Inc., Wallingford CT, 2016.
 
 ******************************************
 Gaussian 16:  ES64L-G16RevA.03 25-Dec-2016
                 7-Oct-2020 
 ******************************************
 %NoSave
 %nproc=12
 Will use up to   12 processors via shared memory.
 %mem=20GB
 %chk=MN_72_O_BH76_PBE0_631Gs
 ----------------------------------------------------------------------
 #P PBE1PBE/6-31G* 5D 7F Integral=UltraFineGrid SCF=(NoSymm,XQC,MaxCyc=
 120) IOp(1/33=1) Stable=Opt
 ----------------------------------------------------------------------
 1/33=1,38=1,172=1/1;
 2/12=2,17=6,18=5,40=1/2;
 3/5=1,6=6,7=1,8=11,11=2,25=1,30=1,74=-13,75=-5/1,2,3;
 4/9=2/1;
 5/5=2,7=120,8=3,13=1,38=5/2,8;
 6/7=2,8=2,9=2,10=2,28=1/1;
 8/6=1,10=90,11=11/1;
 9/8=-3,42=1,46=1/14;
 5/5=2,7=120,8=3,17=40,38=5/8(-2);
 6/7=2,8=2,9=2,10=2,28=1/1;
 99/5=1,9=1/99;
 Leave Link    1 at Wed Oct  7 13:41:05 2020, MaxMem=  2684354560 cpu:               5.4 elap:               0.6
 (Enter /udrive/faculty/rpeverati/g16/g16/l101.exe)
 ONIOM data not found on unit 2.
 ------------------
 TS search on BH76.
 ------------------
 TstMul:  ICh=     0
 TstMul:  Mul=     3
 TstMul:  ICh=     0
 TstMul:  Mul=     3
 Symbolic Z-matrix:
 Charge =  0 Multiplicity = 3
 O                     0.        0.        0. 
 
 RdStrC is calling ZToCFu for IStruc=1 NZ=     1.
 PrtBox:  NBox=     1 Levels=  0 BoxLen=    8.00 SMaxX=        0.00
          Shift=            0.000000            0.000000            0.000000
 Box      1 Number                   0 centers from      1 to      1:
 After GenITR:
 ITRead=  0
 MicOpt= -1
 ITRead=  0
 MicOpt= -1
 NAtoms=      1 NQM=        1 NQMF=       0 NMMI=      0 NMMIF=      0
                NMic=       0 NMicF=      0.
                    Isotopes and Nuclear Properties:
 (Nuclear quadrupole moments (NQMom) in fm**2, nuclear magnetic moments (NMagM)
  in nuclear magnetons)

  Atom         1
 IAtWgt=          16
 AtmWgt=  15.9949146
 NucSpn=           0
 AtZEff=   0.0000000
 NQMom=    0.0000000
 NMagM=    0.0000000
 AtZNuc=   8.0000000
 No MM parameters found.
 Leave Link  101 at Wed Oct  7 13:41:06 2020, MaxMem=  2684354560 cpu:               2.5 elap:               0.4
 (Enter /udrive/faculty/rpeverati/g16/g16/l202.exe)
                          Input orientation:                          
 ---------------------------------------------------------------------
 Center     Atomic      Atomic             Coordinates (Angstroms)
 Number     Number       Type             X           Y           Z
 ---------------------------------------------------------------------
      1          8           0        0.000000    0.000000    0.000000
 ---------------------------------------------------------------------
 Stoichiometry    O(3)
 Framework group  OH[O(O)]
 Deg. of freedom     0
 Full point group                 OH      NOp  48
 Largest Abelian subgroup         D2H     NOp   8
 Largest concise Abelian subgroup C1      NOp   1
                         Standard orientation:                         
 ---------------------------------------------------------------------
 Center     Atomic      Atomic             Coordinates (Angstroms)
 Number     Number       Type             X           Y           Z
 ---------------------------------------------------------------------
      1          8           0        0.000000    0.000000    0.000000
 ---------------------------------------------------------------------
 Leave Link  202 at Wed Oct  7 13:41:06 2020, MaxMem=  2684354560 cpu:               0.9 elap:               0.5
 (Enter /udrive/faculty/rpeverati/g16/g16/l301.exe)
 Standard basis: 6-31G(d) (5D, 7F)
 Ernie: Thresh=  0.10000D-02 Tol=  0.10000D-05 Strict=F.
 There are     6 symmetry adapted cartesian basis functions of AG  symmetry.
 There are     1 symmetry adapted cartesian basis functions of B1G symmetry.
 There are     1 symmetry adapted cartesian basis functions of B2G symmetry.
 There are     1 symmetry adapted cartesian basis functions of B3G symmetry.
 There are     0 symmetry adapted cartesian basis functions of AU  symmetry.
 There are     2 symmetry adapted cartesian basis functions of B1U symmetry.
 There are     2 symmetry adapted cartesian basis functions of B2U symmetry.
 There are     2 symmetry adapted cartesian basis functions of B3U symmetry.
 There are     5 symmetry adapted basis functions of AG  symmetry.
 There are     1 symmetry adapted basis functions of B1G symmetry.
 There are     1 symmetry adapted basis functions of B2G symmetry.
 There are     1 symmetry adapted basis functions of B3G symmetry.
 There are     0 symmetry adapted basis functions of AU  symmetry.
 There are     2 symmetry adapted basis functions of B1U symmetry.
 There are     2 symmetry adapted basis functions of B2U symmetry.
 There are     2 symmetry adapted basis functions of B3U symmetry.
    14 basis functions,    28 primitive gaussians,    15 cartesian basis functions
     5 alpha electrons        3 beta electrons
       nuclear repulsion energy         0.0000000000 Hartrees.
 IExCor= 1009 DFT=T Ex+Corr=PBE1PBE ExCW=0 ScaHFX=  0.250000
 ScaDFX=  0.750000  0.750000  1.000000  1.000000 ScalE2=  1.000000  1.000000
 IRadAn=      5 IRanWt=     -1 IRanGd=            0 ICorTp=0 IEmpDi=  4
 NAtoms=    1 NActive=    1 NUniq=    1 SFac= 1.00D+00 NAtFMM=   60 NAOKFM=F Big=F
 Integral buffers will be    131072 words long.
 Raffenetti 2 integral format.
 Two-electron integral symmetry is turned on.
 Leave Link  301 at Wed Oct  7 13:41:07 2020, MaxMem=  2684354560 cpu:               2.2 elap:               0.6
 (Enter /udrive/faculty/rpeverati/g16/g16/l302.exe)
 NPDir=0 NMtPBC=     1 NCelOv=     1 NCel=       1 NClECP=     1 NCelD=      1
         NCelK=      1 NCelE2=     1 NClLst=     1 CellRange=     0.0.
 One-electron integrals computed using PRISM.
 One-electron integral symmetry used in STVInt
 NBasis=    14 RedAO= T EigKep=  2.33D-01  NBF=     5     1     1     1     0     2     2     2
 NBsUse=    14 1.00D-06 EigRej= -1.00D+00 NBFU=     5     1     1     1     0     2     2     2
 Precomputing XC quadrature grid using
 IXCGrd= 4 IRadAn=           5 IRanWt=          -1 IRanGd=           0 AccXCQ= 0.00D+00.
 Generated NRdTot=       0 NPtTot=           0 NUsed=           0 NTot=          32
 NSgBfM=    15    15    15    15    15 MxSgAt=     1 MxSgA2=     1.
 Leave Link  302 at Wed Oct  7 13:41:08 2020, MaxMem=  2684354560 cpu:               4.0 elap:               0.7
 (Enter /udrive/faculty/rpeverati/g16/g16/l303.exe)
 DipDrv:  MaxL=1.
 Leave Link  303 at Wed Oct  7 13:41:09 2020, MaxMem=  2684354560 cpu:               1.9 elap:               0.6
 (Enter /udrive/faculty/rpeverati/g16/g16/l401.exe)
 SCF N**3 symmetry information disabled.
 ExpMin= 2.70D-01 ExpMax= 5.48D+03 ExpMxC= 8.25D+02 IAcc=3 IRadAn=         5 AccDes= 0.00D+00
 Harris functional with IExCor= 1009 and IRadAn=       5 diagonalized for initial guess.
 HarFok:  IExCor= 1009 AccDes= 0.00D+00 IRadAn=         5 IDoV= 1 UseB2=F ITyADJ=14
 ICtDFT=  3500011 ScaDFX=  1.000000  1.000000  1.000000  1.000000
 FoFCou: FMM=F IPFlag=           0 FMFlag=      100000 FMFlg1=           0
         NFxFlg=           0 DoJE=T BraDBF=F KetDBF=T FulRan=T
         wScrn=  0.000000 ICntrl=       500 IOpCl=  0 I1Cent=   200000004 NGrid=           0
         NMat0=    1 NMatS0=      1 NMatT0=    0 NMatD0=    1 NMtDS0=    0 NMtDT0=    0
 Petite list used in FoFCou.
 Harris En= -74.8929774556532    
 JPrj=0 DoOrth=F DoCkMO=F.
 Initial guess orbital symmetries:
 Alpha Orbitals:
       Occupied  (A1G) (A1G) (T1U) (T1U) (T1U)
       Virtual   (T1U) (T1U) (T1U) (A1G) (T2G) (T2G) (T2G) (EG)
                 (EG)
 Beta  Orbitals:
       Occupied  (A1G) (A1G) (T1U)
       Virtual   (T1U) (T1U) (T1U) (T1U) (T1U) (A1G) (T2G) (T2G)
                 (T2G) (EG) (EG)
 Initial guess <Sx>= 0.0000 <Sy>= 0.0000 <Sz>= 1.0000 <S**2>= 2.0000 S= 1.0000
 Leave Link  401 at Wed Oct  7 13:41:10 2020, MaxMem=  2684354560 cpu:               5.3 elap:               0.8
 (Enter /udrive/faculty/rpeverati/g16/g16/l502.exe)
 Keep R1 and R2 ints in memory in symmetry-blocked form, NReq=10344075.
 FoFCou: FMM=F IPFlag=           0 FMFlag=           0 FMFlg1=           0
         NFxFlg=           0 DoJE=F BraDBF=F KetDBF=F FulRan=T
         wScrn=  0.000000 ICntrl=       600 IOpCl=  0 I1Cent=           0 NGrid=           0
         NMat0=    1 NMatS0=    105 NMatT0=    0 NMatD0=    1 NMtDS0=    0 NMtDT0=    0
 Petite list used in FoFCou.
 UHF open shell SCF:
 Using DIIS extrapolation, IDIIS=  1040.
 NGot=  2684354560 LenX=  2684349296 LenY=  2684348414
 Requested convergence on RMS density matrix=1.00D-08 within 120 cycles.
 Requested convergence on MAX density matrix=1.00D-06.
 Requested convergence on             energy=1.00D-06.
 No special actions if energy rises.
 Integral accuracy reduced to 1.0D-05 until final iterations.

 Cycle   1  Pass 0  IDiag  1:
 Density matrix breaks symmetry, PCut= 1.00D-04
 Density has only Abelian symmetry.
 E= -74.9779906609764    
 DIIS: error= 2.48D-02 at cycle   1 NSaved=   1.
 NSaved= 1 IEnMin= 1 EnMin= -74.9779906609764     IErMin= 1 ErrMin= 2.48D-02
 ErrMax= 2.48D-02  0.00D+00 EMaxC= 1.00D-01 BMatC= 2.64D-02 BMatP= 2.64D-02
 IDIUse=3 WtCom= 7.52D-01 WtEn= 2.48D-01
 Coeff-Com:  0.100D+01
 Coeff-En:   0.100D+01
 Coeff:      0.100D+01
 Gap=     1.333 Goal=   None    Shift=    0.000
 Gap=     0.191 Goal=   None    Shift=    0.000
 GapD=    0.191 DampG=1.000 DampE=0.500 DampFc=0.5000 IDamp=-1.
 Damping current iteration by 5.00D-01
 RMSDP=5.77D-03 MaxDP=4.97D-02              OVMax= 3.86D-02

 Cycle   2  Pass 0  IDiag  1:
 Density matrix breaks symmetry, PCut= 1.00D-04
 Density has only Abelian symmetry.
 E= -74.9808437438948     Delta-E=       -0.002853082918 Rises=F Damp=T
 DIIS: error= 9.50D-03 at cycle   2 NSaved=   2.
 NSaved= 2 IEnMin= 2 EnMin= -74.9808437438948     IErMin= 2 ErrMin= 9.50D-03
 ErrMax= 9.50D-03  0.00D+00 EMaxC= 1.00D-01 BMatC= 5.08D-03 BMatP= 2.64D-02
 IDIUse=3 WtCom= 9.05D-01 WtEn= 9.50D-02
 Coeff-Com: -0.495D+00 0.150D+01
 Coeff-En:   0.000D+00 0.100D+01
 Coeff:     -0.448D+00 0.145D+01
 Gap=     1.195 Goal=   None    Shift=    0.000
 Gap=     0.191 Goal=   None    Shift=    0.000
 RMSDP=2.28D-03 MaxDP=1.72D-02 DE=-2.85D-03 OVMax= 1.65D-02

 Cycle   3  Pass 0  IDiag  1:
 Density matrix breaks symmetry, PCut= 1.00D-04
 Density has only Abelian symmetry.
 E= -74.9837719715968     Delta-E=       -0.002928227702 Rises=F Damp=F
 DIIS: error= 3.06D-03 at cycle   3 NSaved=   3.
 NSaved= 3 IEnMin= 3 EnMin= -74.9837719715968     IErMin= 3 ErrMin= 3.06D-03
 ErrMax= 3.06D-03  0.00D+00 EMaxC= 1.00D-01 BMatC= 2.86D-04 BMatP= 5.08D-03
 IDIUse=3 WtCom= 9.69D-01 WtEn= 3.06D-02
 Coeff-Com: -0.167D+00 0.218D+00 0.949D+00
 Coeff-En:   0.000D+00 0.000D+00 0.100D+01
 Coeff:     -0.162D+00 0.211D+00 0.951D+00
 Gap=     1.197 Goal=   None    Shift=    0.000
 Gap=     0.192 Goal=   None    Shift=    0.000
 RMSDP=5.69D-04 MaxDP=4.82D-03 DE=-2.93D-03 OVMax= 3.72D-03

 Cycle   4  Pass 0  IDiag  1:
 Density matrix breaks symmetry, PCut= 1.00D-04
 Density has only Abelian symmetry.
 E= -74.9838455448893     Delta-E=       -0.000073573293 Rises=F Damp=F
 DIIS: error= 4.61D-04 at cycle   4 NSaved=   4.
 NSaved= 4 IEnMin= 4 EnMin= -74.9838455448893     IErMin= 4 ErrMin= 4.61D-04
 ErrMax= 4.61D-04  0.00D+00 EMaxC= 1.00D-01 BMatC= 2.78D-06 BMatP= 2.86D-04
 IDIUse=3 WtCom= 9.95D-01 WtEn= 4.61D-03
 Coeff-Com:  0.452D-01-0.780D-01-0.150D+00 0.118D+01
 Coeff-En:   0.000D+00 0.000D+00 0.000D+00 0.100D+01
 Coeff:      0.450D-01-0.776D-01-0.149D+00 0.118D+01
 Gap=     1.197 Goal=   None    Shift=    0.000
 Gap=     0.192 Goal=   None    Shift=    0.000
 RMSDP=8.60D-05 MaxDP=1.01D-03 DE=-7.36D-05 OVMax= 8.01D-04

 Cycle   5  Pass 0  IDiag  1:
 Density matrix breaks symmetry, PCut= 1.00D-04
 Density has only Abelian symmetry.
 E= -74.9838466464984     Delta-E=       -0.000001101609 Rises=F Damp=F
 DIIS: error= 3.65D-05 at cycle   5 NSaved=   5.
 NSaved= 5 IEnMin= 5 EnMin= -74.9838466464984     IErMin= 5 ErrMin= 3.65D-05
 ErrMax= 3.65D-05  0.00D+00 EMaxC= 1.00D-01 BMatC= 1.88D-08 BMatP= 2.78D-06
 IDIUse=1 WtCom= 1.00D+00 WtEn= 0.00D+00
 Coeff-Com: -0.574D-02 0.109D-01 0.117D-01-0.197D+00 0.118D+01
 Coeff:     -0.574D-02 0.109D-01 0.117D-01-0.197D+00 0.118D+01
 Gap=     1.197 Goal=   None    Shift=    0.000
 Gap=     0.192 Goal=   None    Shift=    0.000
 RMSDP=7.95D-06 MaxDP=8.75D-05 DE=-1.10D-06 OVMax= 6.83D-05

 Initial convergence to 1.0D-05 achieved.  Increase integral accuracy.
 Cycle   6  Pass 1  IDiag  1:
 Density matrix breaks symmetry, PCut= 1.00D-04
 Density has only Abelian symmetry.
 E= -74.9838454610911     Delta-E=        0.000001185407 Rises=F Damp=F
 DIIS: error= 3.75D-06 at cycle   1 NSaved=   1.
 NSaved= 1 IEnMin= 1 EnMin= -74.9838454610911     IErMin= 1 ErrMin= 3.75D-06
 ErrMax= 3.75D-06  0.00D+00 EMaxC= 1.00D-01 BMatC= 2.17D-10 BMatP= 2.17D-10
 IDIUse=1 WtCom= 1.00D+00 WtEn= 0.00D+00
 Coeff-Com:  0.100D+01
 Coeff:      0.100D+01
 Gap=     1.197 Goal=   None    Shift=    0.000
 Gap=     0.192 Goal=   None    Shift=    0.000
 RMSDP=7.95D-06 MaxDP=8.75D-05 DE= 1.19D-06 OVMax= 6.12D-06

 Cycle   7  Pass 1  IDiag  1:
 Density matrix breaks symmetry, PCut= 1.00D-04
 Density has only Abelian symmetry.
 E= -74.9838454611672     Delta-E=       -0.000000000076 Rises=F Damp=F
 DIIS: error= 8.96D-07 at cycle   2 NSaved=   2.
 NSaved= 2 IEnMin= 2 EnMin= -74.9838454611672     IErMin= 2 ErrMin= 8.96D-07
 ErrMax= 8.96D-07  0.00D+00 EMaxC= 1.00D-01 BMatC= 1.38D-11 BMatP= 2.17D-10
 IDIUse=1 WtCom= 1.00D+00 WtEn= 0.00D+00
 Coeff-Com: -0.242D-01 0.102D+01
 Coeff:     -0.242D-01 0.102D+01
 Gap=     1.197 Goal=   None    Shift=    0.000
 Gap=     0.192 Goal=   None    Shift=    0.000
 RMSDP=1.74D-07 MaxDP=1.88D-06 DE=-7.62D-11 OVMax= 1.47D-06

 Cycle   8  Pass 1  IDiag  1:
 Density matrix breaks symmetry, PCut= 1.00D-04
 Density has only Abelian symmetry.
 E= -74.9838454611705     Delta-E=       -0.000000000003 Rises=F Damp=F
 DIIS: error= 4.47D-07 at cycle   3 NSaved=   3.
 NSaved= 3 IEnMin= 3 EnMin= -74.9838454611705     IErMin= 3 ErrMin= 4.47D-07
 ErrMax= 4.47D-07  0.00D+00 EMaxC= 1.00D-01 BMatC= 4.37D-12 BMatP= 1.38D-11
 IDIUse=1 WtCom= 1.00D+00 WtEn= 0.00D+00
 Coeff-Com: -0.616D-01 0.369D+00 0.692D+00
 Coeff:     -0.616D-01 0.369D+00 0.692D+00
 Gap=     1.197 Goal=   None    Shift=    0.000
 Gap=     0.192 Goal=   None    Shift=    0.000
 RMSDP=6.20D-08 MaxDP=6.56D-07 DE=-3.27D-12 OVMax= 5.19D-07

 Cycle   9  Pass 1  IDiag  1:
 Density matrix breaks symmetry, PCut= 1.00D-04
 Density has only Abelian symmetry.
 E= -74.9838454611715     Delta-E=       -0.000000000001 Rises=F Damp=F
 DIIS: error= 4.87D-08 at cycle   4 NSaved=   4.
 NSaved= 4 IEnMin= 4 EnMin= -74.9838454611715     IErMin= 4 ErrMin= 4.87D-08
 ErrMax= 4.87D-08  0.00D+00 EMaxC= 1.00D-01 BMatC= 3.87D-14 BMatP= 4.37D-12
 IDIUse=1 WtCom= 1.00D+00 WtEn= 0.00D+00
 Coeff-Com:  0.113D-01-0.103D+00-0.118D+00 0.121D+01
 Coeff:      0.113D-01-0.103D+00-0.118D+00 0.121D+01
 Gap=     1.197 Goal=   None    Shift=    0.000
 Gap=     0.192 Goal=   None    Shift=    0.000
 RMSDP=1.12D-08 MaxDP=1.14D-07 DE=-1.02D-12 OVMax= 8.92D-08

 Cycle  10  Pass 1  IDiag  1:
 Density matrix breaks symmetry, PCut= 1.00D-04
 Density has only Abelian symmetry.
 E= -74.9838454611715     Delta-E=        0.000000000000 Rises=F Damp=F
 DIIS: error= 3.43D-09 at cycle   5 NSaved=   5.
 NSaved= 5 IEnMin= 4 EnMin= -74.9838454611715     IErMin= 5 ErrMin= 3.43D-09
 ErrMax= 3.43D-09  0.00D+00 EMaxC= 1.00D-01 BMatC= 2.15D-16 BMatP= 3.87D-14
 IDIUse=1 WtCom= 1.00D+00 WtEn= 0.00D+00
 Coeff-Com: -0.428D-03 0.735D-02 0.228D-02-0.131D+00 0.112D+01
 Coeff:     -0.428D-03 0.735D-02 0.228D-02-0.131D+00 0.112D+01
 Gap=     1.197 Goal=   None    Shift=    0.000
 Gap=     0.192 Goal=   None    Shift=    0.000
 RMSDP=8.01D-10 MaxDP=7.60D-09 DE= 0.00D+00 OVMax= 5.79D-09

 Density matrix breaks symmetry, PCut= 1.00D-04
 Density has only Abelian symmetry.
 SCF Done:  E(UPBE1PBE) =  -74.9838454612     A.U. after   10 cycles
            NFock= 10  Conv=0.80D-09     -V/T= 2.0047
 <Sx>= 0.0000 <Sy>= 0.0000 <Sz>= 1.0000 <S**2>= 2.0023 S= 1.0008
 <L.S>= 0.000000000000E+00
 KE= 7.463278328595D+01 PE=-1.778585457297D+02 EE= 2.824191698256D+01
 Annihilation of the first spin contaminant:
 S**2 before annihilation     2.0023,   after     2.0000
 Leave Link  502 at Wed Oct  7 13:41:11 2020, MaxMem=  2684354560 cpu:               9.1 elap:               1.2
 (Enter /udrive/faculty/rpeverati/g16/g16/l508.exe)
 QCSCF skips out because SCF is already converged.
 Leave Link  508 at Wed Oct  7 13:41:12 2020, MaxMem=  2684354560 cpu:               0.6 elap:               0.5
 (Enter /udrive/faculty/rpeverati/g16/g16/l601.exe)
 Copying SCF densities to generalized density rwf, IOpCl= 1 IROHF=0.
 SCF density gives NOpUse=  8 NOpAll= 48.
 Marking SCF density as not fully symmetric.

 **********************************************************************

            Population analysis using the SCF density.

 **********************************************************************

 Orbital symmetries:
 Alpha Orbitals:
       Occupied  (A1G) (T2G) (?A) (?A) (?A)
       Virtual   (?A) (?A) (?A) (A1G) (T2G) (T2G) (T2G) (T2G) (T2G)
 Beta  Orbitals:
       Occupied  (A1G) (T2G) (?A)
       Virtual   (?A) (?A) (?A) (?A) (?A) (A1G) (T2G) (T2G) (T2G)
                 (T2G) (T2G)
 Unable to determine electronic state:  partially filled degenerate orbitals.
 Alpha  occ. eigenvalues --  -19.35570  -1.03783  -0.46618  -0.46618  -0.38306
 Alpha virt. eigenvalues --    0.81378   0.81378   0.86488   0.93583   1.68060
 Alpha virt. eigenvalues --    1.68060   1.73155   1.73155   1.74999
  Beta  occ. eigenvalues --  -19.30236  -0.86122  -0.32916
  Beta virt. eigenvalues --   -0.13751  -0.13751   0.89660   0.94214   0.94214
  Beta virt. eigenvalues --    1.02182   1.80963   1.80963   1.81725   1.83671
  Beta virt. eigenvalues --    1.83671
          Condensed to atoms (all electrons):
               1
     1  O    8.000000
          Atomic-Atomic Spin Densities.
               1
     1  O    2.000000
 Mulliken charges and spin densities:
               1          2
     1  O   -0.000000   2.000000
 Sum of Mulliken charges =  -0.00000   2.00000
 Mulliken charges and spin densities with hydrogens summed into heavy atoms:
               1          2
     1  O   -0.000000   2.000000
 Electronic spatial extent (au):  <R**2>=             10.9737
 Charge=              0.0000 electrons
 Dipole moment (field-independent basis, Debye):
    X=              0.0000    Y=             -0.0000    Z=             -0.0000  Tot=              0.0000
 Quadrupole moment (field-independent basis, Debye-Ang):
   XX=             -5.6675   YY=             -4.5462   ZZ=             -4.5462
   XY=             -0.0000   XZ=              0.0000   YZ=             -0.0000
 Traceless Quadrupole moment (field-independent basis, Debye-Ang):
   XX=             -0.7475   YY=              0.3737   ZZ=              0.3737
   XY=             -0.0000   XZ=              0.0000   YZ=             -0.0000
 Octapole moment (field-independent basis, Debye-Ang**2):
  XXX=              0.0000  YYY=             -0.0000  ZZZ=             -0.0000  XYY=              0.0000
  XXY=              0.0000  XXZ=             -0.0000  XZZ=             -0.0000  YZZ=             -0.0000
  YYZ=              0.0000  XYZ=             -0.0000
 Hexadecapole moment (field-independent basis, Debye-Ang**3):
 XXXX=             -4.0547 YYYY=             -2.8218 ZZZZ=             -2.8218 XXXY=             -0.0000
 XXXZ=              0.0000 YYYX=             -0.0000 YYYZ=             -0.0000 ZZZX=              0.0000
 ZZZY=             -0.0000 XXYY=             -1.1460 XXZZ=             -1.1460 YYZZ=             -0.9406
 XXYZ=             -0.0000 YYXZ=              0.0000 ZZXY=             -0.0000
 N-N= 0.000000000000D+00 E-N=-1.778585457153D+02  KE= 7.463278328595D+01
                          Isotropic Fermi Contact Couplings
        Atom                 a.u.       MegaHertz       Gauss      10(-4) cm-1
     1  O(17)              0.23677     -71.76347     -25.60699     -23.93772
 --------------------------------------------------------
       Center         ----  Spin Dipole Couplings  ----
                      3XX-RR        3YY-RR        3ZZ-RR
 --------------------------------------------------------
     1   Atom       -3.747540      1.873770      1.873770
 --------------------------------------------------------
                        XY            XZ            YZ
 --------------------------------------------------------
     1   Atom        0.000000      0.000000      0.000000
 --------------------------------------------------------


 ---------------------------------------------------------------------------------
              Anisotropic Spin Dipole Couplings in Principal Axis System
 ---------------------------------------------------------------------------------

       Atom             a.u.   MegaHertz   Gauss  10(-4) cm-1        Axes

              Baa    -3.7475   271.169    96.760    90.452  1.0000  0.0000  0.0000
     1 O(17)  Bbb     1.8738  -135.585   -48.380   -45.226  0.0000  1.0000  0.0000
              Bcc     1.8738  -135.585   -48.380   -45.226  0.0000  0.0000  1.0000
 

 ---------------------------------------------------------------------------------

 No NMR shielding tensors so no spin-rotation constants.
 Leave Link  601 at Wed Oct  7 13:41:14 2020, MaxMem=  2684354560 cpu:               6.3 elap:               1.0
 (Enter /udrive/faculty/rpeverati/g16/g16/l801.exe)
 DoSCS=F DFT=T ScalE2(SS,OS)=  1.000000  1.000000
 Range of M.O.s used for correlation:     1    14
 NBasis=    14 NAE=     5 NBE=     3 NFC=     0 NFV=     0
 NROrb=     14 NOA=     5 NOB=     3 NVA=     9 NVB=    11
 Leave Link  801 at Wed Oct  7 13:41:14 2020, MaxMem=  2684354560 cpu:               1.3 elap:               0.4
 (Enter /udrive/faculty/rpeverati/g16/g16/l914.exe)
 UHF ground state
 Doing stability rather than CIS.
 Keep R1 and R2 ints in memory in symmetry-blocked form, NReq=11691379.
 FoFCou: FMM=F IPFlag=           0 FMFlag=           0 FMFlg1=           0
         NFxFlg=           0 DoJE=F BraDBF=F KetDBF=F FulRan=T
         wScrn=  0.000000 ICntrl=       600 IOpCl=  0 I1Cent=           0 NGrid=           0
         NMat0=    1 NMatS0=    105 NMatT0=    0 NMatD0=    1 NMtDS0=    0 NMtDT0=    0
 Petite list used in FoFCou.
 MDV=  2684354560 DFT=T DoStab=T Mixed=T DoRPA=F DoScal=F NonHer=F
 Making orbital integer symmetry assigments:
 Orbital symmetries:
 Alpha Orbitals:
       Occupied  (A1G) (T2G) (?A) (?A) (?A)
       Virtual   (?A) (?A) (?A) (A1G) (T2G) (T2G) (T2G) (T2G) (T2G)
 Beta  Orbitals:
       Occupied  (A1G) (T2G) (?A)
       Virtual   (?A) (?A) (?A) (?A) (?A) (A1G) (T2G) (T2G) (T2G)
                 (T2G) (T2G)
    24 initial guesses have been made.
 Convergence on wavefunction:    0.001000000000000
 Davidson Disk Diagonalization:  ConvIn= 1.00D-03 SkipCon=T Conv= 1.00D-03.
 Max sub-space:   156 roots to seek:    24 dimension of matrix:           78
 Iteration     1 Dimension    24 NMult     0 NNew     24
 CISAX will form    24 AO SS matrices at one time.
 NMat=    24 NSing=    24 JSym2X= 2.
 New state      1 was old state      2
 Excitation Energies [eV] at current iteration:
 Root      1 :     0.110061589468440
 Root      2 :     0.110061589468506
 Root      3 :    17.341936707541490
 Root      4 :    17.521911556304960
 Root      5 :    25.106317660926710
 Root      6 :    27.396762236662490
 Root      7 :    27.396762236662520
 Root      8 :    29.117349510152320
 Root      9 :    29.232777999067880
 Root     10 :    29.232777999197600
 Root     11 :    29.729979565158640
 Root     12 :    29.921844690983760
 Root     13 :    29.921844690983850
 Root     14 :    31.676084854289350
 Root     15 :    32.287086427173830
 Root     16 :    32.287086427173920
 Root     17 :    33.893554493166660
 Root     18 :    33.981119277845820
 Root     19 :    34.301689629338920
 Root     20 :    43.668023403938460
 Root     21 :    44.121813890527740
 Root     22 :    44.623208506994930
 Root     23 :    47.817922092043370
 Root     24 :    51.932519355861200
 Iteration     2 Dimension    47 NMult    24 NNew     23
 CISAX will form    23 AO SS matrices at one time.
 NMat=    23 NSing=    23 JSym2X= 2.
 New state      1 was old state      2
 Root      1 not converged, maximum delta is    0.385749760513313
 Excitation Energies [eV] at current iteration:
 Root      1 :    -0.000004881886334   Change is   -0.110066471354840
 Root      2 :    -0.000004881886222   Change is   -0.110066471354662
 Root      3 :    15.380242546689580   Change is   -1.961694160851906
 Root      4 :    15.381706468381450   Change is   -2.140205087923515
 Root      5 :    24.748286060014180   Change is   -0.358031600912528
 Root      6 :    27.391667162244590   Change is   -0.005095074417895
 Root      7 :    27.391667162244630   Change is   -0.005095074417895
 Root      8 :    29.037129256568290   Change is   -0.080220253584032
 Root      9 :    29.218003157060920   Change is   -0.014774842006955
 Root     10 :    29.218003157663460   Change is   -0.014774841534145
 Root     11 :    29.442491051320160   Change is   -0.287488513838476
 Root     12 :    29.915851876069040   Change is   -0.005992814914719
 Root     13 :    29.915851876069160   Change is   -0.005992814914695
 Root     14 :    31.676084854289390   Change is    0.000000000000048
 Root     15 :    32.282080831465000   Change is   -0.005005595708823
 Root     16 :    32.282080831465120   Change is   -0.005005595708799
 Root     17 :    33.795103081241940   Change is   -0.098451411924721
 Root     18 :    33.795216847198620   Change is   -0.185902430647194
 Root     19 :    34.198913055919020   Change is   -0.102776573419897
 Root     20 :    40.150254961129100   Change is  -11.782264394732100
 Root     21 :    43.464047443026950   Change is   -0.657766447500793
 Root     22 :    43.599708042478950   Change is   -0.068315361459514
 Root     23 :    43.614487802768290   Change is   -1.008720704226643
 Root     24 :    47.268157587817650   Change is   -0.549764504225732
 Iteration     3 Dimension    48 NMult    47 NNew      1
 CISAX will form     1 AO SS matrices at one time.
 NMat=     1 NSing=     1 JSym2X= 2.
 Root      1 not converged, maximum delta is    0.194428162841449
 Excitation Energies [eV] at current iteration:
 Root      1 :    -0.000004881886267   Change is    0.000000000000066
 Root      2 :    -0.000004881886255   Change is   -0.000000000000033
 Root      3 :    15.380184839785640   Change is   -0.000057706903939
 Iteration     4 Dimension    49 NMult    48 NNew      1
 CISAX will form     1 AO SS matrices at one time.
 NMat=     1 NSing=     1 JSym2X= 2.
 New state      1 was old state      2
 Root      1 not converged, maximum delta is    0.347374763801871
 Excitation Energies [eV] at current iteration:
 Root      1 :    -0.000004881886391   Change is   -0.000000000000136
 Root      2 :    -0.000004881886294   Change is   -0.000000000000027
 Root      3 :    15.380184771413520   Change is   -0.000000068372115
 Convergence achieved on expansion vectors.
 ***********************************************************************
 Stability analysis using <AA,BB:AA,BB> singles matrix:
 ***********************************************************************
 1PDM for each excited state written to RWF  633
 Ground to excited state transition densities written to RWF  633

 Eigenvectors of the stability matrix:
 
 Excited state symmetry could not be determined.
 Eigenvector   1:  3.004-?Sym  Eigenvalue=-0.0000002  <S**2>=2.005
      3B ->  4B        0.82648
      3B ->  5B        0.55788
 
 Excited state symmetry could not be determined.
 Eigenvector   2:  3.004-?Sym  Eigenvalue=-0.0000002  <S**2>=2.005
      3B ->  4B       -0.55788
      3B ->  5B        0.82648
 
 Excited state symmetry could not be determined.
 Eigenvector   3:  3.005-?Sym  Eigenvalue= 0.5652114  <S**2>=2.007
      5A -> 12A       -0.10975
      2B ->  4B        0.45944
      2B ->  5B        0.85867
 The wavefunction is stable under the perturbations considered.
 Leave Link  914 at Wed Oct  7 13:41:16 2020, MaxMem=  2684354560 cpu:              13.9 elap:               1.6
 (Enter /udrive/faculty/rpeverati/g16/g16/l508.exe)
 The wavefunction is already stable.
 Leave Link  508 at Wed Oct  7 13:41:17 2020, MaxMem=  2684354560 cpu:               0.4 elap:               0.4
 (Enter /udrive/faculty/rpeverati/g16/g16/l601.exe)
 Copying SCF densities to generalized density rwf, IOpCl= 1 IROHF=0.
 SCF density gives NOpUse=  8 NOpAll= 48.
 Marking SCF density as not fully symmetric.

 **********************************************************************

            Population analysis using the SCF density.

 **********************************************************************

 Orbital symmetries:
 Alpha Orbitals:
       Occupied  (A1G) (T2G) (?A) (?A) (?A)
       Virtual   (?A) (?A) (?A) (A1G) (T2G) (T2G) (T2G) (T2G) (T2G)
 Beta  Orbitals:
       Occupied  (A1G) (T2G) (?A)
       Virtual   (?A) (?A) (?A) (?A) (?A) (A1G) (T2G) (T2G) (T2G)
                 (T2G) (T2G)
 Unable to determine electronic state:  partially filled degenerate orbitals.
 Alpha  occ. eigenvalues --  -19.35570  -1.03783  -0.46618  -0.46618  -0.38306
 Alpha virt. eigenvalues --    0.81378   0.81378   0.86488   0.93583   1.68060
 Alpha virt. eigenvalues --    1.68060   1.73155   1.73155   1.74999
  Beta  occ. eigenvalues --  -19.30236  -0.86122  -0.32916
  Beta virt. eigenvalues --   -0.13751  -0.13751   0.89660   0.94214   0.94214
  Beta virt. eigenvalues --    1.02182   1.80963   1.80963   1.81725   1.83671
  Beta virt. eigenvalues --    1.83671
          Condensed to atoms (all electrons):
               1
     1  O    8.000000
          Atomic-Atomic Spin Densities.
               1
     1  O    2.000000
 Mulliken charges and spin densities:
               1          2
     1  O   -0.000000   2.000000
 Sum of Mulliken charges =  -0.00000   2.00000
 Mulliken charges and spin densities with hydrogens summed into heavy atoms:
               1          2
     1  O   -0.000000   2.000000
 Electronic spatial extent (au):  <R**2>=             10.9737
 Charge=              0.0000 electrons
 Dipole moment (field-independent basis, Debye):
    X=              0.0000    Y=             -0.0000    Z=             -0.0000  Tot=              0.0000
 Quadrupole moment (field-independent basis, Debye-Ang):
   XX=             -5.6675   YY=             -4.5462   ZZ=             -4.5462
   XY=             -0.0000   XZ=              0.0000   YZ=             -0.0000
 Traceless Quadrupole moment (field-independent basis, Debye-Ang):
   XX=             -0.7475   YY=              0.3737   ZZ=              0.3737
   XY=             -0.0000   XZ=              0.0000   YZ=             -0.0000
 Octapole moment (field-independent basis, Debye-Ang**2):
  XXX=              0.0000  YYY=             -0.0000  ZZZ=             -0.0000  XYY=              0.0000
  XXY=              0.0000  XXZ=             -0.0000  XZZ=             -0.0000  YZZ=             -0.0000
  YYZ=              0.0000  XYZ=             -0.0000
 Hexadecapole moment (field-independent basis, Debye-Ang**3):
 XXXX=             -4.0547 YYYY=             -2.8218 ZZZZ=             -2.8218 XXXY=             -0.0000
 XXXZ=              0.0000 YYYX=             -0.0000 YYYZ=             -0.0000 ZZZX=              0.0000
 ZZZY=             -0.0000 XXYY=             -1.1460 XXZZ=             -1.1460 YYZZ=             -0.9406
 XXYZ=             -0.0000 YYXZ=              0.0000 ZZXY=             -0.0000
 N-N= 0.000000000000D+00 E-N=-1.778585457153D+02  KE= 7.463278328595D+01
                          Isotropic Fermi Contact Couplings
        Atom                 a.u.       MegaHertz       Gauss      10(-4) cm-1
     1  O(17)              0.23677     -71.76347     -25.60699     -23.93772
 --------------------------------------------------------
       Center         ----  Spin Dipole Couplings  ----
                      3XX-RR        3YY-RR        3ZZ-RR
 --------------------------------------------------------
     1   Atom       -3.747540      1.873770      1.873770
 --------------------------------------------------------
                        XY            XZ            YZ
 --------------------------------------------------------
     1   Atom        0.000000      0.000000      0.000000
 --------------------------------------------------------


 ---------------------------------------------------------------------------------
              Anisotropic Spin Dipole Couplings in Principal Axis System
 ---------------------------------------------------------------------------------

       Atom             a.u.   MegaHertz   Gauss  10(-4) cm-1        Axes

              Baa    -3.7475   271.169    96.760    90.452  1.0000  0.0000  0.0000
     1 O(17)  Bbb     1.8738  -135.585   -48.380   -45.226  0.0000  1.0000  0.0000
              Bcc     1.8738  -135.585   -48.380   -45.226  0.0000  0.0000  1.0000
 

 ---------------------------------------------------------------------------------

 No NMR shielding tensors so no spin-rotation constants.
 Leave Link  601 at Wed Oct  7 13:41:18 2020, MaxMem=  2684354560 cpu:               5.7 elap:               0.8
 (Enter /udrive/faculty/rpeverati/g16/g16/l9999.exe)

 Test job not archived.
 1\1\GINC-NODE20\Stability\UPBE1PBE\6-31G(d)\O1(3)\RPEVERATI\07-Oct-202
 0\0\\#P PBE1PBE/6-31G* 5D 7F Integral=UltraFineGrid SCF=(NoSymm,XQC,Ma
 xCyc=120) IOp(1/33=1) Stable=Opt\\TS search on BH76.\\0,3\O,0,0.,0.,0.
 \\Version=ES64L-G16RevA.03\HF=-74.9838455\S2=2.00234\S2-1=0.\S2A=2.000
 001\RMSD=8.008e-10\Dipole=0.,0.,0.\Quadrupole=0.2778655,0.2778655,-0.5
 55731,0.,0.,0.\PG=OH [O(O1)]\\@


 A SCIENTIST IS SOMEONE WHOSE CURIOSITY SURVIVES
 EDUCATION'S ASSAULTS ON IT.
                          - SIR HERMANN BONDI
 Job cpu time:       0 days  0 hours  1 minutes  2.9 seconds.
 Elapsed time:       0 days  0 hours  0 minutes 10.9 seconds.
 File lengths (MBytes):  RWF=      5 Int=      0 D2E=      0 Chk=      1 Scr=      1
 Normal termination of Gaussian 16 at Wed Oct  7 13:41:19 2020.
