 Entering Gaussian System, Link 0=g16
 Input=MN_80_RKT03_BH76_PBE0_631Gs.in
 Output=MN_80_RKT03_BH76_PBE0_631Gs.log
 Initial command:
 /udrive/faculty/rpeverati/g16/g16/l1.exe "/udrive/scratch-directories/gaussian09/rpeverati/Gau-31232.inp" -scrdir="/udrive/scratch-directories/gaussian09/rpeverati/"
 Entering Link 1 = /udrive/faculty/rpeverati/g16/g16/l1.exe PID=     31233.
  
 Copyright (c) 1988,1990,1992,1993,1995,1998,2003,2009,2016,
            Gaussian, Inc.  All Rights Reserved.
  
 This is part of the Gaussian(R) 16 program.  It is based on
 the Gaussian(R) 09 system (copyright 2009, Gaussian, Inc.),
 the Gaussian(R) 03 system (copyright 2003, Gaussian, Inc.),
 the Gaussian(R) 98 system (copyright 1998, Gaussian, Inc.),
 the Gaussian(R) 94 system (copyright 1995, Gaussian, Inc.),
 the Gaussian 92(TM) system (copyright 1992, Gaussian, Inc.),
 the Gaussian 90(TM) system (copyright 1990, Gaussian, Inc.),
 the Gaussian 88(TM) system (copyright 1988, Gaussian, Inc.),
 the Gaussian 86(TM) system (copyright 1986, Carnegie Mellon
 University), and the Gaussian 82(TM) system (copyright 1983,
 Carnegie Mellon University). Gaussian is a federally registered
 trademark of Gaussian, Inc.
  
 This software contains proprietary and confidential information,
 including trade secrets, belonging to Gaussian, Inc.
  
 This software is provided under written license and may be
 used, copied, transmitted, or stored only in accord with that
 written license.
  
 The following legend is applicable only to US Government
 contracts under FAR:
  
                    RESTRICTED RIGHTS LEGEND
  
 Use, reproduction and disclosure by the US Government is
 subject to restrictions as set forth in subparagraphs (a)
 and (c) of the Commercial Computer Software - Restricted
 Rights clause in FAR 52.227-19.
  
 Gaussian, Inc.
 340 Quinnipiac St., Bldg. 40, Wallingford CT 06492
  
  
 ---------------------------------------------------------------
 Warning -- This program may not be used in any manner that
 competes with the business of Gaussian, Inc. or will provide
 assistance to any competitor of Gaussian, Inc.  The licensee
 of this program is prohibited from giving any competitor of
 Gaussian, Inc. access to this program.  By using this program,
 the user acknowledges that Gaussian, Inc. is engaged in the
 business of creating and licensing software in the field of
 computational chemistry and represents and warrants to the
 licensee that it is not a competitor of Gaussian, Inc. and that
 it will not use this program in any manner prohibited above.
 ---------------------------------------------------------------
  

 Cite this work as:
 Gaussian 16, Revision A.03,
 M. J. Frisch, G. W. Trucks, H. B. Schlegel, G. E. Scuseria, 
 M. A. Robb, J. R. Cheeseman, G. Scalmani, V. Barone, 
 G. A. Petersson, H. Nakatsuji, X. Li, M. Caricato, A. V. Marenich, 
 J. Bloino, B. G. Janesko, R. Gomperts, B. Mennucci, H. P. Hratchian, 
 J. V. Ortiz, A. F. Izmaylov, J. L. Sonnenberg, D. Williams-Young, 
 F. Ding, F. Lipparini, F. Egidi, J. Goings, B. Peng, A. Petrone, 
 T. Henderson, D. Ranasinghe, V. G. Zakrzewski, J. Gao, N. Rega, 
 G. Zheng, W. Liang, M. Hada, M. Ehara, K. Toyota, R. Fukuda, 
 J. Hasegawa, M. Ishida, T. Nakajima, Y. Honda, O. Kitao, H. Nakai, 
 T. Vreven, K. Throssell, J. A. Montgomery, Jr., J. E. Peralta, 
 F. Ogliaro, M. J. Bearpark, J. J. Heyd, E. N. Brothers, K. N. Kudin, 
 V. N. Staroverov, T. A. Keith, R. Kobayashi, J. Normand, 
 K. Raghavachari, A. P. Rendell, J. C. Burant, S. S. Iyengar, 
 J. Tomasi, M. Cossi, J. M. Millam, M. Klene, C. Adamo, R. Cammi, 
 J. W. Ochterski, R. L. Martin, K. Morokuma, O. Farkas, 
 J. B. Foresman, and D. J. Fox, Gaussian, Inc., Wallingford CT, 2016.
 
 ******************************************
 Gaussian 16:  ES64L-G16RevA.03 25-Dec-2016
                 7-Oct-2020 
 ******************************************
 %NoSave
 %nproc=12
 Will use up to   12 processors via shared memory.
 %mem=20GB
 %chk=MN_80_RKT03_BH76_PBE0_631Gs
 ----------------------------------------------------------------------
 #P Opt(TS,MaxCyc=50,NoEigenTest,MaxStep=10,AddRedundant) PBE1PBE/6-31G
 * 5D 7F Integral=UltraFineGrid SCF=(NoSymm,XQC,MaxCyc=120) IOp(1/33=1)
 ----------------------------------------------------------------------
 1/5=1,6=50,8=10,11=1,18=120,26=4,33=1,38=1/1,3;
 2/9=110,12=2,17=6,18=5,40=1/2;
 3/5=1,6=6,7=1,8=11,11=2,25=1,30=1,71=1,74=-13,75=-5/1,2,3;
 4/9=2/1;
 5/5=2,7=120,8=3,13=1,38=5/2,8;
 6/7=2,8=2,9=2,10=2,28=1/1;
 7//1,2,3,16;
 1/5=1,6=50,8=10,11=1,18=20,26=4,33=1/3(2);
 2/9=110/2;
 99//99;
 2/9=110/2;
 3/5=1,6=6,7=1,8=11,11=2,25=1,30=1,71=1,74=-13,75=-5/1,2,3;
 4/5=5,9=2,16=3,69=1/1;
 5/5=2,7=120,8=3,13=1,38=5/2,8;
 7//1,2,3,16;
 1/5=1,6=50,8=10,11=1,18=20,26=4,33=1/3(-5);
 2/9=110/2;
 6/7=2,8=2,9=2,10=2,19=2,28=1/1;
 99/9=1/99;
 Leave Link    1 at Wed Oct  7 13:41:32 2020, MaxMem=  2684354560 cpu:               9.6 elap:               1.0
 (Enter /udrive/faculty/rpeverati/g16/g16/l101.exe)
 ONIOM data not found on unit 2.
 ------------------
 TS search on BH76.
 ------------------
 TstMul:  ICh=     0
 TstMul:  Mul=     2
 TstMul:  ICh=     0
 TstMul:  Mul=     2
 Symbolic Z-matrix:
 Charge =  0 Multiplicity = 2
 C                     0.        0.26481   0. 
 H                     1.05343   0.51667   0. 
 H                    -0.52663   0.51703   0.91225 
 H                    -0.52663   0.51703  -0.91225 
 H                    -0.00026  -1.11777   0. 
 H                     0.00009  -2.02183   0. 
 
 RdStrC is calling ZToCFu for IStruc=1 NZ=     6.
 PrtBox:  NBox=     1 Levels=  1 BoxLen=    8.00 SMaxX=        4.80
          Shift=            0.995181            3.820700            1.723900
 Box      1 Number                   0 centers from      1 to      6:
 After GenITR:
 ITRead=  0  0  0  0  0  0
 MicOpt= -1 -1 -1 -1 -1 -1
 Add virtual bond connecting atoms H6         and H5         Dist= 1.71D+00.
 Add virtual bond connecting atoms H5         and C1         Dist= 2.61D+00.
 The following ModRedundant input section has been read:
 
 ITRead=  0  0  0  0  0  0
 MicOpt= -1 -1 -1 -1 -1 -1
 NAtoms=      6 NQM=        6 NQMF=       0 NMMI=      0 NMMIF=      0
                NMic=       0 NMicF=      0.
                    Isotopes and Nuclear Properties:
 (Nuclear quadrupole moments (NQMom) in fm**2, nuclear magnetic moments (NMagM)
  in nuclear magnetons)

  Atom         1           2           3           4           5           6
 IAtWgt=          12           1           1           1           1           1
 AtmWgt=  12.0000000   1.0078250   1.0078250   1.0078250   1.0078250   1.0078250
 NucSpn=           0           1           1           1           1           1
 AtZEff=   0.0000000   0.0000000   0.0000000   0.0000000   0.0000000   0.0000000
 NQMom=    0.0000000   0.0000000   0.0000000   0.0000000   0.0000000   0.0000000
 NMagM=    0.0000000   2.7928460   2.7928460   2.7928460   2.7928460   2.7928460
 AtZNuc=   6.0000000   1.0000000   1.0000000   1.0000000   1.0000000   1.0000000
 No MM parameters found.
 Leave Link  101 at Wed Oct  7 13:41:34 2020, MaxMem=  2684354560 cpu:              13.6 elap:               1.3
 (Enter /udrive/faculty/rpeverati/g16/g16/l103.exe)

 GradGradGradGradGradGradGradGradGradGradGradGradGradGradGradGradGradGrad
 Berny optimization.
 Optmz: redundant internal coordinate code flag= 1
 Initialization pass.
                           ----------------------------
                           !    Initial Parameters    !
                           ! (Angstroms and Degrees)  !
 --------------------------                            --------------------------
 ! Name  Definition              Value          Derivative Info.                !
 --------------------------------------------------------------------------------
 ! R1    R(1,2)                  1.0831         estimate D2E/DX2                !
 ! R2    R(1,3)                  1.0831         estimate D2E/DX2                !
 ! R3    R(1,4)                  1.0831         estimate D2E/DX2                !
 ! R4    R(1,5)                  1.3826         estimate D2E/DX2                !
 ! R5    R(5,6)                  0.9041         estimate D2E/DX2                !
 ! A1    A(2,1,3)              114.7551         estimate D2E/DX2                !
 ! A2    A(2,1,4)              114.7551         estimate D2E/DX2                !
 ! A3    A(2,1,5)              103.4567         estimate D2E/DX2                !
 ! A4    A(3,1,4)              114.7555         estimate D2E/DX2                !
 ! A5    A(3,1,5)              103.46           estimate D2E/DX2                !
 ! A6    A(4,1,5)              103.46           estimate D2E/DX2                !
 ! A7    L(1,5,6,2,-1)         179.9674         estimate D2E/DX2                !
 ! A8    L(1,5,6,2,-2)         180.0            estimate D2E/DX2                !
 ! D1    D(2,1,4,3)           -136.0882         estimate D2E/DX2                !
 ! D2    D(2,1,5,3)            119.9994         estimate D2E/DX2                !
 ! D3    D(2,1,5,4)           -119.9994         estimate D2E/DX2                !
 ! D4    D(3,1,5,4)            120.0012         estimate D2E/DX2                !
 --------------------------------------------------------------------------------
 Maximum allowed force set to 1.00D+20.
 Trust Radius=1.00D-01 FncErr=1.00D-07 GrdErr=1.00D-06 EigMax=2.50D+02 EigMin=1.00D-04
 Number of steps in this run=     50 maximum allowed number of steps=    100.
 Search for a saddle point of order  1.
 GradGradGradGradGradGradGradGradGradGradGradGradGradGradGradGradGradGrad

 Leave Link  103 at Wed Oct  7 13:41:35 2020, MaxMem=  2684354560 cpu:               1.7 elap:               0.5
 (Enter /udrive/faculty/rpeverati/g16/g16/l202.exe)
                          Input orientation:                          
 ---------------------------------------------------------------------
 Center     Atomic      Atomic             Coordinates (Angstroms)
 Number     Number       Type             X           Y           Z
 ---------------------------------------------------------------------
      1          6           0        0.000000    0.264813    0.000000
      2          1           0        1.053428    0.516668    0.000000
      3          1           0       -0.526627    0.517025    0.912249
      4          1           0       -0.526627    0.517025   -0.912249
      5          1           0       -0.000260   -1.117770    0.000000
      6          1           0        0.000085   -2.021827    0.000000
 ---------------------------------------------------------------------
                    Distance matrix (angstroms):
                    1          2          3          4          5
     1  C    0.000000
     2  H    1.083116   0.000000
     3  H    1.083118   1.824492   0.000000
     4  H    1.083118   1.824492   1.824497   0.000000
     5  H    1.382583   1.944646   1.944689   1.944689   0.000000
     6  H    2.286640   2.748361   2.748708   2.748708   0.904057
                    6
     6  H    0.000000
 This structure is nearly, but not quite of a higher symmetry.
 Consider Symm=Loose if the higher symmetry is desired.
 Stoichiometry    CH5(2)
 Framework group  CS[SG(CH3),X(H2)]
 Deg. of freedom     8
 Full point group                 CS      NOp   2
 Largest Abelian subgroup         CS      NOp   2
 Largest concise Abelian subgroup CS      NOp   2
                         Standard orientation:                         
 ---------------------------------------------------------------------
 Center     Atomic      Atomic             Coordinates (Angstroms)
 Number     Number       Type             X           Y           Z
 ---------------------------------------------------------------------
      1          6           0       -0.000000    0.264813    0.000000
      2          1           0        1.053428    0.516669    0.000000
      3          1           0       -0.526627    0.517025    0.912249
      4          1           0       -0.526627    0.517025   -0.912249
      5          1           0       -0.000259   -1.117770   -0.000000
      6          1           0        0.000086   -2.021827   -0.000000
 ---------------------------------------------------------------------
 Rotational constants (GHZ):         150.6424277          59.0404668          59.0403791
 Leave Link  202 at Wed Oct  7 13:41:36 2020, MaxMem=  2684354560 cpu:               1.0 elap:               0.5
 (Enter /udrive/faculty/rpeverati/g16/g16/l301.exe)
 Standard basis: 6-31G(d) (5D, 7F)
 Ernie: Thresh=  0.10000D-02 Tol=  0.10000D-05 Strict=F.
 There are    19 symmetry adapted cartesian basis functions of A'  symmetry.
 There are     6 symmetry adapted cartesian basis functions of A"  symmetry.
 There are    18 symmetry adapted basis functions of A'  symmetry.
 There are     6 symmetry adapted basis functions of A"  symmetry.
    24 basis functions,    48 primitive gaussians,    25 cartesian basis functions
     6 alpha electrons        5 beta electrons
       nuclear repulsion energy        15.3286201731 Hartrees.
 IExCor= 1009 DFT=T Ex+Corr=PBE1PBE ExCW=0 ScaHFX=  0.250000
 ScaDFX=  0.750000  0.750000  1.000000  1.000000 ScalE2=  1.000000  1.000000
 IRadAn=      5 IRanWt=     -1 IRanGd=            0 ICorTp=0 IEmpDi=  4
 NAtoms=    6 NActive=    6 NUniq=    5 SFac= 1.44D+00 NAtFMM=   60 NAOKFM=F Big=F
 Integral buffers will be    131072 words long.
 Raffenetti 2 integral format.
 Two-electron integral symmetry is turned on.
 Leave Link  301 at Wed Oct  7 13:41:37 2020, MaxMem=  2684354560 cpu:               2.4 elap:               0.7
 (Enter /udrive/faculty/rpeverati/g16/g16/l302.exe)
 NPDir=0 NMtPBC=     1 NCelOv=     1 NCel=       1 NClECP=     1 NCelD=      1
         NCelK=      1 NCelE2=     1 NClLst=     1 CellRange=     0.0.
 One-electron integrals computed using PRISM.
 One-electron integral symmetry used in STVInt
 NBasis=    24 RedAO= T EigKep=  1.65D-02  NBF=    18     6
 NBsUse=    24 1.00D-06 EigRej= -1.00D+00 NBFU=    18     6
 Precomputing XC quadrature grid using
 IXCGrd= 4 IRadAn=           5 IRanWt=          -1 IRanGd=           0 AccXCQ= 0.00D+00.
 Generated NRdTot=       0 NPtTot=           0 NUsed=           0 NTot=          32
 NSgBfM=    25    25    25    25    25 MxSgAt=     6 MxSgA2=     6.
 Leave Link  302 at Wed Oct  7 13:41:38 2020, MaxMem=  2684354560 cpu:               3.6 elap:               0.9
 (Enter /udrive/faculty/rpeverati/g16/g16/l303.exe)
 DipDrv:  MaxL=1.
 Leave Link  303 at Wed Oct  7 13:41:39 2020, MaxMem=  2684354560 cpu:               3.6 elap:               0.8
 (Enter /udrive/faculty/rpeverati/g16/g16/l401.exe)
 SCF N**3 symmetry information disabled.
 ExpMin= 1.61D-01 ExpMax= 3.05D+03 ExpMxC= 4.57D+02 IAcc=3 IRadAn=         5 AccDes= 0.00D+00
 Harris functional with IExCor= 1009 and IRadAn=       5 diagonalized for initial guess.
 HarFok:  IExCor= 1009 AccDes= 0.00D+00 IRadAn=         5 IDoV= 1 UseB2=F ITyADJ=14
 ICtDFT=  3500011 ScaDFX=  1.000000  1.000000  1.000000  1.000000
 FoFCou: FMM=F IPFlag=           0 FMFlag=      100000 FMFlg1=           0
         NFxFlg=           0 DoJE=T BraDBF=F KetDBF=T FulRan=T
         wScrn=  0.000000 ICntrl=       500 IOpCl=  0 I1Cent=   200000004 NGrid=           0
         NMat0=    1 NMatS0=      1 NMatT0=    0 NMatD0=    1 NMtDS0=    0 NMtDT0=    0
 Petite list used in FoFCou.
 Harris En= -40.9586623210551    
 JPrj=0 DoOrth=F DoCkMO=F.
 Initial guess orbital symmetries:
 Alpha Orbitals:
       Occupied  (A') (A') (A") (A') (A') (A')
       Virtual   (A') (A") (A') (A') (A") (A') (A') (A') (A") (A')
                 (A') (A') (A') (A') (A") (A') (A") (A')
 Beta  Orbitals:
       Occupied  (A') (A') (A") (A') (A')
       Virtual   (A') (A') (A") (A') (A') (A") (A') (A') (A') (A")
                 (A') (A') (A') (A') (A') (A") (A') (A") (A')
 The electronic state of the initial guess is 2-A'.
 Initial guess <Sx>= 0.0000 <Sy>= 0.0000 <Sz>= 0.5000 <S**2>= 0.7500 S= 0.5000
 Leave Link  401 at Wed Oct  7 13:41:41 2020, MaxMem=  2684354560 cpu:               4.5 elap:               1.0
 (Enter /udrive/faculty/rpeverati/g16/g16/l502.exe)
 Keep R1 and R2 ints in memory in symmetry-blocked form, NReq=10395297.
 FoFCou: FMM=F IPFlag=           0 FMFlag=           0 FMFlg1=           0
         NFxFlg=           0 DoJE=F BraDBF=F KetDBF=F FulRan=T
         wScrn=  0.000000 ICntrl=       600 IOpCl=  0 I1Cent=           0 NGrid=           0
         NMat0=    1 NMatS0=    300 NMatT0=    0 NMatD0=    1 NMtDS0=    0 NMtDT0=    0
 Petite list used in FoFCou.
 UHF open shell SCF:
 Using DIIS extrapolation, IDIIS=  1040.
 NGot=  2684354560 LenX=  2684302685 LenY=  2684301619
 Requested convergence on RMS density matrix=1.00D-08 within 120 cycles.
 Requested convergence on MAX density matrix=1.00D-06.
 Requested convergence on             energy=1.00D-06.
 No special actions if energy rises.
 Integral accuracy reduced to 1.0D-05 until final iterations.

 Cycle   1  Pass 0  IDiag  1:
 E= -40.8680918824460    
 DIIS: error= 6.03D-02 at cycle   1 NSaved=   1.
 NSaved= 1 IEnMin= 1 EnMin= -40.8680918824460     IErMin= 1 ErrMin= 6.03D-02
 ErrMax= 6.03D-02  0.00D+00 EMaxC= 1.00D-01 BMatC= 2.24D-01 BMatP= 2.24D-01
 IDIUse=3 WtCom= 3.97D-01 WtEn= 6.03D-01
 Coeff-Com:  0.100D+01
 Coeff-En:   0.100D+01
 Coeff:      0.100D+01
 Gap=     0.340 Goal=   None    Shift=    0.000
 Gap=     0.360 Goal=   None    Shift=    0.000
 GapD=    0.340 DampG=1.000 DampE=0.500 DampFc=0.5000 IDamp=-1.
 Damping current iteration by 5.00D-01
 RMSDP=2.28D-02 MaxDP=2.68D-01              OVMax= 2.05D-01

 Cycle   2  Pass 0  IDiag  1:
 E= -40.8987907312984     Delta-E=       -0.030698848852 Rises=F Damp=T
 DIIS: error= 8.73D-03 at cycle   2 NSaved=   2.
 NSaved= 2 IEnMin= 2 EnMin= -40.8987907312984     IErMin= 2 ErrMin= 8.73D-03
 ErrMax= 8.73D-03  0.00D+00 EMaxC= 1.00D-01 BMatC= 7.09D-03 BMatP= 2.24D-01
 IDIUse=3 WtCom= 9.13D-01 WtEn= 8.73D-02
 Coeff-Com:  0.555D-01 0.945D+00
 Coeff-En:   0.787D-01 0.921D+00
 Coeff:      0.575D-01 0.943D+00
 Gap=     0.351 Goal=   None    Shift=    0.000
 Gap=     0.356 Goal=   None    Shift=    0.000
 RMSDP=3.45D-03 MaxDP=4.84D-02 DE=-3.07D-02 OVMax= 1.16D-01

 Cycle   3  Pass 0  IDiag  1:
 E= -40.9341353247847     Delta-E=       -0.035344593486 Rises=F Damp=F
 DIIS: error= 2.98D-03 at cycle   3 NSaved=   3.
 NSaved= 3 IEnMin= 3 EnMin= -40.9341353247847     IErMin= 3 ErrMin= 2.98D-03
 ErrMax= 2.98D-03  0.00D+00 EMaxC= 1.00D-01 BMatC= 3.46D-04 BMatP= 7.09D-03
 IDIUse=3 WtCom= 9.70D-01 WtEn= 2.98D-02
 Coeff-Com: -0.742D-02-0.648D-01 0.107D+01
 Coeff-En:   0.000D+00 0.000D+00 0.100D+01
 Coeff:     -0.720D-02-0.628D-01 0.107D+01
 Gap=     0.355 Goal=   None    Shift=    0.000
 Gap=     0.353 Goal=   None    Shift=    0.000
 RMSDP=9.20D-04 MaxDP=1.21D-02 DE=-3.53D-02 OVMax= 1.09D-02

 Cycle   4  Pass 0  IDiag  1:
 E= -40.9343697885380     Delta-E=       -0.000234463753 Rises=F Damp=F
 DIIS: error= 1.01D-03 at cycle   4 NSaved=   4.
 NSaved= 4 IEnMin= 4 EnMin= -40.9343697885380     IErMin= 4 ErrMin= 1.01D-03
 ErrMax= 1.01D-03  0.00D+00 EMaxC= 1.00D-01 BMatC= 3.45D-05 BMatP= 3.46D-04
 IDIUse=3 WtCom= 9.90D-01 WtEn= 1.01D-02
 Coeff-Com: -0.152D-02-0.326D-01-0.136D+00 0.117D+01
 Coeff-En:   0.000D+00 0.000D+00 0.000D+00 0.100D+01
 Coeff:     -0.151D-02-0.323D-01-0.135D+00 0.117D+01
 Gap=     0.354 Goal=   None    Shift=    0.000
 Gap=     0.355 Goal=   None    Shift=    0.000
 RMSDP=3.40D-04 MaxDP=3.96D-03 DE=-2.34D-04 OVMax= 3.96D-03

 Cycle   5  Pass 0  IDiag  1:
 E= -40.9343939666436     Delta-E=       -0.000024178106 Rises=F Damp=F
 DIIS: error= 1.89D-04 at cycle   5 NSaved=   5.
 NSaved= 5 IEnMin= 5 EnMin= -40.9343939666436     IErMin= 5 ErrMin= 1.89D-04
 ErrMax= 1.89D-04  0.00D+00 EMaxC= 1.00D-01 BMatC= 2.68D-06 BMatP= 3.45D-05
 IDIUse=3 WtCom= 9.98D-01 WtEn= 1.89D-03
 Coeff-Com: -0.149D-02 0.629D-02-0.769D-01 0.801D-01 0.992D+00
 Coeff-En:   0.000D+00 0.000D+00 0.000D+00 0.000D+00 0.100D+01
 Coeff:     -0.149D-02 0.628D-02-0.767D-01 0.799D-01 0.992D+00
 Gap=     0.355 Goal=   None    Shift=    0.000
 Gap=     0.356 Goal=   None    Shift=    0.000
 RMSDP=7.18D-05 MaxDP=5.14D-04 DE=-2.42D-05 OVMax= 7.78D-04

 Cycle   6  Pass 0  IDiag  1:
 E= -40.9343953838824     Delta-E=       -0.000001417239 Rises=F Damp=F
 DIIS: error= 3.11D-05 at cycle   6 NSaved=   6.
 NSaved= 6 IEnMin= 6 EnMin= -40.9343953838824     IErMin= 6 ErrMin= 3.11D-05
 ErrMax= 3.11D-05  0.00D+00 EMaxC= 1.00D-01 BMatC= 6.42D-08 BMatP= 2.68D-06
 IDIUse=1 WtCom= 1.00D+00 WtEn= 0.00D+00
 Coeff-Com:  0.545D-03-0.950D-03 0.231D-01-0.498D-01-0.278D+00 0.131D+01
 Coeff:      0.545D-03-0.950D-03 0.231D-01-0.498D-01-0.278D+00 0.131D+01
 Gap=     0.355 Goal=   None    Shift=    0.000
 Gap=     0.356 Goal=   None    Shift=    0.000
 RMSDP=1.48D-05 MaxDP=9.24D-05 DE=-1.42D-06 OVMax= 1.33D-04

 Cycle   7  Pass 0  IDiag  1:
 E= -40.9343954390629     Delta-E=       -0.000000055180 Rises=F Damp=F
 DIIS: error= 5.83D-06 at cycle   7 NSaved=   7.
 NSaved= 7 IEnMin= 7 EnMin= -40.9343954390629     IErMin= 7 ErrMin= 5.83D-06
 ErrMax= 5.83D-06  0.00D+00 EMaxC= 1.00D-01 BMatC= 3.49D-09 BMatP= 6.42D-08
 IDIUse=1 WtCom= 1.00D+00 WtEn= 0.00D+00
 Coeff-Com:  0.533D-04-0.273D-03 0.271D-02-0.179D-02-0.313D-01-0.746D-01
 Coeff-Com:  0.111D+01
 Coeff:      0.533D-04-0.273D-03 0.271D-02-0.179D-02-0.313D-01-0.746D-01
 Coeff:      0.111D+01
 Gap=     0.355 Goal=   None    Shift=    0.000
 Gap=     0.356 Goal=   None    Shift=    0.000
 RMSDP=3.52D-06 MaxDP=1.77D-05 DE=-5.52D-08 OVMax= 2.66D-05

 Initial convergence to 1.0D-05 achieved.  Increase integral accuracy.
 Cycle   8  Pass 1  IDiag  1:
 E= -40.9343944670618     Delta-E=        0.000000972001 Rises=F Damp=F
 DIIS: error= 1.85D-06 at cycle   1 NSaved=   1.
 NSaved= 1 IEnMin= 1 EnMin= -40.9343944670618     IErMin= 1 ErrMin= 1.85D-06
 ErrMax= 1.85D-06  0.00D+00 EMaxC= 1.00D-01 BMatC= 2.93D-10 BMatP= 2.93D-10
 IDIUse=1 WtCom= 1.00D+00 WtEn= 0.00D+00
 Coeff-Com:  0.100D+01
 Coeff:      0.100D+01
 Gap=     0.355 Goal=   None    Shift=    0.000
 Gap=     0.356 Goal=   None    Shift=    0.000
 RMSDP=3.52D-06 MaxDP=1.77D-05 DE= 9.72D-07 OVMax= 9.54D-06

 Cycle   9  Pass 1  IDiag  1:
 E= -40.9343944672020     Delta-E=       -0.000000000140 Rises=F Damp=F
 DIIS: error= 8.34D-07 at cycle   2 NSaved=   2.
 NSaved= 2 IEnMin= 2 EnMin= -40.9343944672020     IErMin= 2 ErrMin= 8.34D-07
 ErrMax= 8.34D-07  0.00D+00 EMaxC= 1.00D-01 BMatC= 5.30D-11 BMatP= 2.93D-10
 IDIUse=1 WtCom= 1.00D+00 WtEn= 0.00D+00
 Coeff-Com:  0.189D+00 0.811D+00
 Coeff:      0.189D+00 0.811D+00
 Gap=     0.355 Goal=   None    Shift=    0.000
 Gap=     0.356 Goal=   None    Shift=    0.000
 RMSDP=2.96D-07 MaxDP=2.41D-06 DE=-1.40D-10 OVMax= 2.86D-06

 Cycle  10  Pass 1  IDiag  1:
 E= -40.9343944672258     Delta-E=       -0.000000000024 Rises=F Damp=F
 DIIS: error= 3.76D-07 at cycle   3 NSaved=   3.
 NSaved= 3 IEnMin= 3 EnMin= -40.9343944672258     IErMin= 3 ErrMin= 3.76D-07
 ErrMax= 3.76D-07  0.00D+00 EMaxC= 1.00D-01 BMatC= 7.68D-12 BMatP= 5.30D-11
 IDIUse=1 WtCom= 1.00D+00 WtEn= 0.00D+00
 Coeff-Com: -0.144D+00-0.914D-01 0.124D+01
 Coeff:     -0.144D+00-0.914D-01 0.124D+01
 Gap=     0.355 Goal=   None    Shift=    0.000
 Gap=     0.356 Goal=   None    Shift=    0.000
 RMSDP=1.60D-07 MaxDP=1.06D-06 DE=-2.37D-11 OVMax= 2.68D-06

 Cycle  11  Pass 1  IDiag  1:
 E= -40.9343944672318     Delta-E=       -0.000000000006 Rises=F Damp=F
 DIIS: error= 2.47D-07 at cycle   4 NSaved=   4.
 NSaved= 4 IEnMin= 4 EnMin= -40.9343944672318     IErMin= 4 ErrMin= 2.47D-07
 ErrMax= 2.47D-07  0.00D+00 EMaxC= 1.00D-01 BMatC= 3.07D-12 BMatP= 7.68D-12
 IDIUse=1 WtCom= 1.00D+00 WtEn= 0.00D+00
 Coeff-Com: -0.972D-01-0.131D+00 0.625D+00 0.603D+00
 Coeff:     -0.972D-01-0.131D+00 0.625D+00 0.603D+00
 Gap=     0.355 Goal=   None    Shift=    0.000
 Gap=     0.356 Goal=   None    Shift=    0.000
 RMSDP=6.69D-08 MaxDP=7.47D-07 DE=-6.05D-12 OVMax= 6.55D-07

 Cycle  12  Pass 1  IDiag  1:
 E= -40.9343944672328     Delta-E=       -0.000000000001 Rises=F Damp=F
 DIIS: error= 3.48D-08 at cycle   5 NSaved=   5.
 NSaved= 5 IEnMin= 5 EnMin= -40.9343944672328     IErMin= 5 ErrMin= 3.48D-08
 ErrMax= 3.48D-08  0.00D+00 EMaxC= 1.00D-01 BMatC= 5.75D-14 BMatP= 3.07D-12
 IDIUse=1 WtCom= 1.00D+00 WtEn= 0.00D+00
 Coeff-Com:  0.200D-01 0.166D-01-0.163D+00-0.125D-02 0.113D+01
 Coeff:      0.200D-01 0.166D-01-0.163D+00-0.125D-02 0.113D+01
 Gap=     0.355 Goal=   None    Shift=    0.000
 Gap=     0.356 Goal=   None    Shift=    0.000
 RMSDP=1.37D-08 MaxDP=1.21D-07 DE=-9.95D-13 OVMax= 2.03D-07

 Cycle  13  Pass 1  IDiag  1:
 E= -40.9343944672328     Delta-E=       -0.000000000000 Rises=F Damp=F
 DIIS: error= 6.18D-09 at cycle   6 NSaved=   6.
 NSaved= 6 IEnMin= 6 EnMin= -40.9343944672328     IErMin= 6 ErrMin= 6.18D-09
 ErrMax= 6.18D-09  0.00D+00 EMaxC= 1.00D-01 BMatC= 1.03D-15 BMatP= 5.75D-14
 IDIUse=1 WtCom= 1.00D+00 WtEn= 0.00D+00
 Coeff-Com:  0.175D-02 0.231D-02-0.110D-01-0.206D-01-0.223D-01 0.105D+01
 Coeff:      0.175D-02 0.231D-02-0.110D-01-0.206D-01-0.223D-01 0.105D+01
 Gap=     0.355 Goal=   None    Shift=    0.000
 Gap=     0.356 Goal=   None    Shift=    0.000
 RMSDP=2.59D-09 MaxDP=2.72D-08 DE=-1.42D-14 OVMax= 2.46D-08

 SCF Done:  E(UPBE1PBE) =  -40.9343944672     A.U. after   13 cycles
            NFock= 13  Conv=0.26D-08     -V/T= 2.0051
 <Sx>= 0.0000 <Sy>= 0.0000 <Sz>= 0.5000 <S**2>= 0.7602 S= 0.5051
 <L.S>= 0.000000000000E+00
 KE= 4.072708797717D+01 PE=-1.247032354824D+02 EE= 2.771313286484D+01
 Annihilation of the first spin contaminant:
 S**2 before annihilation     0.7602,   after     0.7500
 Leave Link  502 at Wed Oct  7 13:41:44 2020, MaxMem=  2684354560 cpu:              23.5 elap:               2.6
 (Enter /udrive/faculty/rpeverati/g16/g16/l508.exe)
 QCSCF skips out because SCF is already converged.
 Leave Link  508 at Wed Oct  7 13:41:45 2020, MaxMem=  2684354560 cpu:               0.4 elap:               0.4
 (Enter /udrive/faculty/rpeverati/g16/g16/l601.exe)
 Copying SCF densities to generalized density rwf, IOpCl= 1 IROHF=0.

 **********************************************************************

            Population analysis using the SCF density.

 **********************************************************************

 Orbital symmetries:
 Alpha Orbitals:
       Occupied  (A') (A') (A') (A") (A') (A')
       Virtual   (A') (A") (A') (A') (A') (A") (A') (A') (A") (A')
                 (A') (A') (A') (A') (A") (A') (A") (A')
 Beta  Orbitals:
       Occupied  (A') (A') (A") (A') (A')
       Virtual   (A') (A') (A") (A') (A') (A') (A") (A') (A') (A")
                 (A') (A') (A') (A') (A") (A') (A') (A") (A')
 The electronic state is 2-A'.
 Alpha  occ. eigenvalues --  -10.23298  -0.72553  -0.46358  -0.42743  -0.42743
 Alpha  occ. eigenvalues --   -0.22398
 Alpha virt. eigenvalues --    0.13086   0.18398   0.18398   0.21396   0.54120
 Alpha virt. eigenvalues --    0.54120   0.57539   0.72193   0.92428   0.92428
 Alpha virt. eigenvalues --    0.95721   1.01241   1.22502   1.64062   1.64062
 Alpha virt. eigenvalues --    2.05850   2.23052   2.23053
  Beta  occ. eigenvalues --  -10.22133  -0.69607  -0.41956  -0.41956  -0.41557
  Beta virt. eigenvalues --   -0.05982   0.13975   0.19085   0.19086   0.25283
  Beta virt. eigenvalues --    0.54630   0.54630   0.62847   0.76652   0.93190
  Beta virt. eigenvalues --    0.93190   0.97858   1.02707   1.25162   1.68278
  Beta virt. eigenvalues --    1.68278   2.10937   2.24633   2.24633
          Condensed to atoms (all electrons):
               1          2          3          4          5          6
     1  C    5.501786   0.371505   0.371492   0.371492   0.136001  -0.141414
     2  H    0.371505   0.485401  -0.024051  -0.024051  -0.015413   0.002762
     3  H    0.371492  -0.024051   0.485398  -0.024050  -0.015396   0.002762
     4  H    0.371492  -0.024051  -0.024050   0.485398  -0.015396   0.002762
     5  H    0.136001  -0.015413  -0.015396  -0.015396   0.674313   0.239909
     6  H   -0.141414   0.002762   0.002762   0.002762   0.239909   0.889873
          Atomic-Atomic Spin Densities.
               1          2          3          4          5          6
     1  C    0.906103  -0.022271  -0.022275  -0.022275   0.019594  -0.157432
     2  H   -0.022271  -0.017520   0.003425   0.003425   0.004024   0.004722
     3  H   -0.022275   0.003425  -0.017509   0.003425   0.004021   0.004721
     4  H   -0.022275   0.003425   0.003425  -0.017509   0.004021   0.004721
     5  H    0.019594   0.004024   0.004021   0.004021  -0.206563  -0.000765
     6  H   -0.157432   0.004722   0.004721   0.004721  -0.000765   0.690837
 Mulliken charges and spin densities:
               1          2
     1  C   -0.610862   0.701444
     2  H    0.203846  -0.024197
     3  H    0.203845  -0.024192
     4  H    0.203845  -0.024192
     5  H   -0.004019  -0.175668
     6  H    0.003344   0.546804
 Sum of Mulliken charges =   0.00000   1.00000
 Mulliken charges and spin densities with hydrogens summed into heavy atoms:
               1          2
     1  C    0.000000   1.000000
 Electronic spatial extent (au):  <R**2>=             57.3504
 Charge=              0.0000 electrons
 Dipole moment (field-independent basis, Debye):
    X=              0.0001    Y=              0.7298    Z=             -0.0000  Tot=              0.7298
 Quadrupole moment (field-independent basis, Debye-Ang):
   XX=             -9.2255   YY=            -11.1917   ZZ=             -9.2255
   XY=             -0.0003   XZ=              0.0000   YZ=             -0.0000
 Traceless Quadrupole moment (field-independent basis, Debye-Ang):
   XX=              0.6554   YY=             -1.3108   ZZ=              0.6554
   XY=             -0.0003   XZ=              0.0000   YZ=             -0.0000
 Octapole moment (field-independent basis, Debye-Ang**2):
  XXX=              0.7991  YYY=              4.5417  ZZZ=             -0.0000  XYY=             -0.0000
  XXY=              1.4739  XXZ=             -0.0000  XZZ=             -0.7986  YZZ=              1.4743
  YYZ=             -0.0000  XYZ=              0.0000
 Hexadecapole moment (field-independent basis, Debye-Ang**3):
 XXXX=            -15.7427 YYYY=            -58.0053 ZZZZ=            -15.7430 XXXY=              0.4888
 XXXZ=             -0.0000 YYYX=             -0.0005 YYYZ=              0.0000 ZZZX=              0.0000
 ZZZY=             -0.0000 XXYY=            -11.6705 XXZZ=             -5.2478 YYZZ=            -11.6700
 XXYZ=             -0.0000 YYXZ=              0.0000 ZZXY=             -0.4889
 N-N= 1.532862017312D+01 E-N=-1.247032355228D+02  KE= 4.072708797717D+01
                          Isotropic Fermi Contact Couplings
        Atom                 a.u.       MegaHertz       Gauss      10(-4) cm-1
     1  C(13)              0.21488     241.56665      86.19699      80.57796
     2  H(1)              -0.00825     -36.85982     -13.15250     -12.29511
     3  H(1)              -0.00824     -36.84645     -13.14773     -12.29065
     4  H(1)              -0.00824     -36.84645     -13.14773     -12.29065
     5  H(1)              -0.04192    -187.35868     -66.85424     -62.49613
     6  H(1)               0.17468     780.80462     278.61050     260.44839
 --------------------------------------------------------
       Center         ----  Spin Dipole Couplings  ----
                      3XX-RR        3YY-RR        3ZZ-RR
 --------------------------------------------------------
     1   Atom       -0.356121      0.712244     -0.356124
     2   Atom        0.044796      0.000993     -0.045789
     3   Atom       -0.023148      0.001001      0.022147
     4   Atom       -0.023148      0.001001      0.022147
     5   Atom       -0.111267      0.222535     -0.111268
     6   Atom        0.008502     -0.017004      0.008502
 --------------------------------------------------------
                        XY            XZ            YZ
 --------------------------------------------------------
     1   Atom        0.000200     -0.000000      0.000000
     2   Atom        0.018689      0.000000      0.000000
     3   Atom       -0.009343     -0.039218      0.016197
     4   Atom       -0.009343      0.039218     -0.016197
     5   Atom       -0.000028      0.000000     -0.000000
     6   Atom        0.000014      0.000000     -0.000000
 --------------------------------------------------------


 ---------------------------------------------------------------------------------
              Anisotropic Spin Dipole Couplings in Principal Axis System
 ---------------------------------------------------------------------------------

       Atom             a.u.   MegaHertz   Gauss  10(-4) cm-1        Axes

              Baa    -0.3561   -47.788   -17.052   -15.940  0.0000 -0.0000  1.0000
     1 C(13)  Bbb    -0.3561   -47.788   -17.052   -15.940  1.0000 -0.0002 -0.0000
              Bcc     0.7122    95.576    34.104    31.881  0.0002  1.0000  0.0000
 
              Baa    -0.0458   -24.431    -8.717    -8.149 -0.0000  0.0000  1.0000
     2 H(1)   Bbb    -0.0059    -3.146    -1.123    -1.050 -0.3459  0.9383 -0.0000
              Bcc     0.0517    27.577     9.840     9.199  0.9383  0.3459  0.0000
 
              Baa    -0.0458   -24.430    -8.717    -8.149  0.8660 -0.0002  0.5000
     3 H(1)   Bbb    -0.0059    -3.146    -1.123    -1.050  0.1732  0.9382 -0.2997
              Bcc     0.0517    27.577     9.840     9.199 -0.4690  0.3461  0.8125
 
              Baa    -0.0458   -24.430    -8.717    -8.149  0.8660 -0.0002 -0.5000
     4 H(1)   Bbb    -0.0059    -3.146    -1.123    -1.050  0.1732  0.9382  0.2997
              Bcc     0.0517    27.577     9.840     9.199  0.4690 -0.3461  0.8125
 
              Baa    -0.1113   -59.367   -21.184   -19.803  0.0000  0.0000  1.0000
     5 H(1)   Bbb    -0.1113   -59.367   -21.184   -19.803  1.0000  0.0001  0.0000
              Bcc     0.2225   118.734    42.367    39.605 -0.0001  1.0000  0.0000
 
              Baa    -0.0170    -9.073    -3.237    -3.026 -0.0006  1.0000  0.0000
     6 H(1)   Bbb     0.0085     4.536     1.619     1.513 -0.0000 -0.0000  1.0000
              Bcc     0.0085     4.536     1.619     1.513  1.0000  0.0006  0.0000
 

 ---------------------------------------------------------------------------------

 No NMR shielding tensors so no spin-rotation constants.
 Leave Link  601 at Wed Oct  7 13:41:46 2020, MaxMem=  2684354560 cpu:               7.5 elap:               1.2
 (Enter /udrive/faculty/rpeverati/g16/g16/l701.exe)
 ... and contract with generalized density number  0.
 Compute integral first derivatives.
 Leave Link  701 at Wed Oct  7 13:41:47 2020, MaxMem=  2684354560 cpu:               2.6 elap:               0.5
 (Enter /udrive/faculty/rpeverati/g16/g16/l702.exe)
 L702 exits ... SP integral derivatives will be done elsewhere.
 Leave Link  702 at Wed Oct  7 13:41:48 2020, MaxMem=  2684354560 cpu:               4.4 elap:               0.9
 (Enter /udrive/faculty/rpeverati/g16/g16/l703.exe)
 Integral derivatives from FoFJK, PRISM(SPDF).
 Compute integral first derivatives, UseDBF=F ICtDFT=           0.
 Calling FoFJK, ICntrl=      2127 FMM=F ISym2X=1 I1Cent= 0 IOpClX= 1 NMat=1 NMatS=1 NMatT=0.
 FoFJK:  IHMeth= 1 ICntrl=    2127 DoSepK=F KAlg= 0 I1Cent=           0 FoldK=F
 IRaf=         0 NMat=       1 IRICut=       1 DoRegI=T DoRafI=F ISym2E= 1 IDoP0=0 IntGTp=1.
 FoFCou: FMM=F IPFlag=           0 FMFlag=      100000 FMFlg1=         800
         NFxFlg=           0 DoJE=F BraDBF=F KetDBF=F FulRan=T
         wScrn=  0.000000 ICntrl=      2127 IOpCl=  1 I1Cent=           0 NGrid=           0
         NMat0=    1 NMatS0=      1 NMatT0=    0 NMatD0=    1 NMtDS0=    0 NMtDT0=    0
 Petite list used in FoFCou.
 Leave Link  703 at Wed Oct  7 13:41:49 2020, MaxMem=  2684354560 cpu:               6.4 elap:               0.9
 (Enter /udrive/faculty/rpeverati/g16/g16/l716.exe)
 Dipole        = 3.83145136D-05 2.87108822D-01-1.33234803D-15
 ***** Axes restored to original set *****
 -------------------------------------------------------------------
 Center     Atomic                   Forces (Hartrees/Bohr)
 Number     Number              X              Y              Z
 -------------------------------------------------------------------
      1        6          -0.000005857   -0.006714243   -0.000000000
      2        1           0.003620267    0.001195899    0.000000000
      3        1          -0.001809806    0.001195638    0.003134917
      4        1          -0.001809806    0.001195638   -0.003134917
      5        1           0.000012262    0.007367459   -0.000000000
      6        1          -0.000007059   -0.004240390   -0.000000000
 -------------------------------------------------------------------
 Cartesian Forces:  Max     0.007367459 RMS     0.002990201
 Leave Link  716 at Wed Oct  7 13:41:50 2020, MaxMem=  2684354560 cpu:               2.1 elap:               0.6
 (Enter /udrive/faculty/rpeverati/g16/g16/l103.exe)

 GradGradGradGradGradGradGradGradGradGradGradGradGradGradGradGradGradGrad
 Berny optimization.
 Optmz: redundant internal coordinate code flag= 1
 FormGI is forming the generalized inverse of G from B-inverse, IUseBI=4.
 Internal  Forces:  Max     0.004240387 RMS     0.002048836
 Search for a saddle point.
 Step number   1 out of a maximum of   50
 All quantities printed in internal units (Hartrees-Bohrs-Radians)
 Swapping is turned off.
 Second derivative matrix not updated -- first step.
 The second derivative matrix:
                          R1        R2        R3        R4        R5
           R1           0.35620
           R2           0.00000   0.35620
           R3           0.00000   0.00000   0.35620
           R4           0.00000   0.00000   0.00000   0.15008
           R5           0.00000   0.00000   0.00000   0.00000   0.23299
           A1           0.00000   0.00000   0.00000   0.00000   0.00000
           A2           0.00000   0.00000   0.00000   0.00000   0.00000
           A3           0.00000   0.00000   0.00000   0.00000   0.00000
           A4           0.00000   0.00000   0.00000   0.00000   0.00000
           A5           0.00000   0.00000   0.00000   0.00000   0.00000
           A6           0.00000   0.00000   0.00000   0.00000   0.00000
           A7           0.00000   0.00000   0.00000   0.00000   0.00000
           A8           0.00000   0.00000   0.00000   0.00000   0.00000
           D1           0.00000   0.00000   0.00000   0.00000   0.00000
           D2           0.00000   0.00000   0.00000   0.00000   0.00000
           D3           0.00000   0.00000   0.00000   0.00000   0.00000
           D4           0.00000   0.00000   0.00000   0.00000   0.00000
                          A1        A2        A3        A4        A5
           A1           0.16000
           A2           0.00000   0.16000
           A3           0.00000   0.00000   0.16000
           A4           0.00000   0.00000   0.00000   0.16000
           A5           0.00000   0.00000   0.00000   0.00000   0.16000
           A6           0.00000   0.00000   0.00000   0.00000   0.00000
           A7           0.00000   0.00000   0.00000   0.00000   0.00000
           A8           0.00000   0.00000   0.00000   0.00000   0.00000
           D1           0.00000   0.00000   0.00000   0.00000   0.00000
           D2           0.00000   0.00000   0.00000   0.00000   0.00000
           D3           0.00000   0.00000   0.00000   0.00000   0.00000
           D4           0.00000   0.00000   0.00000   0.00000   0.00000
                          A6        A7        A8        D1        D2
           A6           0.16000
           A7           0.00000   0.00230
           A8           0.00000   0.00000   0.00230
           D1           0.00000   0.00000   0.00000   0.00326
           D2           0.00000   0.00000   0.00000   0.00000   0.00230
           D3           0.00000   0.00000   0.00000   0.00000   0.00000
           D4           0.00000   0.00000   0.00000   0.00000   0.00000
                          D3        D4
           D3           0.00230
           D4           0.00000   0.00230
 ITU=  0
 Eigenvectors of the second derivative matrix:
                           1         2         3         4         5
     Eigenvalues --     0.00230   0.00230   0.05296   0.06798   0.07464
   1         R1        -0.00000  -0.00000  -0.00000  -0.00000   0.00000
   2         R2         0.00000   0.00000   0.00000  -0.00000   0.00000
   3         R3         0.00000  -0.00000   0.00000  -0.00000   0.00000
   4         R4        -0.00000  -0.00000  -0.00000   0.00000   0.00000
   5         R5         0.00000  -0.00000  -0.00000   0.00000   0.00000
   6         A1        -0.00000  -0.00000  -0.42606  -0.00005  -0.26590
   7         A2        -0.00000   0.00000  -0.02013   0.42744   0.34119
   8         A3        -0.00000   0.00000   0.17577   0.15986  -0.27788
   9         A4         0.00000   0.00000  -0.02004  -0.42745   0.34116
  10         A5         0.00000  -0.00000   0.17581  -0.15979  -0.27787
  11         A6        -0.00000   0.00000   0.27190   0.00003  -0.00117
  12         A7         0.99472   0.10262   0.00000   0.00000   0.00000
  13         A8         0.10262  -0.99472   0.00000   0.00000   0.00000
  14         D1        -0.00000   0.00000   0.72243   0.00009  -0.35832
  15         D2         0.00000  -0.00000  -0.32662  -0.00002  -0.52514
  16         D3         0.00000   0.00000  -0.16324  -0.54015  -0.26259
  17         D4         0.00000   0.00000   0.16338  -0.54013   0.26256
                           6         7         8         9        10
     Eigenvalues --     0.15008   0.16000   0.16000   0.23299   0.35620
   1         R1         0.00000   0.00000  -0.00000  -0.00000   0.00000
   2         R2         0.00000  -0.00000   0.00000   0.00000   0.29833
   3         R3         0.00000   0.00000  -0.00000   0.00000   0.95446
   4         R4        -1.00000  -0.00000  -0.00000   0.00000   0.00000
   5         R5         0.00000  -0.00000   0.00000   1.00000  -0.00000
   6         A1        -0.00000   0.17242  -0.18386  -0.00000   0.00000
   7         A2         0.00000  -0.30029  -0.04182  -0.00000   0.00000
   8         A3        -0.00000   0.25249   0.69895  -0.00000  -0.00000
   9         A4        -0.00000   0.06095   0.29704  -0.00000  -0.00000
  10         A5         0.00000  -0.71370  -0.20723   0.00000  -0.00000
  11         A6        -0.00000   0.55069  -0.58715   0.00000  -0.00000
  12         A7        -0.00000   0.00000   0.00000  -0.00000  -0.00000
  13         A8         0.00000   0.00000   0.00000  -0.00000  -0.00000
  14         D1        -0.00000   0.00000  -0.00000   0.00000  -0.00000
  15         D2         0.00000   0.00000   0.00000  -0.00000   0.00000
  16         D3        -0.00000  -0.00000  -0.00000   0.00000  -0.00000
  17         D4        -0.00000  -0.00000  -0.00000   0.00000  -0.00000
                          11        12
     Eigenvalues --     0.35620   0.35620
   1         R1        -0.00000  -1.00000
   2         R2         0.95446   0.00000
   3         R3        -0.29833   0.00000
   4         R4        -0.00000  -0.00000
   5         R5        -0.00000  -0.00000
   6         A1         0.00000   0.00000
   7         A2        -0.00000   0.00000
   8         A3         0.00000  -0.00000
   9         A4        -0.00000   0.00000
  10         A5        -0.00000  -0.00000
  11         A6         0.00000   0.00000
  12         A7        -0.00000  -0.00000
  13         A8         0.00000   0.00000
  14         D1         0.00000  -0.00000
  15         D2         0.00000  -0.00000
  16         D3        -0.00000  -0.00000
  17         D4        -0.00000  -0.00000
 Eigenvalue     1 is   2.30D-03 should be less than     0.000000 Eigenvector:
                          A7        A8        A5        A6        D3
   1                    0.99472   0.10262   0.00000  -0.00000   0.00000
                          R5        D2        A3        R4        R2
   1                    0.00000   0.00000  -0.00000  -0.00000   0.00000
 RLam0= 2.30D-03.
 Iter=   1 RLamda= 0.00000000D+00 Sum=-2.68864448D-04.
 Iter=   2 RLamda=-2.68864448D-04 Sum=-2.68544765D-04.
 Iter=   3 RLamda=-2.68544765D-04 Sum=-2.68545144D-04.
 RFO step:  Lambda0=2.300095304D-03 Lambda=-2.68544765D-04.
 Linear search not attempted -- option 19 set.
 Iteration  1 RMS(Cart)=  0.01055889 RMS(Int)=  0.00017659
 Iteration  2 RMS(Cart)=  0.00018371 RMS(Int)=  0.00000461
 Iteration  3 RMS(Cart)=  0.00000003 RMS(Int)=  0.00000461
 ITry= 1 IFail=0 DXMaxC= 2.39D-02 DCOld= 1.00D+10 DXMaxT= 1.00D-01 DXLimC= 3.00D+00 Rises=F
 ClnCor:  largest displacement from symmetrization is 1.80D-03 for atom     4.
 Variable       Old X    -DE/DX   Delta X   Delta X   Delta X     New X
                                 (Linear)    (Quad)   (Total)
    R1        2.04679   0.00380   0.00000   0.01066   0.01066   2.05745
    R2        2.04680   0.00380   0.00000   0.01066   0.01049   2.05729
    R3        2.04680   0.00380   0.00000   0.01066   0.01049   2.05729
    R4        2.61270  -0.00313   0.00000  -0.02080  -0.02080   2.59190
    R5        1.70842   0.00424   0.00000   0.01818   0.01818   1.72660
    A1        2.00285  -0.00006   0.00000  -0.00184  -0.00173   2.00113
    A2        2.00285  -0.00015   0.00000  -0.00191  -0.00173   2.00113
    A3        1.80566   0.00015   0.00000   0.00254   0.00254   1.80820
    A4        2.00286  -0.00015   0.00000  -0.00191  -0.00159   2.00127
    A5        1.80572   0.00014   0.00000   0.00252   0.00209   1.80781
    A6        1.80572   0.00018   0.00000   0.00252   0.00209   1.80781
    A7        3.14102   0.00001   0.00000  -0.03421  -0.03421   3.10681
    A8        3.14159  -0.00000   0.00000  -0.00413   0.00000   3.14159
    D1       -2.37519   0.00043   0.00000   0.00729   0.00650  -2.36869
    D2        2.09438   0.00006   0.00000   0.00005   0.00001   2.09440
    D3       -2.09438   0.00003   0.00000   0.00002  -0.00001  -2.09440
    D4        2.09442  -0.00003   0.00000  -0.00003  -0.00003   2.09439
         Item               Value     Threshold  Converged?
 Maximum Force            0.004240     0.000450     NO 
 RMS     Force            0.002049     0.000300     NO 
 Maximum Displacement     0.023911     0.001800     NO 
 RMS     Displacement     0.010543     0.001200     NO 
 Predicted change in Energy=-1.325133D-04
 Lowest energy point so far.  Saving SCF results.
 Largest change from initial coordinates is atom    5       0.013 Angstoms.
 GradGradGradGradGradGradGradGradGradGradGradGradGradGradGradGradGradGrad

 Leave Link  103 at Wed Oct  7 13:41:52 2020, MaxMem=  2684354560 cpu:               5.3 elap:               1.0
 (Enter /udrive/faculty/rpeverati/g16/g16/l202.exe)
                          Input orientation:                          
 ---------------------------------------------------------------------
 Center     Atomic      Atomic             Coordinates (Angstroms)
 Number     Number       Type             X           Y           Z
 ---------------------------------------------------------------------
      1          6           0       -0.001629    0.260688    0.000000
      2          1           0        1.058510    0.508673    0.000000
      3          1           0       -0.528786    0.520330    0.916456
      4          1           0       -0.528786    0.520330   -0.916456
      5          1           0       -0.012075   -1.110849   -0.000000
      6          1           0        0.012738   -2.024187   -0.000000
 ---------------------------------------------------------------------
                    Distance matrix (angstroms):
                    1          2          3          4          5
     1  C    0.000000
     2  H    1.088756   0.000000
     3  H    1.088669   1.832903   0.000000
     4  H    1.088669   1.832903   1.832913   0.000000
     5  H    1.371577   1.941392   1.941037   1.941037   0.000000
     6  H    2.284921   2.740259   2.758207   2.758207   0.913675
                    6
     6  H    0.000000
 Stoichiometry    CH5(2)
 Framework group  CS[SG(CH3),X(H2)]
 Deg. of freedom     8
 Full point group                 CS      NOp   2
 RotChk:  IX=0 Diff= 4.77D-03
 Largest Abelian subgroup         CS      NOp   2
 Largest concise Abelian subgroup CS      NOp   2
                         Standard orientation:                         
 ---------------------------------------------------------------------
 Center     Atomic      Atomic             Coordinates (Angstroms)
 Number     Number       Type             X           Y           Z
 ---------------------------------------------------------------------
      1          6           0        0.000000    0.262651    0.000000
      2          1           0        1.060969    0.507059    0.000000
      3          1           0       -0.526278    0.524069    0.916456
      4          1           0       -0.526278    0.524069   -0.916456
      5          1           0       -0.015073   -1.108843    0.000000
      6          1           0        0.006660   -2.022260    0.000000
 ---------------------------------------------------------------------
 Rotational constants (GHZ):         149.2591413          59.1037993          59.1033957
 Leave Link  202 at Wed Oct  7 13:41:52 2020, MaxMem=  2684354560 cpu:               0.9 elap:               0.4
 (Enter /udrive/faculty/rpeverati/g16/g16/l301.exe)
 Standard basis: 6-31G(d) (5D, 7F)
 Ernie: Thresh=  0.10000D-02 Tol=  0.10000D-05 Strict=F.
 There are    19 symmetry adapted cartesian basis functions of A'  symmetry.
 There are     6 symmetry adapted cartesian basis functions of A"  symmetry.
 There are    18 symmetry adapted basis functions of A'  symmetry.
 There are     6 symmetry adapted basis functions of A"  symmetry.
    24 basis functions,    48 primitive gaussians,    25 cartesian basis functions
     6 alpha electrons        5 beta electrons
       nuclear repulsion energy        15.2935826769 Hartrees.
 IExCor= 1009 DFT=T Ex+Corr=PBE1PBE ExCW=0 ScaHFX=  0.250000
 ScaDFX=  0.750000  0.750000  1.000000  1.000000 ScalE2=  1.000000  1.000000
 IRadAn=      5 IRanWt=     -1 IRanGd=            0 ICorTp=0 IEmpDi=  4
 NAtoms=    6 NActive=    6 NUniq=    5 SFac= 1.44D+00 NAtFMM=   60 NAOKFM=F Big=F
 Integral buffers will be    131072 words long.
 Raffenetti 2 integral format.
 Two-electron integral symmetry is turned on.
 Leave Link  301 at Wed Oct  7 13:41:53 2020, MaxMem=  2684354560 cpu:               1.7 elap:               0.7
 (Enter /udrive/faculty/rpeverati/g16/g16/l302.exe)
 NPDir=0 NMtPBC=     1 NCelOv=     1 NCel=       1 NClECP=     1 NCelD=      1
         NCelK=      1 NCelE2=     1 NClLst=     1 CellRange=     0.0.
 One-electron integrals computed using PRISM.
 One-electron integral symmetry used in STVInt
 NBasis=    24 RedAO= T EigKep=  1.65D-02  NBF=    18     6
 NBsUse=    24 1.00D-06 EigRej= -1.00D+00 NBFU=    18     6
 Precomputing XC quadrature grid using
 IXCGrd= 4 IRadAn=           5 IRanWt=          -1 IRanGd=           0 AccXCQ= 0.00D+00.
 Generated NRdTot=       0 NPtTot=           0 NUsed=           0 NTot=          32
 NSgBfM=    25    25    25    25    25 MxSgAt=     6 MxSgA2=     6.
 Leave Link  302 at Wed Oct  7 13:41:55 2020, MaxMem=  2684354560 cpu:               7.5 elap:               1.1
 (Enter /udrive/faculty/rpeverati/g16/g16/l303.exe)
 DipDrv:  MaxL=1.
 Leave Link  303 at Wed Oct  7 13:41:56 2020, MaxMem=  2684354560 cpu:               1.5 elap:               0.6
 (Enter /udrive/faculty/rpeverati/g16/g16/l401.exe)
 Initial guess from the checkpoint file:  "MN_80_RKT03_BH76_PBE0_631Gs.chk"
 SCF N**3 symmetry information disabled.
 B after Tr=     0.000000   -0.000000    0.000000
         Rot=    0.999999   -0.000000    0.000000    0.001525 Ang=   0.17 deg.
 Guess basis will be translated and rotated to current coordinates.
 JPrj=2 DoOrth=T DoCkMO=T.
 Initial guess orbital symmetries:
 Alpha Orbitals:
       Occupied  (A') (A') (A') (A") (A') (A')
       Virtual   (A') (A") (A') (A') (A') (A") (A') (A') (A") (A')
                 (A') (A') (A') (A') (A") (A') (A") (A')
 Beta  Orbitals:
       Occupied  (A') (A') (A") (A') (A')
       Virtual   (A') (A') (A") (A') (A') (A') (A") (A') (A') (A")
                 (A') (A') (A') (A') (A") (A') (A') (A") (A')
 The electronic state of the initial guess is 2-A'.
 Initial guess <Sx>= 0.0000 <Sy>= 0.0000 <Sz>= 0.5000 <S**2>= 0.7602 S= 0.5051
 Generating alternative initial guess.
 ExpMin= 1.61D-01 ExpMax= 3.05D+03 ExpMxC= 4.57D+02 IAcc=2 IRadAn=         4 AccDes= 0.00D+00
 Harris functional with IExCor= 1009 and IRadAn=       4 diagonalized for initial guess.
 HarFok:  IExCor= 1009 AccDes= 0.00D+00 IRadAn=         4 IDoV= 1 UseB2=F ITyADJ=14
 ICtDFT=  3500011 ScaDFX=  1.000000  1.000000  1.000000  1.000000
 FoFCou: FMM=F IPFlag=           0 FMFlag=      100000 FMFlg1=           0
         NFxFlg=           0 DoJE=T BraDBF=F KetDBF=T FulRan=T
         wScrn=  0.000000 ICntrl=       500 IOpCl=  0 I1Cent=   200000004 NGrid=           0
         NMat0=    1 NMatS0=      1 NMatT0=    0 NMatD0=    1 NMtDS0=    0 NMtDT0=    0
 Petite list used in FoFCou.
 Harris En= -40.9576131995596    
 Leave Link  401 at Wed Oct  7 13:41:57 2020, MaxMem=  2684354560 cpu:               5.5 elap:               0.9
 (Enter /udrive/faculty/rpeverati/g16/g16/l502.exe)
 Keep R1 and R2 ints in memory in symmetry-blocked form, NReq=10395297.
 FoFCou: FMM=F IPFlag=           0 FMFlag=           0 FMFlg1=           0
         NFxFlg=           0 DoJE=F BraDBF=F KetDBF=F FulRan=T
         wScrn=  0.000000 ICntrl=       600 IOpCl=  0 I1Cent=           0 NGrid=           0
         NMat0=    1 NMatS0=    300 NMatT0=    0 NMatD0=    1 NMtDS0=    0 NMtDT0=    0
 Petite list used in FoFCou.
 UHF open shell SCF:
 Using DIIS extrapolation, IDIIS=  1040.
 NGot=  2684354560 LenX=  2684302685 LenY=  2684301619
 Requested convergence on RMS density matrix=1.00D-08 within 120 cycles.
 Requested convergence on MAX density matrix=1.00D-06.
 Requested convergence on             energy=1.00D-06.
 No special actions if energy rises.
 Integral accuracy reduced to 1.0D-05 until final iterations.

 Cycle   1  Pass 0  IDiag  1:
 E= -40.9345166684154    
 DIIS: error= 1.11D-03 at cycle   1 NSaved=   1.
 NSaved= 1 IEnMin= 1 EnMin= -40.9345166684154     IErMin= 1 ErrMin= 1.11D-03
 ErrMax= 1.11D-03  0.00D+00 EMaxC= 1.00D-01 BMatC= 1.25D-04 BMatP= 1.25D-04
 IDIUse=3 WtCom= 9.89D-01 WtEn= 1.11D-02
 Coeff-Com:  0.100D+01
 Coeff-En:   0.100D+01
 Coeff:      0.100D+01
 Gap=     0.353 Goal=   None    Shift=    0.000
 Gap=     0.355 Goal=   None    Shift=    0.000
 GapD=    0.353 DampG=1.000 DampE=1.000 DampFc=1.0000 IDamp=-1.
 RMSDP=4.35D-04 MaxDP=4.93D-03              OVMax= 6.45D-03

 Cycle   2  Pass 0  IDiag  1:
 E= -40.9345915423168     Delta-E=       -0.000074873901 Rises=F Damp=F
 DIIS: error= 4.51D-04 at cycle   2 NSaved=   2.
 NSaved= 2 IEnMin= 2 EnMin= -40.9345915423168     IErMin= 2 ErrMin= 4.51D-04
 ErrMax= 4.51D-04  0.00D+00 EMaxC= 1.00D-01 BMatC= 1.18D-05 BMatP= 1.25D-04
 IDIUse=3 WtCom= 9.95D-01 WtEn= 4.51D-03
 Coeff-Com:  0.693D-01 0.931D+00
 Coeff-En:   0.000D+00 0.100D+01
 Coeff:      0.690D-01 0.931D+00
 Gap=     0.354 Goal=   None    Shift=    0.000
 Gap=     0.355 Goal=   None    Shift=    0.000
 RMSDP=1.54D-04 MaxDP=1.32D-03 DE=-7.49D-05 OVMax= 2.46D-03

 Cycle   3  Pass 0  IDiag  1:
 E= -40.9345964233663     Delta-E=       -0.000004881049 Rises=F Damp=F
 DIIS: error= 4.03D-04 at cycle   3 NSaved=   3.
 NSaved= 3 IEnMin= 3 EnMin= -40.9345964233663     IErMin= 3 ErrMin= 4.03D-04
 ErrMax= 4.03D-04  0.00D+00 EMaxC= 1.00D-01 BMatC= 7.05D-06 BMatP= 1.18D-05
 IDIUse=3 WtCom= 9.96D-01 WtEn= 4.03D-03
 Coeff-Com: -0.472D-01 0.419D+00 0.628D+00
 Coeff-En:   0.000D+00 0.000D+00 0.100D+01
 Coeff:     -0.470D-01 0.418D+00 0.629D+00
 Gap=     0.354 Goal=   None    Shift=    0.000
 Gap=     0.355 Goal=   None    Shift=    0.000
 RMSDP=1.06D-04 MaxDP=1.19D-03 DE=-4.88D-06 OVMax= 1.09D-03

 Cycle   4  Pass 0  IDiag  1:
 E= -40.9345987806629     Delta-E=       -0.000002357297 Rises=F Damp=F
 DIIS: error= 1.34D-04 at cycle   4 NSaved=   4.
 NSaved= 4 IEnMin= 4 EnMin= -40.9345987806629     IErMin= 4 ErrMin= 1.34D-04
 ErrMax= 1.34D-04  0.00D+00 EMaxC= 1.00D-01 BMatC= 3.95D-07 BMatP= 7.05D-06
 IDIUse=3 WtCom= 9.99D-01 WtEn= 1.34D-03
 Coeff-Com: -0.887D-02-0.115D+00 0.640D-01 0.106D+01
 Coeff-En:   0.000D+00 0.000D+00 0.000D+00 0.100D+01
 Coeff:     -0.885D-02-0.115D+00 0.640D-01 0.106D+01
 Gap=     0.354 Goal=   None    Shift=    0.000
 Gap=     0.355 Goal=   None    Shift=    0.000
 RMSDP=4.23D-05 MaxDP=4.14D-04 DE=-2.36D-06 OVMax= 8.32D-04

 Cycle   5  Pass 0  IDiag  1:
 E= -40.9345991587681     Delta-E=       -0.000000378105 Rises=F Damp=F
 DIIS: error= 4.46D-05 at cycle   5 NSaved=   5.
 NSaved= 5 IEnMin= 5 EnMin= -40.9345991587681     IErMin= 5 ErrMin= 4.46D-05
 ErrMax= 4.46D-05  0.00D+00 EMaxC= 1.00D-01 BMatC= 4.15D-08 BMatP= 3.95D-07
 IDIUse=1 WtCom= 1.00D+00 WtEn= 0.00D+00
 Coeff-Com:  0.584D-02-0.487D-01-0.994D-01 0.152D-01 0.113D+01
 Coeff:      0.584D-02-0.487D-01-0.994D-01 0.152D-01 0.113D+01
 Gap=     0.354 Goal=   None    Shift=    0.000
 Gap=     0.355 Goal=   None    Shift=    0.000
 RMSDP=2.35D-05 MaxDP=2.62D-04 DE=-3.78D-07 OVMax= 2.14D-04

 Cycle   6  Pass 0  IDiag  1:
 E= -40.9345991920607     Delta-E=       -0.000000033293 Rises=F Damp=F
 DIIS: error= 2.92D-06 at cycle   6 NSaved=   6.
 NSaved= 6 IEnMin= 6 EnMin= -40.9345991920607     IErMin= 6 ErrMin= 2.92D-06
 ErrMax= 2.92D-06  0.00D+00 EMaxC= 1.00D-01 BMatC= 5.62D-10 BMatP= 4.15D-08
 IDIUse=1 WtCom= 1.00D+00 WtEn= 0.00D+00
 Coeff-Com:  0.802D-04 0.665D-02 0.452D-02-0.380D-01-0.384D-01 0.107D+01
 Coeff:      0.802D-04 0.665D-02 0.452D-02-0.380D-01-0.384D-01 0.107D+01
 Gap=     0.354 Goal=   None    Shift=    0.000
 Gap=     0.355 Goal=   None    Shift=    0.000
 RMSDP=1.08D-06 MaxDP=6.57D-06 DE=-3.33D-08 OVMax= 1.30D-05

 Initial convergence to 1.0D-05 achieved.  Increase integral accuracy.
 Cycle   7  Pass 1  IDiag  1:
 E= -40.9345980033451     Delta-E=        0.000001188716 Rises=F Damp=F
 DIIS: error= 7.78D-07 at cycle   1 NSaved=   1.
 NSaved= 1 IEnMin= 1 EnMin= -40.9345980033451     IErMin= 1 ErrMin= 7.78D-07
 ErrMax= 7.78D-07  0.00D+00 EMaxC= 1.00D-01 BMatC= 6.35D-11 BMatP= 6.35D-11
 IDIUse=1 WtCom= 1.00D+00 WtEn= 0.00D+00
 Coeff-Com:  0.100D+01
 Coeff:      0.100D+01
 Gap=     0.354 Goal=   None    Shift=    0.000
 Gap=     0.355 Goal=   None    Shift=    0.000
 RMSDP=1.08D-06 MaxDP=6.57D-06 DE= 1.19D-06 OVMax= 3.09D-06

 Cycle   8  Pass 1  IDiag  1:
 E= -40.9345980033827     Delta-E=       -0.000000000038 Rises=F Damp=F
 DIIS: error= 3.13D-07 at cycle   2 NSaved=   2.
 NSaved= 2 IEnMin= 2 EnMin= -40.9345980033827     IErMin= 2 ErrMin= 3.13D-07
 ErrMax= 3.13D-07  0.00D+00 EMaxC= 1.00D-01 BMatC= 8.37D-12 BMatP= 6.35D-11
 IDIUse=1 WtCom= 1.00D+00 WtEn= 0.00D+00
 Coeff-Com: -0.103D-01 0.101D+01
 Coeff:     -0.103D-01 0.101D+01
 Gap=     0.354 Goal=   None    Shift=    0.000
 Gap=     0.355 Goal=   None    Shift=    0.000
 RMSDP=1.17D-07 MaxDP=6.84D-07 DE=-3.76D-11 OVMax= 1.19D-06

 Cycle   9  Pass 1  IDiag  1:
 E= -40.9345980033878     Delta-E=       -0.000000000005 Rises=F Damp=F
 DIIS: error= 1.83D-07 at cycle   3 NSaved=   3.
 NSaved= 3 IEnMin= 3 EnMin= -40.9345980033878     IErMin= 3 ErrMin= 1.83D-07
 ErrMax= 1.83D-07  0.00D+00 EMaxC= 1.00D-01 BMatC= 1.81D-12 BMatP= 8.37D-12
 IDIUse=1 WtCom= 1.00D+00 WtEn= 0.00D+00
 Coeff-Com: -0.149D+00 0.126D+00 0.102D+01
 Coeff:     -0.149D+00 0.126D+00 0.102D+01
 Gap=     0.354 Goal=   None    Shift=    0.000
 Gap=     0.355 Goal=   None    Shift=    0.000
 RMSDP=6.80D-08 MaxDP=4.82D-07 DE=-5.09D-12 OVMax= 7.26D-07

 Cycle  10  Pass 1  IDiag  1:
 E= -40.9345980033888     Delta-E=       -0.000000000001 Rises=F Damp=F
 DIIS: error= 8.90D-08 at cycle   4 NSaved=   4.
 NSaved= 4 IEnMin= 4 EnMin= -40.9345980033888     IErMin= 4 ErrMin= 8.90D-08
 ErrMax= 8.90D-08  0.00D+00 EMaxC= 1.00D-01 BMatC= 3.65D-13 BMatP= 1.81D-12
 IDIUse=1 WtCom= 1.00D+00 WtEn= 0.00D+00
 Coeff-Com: -0.609D-01-0.715D-02 0.431D+00 0.637D+00
 Coeff:     -0.609D-01-0.715D-02 0.431D+00 0.637D+00
 Gap=     0.354 Goal=   None    Shift=    0.000
 Gap=     0.355 Goal=   None    Shift=    0.000
 RMSDP=1.67D-08 MaxDP=1.49D-07 DE=-9.59D-13 OVMax= 1.69D-07

 Cycle  11  Pass 1  IDiag  1:
 E= -40.9345980033889     Delta-E=       -0.000000000000 Rises=F Damp=F
 DIIS: error= 2.52D-08 at cycle   5 NSaved=   5.
 NSaved= 5 IEnMin= 5 EnMin= -40.9345980033889     IErMin= 5 ErrMin= 2.52D-08
 ErrMax= 2.52D-08  0.00D+00 EMaxC= 1.00D-01 BMatC= 2.84D-14 BMatP= 3.65D-13
 IDIUse=1 WtCom= 1.00D+00 WtEn= 0.00D+00
 Coeff-Com:  0.114D-01-0.310D-01-0.836D-01 0.170D+00 0.934D+00
 Coeff:      0.114D-01-0.310D-01-0.836D-01 0.170D+00 0.934D+00
 Gap=     0.354 Goal=   None    Shift=    0.000
 Gap=     0.355 Goal=   None    Shift=    0.000
 RMSDP=6.38D-09 MaxDP=4.76D-08 DE=-1.42D-13 OVMax= 6.69D-08

 SCF Done:  E(UPBE1PBE) =  -40.9345980034     A.U. after   11 cycles
            NFock= 11  Conv=0.64D-08     -V/T= 2.0057
 <Sx>= 0.0000 <Sy>= 0.0000 <Sz>= 0.5000 <S**2>= 0.7602 S= 0.5051
 <L.S>= 0.000000000000E+00
 KE= 4.070243905634D+01 PE=-1.246160049923D+02 EE= 2.768538525571D+01
 Annihilation of the first spin contaminant:
 S**2 before annihilation     0.7602,   after     0.7500
 Leave Link  502 at Wed Oct  7 13:41:59 2020, MaxMem=  2684354560 cpu:              11.7 elap:               1.4
 (Enter /udrive/faculty/rpeverati/g16/g16/l508.exe)
 QCSCF skips out because SCF is already converged.
 Leave Link  508 at Wed Oct  7 13:42:00 2020, MaxMem=  2684354560 cpu:               0.4 elap:               0.5
 (Enter /udrive/faculty/rpeverati/g16/g16/l701.exe)
 ... and contract with generalized density number  0.
 Compute integral first derivatives.
 Leave Link  701 at Wed Oct  7 13:42:01 2020, MaxMem=  2684354560 cpu:               3.5 elap:               0.7
 (Enter /udrive/faculty/rpeverati/g16/g16/l702.exe)
 L702 exits ... SP integral derivatives will be done elsewhere.
 Leave Link  702 at Wed Oct  7 13:42:01 2020, MaxMem=  2684354560 cpu:               1.6 elap:               0.4
 (Enter /udrive/faculty/rpeverati/g16/g16/l703.exe)
 Integral derivatives from FoFJK, PRISM(SPDF).
 Compute integral first derivatives, UseDBF=F ICtDFT=           0.
 Calling FoFJK, ICntrl=      2127 FMM=F ISym2X=1 I1Cent= 0 IOpClX= 1 NMat=1 NMatS=1 NMatT=0.
 FoFJK:  IHMeth= 1 ICntrl=    2127 DoSepK=F KAlg= 0 I1Cent=           0 FoldK=F
 IRaf=         0 NMat=       1 IRICut=       1 DoRegI=T DoRafI=F ISym2E= 1 IDoP0=0 IntGTp=1.
 FoFCou: FMM=F IPFlag=           0 FMFlag=      100000 FMFlg1=         800
         NFxFlg=           0 DoJE=F BraDBF=F KetDBF=F FulRan=T
         wScrn=  0.000000 ICntrl=      2127 IOpCl=  1 I1Cent=           0 NGrid=           0
         NMat0=    1 NMatS0=      1 NMatT0=    0 NMatD0=    1 NMtDS0=    0 NMtDT0=    0
 Petite list used in FoFCou.
 Leave Link  703 at Wed Oct  7 13:42:02 2020, MaxMem=  2684354560 cpu:               5.0 elap:               0.8
 (Enter /udrive/faculty/rpeverati/g16/g16/l716.exe)
 Dipole        = 1.64140598D-03 2.87254145D-01-2.22044605D-16
 ***** Axes restored to original set *****
 -------------------------------------------------------------------
 Center     Atomic                   Forces (Hartrees/Bohr)
 Number     Number              X              Y              Z
 -------------------------------------------------------------------
      1        6          -0.000350125   -0.005906768    0.000000000
      2        1          -0.000246155    0.000485260   -0.000000000
      3        1           0.000080952    0.000571522   -0.000123577
      4        1           0.000080952    0.000571522    0.000123577
      5        1           0.000845715    0.008560841   -0.000000000
      6        1          -0.000411338   -0.004282377    0.000000000
 -------------------------------------------------------------------
 Cartesian Forces:  Max     0.008560841 RMS     0.002672043
 Leave Link  716 at Wed Oct  7 13:42:03 2020, MaxMem=  2684354560 cpu:               2.2 elap:               0.7
 (Enter /udrive/faculty/rpeverati/g16/g16/l103.exe)

 GradGradGradGradGradGradGradGradGradGradGradGradGradGradGradGradGradGrad
 Berny optimization.
 Optmz: redundant internal coordinate code flag= 1
 Red2BG:  D1=  3.11D-01 OD1=  2.06D-01 B2RMS=  0.00D+00 IAprox=0
 FormGI is forming the generalized inverse of G from B-inverse, IUseBI=4.
 Internal  Forces:  Max     0.004281648 RMS     0.001503118
 Search for a saddle point.
 Step number   2 out of a maximum of   50
 All quantities printed in internal units (Hartrees-Bohrs-Radians)
 Swapping is turned off.
 Update second derivatives using D2CorX and points    1    2
 The second derivative matrix:
                          R1        R2        R3        R4        R5
           R1           0.35941
           R2           0.00295   0.35891
           R3           0.00295   0.00270   0.35891
           R4           0.00877   0.00947   0.00947   0.07081
           R5          -0.00941  -0.01004  -0.01004   0.07649   0.15938
           A1           0.00060   0.00065   0.00065  -0.00603   0.00584
           A2           0.00084   0.00090   0.00090  -0.00704   0.00678
           A3          -0.00080  -0.00088  -0.00088   0.00855  -0.00828
           A4           0.00087   0.00093   0.00093  -0.00690   0.00663
           A5          -0.00108  -0.00115  -0.00115   0.00879  -0.00846
           A6          -0.00118  -0.00125  -0.00125   0.00919  -0.00884
           A7          -0.01160  -0.01080  -0.01080  -0.02276   0.02517
           A8          -0.00000  -0.00000  -0.00000   0.00000  -0.00000
           D1           0.00051   0.00034   0.00034   0.01131  -0.01132
           D2          -0.00012  -0.00012  -0.00012   0.00052  -0.00049
           D3          -0.00011  -0.00011  -0.00011   0.00043  -0.00040
           D4           0.00001   0.00001   0.00001  -0.00009   0.00008
                          A1        A2        A3        A4        A5
           A1           0.15954
           A2          -0.00054   0.15938
           A3           0.00065   0.00076   0.15908
           A4          -0.00053  -0.00061   0.00075   0.15940
           A5           0.00067   0.00078  -0.00095   0.00076   0.15903
           A6           0.00070   0.00081  -0.00100   0.00080  -0.00102
           A7          -0.00149  -0.00223   0.00195  -0.00235   0.00289
           A8           0.00000   0.00000  -0.00000   0.00000  -0.00000
           D1           0.00083   0.00103  -0.00116   0.00103  -0.00130
           D2           0.00004   0.00005  -0.00006   0.00004  -0.00006
           D3           0.00003   0.00004  -0.00005   0.00004  -0.00005
           D4          -0.00001  -0.00001   0.00001  -0.00001   0.00001
                          A6        A7        A8        D1        D2
           A6           0.15894
           A7           0.00318   0.04346
           A8          -0.00000   0.00000   0.00230
           D1          -0.00138  -0.00272  -0.00000   0.00239
           D2          -0.00006   0.00036  -0.00000  -0.00010   0.00230
           D3          -0.00005   0.00034  -0.00000  -0.00009  -0.00000
           D4           0.00001  -0.00002   0.00000   0.00001   0.00000
                          D3        D4
           D3           0.00230
           D4           0.00000   0.00230
 ITU=  0  0
 Eigenvectors of the second derivative matrix:
                           1         2         3         4         5
     Eigenvalues --    -0.00769   0.00230   0.04729   0.06698   0.06777
   1         R1        -0.01141   0.00000   0.02884  -0.03200   0.00018
   2         R2        -0.01477   0.00000   0.02804  -0.03185   0.00020
   3         R3        -0.01477   0.00000   0.02804  -0.03185   0.00020
   4         R4         0.65887  -0.00000  -0.09112   0.30933  -0.00835
   5         R5        -0.42374   0.00000   0.03906  -0.14067   0.00405
   6         A1         0.07962  -0.00000  -0.29788  -0.38946   0.00811
   7         A2         0.07610  -0.00000  -0.04253   0.21990   0.42118
   8         A3        -0.09690   0.00000   0.15644  -0.08777   0.16306
   9         A4         0.07218  -0.00000  -0.04420   0.20287  -0.43135
  10         A5        -0.10274   0.00000   0.15141  -0.09045  -0.15813
  11         A6        -0.10269   0.00000   0.20240   0.13406  -0.00229
  12         A7         0.50216  -0.00000   0.65106  -0.44899   0.00172
  13         A8        -0.00000  -1.00000   0.00000   0.00000  -0.00000
  14         D1        -0.29278   0.00000   0.56731   0.13679  -0.00133
  15         D2         0.00484  -0.00000  -0.20196  -0.50723   0.01103
  16         D3        -0.00095   0.00000  -0.10302  -0.26367  -0.53513
  17         D4        -0.00579   0.00000   0.09894   0.24355  -0.54617
                           6         7         8         9        10
     Eigenvalues --     0.08255   0.15999   0.16002   0.20416   0.35620
   1         R1         0.03231   0.00052  -0.00187  -0.02827  -0.79988
   2         R2         0.03252   0.00052  -0.00181  -0.02940   0.42436
   3         R3         0.03252   0.00052  -0.00181  -0.02940   0.42436
   4         R4        -0.47259   0.02402  -0.01675  -0.48588   0.00246
   5         R5         0.19671   0.00291  -0.00112  -0.86879  -0.00409
   6         A1        -0.06763   0.20580  -0.14784  -0.00338   0.00003
   7         A2         0.25580  -0.28890  -0.09975  -0.01565   0.00011
   8         A3        -0.25641   0.11290   0.73379   0.01044  -0.00008
   9         A4         0.25431   0.00205   0.30517  -0.01495   0.00011
  10         A5        -0.26058  -0.65874  -0.34133   0.01007  -0.00010
  11         A6        -0.07000   0.65337  -0.46878   0.02457  -0.00015
  12         A7         0.33777   0.00207  -0.00779  -0.06065  -0.00017
  13         A8        -0.00000   0.00000   0.00000   0.00000  -0.00000
  14         D1        -0.46896  -0.00069   0.00126   0.03986  -0.00030
  15         D2        -0.29161  -0.00007  -0.00001   0.00484  -0.00004
  16         D3        -0.14748  -0.00003  -0.00003   0.00272  -0.00003
  17         D4         0.14413   0.00003  -0.00002  -0.00211   0.00002
                          11        12
     Eigenvalues --     0.35620   0.36804
   1         R1        -0.00000   0.59696
   2         R2         0.70711   0.56211
   3         R3        -0.70711   0.56211
   4         R4         0.00000   0.03938
   5         R5        -0.00000  -0.07480
   6         A1         0.00000  -0.00207
   7         A2         0.00000   0.00067
   8         A3        -0.00000   0.00231
   9         A4         0.00000   0.00115
  10         A5        -0.00000  -0.00013
  11         A6        -0.00000  -0.00185
  12         A7        -0.00000  -0.06733
  13         A8        -0.00000  -0.00000
  14         D1        -0.00000   0.00120
  15         D2        -0.00000  -0.00139
  16         D3        -0.00000  -0.00094
  17         D4         0.00000   0.00045
 RLam0= 2.09D-03.
 Iter=   1 RLamda= 0.00000000D+00 Sum=-2.37468325D-04.
 Iter=   2 RLamda=-2.37468325D-04 Sum=-2.36618939D-04.
 Iter=   3 RLamda=-2.36618939D-04 Sum=-2.36621965D-04.
 RFO step:  Lambda0=2.094475827D-03 Lambda=-2.36618939D-04.
 Linear search not attempted -- option 19 set.
 Maximum step size (   0.100) exceeded in Quadratic search.
    -- Step size scaled by   0.224
 Iteration  1 RMS(Cart)=  0.02052708 RMS(Int)=  0.00060934
 Iteration  2 RMS(Cart)=  0.00061979 RMS(Int)=  0.00007441
 Iteration  3 RMS(Cart)=  0.00000030 RMS(Int)=  0.00007441
 ITry= 1 IFail=0 DXMaxC= 4.42D-02 DCOld= 1.00D+10 DXMaxT= 1.00D-01 DXLimC= 3.00D+00 Rises=F
 ClnCor:  largest displacement from symmetrization is 5.69D-04 for atom     4.
 Variable       Old X    -DE/DX   Delta X   Delta X   Delta X     New X
                                 (Linear)    (Quad)   (Total)
    R1        2.05745  -0.00013   0.00000  -0.00069  -0.00069   2.05676
    R2        2.05729  -0.00001   0.00000  -0.00097  -0.00080   2.05648
    R3        2.05729  -0.00001   0.00000  -0.00097  -0.00080   2.05648
    R4        2.59190  -0.00428   0.00000   0.06268   0.06268   2.65458
    R5        1.72660   0.00427   0.00000  -0.03953  -0.03953   1.68707
    A1        2.00113  -0.00009   0.00000   0.00845   0.00797   2.00910
    A2        2.00113  -0.00026   0.00000   0.00759   0.00797   2.00910
    A3        1.80820   0.00018   0.00000  -0.00990  -0.00987   1.79832
    A4        2.00127  -0.00028   0.00000   0.00714   0.00685   2.00812
    A5        1.80781   0.00030   0.00000  -0.01043  -0.01047   1.79734
    A6        1.80781   0.00036   0.00000  -0.01043  -0.01047   1.79734
    A7        3.10681   0.00091   0.00000   0.06326   0.06326   3.17008
    A8        3.14159   0.00000   0.00000  -0.00000   0.00000   3.14159
    D1       -2.36869   0.00076   0.00000  -0.02994  -0.03004  -2.39873
    D2        2.09440   0.00010   0.00000   0.00087   0.00049   2.09489
    D3       -2.09440   0.00006   0.00000   0.00008  -0.00049  -2.09489
    D4        2.09439  -0.00003   0.00000  -0.00079  -0.00098   2.09341
         Item               Value     Threshold  Converged?
 Maximum Force            0.004282     0.000450     NO 
 RMS     Force            0.001503     0.000300     NO 
 Maximum Displacement     0.044232     0.001800     NO 
 RMS     Displacement     0.020252     0.001200     NO 
 Predicted change in Energy= 3.800367D-04
 Lowest energy point so far.  Saving SCF results.
 Largest change from initial coordinates is atom    6       0.017 Angstoms.
 GradGradGradGradGradGradGradGradGradGradGradGradGradGradGradGradGradGrad

 Leave Link  103 at Wed Oct  7 13:42:05 2020, MaxMem=  2684354560 cpu:               3.7 elap:               0.8
 (Enter /udrive/faculty/rpeverati/g16/g16/l202.exe)
                          Input orientation:                          
 ---------------------------------------------------------------------
 Center     Atomic      Atomic             Coordinates (Angstroms)
 Number     Number       Type             X           Y           Z
 ---------------------------------------------------------------------
      1          6           0        0.001497    0.273753   -0.000000
      2          1           0        1.060402    0.525379   -0.000000
      3          1           0       -0.530574    0.515118    0.918105
      4          1           0       -0.530574    0.515118   -0.918105
      5          1           0        0.009607   -1.130968   -0.000000
      6          1           0       -0.010668   -2.023497   -0.000000
 ---------------------------------------------------------------------
                    Distance matrix (angstroms):
                    1          2          3          4          5
     1  C    0.000000
     2  H    1.088392   0.000000
     3  H    1.088243   1.836907   0.000000
     4  H    1.088243   1.836907   1.836210   0.000000
     5  H    1.404744   1.961544   1.960691   1.960691   0.000000
     6  H    2.297282   2.764771   2.749142   2.749142   0.892759
                    6
     6  H    0.000000
 Stoichiometry    CH5(2)
 Framework group  CS[SG(CH3),X(H2)]
 Deg. of freedom     8
 Full point group                 CS      NOp   2
 RotChk:  IX=0 Diff= 9.20D-03
 Largest Abelian subgroup         CS      NOp   2
 Largest concise Abelian subgroup CS      NOp   2
                         Standard orientation:                         
 ---------------------------------------------------------------------
 Center     Atomic      Atomic             Coordinates (Angstroms)
 Number     Number       Type             X           Y           Z
 ---------------------------------------------------------------------
      1          6           0        0.000000    0.269784    0.000000
      2          1           0        1.058112    0.524724    0.000000
      3          1           0       -0.532824    0.509483    0.918105
      4          1           0       -0.532824    0.509483   -0.918105
      5          1           0        0.012508   -1.134904    0.000000
      6          1           0       -0.004973   -2.027492    0.000000
 ---------------------------------------------------------------------
 Rotational constants (GHZ):         148.6494788          58.3394112          58.3276126
 Leave Link  202 at Wed Oct  7 13:42:06 2020, MaxMem=  2684354560 cpu:               2.5 elap:               0.7
 (Enter /udrive/faculty/rpeverati/g16/g16/l301.exe)
 Standard basis: 6-31G(d) (5D, 7F)
 Ernie: Thresh=  0.10000D-02 Tol=  0.10000D-05 Strict=F.
 There are    19 symmetry adapted cartesian basis functions of A'  symmetry.
 There are     6 symmetry adapted cartesian basis functions of A"  symmetry.
 There are    18 symmetry adapted basis functions of A'  symmetry.
 There are     6 symmetry adapted basis functions of A"  symmetry.
    24 basis functions,    48 primitive gaussians,    25 cartesian basis functions
     6 alpha electrons        5 beta electrons
       nuclear repulsion energy        15.2377873136 Hartrees.
 IExCor= 1009 DFT=T Ex+Corr=PBE1PBE ExCW=0 ScaHFX=  0.250000
 ScaDFX=  0.750000  0.750000  1.000000  1.000000 ScalE2=  1.000000  1.000000
 IRadAn=      5 IRanWt=     -1 IRanGd=            0 ICorTp=0 IEmpDi=  4
 NAtoms=    6 NActive=    6 NUniq=    5 SFac= 1.44D+00 NAtFMM=   60 NAOKFM=F Big=F
 Integral buffers will be    131072 words long.
 Raffenetti 2 integral format.
 Two-electron integral symmetry is turned on.
 Leave Link  301 at Wed Oct  7 13:42:07 2020, MaxMem=  2684354560 cpu:               2.0 elap:               0.6
 (Enter /udrive/faculty/rpeverati/g16/g16/l302.exe)
 NPDir=0 NMtPBC=     1 NCelOv=     1 NCel=       1 NClECP=     1 NCelD=      1
         NCelK=      1 NCelE2=     1 NClLst=     1 CellRange=     0.0.
 One-electron integrals computed using PRISM.
 One-electron integral symmetry used in STVInt
 NBasis=    24 RedAO= T EigKep=  1.69D-02  NBF=    18     6
 NBsUse=    24 1.00D-06 EigRej= -1.00D+00 NBFU=    18     6
 Precomputing XC quadrature grid using
 IXCGrd= 4 IRadAn=           5 IRanWt=          -1 IRanGd=           0 AccXCQ= 0.00D+00.
 Generated NRdTot=       0 NPtTot=           0 NUsed=           0 NTot=          32
 NSgBfM=    25    25    25    25    25 MxSgAt=     6 MxSgA2=     6.
 Leave Link  302 at Wed Oct  7 13:42:08 2020, MaxMem=  2684354560 cpu:               3.4 elap:               0.9
 (Enter /udrive/faculty/rpeverati/g16/g16/l303.exe)
 DipDrv:  MaxL=1.
 Leave Link  303 at Wed Oct  7 13:42:09 2020, MaxMem=  2684354560 cpu:               1.8 elap:               0.7
 (Enter /udrive/faculty/rpeverati/g16/g16/l401.exe)
 Initial guess from the checkpoint file:  "MN_80_RKT03_BH76_PBE0_631Gs.chk"
 SCF N**3 symmetry information disabled.
 B after Tr=     0.000000    0.000000   -0.000000
         Rot=    0.999995   -0.000000   -0.000000   -0.003013 Ang=  -0.35 deg.
 Guess basis will be translated and rotated to current coordinates.
 JPrj=2 DoOrth=T DoCkMO=T.
 Initial guess orbital symmetries:
 Alpha Orbitals:
       Occupied  (A') (A') (A') (A") (A') (A')
       Virtual   (A') (A') (A") (A') (A") (A') (A') (A') (A') (A")
                 (A') (A') (A') (A") (A') (A') (A") (A')
 Beta  Orbitals:
       Occupied  (A') (A') (A") (A') (A')
       Virtual   (A') (A') (A') (A") (A') (A") (A') (A') (A') (A')
                 (A") (A') (A') (A') (A") (A') (A') (A') (A")
 The electronic state of the initial guess is 2-A'.
 Initial guess <Sx>= 0.0000 <Sy>= 0.0000 <Sz>= 0.5000 <S**2>= 0.7603 S= 0.5051
 Generating alternative initial guess.
 ExpMin= 1.61D-01 ExpMax= 3.05D+03 ExpMxC= 4.57D+02 IAcc=2 IRadAn=         4 AccDes= 0.00D+00
 Harris functional with IExCor= 1009 and IRadAn=       4 diagonalized for initial guess.
 HarFok:  IExCor= 1009 AccDes= 0.00D+00 IRadAn=         4 IDoV= 1 UseB2=F ITyADJ=14
 ICtDFT=  3500011 ScaDFX=  1.000000  1.000000  1.000000  1.000000
 FoFCou: FMM=F IPFlag=           0 FMFlag=      100000 FMFlg1=           0
         NFxFlg=           0 DoJE=T BraDBF=F KetDBF=T FulRan=T
         wScrn=  0.000000 ICntrl=       500 IOpCl=  0 I1Cent=   200000004 NGrid=           0
[...]
     11 -0.194653D-02 -0.194054D-02 -0.189094D-02  0.581023D-02 -0.203152D-02
     12 -0.111381D-02  0.559054D-03  0.559054D-03  0.102668D-04  0.784624D-05
     13  0.000000D+00 -0.516939D-03  0.516939D-03  0.000000D+00  0.000000D+00
     14 -0.507226D-02 -0.507493D-02 -0.406790D-02  0.142458D-01 -0.496927D-02
     15  0.209219D-02  0.209203D-02 -0.602476D-02  0.184074D-02 -0.641242D-03
     16 -0.307624D-02  0.517021D-02 -0.301124D-02  0.923028D-03 -0.322823D-03
     17 -0.516843D-02  0.307818D-02  0.301352D-02 -0.917708D-03  0.318418D-03
                6             7             8             9            10 
      6  0.166682D-01
      7 -0.915990D-02  0.227154D-01
      8 -0.571126D-02 -0.100199D-01  0.402406D-01
      9 -0.915346D-02 -0.652152D-02  0.116143D-01  0.227000D-01
     10 -0.573472D-02  0.116276D-01 -0.185010D-01 -0.100165D-01  0.402555D-01
     11  0.137825D-01 -0.116141D-01 -0.158886D-01 -0.115809D-01 -0.158892D-01
     12  0.432497D-04  0.446722D-04 -0.148461D-02 -0.966044D-04  0.748928D-03
     13  0.399186D-04 -0.459080D-04  0.411711D-05 -0.238165D-05 -0.680687D-03
     14 -0.484873D-02 -0.509622D-02  0.758725D-02 -0.508977D-02  0.760716D-02
     15  0.138341D-01 -0.939974D-02  0.210530D-02 -0.940773D-02  0.211587D-02
     16  0.691151D-02 -0.165287D-01  0.160338D-02  0.713019D-02  0.516287D-03
     17 -0.692257D-02 -0.712892D-02 -0.501915D-03  0.165379D-01 -0.159958D-02
               11            12            13            14            15 
     11  0.451646D-01
     12  0.748406D-03  0.252093D-01
     13  0.688475D-03  0.000000D+00  0.717265D-02
     14  0.618671D-02 -0.698703D-05 -0.600301D-05  0.210540D-01
     15  0.284721D-02 -0.235362D-03 -0.217006D-03  0.544270D-03  0.167651D-01
     16  0.142156D-02  0.234006D-03 -0.216620D-03  0.273882D-03  0.837972D-02
     17 -0.142565D-02  0.469368D-03  0.000000D+00 -0.270388D-03 -0.838539D-02
               16            17 
     16  0.169239D-01
     17  0.854419D-02  0.169296D-01
 Leave Link  716 at Wed Oct  7 13:43:40 2020, MaxMem=  2684354560 cpu:               2.4 elap:               0.6
 (Enter /udrive/faculty/rpeverati/g16/g16/l103.exe)

 GradGradGradGradGradGradGradGradGradGradGradGradGradGradGradGradGradGrad
 Berny optimization.
 Optmz: redundant internal coordinate code flag= 1
 Red2BG:  D1=  3.11D-01 OD1=  3.88D-15 B2RMS=  0.00D+00 IAprox=1
 Red2BG is reusing G-inverse.
 Internal  Forces:  Max     0.000042777 RMS     0.000019341
 Search for a local minimum.
 Step number   1 out of a maximum of    2
 All quantities printed in internal units (Hartrees-Bohrs-Radians)
 Second derivative matrix not updated -- analytic derivatives used.
 The second derivative matrix:
                          R1        R2        R3        R4        R5
           R1           0.36923
           R2           0.00008   0.36917
           R3           0.00008   0.00008   0.36917
           R4           0.00133   0.00134   0.00134   0.01556
           R5          -0.00023  -0.00024  -0.00024   0.08234   0.13601
           A1           0.00278   0.00278  -0.00392  -0.00163   0.00057
           A2           0.00381  -0.00349   0.00421  -0.00453   0.00158
           A3          -0.00089  -0.00156  -0.00225   0.00468  -0.00162
           A4          -0.00349   0.00381   0.00421  -0.00454   0.00159
           A5          -0.00157  -0.00090  -0.00225   0.00475  -0.00166
           A6          -0.00195  -0.00194  -0.00189   0.00581  -0.00203
           A7          -0.00111   0.00056   0.00056   0.00001   0.00001
           A8          -0.00000  -0.00052   0.00052  -0.00000  -0.00000
           D1          -0.00507  -0.00507  -0.00407   0.01425  -0.00497
           D2           0.00209   0.00209  -0.00602   0.00184  -0.00064
           D3          -0.00308   0.00517  -0.00301   0.00092  -0.00032
           D4          -0.00517   0.00308   0.00301  -0.00092   0.00032
                          A1        A2        A3        A4        A5
           A1           0.01667
           A2          -0.00916   0.02272
           A3          -0.00571  -0.01002   0.04024
           A4          -0.00915  -0.00652   0.01161   0.02270
           A5          -0.00573   0.01163  -0.01850  -0.01002   0.04026
           A6           0.01378  -0.01161  -0.01589  -0.01158  -0.01589
           A7           0.00004   0.00004  -0.00148  -0.00010   0.00075
           A8           0.00004  -0.00005   0.00000  -0.00000  -0.00068
           D1          -0.00485  -0.00510   0.00759  -0.00509   0.00761
           D2           0.01383  -0.00940   0.00211  -0.00941   0.00212
           D3           0.00691  -0.01653   0.00160   0.00713   0.00052
           D4          -0.00692  -0.00713  -0.00050   0.01654  -0.00160
                          A6        A7        A8        D1        D2
           A6           0.04516
           A7           0.00075   0.02521
           A8           0.00069   0.00000   0.00717
           D1           0.00619  -0.00001  -0.00001   0.02105
           D2           0.00285  -0.00024  -0.00022   0.00054   0.01677
           D3           0.00142   0.00023  -0.00022   0.00027   0.00838
           D4          -0.00143   0.00047   0.00000  -0.00027  -0.00839
                          D3        D4
           D3           0.01692
           D4           0.00854   0.01693
 ITU=  0
 Eigenvectors of the second derivative matrix:
                           1         2         3         4         5
     Eigenvalues --    -0.03180   0.00715   0.02504   0.03366   0.03955
   1         R1        -0.00707   0.00000   0.00141   0.01864  -0.02072
   2         R2        -0.00709  -0.00115  -0.00094   0.01886   0.02027
   3         R3        -0.00775   0.00115  -0.00082  -0.00370  -0.00010
   4         R4         0.85735   0.00009  -0.00230   0.18588  -0.00314
   5         R5        -0.43123  -0.00005   0.00121  -0.10786   0.00182
   6         A1         0.04366  -0.00280   0.01341  -0.39226   0.00231
   7         A2         0.06034   0.00271   0.01116   0.00094   0.32132
   8         A3        -0.07686   0.00005   0.05728   0.09508   0.37912
   9         A4         0.06038  -0.00002  -0.02044  -0.00448  -0.31723
  10         A5        -0.07757  -0.01453  -0.03113   0.08576  -0.38891
  11         A6        -0.07932   0.01463  -0.03206   0.38215   0.00040
  12         A7        -0.00011  -0.00000   0.99529   0.03553  -0.07835
  13         A8        -0.00004  -0.99970  -0.00006   0.01102   0.01081
  14         D1        -0.22629   0.00130  -0.01081   0.66431  -0.00904
  15         D2        -0.01169  -0.00864   0.02473  -0.35966  -0.00144
  16         D3        -0.00590  -0.00863  -0.02191  -0.18486  -0.49768
  17         D4         0.00579   0.00001  -0.04663   0.17479  -0.49624
                           6         7         8         9        10
     Eigenvalues --     0.04286   0.07365   0.07432   0.17785   0.36945
   1         R1        -0.00186   0.01338  -0.00238   0.00160   0.20724
   2         R2        -0.00234  -0.01345  -0.00247   0.00160   0.79135
   3         R3        -0.02862   0.00005   0.02119   0.00127  -0.57424
   4         R4        -0.14928  -0.00045   0.04408  -0.45401   0.00155
   5         R5         0.08928   0.00022  -0.03014  -0.89080   0.00017
   6         A1        -0.12781   0.00040   0.38003   0.00072   0.01568
   7         A2         0.24629  -0.37733  -0.27178   0.00514  -0.01413
   8         A3        -0.39129   0.56464  -0.24019  -0.00442  -0.00016
   9         A4         0.25152   0.37703  -0.27142   0.00513  -0.00057
  10         A5        -0.38609  -0.56494  -0.23970  -0.00439   0.00009
  11         A6         0.25134   0.00022   0.71192  -0.00682  -0.00134
  12         A7         0.03431  -0.02476   0.01368  -0.00008  -0.00032
  13         A8         0.01536   0.00554   0.00919  -0.00001  -0.00197
  14         D1        -0.41535  -0.00031   0.04857  -0.01422  -0.00777
  15         D2        -0.43921   0.00003   0.23111  -0.00261   0.01713
  16         D3        -0.21581   0.19559   0.11555  -0.00130   0.01603
  17         D4         0.22339   0.19556  -0.11557   0.00131  -0.00110
                          11        12
     Eigenvalues --     0.36951   0.36971
   1         R1        -0.82661   0.52225
   2         R2         0.45522   0.40685
   3         R3         0.32907   0.74874
   4         R4        -0.00025   0.00490
   5         R5        -0.00000   0.00091
   6         A1        -0.00731  -0.00188
   7         A2        -0.01059   0.01163
   8         A3        -0.00104  -0.00806
   9         A4         0.01914   0.00895
  10         A5        -0.00041  -0.00812
  11         A6        -0.00031  -0.01041
  12         A7         0.00399   0.00019
  13         A8        -0.00018   0.00049
  14         D1         0.00147  -0.02290
  15         D2        -0.00855  -0.00828
  16         D3         0.01211  -0.00561
  17         D4         0.02067   0.00267
 Eigenvalue     1 is  -3.18D-02 should be greater than     0.000000 Eigenvector:
                          R4        R5        D1        A6        A5
   1                    0.85735  -0.43123  -0.22629  -0.07932  -0.07757
                          A3        A4        A2        A1        D2
   1                   -0.07686   0.06038   0.06034   0.04366  -0.01169
 Angle between quadratic step and forces=  30.13 degrees.
 Linear search not attempted -- first point.
 Iteration  1 RMS(Cart)=  0.00032837 RMS(Int)=  0.00000017
 Iteration  2 RMS(Cart)=  0.00000010 RMS(Int)=  0.00000014
 ITry= 1 IFail=0 DXMaxC= 6.55D-04 DCOld= 1.00D+10 DXMaxT= 3.00D-01 DXLimC= 3.00D+00 Rises=F
 ClnCor:  largest displacement from symmetrization is 3.08D-06 for atom     4.
 Variable       Old X    -DE/DX   Delta X   Delta X   Delta X     New X
                                 (Linear)    (Quad)   (Total)
    R1        2.05544   0.00002   0.00000   0.00008   0.00008   2.05551
    R2        2.05548   0.00001   0.00000   0.00004   0.00004   2.05551
    R3        2.05548   0.00001   0.00000   0.00004   0.00004   2.05551
    R4        2.73664  -0.00000   0.00000   0.00034   0.00034   2.73697
    R5        1.65286  -0.00004   0.00000  -0.00044  -0.00044   1.65242
    A1        2.01476  -0.00000   0.00000  -0.00029  -0.00029   2.01447
    A2        2.01476  -0.00001   0.00000  -0.00029  -0.00029   2.01447
    A3        1.78994  -0.00002   0.00000  -0.00023  -0.00023   1.78971
    A4        2.01460  -0.00001   0.00000  -0.00013  -0.00013   2.01447
    A5        1.78908   0.00003   0.00000   0.00062   0.00062   1.78970
    A6        1.78908   0.00003   0.00000   0.00062   0.00062   1.78970
    A7        3.14101   0.00002   0.00000   0.00059   0.00059   3.14160
    A8        3.14159   0.00000   0.00000  -0.00000   0.00000   3.14159
    D1       -2.42309   0.00004   0.00000   0.00102   0.00102  -2.42207
    D2        2.09456  -0.00000   0.00000  -0.00017  -0.00017   2.09440
    D3       -2.09456   0.00001   0.00000   0.00017   0.00017  -2.09440
    D4        2.09406   0.00001   0.00000   0.00034   0.00034   2.09440
         Item               Value     Threshold  Converged?
 Maximum Force            0.000043     0.000450     YES
 RMS     Force            0.000019     0.000300     YES
 Maximum Displacement     0.000655     0.001800     YES
 RMS     Displacement     0.000329     0.001200     YES
 Predicted change in Energy=-5.899965D-08
 Optimization completed.
    -- Stationary point found.
                           ----------------------------
                           !   Optimized Parameters   !
                           ! (Angstroms and Degrees)  !
 --------------------------                            --------------------------
 ! Name  Definition              Value          Derivative Info.                !
 --------------------------------------------------------------------------------
 ! R1    R(1,2)                  1.0877         -DE/DX =    0.0                 !
 ! R2    R(1,3)                  1.0877         -DE/DX =    0.0                 !
 ! R3    R(1,4)                  1.0877         -DE/DX =    0.0                 !
 ! R4    R(1,5)                  1.4482         -DE/DX =    0.0                 !
 ! R5    R(5,6)                  0.8747         -DE/DX =    0.0                 !
 ! A1    A(2,1,3)              115.4374         -DE/DX =    0.0                 !
 ! A2    A(2,1,4)              115.4374         -DE/DX =    0.0                 !
 ! A3    A(2,1,5)              102.5558         -DE/DX =    0.0                 !
 ! A4    A(3,1,4)              115.4282         -DE/DX =    0.0                 !
 ! A5    A(3,1,5)              102.5066         -DE/DX =    0.0                 !
 ! A6    A(4,1,5)              102.5066         -DE/DX =    0.0                 !
 ! A7    L(1,5,6,2,-1)         179.9667         -DE/DX =    0.0                 !
 ! A8    L(1,5,6,2,-2)         180.0            -DE/DX =    0.0                 !
 ! D1    D(2,1,4,3)           -138.8326         -DE/DX =    0.0                 !
 ! D2    D(2,1,5,3)            120.0097         -DE/DX =    0.0                 !
 ! D3    D(2,1,5,4)           -120.0097         -DE/DX =    0.0                 !
 ! D4    D(3,1,5,4)            119.9807         -DE/DX =    0.0                 !
 --------------------------------------------------------------------------------
 GradGradGradGradGradGradGradGradGradGradGradGradGradGradGradGradGradGrad

 Leave Link  103 at Wed Oct  7 13:43:41 2020, MaxMem=  2684354560 cpu:               4.2 elap:               0.8
 (Enter /udrive/faculty/rpeverati/g16/g16/l9999.exe)

 ----------------------------------------------------------------------

 Electric dipole moment (input orientation):
 (Debye = 10**-18 statcoulomb cm , SI units = C m)
                  (au)            (Debye)         (10**-30 SI)
   Tot        0.285342D+00      0.725266D+00      0.241923D+01
   x         -0.981730D-04     -0.249531D-03     -0.832346D-03
   y          0.285342D+00      0.725266D+00      0.241923D+01
   z          0.000000D+00      0.000000D+00      0.000000D+00

 Dipole polarizability, Alpha (input orientation).
 (esu units = cm**3 , SI units = C**2 m**2 J**-1)
 Alpha(0;0):
               (au)            (10**-24 esu)      (10**-40 SI)
   iso        0.175071D+02      0.259428D+01      0.288653D+01
   aniso      0.158324D+02      0.234612D+01      0.261041D+01
   xx         0.122295D+02      0.181223D+01      0.201638D+01
   yx        -0.138485D-02     -0.205214D-03     -0.228331D-03
   yy         0.280620D+02      0.415836D+01      0.462680D+01
   zx         0.000000D+00      0.000000D+00      0.000000D+00
   zy         0.000000D+00      0.000000D+00      0.000000D+00
   zz         0.122297D+02      0.181225D+01      0.201640D+01

 ----------------------------------------------------------------------

 Dipole orientation:
     6         -0.00012134         -0.00000004          0.54739874
     1          2.00635463          0.00069029          0.99335535
     1         -1.00297300         -1.73802969          0.99295413
     1         -1.00416872          1.73733913          0.99295413
     1         -0.00131332         -0.00000045         -2.18923629
     1         -0.00107283         -0.00000037         -3.84209266

 Electric dipole moment (dipole orientation):
 (Debye = 10**-18 statcoulomb cm , SI units = C m)
                  (au)            (Debye)         (10**-30 SI)
   Tot        0.285342D+00      0.725266D+00      0.241923D+01
   x          0.000000D+00      0.000000D+00      0.000000D+00
   y          0.000000D+00      0.000000D+00      0.000000D+00
   z          0.285342D+00      0.725266D+00      0.241923D+01

 Dipole polarizability, Alpha (dipole orientation).
 (esu units = cm**3 , SI units = C**2 m**2 J**-1)
 Alpha(0;0):
               (au)            (10**-24 esu)      (10**-40 SI)
   iso        0.175071D+02      0.259428D+01      0.288653D+01
   aniso      0.158324D+02      0.234612D+01      0.261041D+01
   xx         0.122295D+02      0.181223D+01      0.201638D+01
   yx         0.000000D+00      0.000000D+00      0.000000D+00
   yy         0.122297D+02      0.181225D+01      0.201640D+01
   zx         0.406238D-02      0.601983D-03      0.669796D-03
   zy         0.000000D+00      0.000000D+00      0.000000D+00
   zz         0.280620D+02      0.415836D+01      0.462680D+01

 ----------------------------------------------------------------------

 Test job not archived.
 1\1\GINC-NODE56\Freq\UPBE1PBE\6-31G(d)\C1H5(2)\RPEVERATI\07-Oct-2020\0
 \\#P Freq PBE1PBE/6-31G* 5D 7F Integral=UltraFineGrid SCF=(NoSymm,XQC,
 MaxCyc=120) IOp(1/33=1) Geom=Check Guess=Read\\TS search on BH76.\\0,2
 \C,-0.0001638716,0.2896708988,0.\H,1.0615362914,0.5260262728,0.\H,-0.5
 312476117,0.5252659511,0.9195430443\H,-0.5312476117,0.5252659511,-0.91
 95430443\H,-0.0002963937,-1.158494124,0.\H,0.0001317965,-2.0331479538,
 0.\\Version=ES64L-G16RevA.03\State=2-A'\HF=-40.9341129\S2=0.760283\S2-
 1=0.\S2A=0.750037\RMSD=0.000e+00\RMSF=3.166e-05\ZeroPoint=0.0436473\Th
 ermal=0.0469259\Dipole=-0.0000982,0.2853417,0.\DipoleDeriv=0.0241518,0
 .0000399,0.,0.0001186,-0.0591157,0.,0.,0.,0.0241091,-0.062356,-0.01408
 18,0.,-0.0546171,0.049087,0.,0.,0.,0.0677671,0.0351646,0.0070202,0.056
 4142,0.0272377,0.0491056,-0.0472362,0.0563863,-0.0121551,-0.029896,0.0
 351646,0.0070202,-0.0564142,0.0272377,0.0491056,0.0472362,-0.0563863,0
 .0121551,-0.029896,-0.0141473,-0.0000372,0.,-0.0000264,0.0997909,0.,0.
 ,0.,-0.0141049,-0.0179776,0.0000387,0.,0.0000497,-0.1879734,0.,0.,0.,-
 0.0179793\Polar=12.2295337,-0.0013849,28.0620151,0.,0.,12.2296874\Quad
 rupole=0.4849747,-0.9696574,0.4846826,0.0006483,0.,0.\PG=CS [SG(C1H3),
 X(H2)]\NImag=1\\0.60163957,0.00021459,0.08792715,0.,0.,0.60150269,-0.3
 3759819,-0.06261680,0.,0.35465032,-0.07505989,-0.03478485,0.,0.0695977
 6,0.03812719,0.,0.,-0.05253244,0.,0.,0.04624169,-0.12385448,0.03118621
 ,0.12348034,-0.00888199,0.00850066,0.02466490,0.12339726,0.03741203,-0
 .03465888,-0.06480253,-0.00398460,0.00360544,0.00753365,-0.03467696,0.
 03804332,0.12347136,-0.05403190,-0.26632297,-0.00319246,0.00031500,0.0
 0352047,-0.13358549,0.06006836,0.27754613,-0.12385448,0.03118621,-0.12
 348034,-0.00888199,0.00850066,-0.02466490,0.00972316,-0.00452426,0.013
 93459,0.12339726,0.03741203,-0.03465888,0.06480253,-0.00398460,0.00360
 544,-0.00753365,-0.00452426,0.00360014,-0.00720351,-0.03467696,0.03804
 332,-0.12347136,0.05403190,-0.26632297,0.00319246,-0.00031500,0.003520
 47,-0.01393459,0.00720351,-0.01508501,0.13358549,-0.06006836,0.2775461
 3,-0.02191771,-0.00000753,0.,0.00015125,-0.01212209,0.,-0.00037452,0.0
 0606733,-0.00029879,-0.00037452,0.00606733,0.00029879,0.03789564,0.000
 03215,0.10943333,0.,0.00155850,-0.01418010,0.,-0.00076814,-0.01423610,
 0.00134515,-0.00076814,-0.01423610,-0.00134515,-0.00007251,-0.01310831
 ,0.,0.,-0.02190509,0.,0.,-0.00055118,-0.00029552,-0.01050681,-0.000030
 18,0.00029552,0.01050681,-0.00003018,0.,0.,0.03789550,0.00558529,0.000
 03732,0.,0.00056060,0.00058290,0.,-0.00000943,-0.00029352,-0.00032922,
 -0.00000943,-0.00029352,0.00032922,-0.01538014,0.00001814,0.,0.0092531
 1,-0.00001091,-0.09325789,0.,-0.00057025,0.00362687,0.,0.00028250,0.00
 364607,-0.00049309,0.00028250,0.00364607,0.00049309,0.00006748,-0.0536
 7271,0.,-0.00005132,0.13601159,0.,0.,0.00558078,0.,0.,-0.00019901,-0.0
 0032963,0.00050382,0.00037156,0.00032963,-0.00050382,0.00037156,0.,0.,
 -0.01537886,0.,0.,0.00925398\\0.00004931,0.00008754,0.,-0.00001394,-0.
 00001465,0.,-0.00000496,-0.00003576,-0.00000522,-0.00000496,-0.0000357
 6,0.00000522,-0.00003522,0.00004140,0.,0.00000977,-0.00004277,0.\\\@


 CONTRAIWISE...CONTINUED TWEEDLEDEE, IF IT WAS SO, IT MIGHT BE,
 AND IF IT WERE SO, IT WOULD BE.....
 BUT AS IT ISN'T, IT AIN'T....
 THAT'S LOGIC.....
 ALICE THROUGH THE LOOKING GLASS
 Job cpu time:       0 days  0 hours  1 minutes 54.9 seconds.
 Elapsed time:       0 days  0 hours  0 minutes 18.9 seconds.
 File lengths (MBytes):  RWF=     14 Int=      0 D2E=      0 Chk=      1 Scr=      1
 Normal termination of Gaussian 16 at Wed Oct  7 13:43:43 2020.
