 Entering Gaussian System, Link 0=g16
 Input=MN_87_RKT11_BH76_PBE0_631Gs.in
 Output=MN_87_RKT11_BH76_PBE0_631Gs.log
 Initial command:
 /udrive/faculty/rpeverati/g16/g16/l1.exe "/udrive/scratch-directories/gaussian09/rpeverati/Gau-30204.inp" -scrdir="/udrive/scratch-directories/gaussian09/rpeverati/"
 Entering Link 1 = /udrive/faculty/rpeverati/g16/g16/l1.exe PID=     30219.
  
 Copyright (c) 1988,1990,1992,1993,1995,1998,2003,2009,2016,
            Gaussian, Inc.  All Rights Reserved.
  
 This is part of the Gaussian(R) 16 program.  It is based on
 the Gaussian(R) 09 system (copyright 2009, Gaussian, Inc.),
 the Gaussian(R) 03 system (copyright 2003, Gaussian, Inc.),
 the Gaussian(R) 98 system (copyright 1998, Gaussian, Inc.),
 the Gaussian(R) 94 system (copyright 1995, Gaussian, Inc.),
 the Gaussian 92(TM) system (copyright 1992, Gaussian, Inc.),
 the Gaussian 90(TM) system (copyright 1990, Gaussian, Inc.),
 the Gaussian 88(TM) system (copyright 1988, Gaussian, Inc.),
 the Gaussian 86(TM) system (copyright 1986, Carnegie Mellon
 University), and the Gaussian 82(TM) system (copyright 1983,
 Carnegie Mellon University). Gaussian is a federally registered
 trademark of Gaussian, Inc.
  
 This software contains proprietary and confidential information,
 including trade secrets, belonging to Gaussian, Inc.
  
 This software is provided under written license and may be
 used, copied, transmitted, or stored only in accord with that
 written license.
  
 The following legend is applicable only to US Government
 contracts under FAR:
  
                    RESTRICTED RIGHTS LEGEND
  
 Use, reproduction and disclosure by the US Government is
 subject to restrictions as set forth in subparagraphs (a)
 and (c) of the Commercial Computer Software - Restricted
 Rights clause in FAR 52.227-19.
  
 Gaussian, Inc.
 340 Quinnipiac St., Bldg. 40, Wallingford CT 06492
  
  
 ---------------------------------------------------------------
 Warning -- This program may not be used in any manner that
 competes with the business of Gaussian, Inc. or will provide
 assistance to any competitor of Gaussian, Inc.  The licensee
 of this program is prohibited from giving any competitor of
 Gaussian, Inc. access to this program.  By using this program,
 the user acknowledges that Gaussian, Inc. is engaged in the
 business of creating and licensing software in the field of
 computational chemistry and represents and warrants to the
 licensee that it is not a competitor of Gaussian, Inc. and that
 it will not use this program in any manner prohibited above.
 ---------------------------------------------------------------
  

 Cite this work as:
 Gaussian 16, Revision A.03,
 M. J. Frisch, G. W. Trucks, H. B. Schlegel, G. E. Scuseria, 
 M. A. Robb, J. R. Cheeseman, G. Scalmani, V. Barone, 
 G. A. Petersson, H. Nakatsuji, X. Li, M. Caricato, A. V. Marenich, 
 J. Bloino, B. G. Janesko, R. Gomperts, B. Mennucci, H. P. Hratchian, 
 J. V. Ortiz, A. F. Izmaylov, J. L. Sonnenberg, D. Williams-Young, 
 F. Ding, F. Lipparini, F. Egidi, J. Goings, B. Peng, A. Petrone, 
 T. Henderson, D. Ranasinghe, V. G. Zakrzewski, J. Gao, N. Rega, 
 G. Zheng, W. Liang, M. Hada, M. Ehara, K. Toyota, R. Fukuda, 
 J. Hasegawa, M. Ishida, T. Nakajima, Y. Honda, O. Kitao, H. Nakai, 
 T. Vreven, K. Throssell, J. A. Montgomery, Jr., J. E. Peralta, 
 F. Ogliaro, M. J. Bearpark, J. J. Heyd, E. N. Brothers, K. N. Kudin, 
 V. N. Staroverov, T. A. Keith, R. Kobayashi, J. Normand, 
 K. Raghavachari, A. P. Rendell, J. C. Burant, S. S. Iyengar, 
 J. Tomasi, M. Cossi, J. M. Millam, M. Klene, C. Adamo, R. Cammi, 
 J. W. Ochterski, R. L. Martin, K. Morokuma, O. Farkas, 
 J. B. Foresman, and D. J. Fox, Gaussian, Inc., Wallingford CT, 2016.
 
 ******************************************
 Gaussian 16:  ES64L-G16RevA.03 25-Dec-2016
                 7-Oct-2020 
 ******************************************
 %NoSave
 %nproc=12
 Will use up to   12 processors via shared memory.
 %mem=20GB
 %chk=MN_87_RKT11_BH76_PBE0_631Gs
 ----------------------------------------------------------------------
 #P Opt(TS,MaxCyc=50,NoEigenTest,MaxStep=10,AddRedundant) PBE1PBE/6-31G
 * 5D 7F Integral=UltraFineGrid SCF=(NoSymm,XQC,MaxCyc=120) IOp(1/33=1)
 ----------------------------------------------------------------------
 1/5=1,6=50,8=10,11=1,18=120,26=4,33=1,38=1/1,3;
 2/9=110,12=2,17=6,18=5,40=1/2;
 3/5=1,6=6,7=1,8=11,11=2,25=1,30=1,71=1,74=-13,75=-5/1,2,3;
 4/9=2/1;
 5/5=2,7=120,8=3,13=1,38=5/2,8;
 6/7=2,8=2,9=2,10=2,28=1/1;
 7//1,2,3,16;
 1/5=1,6=50,8=10,11=1,18=20,26=4,33=1/3(2);
 2/9=110/2;
 99//99;
 2/9=110/2;
 3/5=1,6=6,7=1,8=11,11=2,25=1,30=1,71=1,74=-13,75=-5/1,2,3;
 4/5=5,9=2,16=3,69=1/1;
 5/5=2,7=120,8=3,13=1,38=5/2,8;
 7//1,2,3,16;
 1/5=1,6=50,8=10,11=1,18=20,26=4,33=1/3(-5);
 2/9=110/2;
 6/7=2,8=2,9=2,10=2,19=2,28=1/1;
 99/9=1/99;
 Leave Link    1 at Wed Oct  7 13:41:59 2020, MaxMem=  2684354560 cpu:               4.5 elap:               0.4
 (Enter /udrive/faculty/rpeverati/g16/g16/l101.exe)
 ONIOM data not found on unit 2.
 ------------------
 TS search on BH76.
 ------------------
 TstMul:  ICh=     0
 TstMul:  Mul=     3
 TstMul:  ICh=     0
 TstMul:  Mul=     3
 Symbolic Z-matrix:
 Charge =  0 Multiplicity = 3
 C                     0.00029  -1.14229   0. 
 H                    -1.05596  -1.38474   0. 
 H                     0.52017  -1.40739   0.91245 
 H                     0.52017  -1.40739  -0.91245 
 H                     0.01156   0.1601    0. 
 O                     0.00029   1.36164   0. 
 
 RdStrC is calling ZToCFu for IStruc=1 NZ=     6.
 PrtBox:  NBox=     1 Levels=  1 BoxLen=    8.00 SMaxX=        5.23
          Shift=            1.995470            2.659580            1.724280
 Box      1 Number                   0 centers from      1 to      6:
 After GenITR:
 ITRead=  0  0  0  0  0  0
 MicOpt= -1 -1 -1 -1 -1 -1
 Add virtual bond connecting atoms O6         and H5         Dist= 2.27D+00.
 Add virtual bond connecting atoms H5         and C1         Dist= 2.46D+00.
 The following ModRedundant input section has been read:
 
 ITRead=  0  0  0  0  0  0
 MicOpt= -1 -1 -1 -1 -1 -1
 NAtoms=      6 NQM=        6 NQMF=       0 NMMI=      0 NMMIF=      0
                NMic=       0 NMicF=      0.
                    Isotopes and Nuclear Properties:
 (Nuclear quadrupole moments (NQMom) in fm**2, nuclear magnetic moments (NMagM)
  in nuclear magnetons)

  Atom         1           2           3           4           5           6
 IAtWgt=          12           1           1           1           1          16
 AtmWgt=  12.0000000   1.0078250   1.0078250   1.0078250   1.0078250  15.9949146
 NucSpn=           0           1           1           1           1           0
 AtZEff=   0.0000000   0.0000000   0.0000000   0.0000000   0.0000000   0.0000000
 NQMom=    0.0000000   0.0000000   0.0000000   0.0000000   0.0000000   0.0000000
 NMagM=    0.0000000   2.7928460   2.7928460   2.7928460   2.7928460   0.0000000
 AtZNuc=   6.0000000   1.0000000   1.0000000   1.0000000   1.0000000   8.0000000
 No MM parameters found.
 Leave Link  101 at Wed Oct  7 13:42:00 2020, MaxMem=  2684354560 cpu:              13.4 elap:               1.2
 (Enter /udrive/faculty/rpeverati/g16/g16/l103.exe)

 GradGradGradGradGradGradGradGradGradGradGradGradGradGradGradGradGradGrad
 Berny optimization.
 Optmz: redundant internal coordinate code flag= 1
 Initialization pass.
                           ----------------------------
                           !    Initial Parameters    !
                           ! (Angstroms and Degrees)  !
 --------------------------                            --------------------------
 ! Name  Definition              Value          Derivative Info.                !
 --------------------------------------------------------------------------------
 ! R1    R(1,2)                  1.0837         estimate D2E/DX2                !
 ! R2    R(1,3)                  1.0831         estimate D2E/DX2                !
 ! R3    R(1,4)                  1.0831         estimate D2E/DX2                !
 ! R4    R(1,5)                  1.3024         estimate D2E/DX2                !
 ! R5    R(5,6)                  1.2016         estimate D2E/DX2                !
 ! A1    A(2,1,3)              114.3975         estimate D2E/DX2                !
 ! A2    A(2,1,4)              114.3975         estimate D2E/DX2                !
 ! A3    A(2,1,5)              103.4234         estimate D2E/DX2                !
 ! A4    A(3,1,4)              114.7971         estimate D2E/DX2                !
 ! A5    A(3,1,5)              103.9219         estimate D2E/DX2                !
 ! A6    A(4,1,5)              103.9219         estimate D2E/DX2                !
 ! A7    L(1,5,6,2,-1)         178.9668         estimate D2E/DX2                !
 ! A8    L(1,5,6,2,-2)         180.0            estimate D2E/DX2                !
 ! D1    D(2,1,4,3)           -135.1686         estimate D2E/DX2                !
 ! D2    D(2,1,5,3)            119.7805         estimate D2E/DX2                !
 ! D3    D(2,1,5,4)           -119.7805         estimate D2E/DX2                !
 ! D4    D(3,1,5,4)            120.4391         estimate D2E/DX2                !
 --------------------------------------------------------------------------------
 Maximum allowed force set to 1.00D+20.
 Trust Radius=1.00D-01 FncErr=1.00D-07 GrdErr=1.00D-06 EigMax=2.50D+02 EigMin=1.00D-04
 Number of steps in this run=     50 maximum allowed number of steps=    100.
 Search for a saddle point of order  1.
 GradGradGradGradGradGradGradGradGradGradGradGradGradGradGradGradGradGrad

 Leave Link  103 at Wed Oct  7 13:42:01 2020, MaxMem=  2684354560 cpu:               1.3 elap:               0.5
 (Enter /udrive/faculty/rpeverati/g16/g16/l202.exe)
                          Input orientation:                          
 ---------------------------------------------------------------------
 Center     Atomic      Atomic             Coordinates (Angstroms)
 Number     Number       Type             X           Y           Z
 ---------------------------------------------------------------------
      1          6           0        0.000290   -1.142287    0.000000
      2          1           0       -1.055957   -1.384735    0.000000
      3          1           0        0.520167   -1.407389    0.912450
      4          1           0        0.520167   -1.407389   -0.912450
      5          1           0        0.011560    0.160099    0.000000
      6          8           0        0.000290    1.361642    0.000000
 ---------------------------------------------------------------------
                    Distance matrix (angstroms):
                    1          2          3          4          5
     1  C    0.000000
     2  H    1.083715   0.000000
     3  H    1.083105   1.821331   0.000000
     4  H    1.083105   1.821331   1.824899   0.000000
     5  H    1.302435   1.877793   1.883684   1.883684   0.000000
     6  O    2.503929   2.942489   2.961481   2.961481   1.201596
                    6
     6  O    0.000000
 Stoichiometry    CH4O(3)
 Framework group  CS[SG(CH2O),X(H2)]
 Deg. of freedom     8
 Full point group                 CS      NOp   2
 Largest Abelian subgroup         CS      NOp   2
 Largest concise Abelian subgroup CS      NOp   2
                         Standard orientation:                         
 ---------------------------------------------------------------------
 Center     Atomic      Atomic             Coordinates (Angstroms)
 Number     Number       Type             X           Y           Z
 ---------------------------------------------------------------------
      1          6           0        0.000290   -1.142287    0.000000
      2          1           0       -1.055957   -1.384735    0.000000
      3          1           0        0.520168   -1.407389    0.912450
      4          1           0        0.520168   -1.407389   -0.912450
      5          1           0        0.011560    0.160099   -0.000000
      6          8           0        0.000290    1.361642   -0.000000
 ---------------------------------------------------------------------
 Rotational constants (GHZ):         150.9743796           9.6384202           9.6367904
 Leave Link  202 at Wed Oct  7 13:42:02 2020, MaxMem=  2684354560 cpu:               0.8 elap:               0.3
 (Enter /udrive/faculty/rpeverati/g16/g16/l301.exe)
 Standard basis: 6-31G(d) (5D, 7F)
 Ernie: Thresh=  0.10000D-02 Tol=  0.10000D-05 Strict=F.
 There are    28 symmetry adapted cartesian basis functions of A'  symmetry.
 There are    10 symmetry adapted cartesian basis functions of A"  symmetry.
 There are    26 symmetry adapted basis functions of A'  symmetry.
 There are    10 symmetry adapted basis functions of A"  symmetry.
    36 basis functions,    72 primitive gaussians,    38 cartesian basis functions
    10 alpha electrons        8 beta electrons
       nuclear repulsion energy        30.9103326491 Hartrees.
 IExCor= 1009 DFT=T Ex+Corr=PBE1PBE ExCW=0 ScaHFX=  0.250000
 ScaDFX=  0.750000  0.750000  1.000000  1.000000 ScalE2=  1.000000  1.000000
 IRadAn=      5 IRanWt=     -1 IRanGd=            0 ICorTp=0 IEmpDi=  4
 NAtoms=    6 NActive=    6 NUniq=    5 SFac= 1.44D+00 NAtFMM=   60 NAOKFM=F Big=F
 Integral buffers will be    131072 words long.
 Raffenetti 2 integral format.
 Two-electron integral symmetry is turned on.
 Leave Link  301 at Wed Oct  7 13:42:02 2020, MaxMem=  2684354560 cpu:               1.9 elap:               0.5
 (Enter /udrive/faculty/rpeverati/g16/g16/l302.exe)
 NPDir=0 NMtPBC=     1 NCelOv=     1 NCel=       1 NClECP=     1 NCelD=      1
         NCelK=      1 NCelE2=     1 NClLst=     1 CellRange=     0.0.
 One-electron integrals computed using PRISM.
 One-electron integral symmetry used in STVInt
 NBasis=    36 RedAO= T EigKep=  1.14D-02  NBF=    26    10
 NBsUse=    36 1.00D-06 EigRej= -1.00D+00 NBFU=    26    10
 Precomputing XC quadrature grid using
 IXCGrd= 4 IRadAn=           5 IRanWt=          -1 IRanGd=           0 AccXCQ= 0.00D+00.
 Generated NRdTot=       0 NPtTot=           0 NUsed=           0 NTot=          32
 NSgBfM=    38    38    38    38    38 MxSgAt=     6 MxSgA2=     6.
 Leave Link  302 at Wed Oct  7 13:42:03 2020, MaxMem=  2684354560 cpu:               3.7 elap:               0.6
 (Enter /udrive/faculty/rpeverati/g16/g16/l303.exe)
 DipDrv:  MaxL=1.
 Leave Link  303 at Wed Oct  7 13:42:04 2020, MaxMem=  2684354560 cpu:               1.2 elap:               0.4
 (Enter /udrive/faculty/rpeverati/g16/g16/l401.exe)
 SCF N**3 symmetry information disabled.
 ExpMin= 1.61D-01 ExpMax= 5.48D+03 ExpMxC= 8.25D+02 IAcc=3 IRadAn=         5 AccDes= 0.00D+00
 Harris functional with IExCor= 1009 and IRadAn=       5 diagonalized for initial guess.
 HarFok:  IExCor= 1009 AccDes= 0.00D+00 IRadAn=         5 IDoV= 1 UseB2=F ITyADJ=14
 ICtDFT=  3500011 ScaDFX=  1.000000  1.000000  1.000000  1.000000
 FoFCou: FMM=F IPFlag=           0 FMFlag=      100000 FMFlg1=           0
         NFxFlg=           0 DoJE=T BraDBF=F KetDBF=T FulRan=T
         wScrn=  0.000000 ICntrl=       500 IOpCl=  0 I1Cent=   200000004 NGrid=           0
         NMat0=    1 NMatS0=      1 NMatT0=    0 NMatD0=    1 NMtDS0=    0 NMtDT0=    0
 Petite list used in FoFCou.
 Harris En= -115.398840836436    
 JPrj=0 DoOrth=F DoCkMO=F.
 Initial guess orbital symmetries:
 Alpha Orbitals:
       Occupied  (A') (A') (A') (A') (A") (A') (A') (A") (A') (A')
       Virtual   (A') (A') (A") (A') (A') (A") (A') (A') (A') (A")
                 (A') (A') (A") (A') (A') (A") (A') (A') (A") (A')
                 (A') (A") (A') (A") (A') (A')
 Beta  Orbitals:
       Occupied  (A') (A') (A') (A') (A") (A') (A') (A")
       Virtual   (A') (A') (A') (A') (A") (A') (A') (A") (A') (A')
                 (A') (A") (A') (A') (A") (A') (A') (A") (A') (A')
                 (A") (A') (A') (A") (A') (A") (A') (A')
 The electronic state of the initial guess is 3-A'.
 Initial guess <Sx>= 0.0000 <Sy>= 0.0000 <Sz>= 1.0000 <S**2>= 2.0000 S= 1.0000
 Leave Link  401 at Wed Oct  7 13:42:05 2020, MaxMem=  2684354560 cpu:               5.5 elap:               0.8
 (Enter /udrive/faculty/rpeverati/g16/g16/l502.exe)
 Keep R1 and R2 ints in memory in symmetry-blocked form, NReq=10589866.
 FoFCou: FMM=F IPFlag=           0 FMFlag=           0 FMFlg1=           0
         NFxFlg=           0 DoJE=F BraDBF=F KetDBF=F FulRan=T
         wScrn=  0.000000 ICntrl=       600 IOpCl=  0 I1Cent=           0 NGrid=           0
         NMat0=    1 NMatS0=    666 NMatT0=    0 NMatD0=    1 NMtDS0=    0 NMtDT0=    0
 Petite list used in FoFCou.
 UHF open shell SCF:
 Using DIIS extrapolation, IDIIS=  1040.
 NGot=  2684354560 LenX=  2684115610 LenY=  2684113725
 Requested convergence on RMS density matrix=1.00D-08 within 120 cycles.
 Requested convergence on MAX density matrix=1.00D-06.
 Requested convergence on             energy=1.00D-06.
 No special actions if energy rises.
 Integral accuracy reduced to 1.0D-05 until final iterations.

 Cycle   1  Pass 0  IDiag  1:
 E= -115.365544461224    
 DIIS: error= 5.41D-02 at cycle   1 NSaved=   1.
 NSaved= 1 IEnMin= 1 EnMin= -115.365544461224     IErMin= 1 ErrMin= 5.41D-02
 ErrMax= 5.41D-02  0.00D+00 EMaxC= 1.00D-01 BMatC= 1.99D-01 BMatP= 1.99D-01
 IDIUse=3 WtCom= 4.59D-01 WtEn= 5.41D-01
 Coeff-Com:  0.100D+01
 Coeff-En:   0.100D+01
 Coeff:      0.100D+01
 Gap=     0.396 Goal=   None    Shift=    0.000
 Gap=     0.187 Goal=   None    Shift=    0.000
 GapD=    0.187 DampG=1.000 DampE=0.500 DampFc=0.5000 IDamp=-1.
 Damping current iteration by 5.00D-01
 RMSDP=1.03D-02 MaxDP=1.38D-01              OVMax= 1.67D-01

 Cycle   2  Pass 0  IDiag  1:
 E= -115.391555912983     Delta-E=       -0.026011451759 Rises=F Damp=T
 DIIS: error= 1.34D-02 at cycle   2 NSaved=   2.
 NSaved= 2 IEnMin= 2 EnMin= -115.391555912983     IErMin= 2 ErrMin= 1.34D-02
 ErrMax= 1.34D-02  0.00D+00 EMaxC= 1.00D-01 BMatC= 1.23D-02 BMatP= 1.99D-01
 IDIUse=3 WtCom= 8.66D-01 WtEn= 1.34D-01
 Coeff-Com:  0.217D-01 0.978D+00
 Coeff-En:   0.185D-01 0.981D+00
 Coeff:      0.213D-01 0.979D+00
 Gap=     0.404 Goal=   None    Shift=    0.000
 Gap=     0.183 Goal=   None    Shift=    0.000
 RMSDP=2.12D-03 MaxDP=3.96D-02 DE=-2.60D-02 OVMax= 1.36D-01

 Cycle   3  Pass 0  IDiag  1:
 E= -115.419715520165     Delta-E=       -0.028159607182 Rises=F Damp=F
 DIIS: error= 1.17D-02 at cycle   3 NSaved=   3.
 NSaved= 3 IEnMin= 3 EnMin= -115.419715520165     IErMin= 3 ErrMin= 1.17D-02
 ErrMax= 1.17D-02  0.00D+00 EMaxC= 1.00D-01 BMatC= 8.11D-03 BMatP= 1.23D-02
 IDIUse=3 WtCom= 8.83D-01 WtEn= 1.17D-01
 Coeff-Com: -0.340D-01 0.438D+00 0.596D+00
 Coeff-En:   0.000D+00 0.000D+00 0.100D+01
 Coeff:     -0.300D-01 0.386D+00 0.644D+00
 Gap=     0.414 Goal=   None    Shift=    0.000
 Gap=     0.183 Goal=   None    Shift=    0.000
 RMSDP=1.31D-03 MaxDP=1.97D-02 DE=-2.82D-02 OVMax= 3.28D-02

 Cycle   4  Pass 0  IDiag  1:
 E= -115.421285335640     Delta-E=       -0.001569815475 Rises=F Damp=F
 DIIS: error= 5.18D-03 at cycle   4 NSaved=   4.
 NSaved= 4 IEnMin= 4 EnMin= -115.421285335640     IErMin= 4 ErrMin= 5.18D-03
 ErrMax= 5.18D-03  0.00D+00 EMaxC= 1.00D-01 BMatC= 1.25D-03 BMatP= 8.11D-03
 IDIUse=3 WtCom= 9.48D-01 WtEn= 5.18D-02
 Coeff-Com: -0.971D-02-0.710D-01 0.262D+00 0.818D+00
 Coeff-En:   0.000D+00 0.000D+00 0.605D-01 0.940D+00
 Coeff:     -0.920D-02-0.673D-01 0.252D+00 0.825D+00
 Gap=     0.410 Goal=   None    Shift=    0.000
 Gap=     0.181 Goal=   None    Shift=    0.000
 RMSDP=4.41D-04 MaxDP=8.56D-03 DE=-1.57D-03 OVMax= 1.55D-02

 Cycle   5  Pass 0  IDiag  1:
 E= -115.421617473664     Delta-E=       -0.000332138023 Rises=F Damp=F
 DIIS: error= 7.55D-04 at cycle   5 NSaved=   5.
 NSaved= 5 IEnMin= 5 EnMin= -115.421617473664     IErMin= 5 ErrMin= 7.55D-04
 ErrMax= 7.55D-04  0.00D+00 EMaxC= 1.00D-01 BMatC= 3.12D-05 BMatP= 1.25D-03
 IDIUse=3 WtCom= 9.92D-01 WtEn= 7.55D-03
 Coeff-Com: -0.664D-03-0.822D-02-0.727D-01-0.439D-01 0.113D+01
 Coeff-En:   0.000D+00 0.000D+00 0.000D+00 0.000D+00 0.100D+01
 Coeff:     -0.659D-03-0.816D-02-0.722D-01-0.435D-01 0.112D+01
 Gap=     0.412 Goal=   None    Shift=    0.000
 Gap=     0.182 Goal=   None    Shift=    0.000
 RMSDP=1.30D-04 MaxDP=1.80D-03 DE=-3.32D-04 OVMax= 1.94D-03

 Cycle   6  Pass 0  IDiag  1:
 E= -115.421629288287     Delta-E=       -0.000011814623 Rises=F Damp=F
 DIIS: error= 1.27D-04 at cycle   6 NSaved=   6.
 NSaved= 6 IEnMin= 6 EnMin= -115.421629288287     IErMin= 6 ErrMin= 1.27D-04
 ErrMax= 1.27D-04  0.00D+00 EMaxC= 1.00D-01 BMatC= 1.85D-06 BMatP= 3.12D-05
 IDIUse=3 WtCom= 9.99D-01 WtEn= 1.27D-03
 Coeff-Com:  0.189D-03 0.473D-02-0.377D-01-0.686D-01 0.275D+00 0.826D+00
 Coeff-En:   0.000D+00 0.000D+00 0.000D+00 0.000D+00 0.000D+00 0.100D+01
 Coeff:      0.189D-03 0.472D-02-0.376D-01-0.685D-01 0.275D+00 0.826D+00
 Gap=     0.412 Goal=   None    Shift=    0.000
 Gap=     0.182 Goal=   None    Shift=    0.000
 RMSDP=2.13D-05 MaxDP=2.10D-04 DE=-1.18D-05 OVMax= 3.99D-04

 Cycle   7  Pass 0  IDiag  1:
 E= -115.421629909652     Delta-E=       -0.000000621365 Rises=F Damp=F
 DIIS: error= 2.78D-05 at cycle   7 NSaved=   7.
 NSaved= 7 IEnMin= 7 EnMin= -115.421629909652     IErMin= 7 ErrMin= 2.78D-05
 ErrMax= 2.78D-05  0.00D+00 EMaxC= 1.00D-01 BMatC= 4.57D-08 BMatP= 1.85D-06
 IDIUse=1 WtCom= 1.00D+00 WtEn= 0.00D+00
 Coeff-Com:  0.200D-04-0.440D-03 0.723D-02 0.140D-01-0.829D-01-0.150D+00
 Coeff-Com:  0.121D+01
 Coeff:      0.200D-04-0.440D-03 0.723D-02 0.140D-01-0.829D-01-0.150D+00
 Coeff:      0.121D+01
 Gap=     0.412 Goal=   None    Shift=    0.000
 Gap=     0.182 Goal=   None    Shift=    0.000
 RMSDP=6.81D-06 MaxDP=6.83D-05 DE=-6.21D-07 OVMax= 8.98D-05

 Initial convergence to 1.0D-05 achieved.  Increase integral accuracy.
 Cycle   8  Pass 1  IDiag  1:
 E= -115.421628999924     Delta-E=        0.000000909727 Rises=F Damp=F
 DIIS: error= 4.05D-06 at cycle   1 NSaved=   1.
 NSaved= 1 IEnMin= 1 EnMin= -115.421628999924     IErMin= 1 ErrMin= 4.05D-06
 ErrMax= 4.05D-06  0.00D+00 EMaxC= 1.00D-01 BMatC= 1.35D-09 BMatP= 1.35D-09
 IDIUse=1 WtCom= 1.00D+00 WtEn= 0.00D+00
 Coeff-Com:  0.100D+01
 Coeff:      0.100D+01
 Gap=     0.412 Goal=   None    Shift=    0.000
 Gap=     0.182 Goal=   None    Shift=    0.000
 RMSDP=6.81D-06 MaxDP=6.83D-05 DE= 9.10D-07 OVMax= 1.35D-05

 Cycle   9  Pass 1  IDiag  1:
 E= -115.421629000616     Delta-E=       -0.000000000692 Rises=F Damp=F
 DIIS: error= 2.33D-06 at cycle   2 NSaved=   2.
 NSaved= 2 IEnMin= 2 EnMin= -115.421629000616     IErMin= 2 ErrMin= 2.33D-06
 ErrMax= 2.33D-06  0.00D+00 EMaxC= 1.00D-01 BMatC= 4.49D-10 BMatP= 1.35D-09
 IDIUse=1 WtCom= 1.00D+00 WtEn= 0.00D+00
 Coeff-Com:  0.235D+00 0.765D+00
 Coeff:      0.235D+00 0.765D+00
 Gap=     0.412 Goal=   None    Shift=    0.000
 Gap=     0.182 Goal=   None    Shift=    0.000
 RMSDP=4.19D-07 MaxDP=5.65D-06 DE=-6.92D-10 OVMax= 1.40D-05

 Cycle  10  Pass 1  IDiag  1:
 E= -115.421629000725     Delta-E=       -0.000000000109 Rises=F Damp=F
 DIIS: error= 2.24D-06 at cycle   3 NSaved=   3.
 NSaved= 3 IEnMin= 3 EnMin= -115.421629000725     IErMin= 3 ErrMin= 2.24D-06
 ErrMax= 2.24D-06  0.00D+00 EMaxC= 1.00D-01 BMatC= 3.23D-10 BMatP= 4.49D-10
 IDIUse=1 WtCom= 1.00D+00 WtEn= 0.00D+00
 Coeff-Com: -0.272D+00 0.473D+00 0.798D+00
 Coeff:     -0.272D+00 0.473D+00 0.798D+00
 Gap=     0.412 Goal=   None    Shift=    0.000
 Gap=     0.182 Goal=   None    Shift=    0.000
 RMSDP=3.27D-07 MaxDP=3.22D-06 DE=-1.09D-10 OVMax= 4.51D-06

 Cycle  11  Pass 1  IDiag  1:
 E= -115.421629000822     Delta-E=       -0.000000000097 Rises=F Damp=F
 DIIS: error= 2.27D-07 at cycle   4 NSaved=   4.
 NSaved= 4 IEnMin= 4 EnMin= -115.421629000822     IErMin= 4 ErrMin= 2.27D-07
 ErrMax= 2.27D-07  0.00D+00 EMaxC= 1.00D-01 BMatC= 4.79D-12 BMatP= 3.23D-10
 IDIUse=1 WtCom= 1.00D+00 WtEn= 0.00D+00
 Coeff-Com: -0.771D-01 0.459D-01 0.178D+00 0.854D+00
 Coeff:     -0.771D-01 0.459D-01 0.178D+00 0.854D+00
 Gap=     0.412 Goal=   None    Shift=    0.000
 Gap=     0.182 Goal=   None    Shift=    0.000
 RMSDP=5.11D-08 MaxDP=5.02D-07 DE=-9.70D-11 OVMax= 8.10D-07

 Cycle  12  Pass 1  IDiag  1:
 E= -115.421629000824     Delta-E=       -0.000000000002 Rises=F Damp=F
 DIIS: error= 4.92D-08 at cycle   5 NSaved=   5.
 NSaved= 5 IEnMin= 5 EnMin= -115.421629000824     IErMin= 5 ErrMin= 4.92D-08
 ErrMax= 4.92D-08  0.00D+00 EMaxC= 1.00D-01 BMatC= 1.91D-13 BMatP= 4.79D-12
 IDIUse=1 WtCom= 1.00D+00 WtEn= 0.00D+00
 Coeff-Com:  0.141D-01-0.236D-01-0.350D-01-0.166D-01 0.106D+01
 Coeff:      0.141D-01-0.236D-01-0.350D-01-0.166D-01 0.106D+01
 Gap=     0.412 Goal=   None    Shift=    0.000
 Gap=     0.182 Goal=   None    Shift=    0.000
 RMSDP=1.01D-08 MaxDP=1.11D-07 DE=-2.16D-12 OVMax= 2.15D-07

 Cycle  13  Pass 1  IDiag  1:
 E= -115.421629000824     Delta-E=       -0.000000000000 Rises=F Damp=F
 DIIS: error= 2.34D-08 at cycle   6 NSaved=   6.
 NSaved= 6 IEnMin= 6 EnMin= -115.421629000824     IErMin= 6 ErrMin= 2.34D-08
 ErrMax= 2.34D-08  0.00D+00 EMaxC= 1.00D-01 BMatC= 3.62D-14 BMatP= 1.91D-13
 IDIUse=1 WtCom= 1.00D+00 WtEn= 0.00D+00
 Coeff-Com:  0.946D-02-0.109D-01-0.209D-01-0.761D-01 0.262D+00 0.836D+00
 Coeff:      0.946D-02-0.109D-01-0.209D-01-0.761D-01 0.262D+00 0.836D+00
 Gap=     0.412 Goal=   None    Shift=    0.000
 Gap=     0.182 Goal=   None    Shift=    0.000
 RMSDP=4.09D-09 MaxDP=7.24D-08 DE=-1.71D-13 OVMax= 6.77D-08

 SCF Done:  E(UPBE1PBE) =  -115.421629001     A.U. after   13 cycles
            NFock= 13  Conv=0.41D-08     -V/T= 2.0047
 <Sx>= 0.0000 <Sy>= 0.0000 <Sz>= 1.0000 <S**2>= 2.0114 S= 1.0038
 <L.S>= 0.000000000000E+00
 KE= 1.148786837803D+02 PE=-3.328932969076D+02 EE= 7.168265147744D+01
 Annihilation of the first spin contaminant:
 S**2 before annihilation     2.0114,   after     2.0000
 Leave Link  502 at Wed Oct  7 13:42:07 2020, MaxMem=  2684354560 cpu:              21.5 elap:               2.3
 (Enter /udrive/faculty/rpeverati/g16/g16/l508.exe)
 QCSCF skips out because SCF is already converged.
 Leave Link  508 at Wed Oct  7 13:42:08 2020, MaxMem=  2684354560 cpu:               0.3 elap:               0.3
 (Enter /udrive/faculty/rpeverati/g16/g16/l601.exe)
 Copying SCF densities to generalized density rwf, IOpCl= 1 IROHF=0.

 **********************************************************************

            Population analysis using the SCF density.

 **********************************************************************

 Orbital symmetries:
 Alpha Orbitals:
       Occupied  (A') (A') (A') (A') (A') (A') (A") (A') (A") (A')
       Virtual   (A') (A') (A") (A') (A') (A") (A') (A') (A') (A")
                 (A') (A') (A") (A') (A') (A') (A") (A') (A') (A")
                 (A') (A") (A') (A") (A') (A')
 Beta  Orbitals:
       Occupied  (A') (A') (A') (A') (A") (A') (A') (A")
       Virtual   (A') (A') (A') (A') (A") (A') (A") (A') (A') (A')
                 (A') (A") (A') (A") (A') (A') (A') (A') (A") (A')
                 (A") (A') (A") (A') (A') (A") (A') (A')
 The electronic state is 3-A'.
 Alpha  occ. eigenvalues --  -19.28705 -10.24928  -1.00746  -0.74358  -0.49682
 Alpha  occ. eigenvalues --   -0.44645  -0.44486  -0.41570  -0.33628  -0.29430
 Alpha virt. eigenvalues --    0.11743   0.17041   0.17150   0.26548   0.51819
 Alpha virt. eigenvalues --    0.52274   0.54768   0.72793   0.86912   0.90723
 Alpha virt. eigenvalues --    0.90818   0.91372   0.92218   0.96596   1.17169
 Alpha virt. eigenvalues --    1.61863   1.61999   1.63642   1.72180   1.76925
 Alpha virt. eigenvalues --    1.77031   1.77251   1.88579   2.22066   2.22200
 Alpha virt. eigenvalues --    2.52559
  Beta  occ. eigenvalues --  -19.24566 -10.23906  -0.88429  -0.71183  -0.43753
  Beta  occ. eigenvalues --   -0.43694  -0.41241  -0.29510
  Beta virt. eigenvalues --   -0.11281  -0.11027   0.12556   0.17705   0.17773
  Beta virt. eigenvalues --    0.30377   0.52872   0.52953   0.59179   0.75141
  Beta virt. eigenvalues --    0.91434   0.91499   0.93324   0.94531   0.98573
  Beta virt. eigenvalues --    1.01036   1.20472   1.65747   1.65747   1.69398
  Beta virt. eigenvalues --    1.81414   1.83172   1.84396   1.85543   1.93847
  Beta virt. eigenvalues --    2.23452   2.23631   2.57806
          Condensed to atoms (all electrons):
               1          2          3          4          5          6
     1  C    5.438256   0.366792   0.365173   0.365173   0.236921  -0.053025
     2  H    0.366792   0.473402  -0.022268  -0.022268  -0.013458   0.000639
     3  H    0.365173  -0.022268   0.475842  -0.023295  -0.013033  -0.000110
     4  H    0.365173  -0.022268  -0.023295   0.475842  -0.013033  -0.000110
     5  H    0.236921  -0.013458  -0.013033  -0.013033   0.375049   0.041096
     6  O   -0.053025   0.000639  -0.000110  -0.000110   0.041096   8.331221
          Atomic-Atomic Spin Densities.
               1          2          3          4          5          6
     1  C    0.690387  -0.014984  -0.014607  -0.014607   0.056204  -0.085921
     2  H   -0.014984  -0.012060   0.002487   0.002487   0.000910   0.002182
     3  H   -0.014607   0.002487  -0.014283   0.003139   0.000749   0.002594
     4  H   -0.014607   0.002487   0.003139  -0.014283   0.000749   0.002594
     5  H    0.056204   0.000910   0.000749   0.000749  -0.083878  -0.063789
     6  O   -0.085921   0.002182   0.002594   0.002594  -0.063789   1.673744
 Mulliken charges and spin densities:
               1          2
     1  C   -0.719289   0.616472
     2  H    0.217161  -0.018978
     3  H    0.217691  -0.019921
     4  H    0.217691  -0.019921
     5  H    0.386458  -0.089055
     6  O   -0.319711   1.531403
 Sum of Mulliken charges =   0.00000   2.00000
 Mulliken charges and spin densities with hydrogens summed into heavy atoms:
               1          2
     1  C   -0.066747   0.557652
     6  O    0.066747   1.442348
 Electronic spatial extent (au):  <R**2>=            144.2058
 Charge=              0.0000 electrons
 Dipole moment (field-independent basis, Debye):
    X=              0.0000    Y=             -1.9268    Z=             -0.0000  Tot=              1.9268
 Quadrupole moment (field-independent basis, Debye-Ang):
   XX=            -12.3633   YY=            -14.9397   ZZ=            -13.4964
   XY=              0.0051   XZ=             -0.0000   YZ=              0.0000
 Traceless Quadrupole moment (field-independent basis, Debye-Ang):
   XX=              1.2365   YY=             -1.3399   ZZ=              0.1034
   XY=              0.0051   XZ=             -0.0000   YZ=              0.0000
 Octapole moment (field-independent basis, Debye-Ang**2):
  XXX=             -0.8694  YYY=              2.9802  ZZZ=             -0.0000  XYY=              0.0385
  XXY=              1.5494  XXZ=             -0.0000  XZZ=              0.8456  YZZ=             -0.0610
  YYZ=             -0.0000  XYZ=              0.0000
 Hexadecapole moment (field-independent basis, Debye-Ang**3):
 XXXX=            -16.8224 YYYY=           -142.8753 ZZZZ=            -18.1241 XXXY=              1.2717
 XXXZ=             -0.0000 YYYX=             -0.0667 YYYZ=              0.0000 ZZZX=             -0.0000
 ZZZY=             -0.0000 XXYY=            -23.6099 XXZZ=             -5.8428 YYZZ=            -25.8243
 XXYZ=              0.0000 YYXZ=             -0.0000 ZZXY=             -1.2620
 N-N= 3.091033264907D+01 E-N=-3.328932975494D+02  KE= 1.148786837803D+02
                          Isotropic Fermi Contact Couplings
        Atom                 a.u.       MegaHertz       Gauss      10(-4) cm-1
     1  C(13)              0.15224      85.57126      30.53395      28.54350
     2  H(1)              -0.00532     -11.89529      -4.24454      -3.96784
     3  H(1)              -0.00594     -13.26905      -4.73473      -4.42608
     4  H(1)              -0.00594     -13.26905      -4.73473      -4.42608
     5  H(1)              -0.03712     -82.96716     -29.60475     -27.67487
     6  O(17)              0.20888     -63.31129     -22.59104     -21.11837
 --------------------------------------------------------
       Center         ----  Spin Dipole Couplings  ----
                      3XX-RR        3YY-RR        3ZZ-RR
 --------------------------------------------------------
     1   Atom       -0.336907      0.678789     -0.341882
     2   Atom        0.039021      0.008868     -0.047889
     3   Atom       -0.026095      0.008717      0.017378
     4   Atom       -0.026095      0.008717      0.017378
     5   Atom       -0.163333      0.362348     -0.199015
     6   Atom        2.514173      0.381678     -2.895851
 --------------------------------------------------------
                        XY            XZ            YZ
 --------------------------------------------------------
     1   Atom        0.012704      0.000000     -0.000000
     2   Atom        0.019744     -0.000000     -0.000000
     3   Atom       -0.009569      0.036862     -0.018273
     4   Atom       -0.009569     -0.036862      0.018273
     5   Atom       -0.001979      0.000000     -0.000000
     6   Atom        0.021800     -0.000000     -0.000000
 --------------------------------------------------------


 ---------------------------------------------------------------------------------
              Anisotropic Spin Dipole Couplings in Principal Axis System
 ---------------------------------------------------------------------------------

       Atom             a.u.   MegaHertz   Gauss  10(-4) cm-1        Axes

              Baa    -0.3419   -45.877   -16.370   -15.303 -0.0000  0.0000  1.0000
     1 C(13)  Bbb    -0.3371   -45.231   -16.140   -15.087  0.9999 -0.0125  0.0000
              Bcc     0.6789    91.108    32.510    30.390  0.0125  0.9999 -0.0000
 
              Baa    -0.0479   -25.551    -9.117    -8.523  0.0000  0.0000  1.0000
     2 H(1)   Bbb    -0.0009    -0.479    -0.171    -0.160 -0.4433  0.8964  0.0000
              Bcc     0.0488    26.030     9.288     8.683  0.8964  0.4433  0.0000
 
              Baa    -0.0472   -25.164    -8.979    -8.394  0.8664 -0.0148 -0.4991
     3 H(1)   Bbb    -0.0018    -0.973    -0.347    -0.325  0.2389  0.8900  0.3883
              Bcc     0.0490    26.137     9.326     8.718  0.4384 -0.4557  0.7747
 
              Baa    -0.0472   -25.164    -8.979    -8.394  0.8664 -0.0148  0.4991
     4 H(1)   Bbb    -0.0018    -0.973    -0.347    -0.325  0.2389  0.8900 -0.3883
              Bcc     0.0490    26.137     9.326     8.718 -0.4384  0.4557  0.7747
 
              Baa    -0.1990  -106.185   -37.890   -35.420  0.0000  0.0000  1.0000
     5 H(1)   Bbb    -0.1633   -87.151   -31.098   -29.070  1.0000  0.0038  0.0000
              Bcc     0.3624   193.336    68.987    64.490 -0.0038  1.0000  0.0000
 
              Baa    -2.8959   209.542    74.770    69.896  0.0000  0.0000  1.0000
     6 O(17)  Bbb     0.3815   -27.602    -9.849    -9.207 -0.0102  0.9999 -0.0000
              Bcc     2.5144  -181.940   -64.921   -60.689  0.9999  0.0102  0.0000
 

 ---------------------------------------------------------------------------------

 No NMR shielding tensors so no spin-rotation constants.
 Leave Link  601 at Wed Oct  7 13:42:09 2020, MaxMem=  2684354560 cpu:               6.4 elap:               0.9
 (Enter /udrive/faculty/rpeverati/g16/g16/l701.exe)
 ... and contract with generalized density number  0.
 Compute integral first derivatives.
 Leave Link  701 at Wed Oct  7 13:42:10 2020, MaxMem=  2684354560 cpu:               3.6 elap:               0.8
 (Enter /udrive/faculty/rpeverati/g16/g16/l702.exe)
 L702 exits ... SP integral derivatives will be done elsewhere.
 Leave Link  702 at Wed Oct  7 13:42:11 2020, MaxMem=  2684354560 cpu:               1.8 elap:               0.6
 (Enter /udrive/faculty/rpeverati/g16/g16/l703.exe)
 Integral derivatives from FoFJK, PRISM(SPDF).
 Compute integral first derivatives, UseDBF=F ICtDFT=           0.
 Calling FoFJK, ICntrl=      2127 FMM=F ISym2X=1 I1Cent= 0 IOpClX= 1 NMat=1 NMatS=1 NMatT=0.
 FoFJK:  IHMeth= 1 ICntrl=    2127 DoSepK=F KAlg= 0 I1Cent=           0 FoldK=F
 IRaf=         0 NMat=       1 IRICut=       1 DoRegI=T DoRafI=F ISym2E= 1 IDoP0=0 IntGTp=1.
 FoFCou: FMM=F IPFlag=           0 FMFlag=      100000 FMFlg1=         800
         NFxFlg=           0 DoJE=F BraDBF=F KetDBF=F FulRan=T
         wScrn=  0.000000 ICntrl=      2127 IOpCl=  1 I1Cent=           0 NGrid=           0
         NMat0=    1 NMatS0=      1 NMatT0=    0 NMatD0=    1 NMtDS0=    0 NMtDT0=    0
 Petite list used in FoFCou.
 Leave Link  703 at Wed Oct  7 13:42:13 2020, MaxMem=  2684354560 cpu:               7.1 elap:               1.1
 (Enter /udrive/faculty/rpeverati/g16/g16/l716.exe)
 Dipole        = 1.31617911D-05-7.58059082D-01-2.22327686D-16
 ***** Axes restored to original set *****
 -------------------------------------------------------------------
 Center     Atomic                   Forces (Hartrees/Bohr)
 Number     Number              X              Y              Z
 -------------------------------------------------------------------
      1        6           0.000264086    0.009666627   -0.000000000
      2        1          -0.003818382   -0.001750186   -0.000000000
      3        1           0.001862974   -0.001995582    0.003271918
      4        1           0.001862974   -0.001995582   -0.003271918
      5        1          -0.000128596   -0.009831896   -0.000000000
      6        8          -0.000043056    0.005906620    0.000000000
 -------------------------------------------------------------------
 Cartesian Forces:  Max     0.009831896 RMS     0.003937330
 Leave Link  716 at Wed Oct  7 13:42:13 2020, MaxMem=  2684354560 cpu:               2.1 elap:               0.7
 (Enter /udrive/faculty/rpeverati/g16/g16/l103.exe)

 GradGradGradGradGradGradGradGradGradGradGradGradGradGradGradGradGradGrad
 Berny optimization.
 Optmz: redundant internal coordinate code flag= 1
 FormGI is forming the generalized inverse of G from B-inverse, IUseBI=4.
 Internal  Forces:  Max     0.005906764 RMS     0.002477618
 Search for a saddle point.
 Step number   1 out of a maximum of   50
 All quantities printed in internal units (Hartrees-Bohrs-Radians)
 Swapping is turned off.
 Second derivative matrix not updated -- first step.
 The second derivative matrix:
                          R1        R2        R3        R4        R5
           R1           0.35549
           R2           0.00000   0.35622
           R3           0.00000   0.00000   0.35622
           R4           0.00000   0.00000   0.00000   0.18479
           R5           0.00000   0.00000   0.00000   0.00000   0.24549
           A1           0.00000   0.00000   0.00000   0.00000   0.00000
           A2           0.00000   0.00000   0.00000   0.00000   0.00000
           A3           0.00000   0.00000   0.00000   0.00000   0.00000
           A4           0.00000   0.00000   0.00000   0.00000   0.00000
           A5           0.00000   0.00000   0.00000   0.00000   0.00000
           A6           0.00000   0.00000   0.00000   0.00000   0.00000
           A7           0.00000   0.00000   0.00000   0.00000   0.00000
           A8           0.00000   0.00000   0.00000   0.00000   0.00000
           D1           0.00000   0.00000   0.00000   0.00000   0.00000
           D2           0.00000   0.00000   0.00000   0.00000   0.00000
           D3           0.00000   0.00000   0.00000   0.00000   0.00000
           D4           0.00000   0.00000   0.00000   0.00000   0.00000
                          A1        A2        A3        A4        A5
           A1           0.16000
           A2           0.00000   0.16000
           A3           0.00000   0.00000   0.16000
           A4           0.00000   0.00000   0.00000   0.16000
           A5           0.00000   0.00000   0.00000   0.00000   0.16000
           A6           0.00000   0.00000   0.00000   0.00000   0.00000
           A7           0.00000   0.00000   0.00000   0.00000   0.00000
           A8           0.00000   0.00000   0.00000   0.00000   0.00000
           D1           0.00000   0.00000   0.00000   0.00000   0.00000
           D2           0.00000   0.00000   0.00000   0.00000   0.00000
           D3           0.00000   0.00000   0.00000   0.00000   0.00000
           D4           0.00000   0.00000   0.00000   0.00000   0.00000
                          A6        A7        A8        D1        D2
           A6           0.16000
           A7           0.00000   0.00230
           A8           0.00000   0.00000   0.00230
           D1           0.00000   0.00000   0.00000   0.00326
           D2           0.00000   0.00000   0.00000   0.00000   0.00230
           D3           0.00000   0.00000   0.00000   0.00000   0.00000
           D4           0.00000   0.00000   0.00000   0.00000   0.00000
                          D3        D4
           D3           0.00230
           D4           0.00000   0.00230
 ITU=  0
 Eigenvectors of the second derivative matrix:
                           1         2         3         4         5
     Eigenvalues --     0.00230   0.00230   0.05311   0.06734   0.07512
   1         R1         0.00000  -0.00000   0.00000   0.00000  -0.00000
   2         R2        -0.00000  -0.00000   0.00000   0.00000   0.00000
   3         R3        -0.00000   0.00000   0.00000   0.00000   0.00000
   4         R4         0.00000  -0.00000   0.00000   0.00000  -0.00000
   5         R5         0.00000  -0.00000  -0.00000  -0.00000   0.00000
   6         A1         0.00000   0.00000   0.43611  -0.01564   0.24622
   7         A2        -0.00000   0.00000   0.02262   0.42622  -0.34222
   8         A3         0.00000  -0.00000  -0.16116   0.16834   0.28880
   9         A4         0.00000   0.00000   0.00145  -0.42140  -0.34524
  10         A5        -0.00000  -0.00000  -0.17119  -0.15682   0.28371
  11         A6         0.00000   0.00000  -0.27043   0.00684   0.00886
  12         A7        -0.99437   0.10601  -0.00000  -0.00000   0.00000
  13         A8        -0.10601  -0.99437   0.00000   0.00000  -0.00000
  14         D1         0.00000  -0.00000  -0.70815   0.01761   0.37823
  15         D2         0.00000  -0.00000   0.34529  -0.01168   0.51383
  16         D3         0.00000  -0.00000   0.15562  -0.54761   0.25472
  17         D4         0.00000  -0.00000  -0.18967  -0.53593  -0.25911
                           6         7         8         9        10
     Eigenvalues --     0.16000   0.16000   0.18479   0.24549   0.35549
   1         R1         0.00000   0.00000  -0.00000   0.00000  -1.00000
   2         R2        -0.00000   0.00000  -0.00000  -0.00000   0.00000
   3         R3         0.00000  -0.00000   0.00000  -0.00000   0.00000
   4         R4         0.00000   0.00000   1.00000   0.00000  -0.00000
   5         R5        -0.00000   0.00000  -0.00000   1.00000  -0.00000
   6         A1         0.15112  -0.20307  -0.00000   0.00000   0.00000
   7         A2        -0.30569  -0.01279   0.00000  -0.00000  -0.00000
   8         A3         0.32262   0.66519  -0.00000  -0.00000   0.00000
   9         A4         0.09356   0.29917  -0.00000  -0.00000   0.00000
  10         A5        -0.72969  -0.13227   0.00000  -0.00000  -0.00000
  11         A6         0.48830  -0.63963  -0.00000   0.00000   0.00000
  12         A7         0.00000   0.00000   0.00000   0.00000   0.00000
  13         A8         0.00000  -0.00000  -0.00000  -0.00000   0.00000
  14         D1         0.00000  -0.00000   0.00000  -0.00000  -0.00000
  15         D2         0.00000  -0.00000   0.00000  -0.00000  -0.00000
  16         D3         0.00000  -0.00000   0.00000   0.00000   0.00000
  17         D4        -0.00000  -0.00000  -0.00000   0.00000   0.00000
                          11        12
     Eigenvalues --     0.35622   0.35622
   1         R1         0.00000   0.00000
   2         R2         0.71014   0.70406
   3         R3         0.70406  -0.71014
   4         R4        -0.00000   0.00000
   5         R5         0.00000   0.00000
   6         A1        -0.00000   0.00000
   7         A2        -0.00000  -0.00000
   8         A3         0.00000   0.00000
   9         A4         0.00000  -0.00000
  10         A5        -0.00000  -0.00000
  11         A6         0.00000   0.00000
  12         A7        -0.00000  -0.00000
  13         A8         0.00000  -0.00000
  14         D1         0.00000  -0.00000
  15         D2        -0.00000   0.00000
  16         D3         0.00000   0.00000
  17         D4         0.00000  -0.00000
 Eigenvalue     1 is   2.30D-03 should be less than     0.000000 Eigenvector:
                          A7        A8        A3        A5        A6
   1                   -0.99437  -0.10601   0.00000  -0.00000   0.00000
                          D1        A2        R4        R1        R2
   1                    0.00000  -0.00000   0.00000   0.00000  -0.00000
 RLam0= 2.30D-03.
 Iter=   1 RLamda= 0.00000000D+00 Sum=-4.13964700D-04.
 Iter=   2 RLamda=-4.13964700D-04 Sum=-4.13069824D-04.
 Iter=   3 RLamda=-4.13069824D-04 Sum=-4.13071751D-04.
 RFO step:  Lambda0=2.300340355D-03 Lambda=-4.13069824D-04.
 Linear search not attempted -- option 19 set.
 Iteration  1 RMS(Cart)=  0.01673702 RMS(Int)=  0.00036170
 Iteration  2 RMS(Cart)=  0.00037552 RMS(Int)=  0.00004056
 Iteration  3 RMS(Cart)=  0.00000010 RMS(Int)=  0.00004056
 ITry= 1 IFail=0 DXMaxC= 3.82D-02 DCOld= 1.00D+10 DXMaxT= 1.00D-01 DXLimC= 3.00D+00 Rises=F
 ClnCor:  largest displacement from symmetrization is 3.78D-03 for atom     4.
 Variable       Old X    -DE/DX   Delta X   Delta X   Delta X     New X
                                 (Linear)    (Quad)   (Total)
    R1        2.04793   0.00411   0.00000   0.01156   0.01156   2.05948
    R2        2.04677   0.00414   0.00000   0.01161   0.01131   2.05808
    R3        2.04677   0.00414   0.00000   0.01161   0.01131   2.05808
    R4        2.46125  -0.00393   0.00000  -0.02120  -0.02120   2.44004
    R5        2.27069   0.00591   0.00000   0.02402   0.02401   2.29470
    A1        1.99661  -0.00015   0.00000  -0.00548  -0.00535   1.99126
    A2        1.99661  -0.00043   0.00000  -0.00570  -0.00535   1.99126
    A3        1.80508   0.00024   0.00000   0.00613   0.00614   1.81122
    A4        2.00359  -0.00051   0.00000  -0.00585  -0.00516   1.99843
    A5        1.81378   0.00054   0.00000   0.00811   0.00721   1.82099
    A6        1.81378   0.00065   0.00000   0.00811   0.00721   1.82099
    A7        3.12356   0.00003   0.00000  -0.04603  -0.04602   3.07754
    A8        3.14159   0.00000   0.00000  -0.00601   0.00000   3.14159
    D1       -2.35914   0.00127   0.00000   0.02138   0.01969  -2.33945
    D2        2.09056   0.00016   0.00000  -0.00013  -0.00028   2.09028
    D3       -2.09056   0.00010   0.00000   0.00037   0.00028  -2.09028
    D4        2.10206  -0.00006   0.00000   0.00049   0.00057   2.10262
         Item               Value     Threshold  Converged?
 Maximum Force            0.005907     0.000450     NO 
 RMS     Force            0.002478     0.000300     NO 
 Maximum Displacement     0.038170     0.001800     NO 
 RMS     Displacement     0.016559     0.001200     NO 
 Predicted change in Energy=-2.027895D-04
 Lowest energy point so far.  Saving SCF results.
 Largest change from initial coordinates is atom    6       0.021 Angstoms.
 GradGradGradGradGradGradGradGradGradGradGradGradGradGradGradGradGradGrad

 Leave Link  103 at Wed Oct  7 13:42:14 2020, MaxMem=  2684354560 cpu:               3.4 elap:               0.6
 (Enter /udrive/faculty/rpeverati/g16/g16/l202.exe)
                          Input orientation:                          
 ---------------------------------------------------------------------
 Center     Atomic      Atomic             Coordinates (Angstroms)
 Number     Number       Type             X           Y           Z
 ---------------------------------------------------------------------
      1          6           0        0.003324   -1.135787   -0.000000
      2          1           0       -1.060557   -1.372193   -0.000000
      3          1           0        0.521157   -1.416775    0.915977
      4          1           0        0.521157   -1.416775   -0.915977
      5          1           0        0.031428    0.155122    0.000000
      6          8           0       -0.019909    1.368339    0.000000
 ---------------------------------------------------------------------
                    Distance matrix (angstroms):
                    1          2          3          4          5
     1  C    0.000000
     2  H    1.089831   0.000000
     3  H    1.089092   1.828339   0.000000
     4  H    1.089092   1.828339   1.831955   0.000000
     5  H    1.291214   1.877531   1.884067   1.884067   0.000000
     6  O    2.504233   2.931461   2.981380   2.981380   1.214303
                    6
     6  O    0.000000
 Stoichiometry    CH4O(3)
 Framework group  CS[SG(CH2O),X(H2)]
 Deg. of freedom     8
 Full point group                 CS      NOp   2
 RotChk:  IX=0 Diff= 1.31D-02
 Largest Abelian subgroup         CS      NOp   2
 Largest concise Abelian subgroup CS      NOp   2
                         Standard orientation:                         
 ---------------------------------------------------------------------
 Center     Atomic      Atomic             Coordinates (Angstroms)
 Number     Number       Type             X           Y           Z
 ---------------------------------------------------------------------
      1          6           0       -0.000248   -1.140354   -0.000000
      2          1           0       -1.066277   -1.366880   -0.000000
      3          1           0        0.514956   -1.426134    0.915977
      4          1           0        0.514956   -1.426134   -0.915977
      5          1           0        0.039831    0.150238    0.000000
      6          8           0       -0.000248    1.363879    0.000000
 ---------------------------------------------------------------------
 Rotational constants (GHZ):         149.8257206           9.6192713           9.6175857
 Leave Link  202 at Wed Oct  7 13:42:15 2020, MaxMem=  2684354560 cpu:               1.1 elap:               0.5
 (Enter /udrive/faculty/rpeverati/g16/g16/l301.exe)
 Standard basis: 6-31G(d) (5D, 7F)
 Ernie: Thresh=  0.10000D-02 Tol=  0.10000D-05 Strict=F.
 There are    28 symmetry adapted cartesian basis functions of A'  symmetry.
 There are    10 symmetry adapted cartesian basis functions of A"  symmetry.
 There are    26 symmetry adapted basis functions of A'  symmetry.
 There are    10 symmetry adapted basis functions of A"  symmetry.
    36 basis functions,    72 primitive gaussians,    38 cartesian basis functions
    10 alpha electrons        8 beta electrons
       nuclear repulsion energy        30.8276576821 Hartrees.
 IExCor= 1009 DFT=T Ex+Corr=PBE1PBE ExCW=0 ScaHFX=  0.250000
 ScaDFX=  0.750000  0.750000  1.000000  1.000000 ScalE2=  1.000000  1.000000
 IRadAn=      5 IRanWt=     -1 IRanGd=            0 ICorTp=0 IEmpDi=  4
 NAtoms=    6 NActive=    6 NUniq=    5 SFac= 1.44D+00 NAtFMM=   60 NAOKFM=F Big=F
 Integral buffers will be    131072 words long.
 Raffenetti 2 integral format.
 Two-electron integral symmetry is turned on.
 Leave Link  301 at Wed Oct  7 13:42:16 2020, MaxMem=  2684354560 cpu:               2.0 elap:               0.6
 (Enter /udrive/faculty/rpeverati/g16/g16/l302.exe)
 NPDir=0 NMtPBC=     1 NCelOv=     1 NCel=       1 NClECP=     1 NCelD=      1
         NCelK=      1 NCelE2=     1 NClLst=     1 CellRange=     0.0.
 One-electron integrals computed using PRISM.
 One-electron integral symmetry used in STVInt
 NBasis=    36 RedAO= T EigKep=  1.14D-02  NBF=    26    10
 NBsUse=    36 1.00D-06 EigRej= -1.00D+00 NBFU=    26    10
 Precomputing XC quadrature grid using
 IXCGrd= 4 IRadAn=           5 IRanWt=          -1 IRanGd=           0 AccXCQ= 0.00D+00.
 Generated NRdTot=       0 NPtTot=           0 NUsed=           0 NTot=          32
 NSgBfM=    38    38    38    38    38 MxSgAt=     6 MxSgA2=     6.
 Leave Link  302 at Wed Oct  7 13:42:17 2020, MaxMem=  2684354560 cpu:               3.7 elap:               0.7
 (Enter /udrive/faculty/rpeverati/g16/g16/l303.exe)
 DipDrv:  MaxL=1.
 Leave Link  303 at Wed Oct  7 13:42:17 2020, MaxMem=  2684354560 cpu:               1.8 elap:               0.5
 (Enter /udrive/faculty/rpeverati/g16/g16/l401.exe)
 Initial guess from the checkpoint file:  "MN_87_RKT11_BH76_PBE0_631Gs.chk"
 SCF N**3 symmetry information disabled.
 B after Tr=    -0.000000    0.000000    0.000000
         Rot=    0.999999   -0.000000   -0.000000    0.001153 Ang=   0.13 deg.
 Guess basis will be translated and rotated to current coordinates.
 JPrj=2 DoOrth=T DoCkMO=T.
 Initial guess orbital symmetries:
 Alpha Orbitals:
       Occupied  (A') (A') (A') (A') (A') (A') (A") (A') (A") (A')
       Virtual   (A') (A') (A") (A') (A') (A") (A') (A') (A') (A")
                 (A') (A') (A") (A') (A') (A') (A") (A') (A') (A")
                 (A') (A") (A') (A") (A') (A')
 Beta  Orbitals:
       Occupied  (A') (A') (A') (A') (A") (A') (A') (A")
       Virtual   (A') (A') (A') (A') (A") (A') (A") (A') (A') (A')
                 (A') (A") (A') (A") (A') (A') (A') (A') (A") (A')
                 (A") (A') (A") (A') (A') (A") (A') (A')
 The electronic state of the initial guess is 3-A'.
 Initial guess <Sx>= 0.0000 <Sy>= 0.0000 <Sz>= 1.0000 <S**2>= 2.0114 S= 1.0038
 Generating alternative initial guess.
 ExpMin= 1.61D-01 ExpMax= 5.48D+03 ExpMxC= 8.25D+02 IAcc=2 IRadAn=         4 AccDes= 0.00D+00
 Harris functional with IExCor= 1009 and IRadAn=       4 diagonalized for initial guess.
 HarFok:  IExCor= 1009 AccDes= 0.00D+00 IRadAn=         4 IDoV= 1 UseB2=F ITyADJ=14
 ICtDFT=  3500011 ScaDFX=  1.000000  1.000000  1.000000  1.000000
 FoFCou: FMM=F IPFlag=           0 FMFlag=      100000 FMFlg1=           0
         NFxFlg=           0 DoJE=T BraDBF=F KetDBF=T FulRan=T
         wScrn=  0.000000 ICntrl=       500 IOpCl=  0 I1Cent=   200000004 NGrid=           0
         NMat0=    1 NMatS0=      1 NMatT0=    0 NMatD0=    1 NMtDS0=    0 NMtDT0=    0
 Petite list used in FoFCou.
 Harris En= -115.397545427234    
 Leave Link  401 at Wed Oct  7 13:42:19 2020, MaxMem=  2684354560 cpu:               7.4 elap:               1.0
 (Enter /udrive/faculty/rpeverati/g16/g16/l502.exe)
 Keep R1 and R2 ints in memory in symmetry-blocked form, NReq=10589866.
 FoFCou: FMM=F IPFlag=           0 FMFlag=           0 FMFlg1=           0
         NFxFlg=           0 DoJE=F BraDBF=F KetDBF=F FulRan=T
         wScrn=  0.000000 ICntrl=       600 IOpCl=  0 I1Cent=           0 NGrid=           0
         NMat0=    1 NMatS0=    666 NMatT0=    0 NMatD0=    1 NMtDS0=    0 NMtDT0=    0
 Petite list used in FoFCou.
 UHF open shell SCF:
 Using DIIS extrapolation, IDIIS=  1040.
 NGot=  2684354560 LenX=  2684115610 LenY=  2684113725
 Requested convergence on RMS density matrix=1.00D-08 within 120 cycles.
 Requested convergence on MAX density matrix=1.00D-06.
 Requested convergence on             energy=1.00D-06.
 No special actions if energy rises.
 Integral accuracy reduced to 1.0D-05 until final iterations.

 Cycle   1  Pass 0  IDiag  1:
 E= -115.421687936336    
 DIIS: error= 1.63D-03 at cycle   1 NSaved=   1.
 NSaved= 1 IEnMin= 1 EnMin= -115.421687936336     IErMin= 1 ErrMin= 1.63D-03
 ErrMax= 1.63D-03  0.00D+00 EMaxC= 1.00D-01 BMatC= 4.77D-04 BMatP= 4.77D-04
 IDIUse=3 WtCom= 9.84D-01 WtEn= 1.63D-02
 Coeff-Com:  0.100D+01
 Coeff-En:   0.100D+01
 Coeff:      0.100D+01
 Gap=     0.412 Goal=   None    Shift=    0.000
 Gap=     0.180 Goal=   None    Shift=    0.000
 GapD=    0.180 DampG=1.000 DampE=1.000 DampFc=1.0000 IDamp=-1.
 RMSDP=5.55D-04 MaxDP=6.05D-03              OVMax= 1.43D-02

 Cycle   2  Pass 0  IDiag  1:
 E= -115.421936980784     Delta-E=       -0.000249044448 Rises=F Damp=F
 DIIS: error= 1.09D-03 at cycle   2 NSaved=   2.
 NSaved= 2 IEnMin= 2 EnMin= -115.421936980784     IErMin= 2 ErrMin= 1.09D-03
 ErrMax= 1.09D-03  0.00D+00 EMaxC= 1.00D-01 BMatC= 6.01D-05 BMatP= 4.77D-04
 IDIUse=3 WtCom= 9.89D-01 WtEn= 1.09D-02
 Coeff-Com:  0.510D-01 0.949D+00
 Coeff-En:   0.000D+00 0.100D+01
 Coeff:      0.505D-01 0.950D+00
 Gap=     0.414 Goal=   None    Shift=    0.000
 Gap=     0.182 Goal=   None    Shift=    0.000
 RMSDP=1.98D-04 MaxDP=2.73D-03 DE=-2.49D-04 OVMax= 3.15D-03

 Cycle   3  Pass 0  IDiag  1:
 E= -115.421952077413     Delta-E=       -0.000015096629 Rises=F Damp=F
 DIIS: error= 8.13D-04 at cycle   3 NSaved=   3.
 NSaved= 3 IEnMin= 3 EnMin= -115.421952077413     IErMin= 3 ErrMin= 8.13D-04
 ErrMax= 8.13D-04  0.00D+00 EMaxC= 1.00D-01 BMatC= 3.86D-05 BMatP= 6.01D-05
 IDIUse=3 WtCom= 9.92D-01 WtEn= 8.13D-03
 Coeff-Com: -0.546D-01 0.463D+00 0.592D+00
 Coeff-En:   0.000D+00 0.000D+00 0.100D+01
 Coeff:     -0.542D-01 0.459D+00 0.595D+00
 Gap=     0.413 Goal=   None    Shift=    0.000
 Gap=     0.181 Goal=   None    Shift=    0.000
 RMSDP=8.38D-05 MaxDP=1.51D-03 DE=-1.51D-05 OVMax= 3.57D-03

 Cycle   4  Pass 0  IDiag  1:
 E= -115.421962657190     Delta-E=       -0.000010579777 Rises=F Damp=F
 DIIS: error= 3.16D-04 at cycle   4 NSaved=   4.
 NSaved= 4 IEnMin= 4 EnMin= -115.421962657190     IErMin= 4 ErrMin= 3.16D-04
 ErrMax= 3.16D-04  0.00D+00 EMaxC= 1.00D-01 BMatC= 4.48D-06 BMatP= 3.86D-05
 IDIUse=3 WtCom= 9.97D-01 WtEn= 3.16D-03
 Coeff-Com: -0.237D-01 0.168D-01 0.232D+00 0.775D+00
 Coeff-En:   0.000D+00 0.000D+00 0.000D+00 0.100D+01
 Coeff:     -0.237D-01 0.168D-01 0.232D+00 0.775D+00
 Gap=     0.413 Goal=   None    Shift=    0.000
 Gap=     0.182 Goal=   None    Shift=    0.000
 RMSDP=4.26D-05 MaxDP=5.46D-04 DE=-1.06D-05 OVMax= 7.77D-04

 Cycle   5  Pass 0  IDiag  1:
 E= -115.421964161919     Delta-E=       -0.000001504729 Rises=F Damp=F
 DIIS: error= 8.64D-05 at cycle   5 NSaved=   5.
 NSaved= 5 IEnMin= 5 EnMin= -115.421964161919     IErMin= 5 ErrMin= 8.64D-05
 ErrMax= 8.64D-05  0.00D+00 EMaxC= 1.00D-01 BMatC= 5.67D-07 BMatP= 4.48D-06
 IDIUse=1 WtCom= 1.00D+00 WtEn= 0.00D+00
 Coeff-Com:  0.707D-02-0.128D+00-0.517D-01 0.303D+00 0.871D+00
 Coeff:      0.707D-02-0.128D+00-0.517D-01 0.303D+00 0.871D+00
 Gap=     0.413 Goal=   None    Shift=    0.000
 Gap=     0.182 Goal=   None    Shift=    0.000
 RMSDP=2.08D-05 MaxDP=2.06D-04 DE=-1.50D-06 OVMax= 7.48D-04

 Cycle   6  Pass 0  IDiag  1:
 E= -115.421964472903     Delta-E=       -0.000000310985 Rises=F Damp=F
 DIIS: error= 1.79D-05 at cycle   6 NSaved=   6.
 NSaved= 6 IEnMin= 6 EnMin= -115.421964472903     IErMin= 6 ErrMin= 1.79D-05
 ErrMax= 1.79D-05  0.00D+00 EMaxC= 1.00D-01 BMatC= 2.04D-08 BMatP= 5.67D-07
 IDIUse=1 WtCom= 1.00D+00 WtEn= 0.00D+00
 Coeff-Com:  0.248D-02-0.174D-01-0.171D-01-0.172D-01 0.148D+00 0.901D+00
 Coeff:      0.248D-02-0.174D-01-0.171D-01-0.172D-01 0.148D+00 0.901D+00
 Gap=     0.413 Goal=   None    Shift=    0.000
 Gap=     0.182 Goal=   None    Shift=    0.000
 RMSDP=3.25D-06 MaxDP=4.46D-05 DE=-3.11D-07 OVMax= 9.16D-05

 Initial convergence to 1.0D-05 achieved.  Increase integral accuracy.
 Cycle   7  Pass 1  IDiag  1:
 E= -115.421963201797     Delta-E=        0.000001271107 Rises=F Damp=F
 DIIS: error= 4.69D-06 at cycle   1 NSaved=   1.
 NSaved= 1 IEnMin= 1 EnMin= -115.421963201797     IErMin= 1 ErrMin= 4.69D-06
 ErrMax= 4.69D-06  0.00D+00 EMaxC= 1.00D-01 BMatC= 1.44D-09 BMatP= 1.44D-09
 IDIUse=1 WtCom= 1.00D+00 WtEn= 0.00D+00
 Coeff-Com:  0.100D+01
 Coeff:      0.100D+01
 Gap=     0.413 Goal=   None    Shift=    0.000
 Gap=     0.182 Goal=   None    Shift=    0.000
 RMSDP=3.25D-06 MaxDP=4.46D-05 DE= 1.27D-06 OVMax= 1.51D-05

 Cycle   8  Pass 1  IDiag  1:
 E= -115.421963202446     Delta-E=       -0.000000000649 Rises=F Damp=F
 DIIS: error= 2.00D-06 at cycle   2 NSaved=   2.
 NSaved= 2 IEnMin= 2 EnMin= -115.421963202446     IErMin= 2 ErrMin= 2.00D-06
 ErrMax= 2.00D-06  0.00D+00 EMaxC= 1.00D-01 BMatC= 1.95D-10 BMatP= 1.44D-09
 IDIUse=1 WtCom= 1.00D+00 WtEn= 0.00D+00
 Coeff-Com:  0.541D-01 0.946D+00
 Coeff:      0.541D-01 0.946D+00
 Gap=     0.413 Goal=   None    Shift=    0.000
 Gap=     0.182 Goal=   None    Shift=    0.000
 RMSDP=3.18D-07 MaxDP=3.19D-06 DE=-6.49D-10 OVMax= 9.80D-06

 Cycle   9  Pass 1  IDiag  1:
 E= -115.421963202549     Delta-E=       -0.000000000103 Rises=F Damp=F
 DIIS: error= 1.16D-06 at cycle   3 NSaved=   3.
 NSaved= 3 IEnMin= 3 EnMin= -115.421963202549     IErMin= 3 ErrMin= 1.16D-06
 ErrMax= 1.16D-06  0.00D+00 EMaxC= 1.00D-01 BMatC= 1.05D-10 BMatP= 1.95D-10
 IDIUse=1 WtCom= 1.00D+00 WtEn= 0.00D+00
 Coeff-Com: -0.156D+00 0.360D+00 0.796D+00
 Coeff:     -0.156D+00 0.360D+00 0.796D+00
 Gap=     0.413 Goal=   None    Shift=    0.000
 Gap=     0.182 Goal=   None    Shift=    0.000
 RMSDP=1.93D-07 MaxDP=2.08D-06 DE=-1.03D-10 OVMax= 5.04D-06

 Cycle  10  Pass 1  IDiag  1:
 E= -115.421963202582     Delta-E=       -0.000000000033 Rises=F Damp=F
 DIIS: error= 4.72D-07 at cycle   4 NSaved=   4.
 NSaved= 4 IEnMin= 4 EnMin= -115.421963202582     IErMin= 4 ErrMin= 4.72D-07
 ErrMax= 4.72D-07  0.00D+00 EMaxC= 1.00D-01 BMatC= 2.32D-11 BMatP= 1.05D-10
 IDIUse=1 WtCom= 1.00D+00 WtEn= 0.00D+00
 Coeff-Com: -0.105D+00 0.157D-01 0.412D+00 0.677D+00
 Coeff:     -0.105D+00 0.157D-01 0.412D+00 0.677D+00
 Gap=     0.413 Goal=   None    Shift=    0.000
 Gap=     0.182 Goal=   None    Shift=    0.000
 RMSDP=7.72D-08 MaxDP=8.46D-07 DE=-3.31D-11 OVMax= 2.75D-06

 Cycle  11  Pass 1  IDiag  1:
 E= -115.421963202589     Delta-E=       -0.000000000007 Rises=F Damp=F
 DIIS: error= 1.52D-07 at cycle   5 NSaved=   5.
 NSaved= 5 IEnMin= 5 EnMin= -115.421963202589     IErMin= 5 ErrMin= 1.52D-07
 ErrMax= 1.52D-07  0.00D+00 EMaxC= 1.00D-01 BMatC= 1.35D-12 BMatP= 2.32D-11
 IDIUse=1 WtCom= 1.00D+00 WtEn= 0.00D+00
 Coeff-Com: -0.287D-01-0.172D-01 0.867D-01 0.264D+00 0.695D+00
 Coeff:     -0.287D-01-0.172D-01 0.867D-01 0.264D+00 0.695D+00
 Gap=     0.413 Goal=   None    Shift=    0.000
 Gap=     0.182 Goal=   None    Shift=    0.000
 RMSDP=2.04D-08 MaxDP=2.87D-07 DE=-7.42D-12 OVMax= 4.18D-07

 Cycle  12  Pass 1  IDiag  1:
 E= -115.421963202590     Delta-E=       -0.000000000000 Rises=F Damp=F
 DIIS: error= 3.62D-08 at cycle   6 NSaved=   6.
 NSaved= 6 IEnMin= 6 EnMin= -115.421963202590     IErMin= 6 ErrMin= 3.62D-08
 ErrMax= 3.62D-08  0.00D+00 EMaxC= 1.00D-01 BMatC= 1.01D-13 BMatP= 1.35D-12
 IDIUse=1 WtCom= 1.00D+00 WtEn= 0.00D+00
 Coeff-Com:  0.138D-01-0.500D-02-0.615D-01-0.632D-01 0.151D+00 0.965D+00
 Coeff:      0.138D-01-0.500D-02-0.615D-01-0.632D-01 0.151D+00 0.965D+00
 Gap=     0.413 Goal=   None    Shift=    0.000
 Gap=     0.182 Goal=   None    Shift=    0.000
 RMSDP=8.35D-09 MaxDP=7.73D-08 DE=-2.84D-13 OVMax= 2.50D-07

 SCF Done:  E(UPBE1PBE) =  -115.421963203     A.U. after   12 cycles
            NFock= 12  Conv=0.83D-08     -V/T= 2.0050
 <Sx>= 0.0000 <Sy>= 0.0000 <Sz>= 1.0000 <S**2>= 2.0113 S= 1.0038
 <L.S>= 0.000000000000E+00
 KE= 1.148533920737D+02 PE=-3.327090313634D+02 EE= 7.160601840501D+01
 Annihilation of the first spin contaminant:
 S**2 before annihilation     2.0113,   after     2.0000
 Leave Link  502 at Wed Oct  7 13:42:21 2020, MaxMem=  2684354560 cpu:              19.4 elap:               2.1
 (Enter /udrive/faculty/rpeverati/g16/g16/l508.exe)
 QCSCF skips out because SCF is already converged.
 Leave Link  508 at Wed Oct  7 13:42:22 2020, MaxMem=  2684354560 cpu:               0.4 elap:               0.4
 (Enter /udrive/faculty/rpeverati/g16/g16/l701.exe)
 ... and contract with generalized density number  0.
 Compute integral first derivatives.
 Leave Link  701 at Wed Oct  7 13:42:22 2020, MaxMem=  2684354560 cpu:               3.5 elap:               0.5
 (Enter /udrive/faculty/rpeverati/g16/g16/l702.exe)
 L702 exits ... SP integral derivatives will be done elsewhere.
 Leave Link  702 at Wed Oct  7 13:42:23 2020, MaxMem=  2684354560 cpu:               1.4 elap:               0.5
 (Enter /udrive/faculty/rpeverati/g16/g16/l703.exe)
 Integral derivatives from FoFJK, PRISM(SPDF).
 Compute integral first derivatives, UseDBF=F ICtDFT=           0.
 Calling FoFJK, ICntrl=      2127 FMM=F ISym2X=1 I1Cent= 0 IOpClX= 1 NMat=1 NMatS=1 NMatT=0.
 FoFJK:  IHMeth= 1 ICntrl=    2127 DoSepK=F KAlg= 0 I1Cent=           0 FoldK=F
 IRaf=         0 NMat=       1 IRICut=       1 DoRegI=T DoRafI=F ISym2E= 1 IDoP0=0 IntGTp=1.
 FoFCou: FMM=F IPFlag=           0 FMFlag=      100000 FMFlg1=         800
         NFxFlg=           0 DoJE=F BraDBF=F KetDBF=F FulRan=T
         wScrn=  0.000000 ICntrl=      2127 IOpCl=  1 I1Cent=           0 NGrid=           0
         NMat0=    1 NMatS0=      1 NMatT0=    0 NMatD0=    1 NMtDS0=    0 NMtDT0=    0
 Petite list used in FoFCou.
 Leave Link  703 at Wed Oct  7 13:42:24 2020, MaxMem=  2684354560 cpu:               6.7 elap:               0.9
 (Enter /udrive/faculty/rpeverati/g16/g16/l716.exe)
 Dipole        = 5.75369898D-03-7.37690940D-01-1.31073625D-16
 ***** Axes restored to original set *****
 -------------------------------------------------------------------
 Center     Atomic                   Forces (Hartrees/Bohr)
 Number     Number              X              Y              Z
 -------------------------------------------------------------------
      1        6           0.000742268    0.007760253   -0.000000000
      2        1           0.000212762   -0.000675924    0.000000000
      3        1          -0.000084394   -0.000926078   -0.000096489
      4        1          -0.000084394   -0.000926078    0.000096489
      5        1          -0.001007406   -0.012290375   -0.000000000
      6        8           0.000221164    0.007058202   -0.000000000
 -------------------------------------------------------------------
 Cartesian Forces:  Max     0.012290375 RMS     0.003836651
 Leave Link  716 at Wed Oct  7 13:42:25 2020, MaxMem=  2684354560 cpu:               1.3 elap:               0.6
 (Enter /udrive/faculty/rpeverati/g16/g16/l103.exe)

 GradGradGradGradGradGradGradGradGradGradGradGradGradGradGradGradGradGrad
 Berny optimization.
 Optmz: redundant internal coordinate code flag= 1
 Red2BG:  D1=  2.66D-01 OD1=  1.23D-01 B2RMS=  0.00D+00 IAprox=0
 FormGI is forming the generalized inverse of G from B-inverse, IUseBI=4.
 Internal  Forces:  Max     0.007042541 RMS     0.002182600
 Search for a saddle point.
 Step number   2 out of a maximum of   50
 All quantities printed in internal units (Hartrees-Bohrs-Radians)
 Swapping is turned off.
 Update second derivatives using D2CorX and points    1    2
 The second derivative matrix:
                          R1        R2        R3        R4        R5
           R1           0.35742
           R2           0.00173   0.35775
           R3           0.00173   0.00153   0.35775
           R4           0.00812   0.00854   0.00854   0.12657
           R5          -0.01158  -0.01207  -0.01207   0.07480   0.14983
           A1           0.00100   0.00110   0.00110  -0.01080   0.01407
           A2           0.00095   0.00105   0.00105  -0.01060   0.01382
           A3          -0.00092  -0.00104  -0.00104   0.01155  -0.01510
           A4           0.00094   0.00104   0.00104  -0.01031   0.01344
           A5          -0.00139  -0.00152  -0.00152   0.01469  -0.01913
           A6          -0.00137  -0.00151  -0.00151   0.01463  -0.01905
           A7          -0.00940  -0.00861  -0.00861  -0.02592   0.03819
           A8           0.00000   0.00000   0.00000  -0.00000   0.00000
           D1           0.00321   0.00286   0.00286   0.01412  -0.02009
           D2           0.00002   0.00003   0.00003  -0.00046   0.00061
           D3           0.00003   0.00003   0.00003   0.00026  -0.00036
           D4           0.00001  -0.00000  -0.00000   0.00072  -0.00097
                          A1        A2        A3        A4        A5
           A1           0.15808
           A2          -0.00188   0.15816
           A3           0.00203   0.00198   0.15786
           A4          -0.00183  -0.00179   0.00193   0.15825
           A5           0.00262   0.00256  -0.00277   0.00250   0.15643
           A6           0.00261   0.00255  -0.00275   0.00248  -0.00355
           A7          -0.00267  -0.00246   0.00221  -0.00247   0.00372
           A8          -0.00000  -0.00000   0.00000  -0.00000   0.00000
           D1           0.00177   0.00168  -0.00164   0.00166  -0.00244
           D2          -0.00008  -0.00008   0.00008  -0.00007   0.00011
           D3           0.00004   0.00004  -0.00004   0.00004  -0.00005
           D4           0.00012   0.00011  -0.00012   0.00011  -0.00016
                          A6        A7        A8        D1        D2
           A6           0.15647
           A7           0.00367   0.04615
           A8           0.00000  -0.00000   0.00230
           D1          -0.00242  -0.01573   0.00000   0.00859
           D2           0.00011  -0.00003  -0.00000   0.00004   0.00230
           D3          -0.00005  -0.00017   0.00000   0.00005   0.00000
           D4          -0.00016  -0.00014   0.00000   0.00001   0.00000
                          D3        D4
           D3           0.00230
           D4          -0.00000   0.00229
 ITU=  0  0
 Eigenvectors of the second derivative matrix:
                           1         2         3         4         5
     Eigenvalues --    -0.00604   0.00230   0.03943   0.06666   0.06927
   1         R1         0.01187   0.00000  -0.01988  -0.00069   0.01330
   2         R2         0.01483   0.00000  -0.01914  -0.00065   0.01313
   3         R3         0.01483   0.00000  -0.01914  -0.00065   0.01313
   4         R4        -0.49164  -0.00000   0.03527  -0.00116  -0.08680
   5         R5         0.49232   0.00000  -0.02182   0.00144   0.06797
   6         A1        -0.11901  -0.00000   0.26862  -0.03069   0.39223
   7         A2        -0.10319  -0.00000   0.07224   0.42900  -0.27776
   8         A3         0.11326   0.00000  -0.15345   0.16852   0.18802
   9         A4        -0.09494  -0.00000   0.05619  -0.41047  -0.31620
  10         A5         0.14663   0.00000  -0.16215  -0.16113   0.17370
  11         A6         0.14655   0.00000  -0.19282   0.01268  -0.10026
  12         A7        -0.51991  -0.00000  -0.69945  -0.01345   0.21965
  13         A8        -0.00000   1.00000   0.00000  -0.00000   0.00000
  14         D1         0.39288   0.00000  -0.54741   0.02565   0.03262
  15         D2        -0.02094  -0.00000   0.16402  -0.03011   0.59450
  16         D3         0.00329   0.00000   0.06860  -0.55811   0.27168
  17         D4         0.02423   0.00000  -0.09543  -0.52800  -0.32282
                           6         7         8         9        10
     Eigenvalues --     0.12262   0.16000   0.16020   0.21548   0.35574
   1         R1        -0.05731   0.00057   0.00411   0.03347  -0.82080
   2         R2        -0.05669   0.00054   0.00407   0.03358   0.40390
   3         R3        -0.05669   0.00054   0.00407   0.03358   0.40390
   4         R4         0.60337   0.00265  -0.09325   0.61251   0.00049
   5         R5        -0.36741  -0.00152   0.03241   0.77920  -0.00032
   6         A1        -0.10133  -0.09266  -0.23361   0.00957   0.00027
   7         A2        -0.13910   0.30530   0.07592   0.02200   0.00026
   8         A3         0.22390  -0.48664   0.54267  -0.00961  -0.00032
   9         A4        -0.10987  -0.17182   0.27450   0.02595   0.00025
  10         A5         0.18436   0.73504   0.05570  -0.02532  -0.00034
  11         A6         0.04143  -0.30259  -0.74585  -0.03878  -0.00034
  12         A7        -0.42564   0.00309   0.01947   0.08043   0.00240
  13         A8        -0.00000   0.00000   0.00000   0.00000  -0.00000
  14         D1         0.42002  -0.00133  -0.01555  -0.06567  -0.00095
  15         D2         0.06307  -0.00003  -0.00137  -0.00433   0.00001
  16         D3         0.04039  -0.00003  -0.00103  -0.00379  -0.00001
  17         D4        -0.02268  -0.00000   0.00034   0.00054  -0.00002
                          11        12
     Eigenvalues --     0.35622   0.36456
   1         R1         0.00000   0.56670
   2         R2        -0.70711   0.57597
   3         R3         0.70711   0.57597
   4         R4        -0.00000   0.03980
   5         R5         0.00000  -0.09654
   6         A1        -0.00000  -0.00597
   7         A2        -0.00000  -0.00411
   8         A3         0.00000   0.00734
   9         A4        -0.00000  -0.00322
  10         A5         0.00000   0.00547
  11         A6         0.00000   0.00424
  12         A7        -0.00000  -0.06328
  13         A8        -0.00000   0.00000
  14         D1         0.00000   0.01692
  15         D2        -0.00000  -0.00114
  16         D3         0.00000  -0.00042
  17         D4         0.00000   0.00072
 RLam0= 3.84D-03.
 Iter=   1 RLamda= 0.00000000D+00 Sum=-4.20399949D-04.
 Iter=   2 RLamda=-4.20399949D-04 Sum=-4.18124009D-04.
 Iter=   3 RLamda=-4.18124009D-04 Sum=-4.18136241D-04.
 Iter=   4 RLamda=-4.18136241D-04 Sum=-4.18136176D-04.
 RFO step:  Lambda0=3.836504576D-03 Lambda=-4.18136241D-04.
 Linear search not attempted -- option 19 set.
 Maximum step size (   0.100) exceeded in Quadratic search.
    -- Step size scaled by   0.172
 Iteration  1 RMS(Cart)=  0.02494119 RMS(Int)=  0.00078371
 Iteration  2 RMS(Cart)=  0.00078206 RMS(Int)=  0.00013492
 Iteration  3 RMS(Cart)=  0.00000030 RMS(Int)=  0.00013492
 ITry= 1 IFail=0 DXMaxC= 5.53D-02 DCOld= 1.00D+10 DXMaxT= 1.00D-01 DXLimC= 3.00D+00 Rises=F
 ClnCor:  largest displacement from symmetrization is 1.48D-03 for atom     4.
 Variable       Old X    -DE/DX   Delta X   Delta X   Delta X     New X
                                 (Linear)    (Quad)   (Total)
    R1        2.05948  -0.00006   0.00000  -0.00082  -0.00082   2.05866
    R2        2.05808   0.00012   0.00000  -0.00107  -0.00062   2.05747
    R3        2.05808   0.00012   0.00000  -0.00107  -0.00062   2.05747
    R4        2.44004  -0.00525   0.00000   0.04841   0.04841   2.48845
    R5        2.29470   0.00704   0.00000  -0.04801  -0.04801   2.24669
    A1        1.99126  -0.00013   0.00000   0.01264   0.01154   2.00280
    A2        1.99126  -0.00039   0.00000   0.01041   0.01154   2.00280
    A3        1.81122   0.00012   0.00000  -0.01170  -0.01165   1.79957
    A4        1.99843  -0.00048   0.00000   0.00940   0.00873   2.00716
    A5        1.82099   0.00053   0.00000  -0.01492  -0.01505   1.80594
    A6        1.82099   0.00063   0.00000  -0.01496  -0.01505   1.80594
    A7        3.07754   0.00119   0.00000   0.06628   0.06628   3.14381
    A8        3.14159  -0.00000   0.00000   0.00000   0.00000   3.14159
    D1       -2.33945   0.00113   0.00000  -0.04041  -0.04054  -2.37998
    D2        2.09028   0.00013   0.00000   0.00264   0.00163   2.09191
    D3       -2.09028   0.00011   0.00000  -0.00014  -0.00163  -2.09191
    D4        2.10262  -0.00002   0.00000  -0.00278  -0.00325   2.09937
         Item               Value     Threshold  Converged?
 Maximum Force            0.007043     0.000450     NO 
 RMS     Force            0.002183     0.000300     NO 
 Maximum Displacement     0.055259     0.001800     NO 
 RMS     Displacement     0.024794     0.001200     NO 
 Predicted change in Energy= 5.593046D-04
 Lowest energy point so far.  Saving SCF results.
 Largest change from initial coordinates is atom    6       0.030 Angstoms.
 GradGradGradGradGradGradGradGradGradGradGradGradGradGradGradGradGradGrad

 Leave Link  103 at Wed Oct  7 13:42:26 2020, MaxMem=  2684354560 cpu:               2.1 elap:               0.6
 (Enter /udrive/faculty/rpeverati/g16/g16/l202.exe)
                          Input orientation:                          
 ---------------------------------------------------------------------
 Center     Atomic      Atomic             Coordinates (Angstroms)
 Number     Number       Type             X           Y           Z
 ---------------------------------------------------------------------
      1          6           0       -0.001406   -1.147679   -0.000000
      2          1           0       -1.063212   -1.391309    0.000000
      3          1           0        0.524890   -1.403045    0.918263
      4          1           0        0.524890   -1.403045   -0.918263
      5          1           0        0.002850    0.169145   -0.000000
      6          8           0        0.009333    1.358027    0.000000
 ---------------------------------------------------------------------
                    Distance matrix (angstroms):
                    1          2          3          4          5
     1  C    0.000000
     2  H    1.089398   0.000000
     3  H    1.088764   1.834507   0.000000
     4  H    1.088764   1.834507   1.836527   0.000000
     5  H    1.316830   1.889843   1.894074   1.894074   0.000000
     6  O    2.505728   2.951136   2.955085   2.955085   1.188900
                    6
     6  O    0.000000
 Stoichiometry    CH4O(3)
 Framework group  CS[SG(CH2O),X(H2)]
 Deg. of freedom     8
 Full point group                 CS      NOp   2
 RotChk:  IX=0 Diff= 1.92D-02
 Largest Abelian subgroup         CS      NOp   2
 Largest concise Abelian subgroup CS      NOp   2
                         Standard orientation:                         
 ---------------------------------------------------------------------
 Center     Atomic      Atomic             Coordinates (Angstroms)
 Number     Number       Type             X           Y           Z
 ---------------------------------------------------------------------
      1          6           0        0.000409   -1.144903   -0.000000
      2          1           0       -1.060343   -1.393083   -0.000000
      3          1           0        0.527795   -1.398012    0.918263
      4          1           0        0.527795   -1.398012   -0.918263
      5          1           0       -0.000979    0.171926    0.000000
      6          8           0        0.000409    1.360825    0.000000
 ---------------------------------------------------------------------
 Rotational constants (GHZ):         148.8932915           9.6308215           9.6299062
 Leave Link  202 at Wed Oct  7 13:42:27 2020, MaxMem=  2684354560 cpu:               1.2 elap:               0.5
 (Enter /udrive/faculty/rpeverati/g16/g16/l301.exe)
 Standard basis: 6-31G(d) (5D, 7F)
 Ernie: Thresh=  0.10000D-02 Tol=  0.10000D-05 Strict=F.
 There are    28 symmetry adapted cartesian basis functions of A'  symmetry.
 There are    10 symmetry adapted cartesian basis functions of A"  symmetry.
 There are    26 symmetry adapted basis functions of A'  symmetry.
 There are    10 symmetry adapted basis functions of A"  symmetry.
    36 basis functions,    72 primitive gaussians,    38 cartesian basis functions
    10 alpha electrons        8 beta electrons
       nuclear repulsion energy        30.8593477380 Hartrees.
 IExCor= 1009 DFT=T Ex+Corr=PBE1PBE ExCW=0 ScaHFX=  0.250000
 ScaDFX=  0.750000  0.750000  1.000000  1.000000 ScalE2=  1.000000  1.000000
 IRadAn=      5 IRanWt=     -1 IRanGd=            0 ICorTp=0 IEmpDi=  4
 NAtoms=    6 NActive=    6 NUniq=    5 SFac= 1.44D+00 NAtFMM=   60 NAOKFM=F Big=F
 Integral buffers will be    131072 words long.
 Raffenetti 2 integral format.
 Two-electron integral symmetry is turned on.
 Leave Link  301 at Wed Oct  7 13:42:27 2020, MaxMem=  2684354560 cpu:               2.0 elap:               0.7
 (Enter /udrive/faculty/rpeverati/g16/g16/l302.exe)
 NPDir=0 NMtPBC=     1 NCelOv=     1 NCel=       1 NClECP=     1 NCelD=      1
         NCelK=      1 NCelE2=     1 NClLst=     1 CellRange=     0.0.
 One-electron integrals computed using PRISM.
 One-electron integral symmetry used in STVInt
 NBasis=    36 RedAO= T EigKep=  1.16D-02  NBF=    26    10
 NBsUse=    36 1.00D-06 EigRej= -1.00D+00 NBFU=    26    10
 Precomputing XC quadrature grid using
 IXCGrd= 4 IRadAn=           5 IRanWt=          -1 IRanGd=           0 AccXCQ= 0.00D+00.
 Generated NRdTot=       0 NPtTot=           0 NUsed=           0 NTot=          32
 NSgBfM=    38    38    38    38    38 MxSgAt=     6 MxSgA2=     6.
 Leave Link  302 at Wed Oct  7 13:42:28 2020, MaxMem=  2684354560 cpu:               3.9 elap:               0.8
 (Enter /udrive/faculty/rpeverati/g16/g16/l303.exe)
 DipDrv:  MaxL=1.
 Leave Link  303 at Wed Oct  7 13:42:29 2020, MaxMem=  2684354560 cpu:               0.8 elap:               0.4
[...]
     14 -0.432085D-02 -0.436614D-02 -0.349591D-02  0.149339D-01 -0.729417D-02
     15  0.226890D-02  0.184120D-02 -0.568174D-02  0.181672D-02 -0.121406D-02
     16 -0.312877D-02  0.493146D-02 -0.265560D-02  0.115528D-02 -0.237571D-03
     17 -0.539766D-02  0.309025D-02  0.302614D-02 -0.661444D-03  0.976489D-03
                6             7             8             9            10 
      6  0.165868D-01
      7 -0.897380D-02  0.231781D-01
      8 -0.609503D-02 -0.107415D-01  0.424688D-01
      9 -0.906161D-02 -0.610056D-02  0.118465D-01  0.234800D-01
     10 -0.516944D-02  0.109547D-01 -0.190553D-01 -0.108798D-01  0.425921D-01
     11  0.132994D-01 -0.113800D-01 -0.163845D-01 -0.125461D-01 -0.165491D-01
     12  0.223927D-03  0.218639D-03 -0.390398D-02 -0.543606D-03  0.201073D-02
     13  0.361858D-04 -0.419071D-04  0.381414D-05 -0.227716D-05  0.953058D-03
     14 -0.535529D-02 -0.600136D-02  0.868156D-02 -0.614581D-02  0.835328D-02
     15  0.137883D-01 -0.985019D-02  0.272620D-02 -0.949156D-02  0.335049D-02
     16  0.709474D-02 -0.167672D-01  0.133721D-02  0.688814D-02  0.196789D-02
     17 -0.669360D-02 -0.691696D-02 -0.138899D-02  0.163797D-01 -0.138260D-02
               11            12            13            14            15 
     11  0.475664D-01
     12  0.201269D-02  0.273756D-01
     13 -0.945821D-03  0.000000D+00  0.404939D-02
     14  0.716148D-02  0.253337D-04 -0.577466D-05  0.234801D-01
     15  0.166650D-02 -0.519183D-03  0.412358D-03  0.813172D-03  0.175300D-01
     16  0.474868D-03  0.524229D-03  0.412799D-03  0.360496D-03  0.908900D-02
     17 -0.119163D-02  0.104341D-02  0.000000D+00 -0.452676D-03 -0.844105D-02
               16            17 
     16  0.177010D-01
     17  0.861201D-02  0.170531D-01
 Leave Link  716 at Wed Oct  7 13:43:52 2020, MaxMem=  2684354560 cpu:               2.6 elap:               0.7
 (Enter /udrive/faculty/rpeverati/g16/g16/l103.exe)

 GradGradGradGradGradGradGradGradGradGradGradGradGradGradGradGradGradGrad
 Berny optimization.
 Optmz: redundant internal coordinate code flag= 1
 Red2BG:  D1=  2.72D-01 OD1=  2.08D-14 B2RMS=  0.00D+00 IAprox=1
 Red2BG is reusing G-inverse.
 Internal  Forces:  Max     0.000136486 RMS     0.000068342
 Search for a local minimum.
 Step number   1 out of a maximum of    2
 All quantities printed in internal units (Hartrees-Bohrs-Radians)
 Second derivative matrix not updated -- analytic derivatives used.
 The second derivative matrix:
                          R1        R2        R3        R4        R5
           R1           0.36714
           R2          -0.00002   0.36845
           R3          -0.00002  -0.00023   0.36845
           R4           0.00162   0.00120   0.00120   0.05470
           R5          -0.00004  -0.00034  -0.00034   0.11052   0.11023
           A1           0.00238   0.00227  -0.00320  -0.00188   0.00091
           A2           0.00329  -0.00281   0.00353  -0.00499   0.00243
           A3           0.00152  -0.00241  -0.00300   0.00477  -0.00389
           A4          -0.00295   0.00335   0.00370  -0.00480   0.00236
           A5          -0.00245   0.00077  -0.00251   0.00510  -0.00172
           A6          -0.00278  -0.00227  -0.00008   0.00626  -0.00228
           A7          -0.00132   0.00071   0.00071  -0.00022   0.00005
           A8           0.00000  -0.00137   0.00137  -0.00000   0.00000
           D1          -0.00432  -0.00437  -0.00350   0.01493  -0.00729
           D2           0.00227   0.00184  -0.00568   0.00182  -0.00121
           D3          -0.00313   0.00493  -0.00266   0.00116  -0.00024
           D4          -0.00540   0.00309   0.00303  -0.00066   0.00098
                          A1        A2        A3        A4        A5
           A1           0.01659
           A2          -0.00897   0.02318
           A3          -0.00610  -0.01074   0.04247
           A4          -0.00906  -0.00610   0.01185   0.02348
           A5          -0.00517   0.01095  -0.01906  -0.01088   0.04259
           A6           0.01330  -0.01138  -0.01638  -0.01255  -0.01655
           A7           0.00022   0.00022  -0.00390  -0.00054   0.00201
           A8           0.00004  -0.00004   0.00000  -0.00000   0.00095
           D1          -0.00536  -0.00600   0.00868  -0.00615   0.00835
           D2           0.01379  -0.00985   0.00273  -0.00949   0.00335
           D3           0.00709  -0.01677   0.00134   0.00689   0.00197
           D4          -0.00669  -0.00692  -0.00139   0.01638  -0.00138
                          A6        A7        A8        D1        D2
           A6           0.04757
           A7           0.00201   0.02738
           A8          -0.00095   0.00000   0.00405
           D1           0.00716   0.00003  -0.00001   0.02348
           D2           0.00167  -0.00052   0.00041   0.00081   0.01753
           D3           0.00047   0.00052   0.00041   0.00036   0.00909
           D4          -0.00119   0.00104   0.00000  -0.00045  -0.00844
                          D3        D4
           D3           0.01770
           D4           0.00861   0.01705
 ITU=  0
 Eigenvectors of the second derivative matrix:
                           1         2         3         4         5
     Eigenvalues --    -0.03728   0.00399   0.02637   0.03645   0.04173
   1         R1         0.00622   0.00000   0.00196  -0.02202  -0.02070
   2         R2         0.00604   0.00426  -0.00011  -0.01243   0.02519
   3         R3         0.00663  -0.00426  -0.00042   0.00757   0.00308
   4         R4        -0.76283   0.00007   0.00501  -0.13269   0.04559
   5         R5         0.58858  -0.00006  -0.00812   0.12903  -0.03321
   6         A1        -0.04242  -0.00531  -0.03309   0.41128  -0.06814
   7         A2        -0.06007   0.00523  -0.02649   0.03202   0.30773
   8         A3         0.07995   0.00005  -0.13561  -0.02028   0.38613
   9         A4        -0.05913  -0.00002   0.04562  -0.07501  -0.34824
  10         A5         0.07034  -0.01815   0.07593  -0.13542  -0.27957
  11         A6         0.07316   0.01824   0.07764  -0.35064   0.04843
  12         A7        -0.00274  -0.00000  -0.97243  -0.12707  -0.17012
  13         A8        -0.00016   0.99945  -0.00025   0.01400  -0.01539
  14         D1         0.21380   0.00239   0.03117  -0.62218   0.15985
  15         D2         0.01250  -0.01288  -0.06055   0.39096  -0.03058
  16         D3         0.00579  -0.01287   0.05264   0.10940  -0.50996
  17         D4        -0.00671   0.00002   0.11319  -0.28156  -0.47938
                           6         7         8         9        10
     Eigenvalues --     0.04790   0.07477   0.07651   0.19656   0.36746
   1         R1         0.00191   0.00454   0.00194  -0.00459   0.99452
   2         R2        -0.00028  -0.00296  -0.00483  -0.00216   0.08306
   3         R3         0.02879   0.01007  -0.00782  -0.00172   0.05544
   4         R4         0.12948   0.03321  -0.01394   0.61666   0.00561
   5         R5        -0.12232  -0.03407   0.03083   0.78656   0.00252
   6         A1         0.10867   0.26474  -0.23940  -0.00121   0.00698
   7         A2        -0.28874  -0.44023  -0.09535  -0.00786   0.01004
   8         A3         0.34242   0.20916   0.59451  -0.00259   0.00346
   9         A4        -0.22362   0.03527   0.45248  -0.00866  -0.00768
  10         A5         0.43150  -0.56703  -0.27217   0.01179  -0.00722
  11         A6        -0.21423   0.55185  -0.48462   0.01524  -0.00900
  12         A7        -0.05209  -0.01811  -0.07883  -0.00011  -0.00375
  13         A8         0.02173  -0.01239   0.00222   0.00000  -0.00010
  14         D1         0.44215   0.05689  -0.03919   0.02196  -0.01432
  15         D2         0.42315   0.15292  -0.13318   0.00224   0.00623
  16         D3         0.26477   0.18571   0.05769   0.00372  -0.00889
  17         D4        -0.15838   0.03278   0.19086   0.00148  -0.01512
                          11        12
     Eigenvalues --     0.36855   0.36900
   1         R1        -0.09887   0.01223
   2         R2         0.75251  -0.65265
   3         R3         0.65032   0.75689
   4         R4         0.00373   0.00010
   5         R5         0.00065   0.00015
   6         A1        -0.00233  -0.01215
   7         A2        -0.00040   0.01442
   8         A3        -0.01147  -0.00221
   9         A4         0.01634   0.00192
  10         A5        -0.00251  -0.00715
  11         A6        -0.00497   0.00357
  12         A7         0.00344   0.00018
  13         A8        -0.00038   0.00524
  14         D1        -0.01546   0.00013
  15         D2        -0.00808  -0.01701
  16         D3         0.00692  -0.01635
  17         D4         0.01501   0.00066
 Eigenvalue     1 is  -3.73D-02 should be greater than     0.000000 Eigenvector:
                          R4        R5        D1        A3        A6
   1                   -0.76283   0.58858   0.21380   0.07995   0.07316
                          A5        A2        A4        A1        D2
   1                    0.07034  -0.06007  -0.05913  -0.04242   0.01250
 Angle between quadratic step and forces=  29.57 degrees.
 Linear search not attempted -- first point.
 Iteration  1 RMS(Cart)=  0.00115133 RMS(Int)=  0.00000185
 Iteration  2 RMS(Cart)=  0.00000105 RMS(Int)=  0.00000156
 Iteration  3 RMS(Cart)=  0.00000000 RMS(Int)=  0.00000156
 ITry= 1 IFail=0 DXMaxC= 2.14D-03 DCOld= 1.00D+10 DXMaxT= 3.00D-01 DXLimC= 3.00D+00 Rises=F
 ClnCor:  largest displacement from symmetrization is 2.35D-05 for atom     4.
 Variable       Old X    -DE/DX   Delta X   Delta X   Delta X     New X
                                 (Linear)    (Quad)   (Total)
    R1        2.05743   0.00008   0.00000   0.00035   0.00035   2.05778
    R2        2.05652   0.00003   0.00000   0.00006   0.00005   2.05658
    R3        2.05652   0.00003   0.00000   0.00006   0.00005   2.05658
    R4        2.59286  -0.00003   0.00000   0.00080   0.00080   2.59366
    R5        2.16361  -0.00014   0.00000  -0.00155  -0.00155   2.16206
    A1        2.00760  -0.00001   0.00000  -0.00091  -0.00089   2.00670
    A2        2.00760  -0.00003   0.00000  -0.00088  -0.00089   2.00670
    A3        1.78892  -0.00012   0.00000  -0.00194  -0.00194   1.78697
    A4        2.01311  -0.00002   0.00000   0.00032   0.00032   2.01343
    A5        1.80065   0.00010   0.00000   0.00197   0.00197   1.80262
    A6        1.80065   0.00010   0.00000   0.00197   0.00197   1.80262
    A7        3.12364   0.00006   0.00000   0.00142   0.00142   3.12505
    A8        3.14159  -0.00000   0.00000   0.00000   0.00000   3.14159
    D1       -2.40048   0.00008   0.00000   0.00216   0.00216  -2.39832
    D2        2.09079  -0.00002   0.00000  -0.00100  -0.00099   2.08981
    D3       -2.09079   0.00004   0.00000   0.00097   0.00099  -2.08981
    D4        2.10160   0.00006   0.00000   0.00196   0.00198   2.10357
         Item               Value     Threshold  Converged?
 Maximum Force            0.000136     0.000450     YES
 RMS     Force            0.000068     0.000300     YES
 Maximum Displacement     0.002145     0.001800     NO 
 RMS     Displacement     0.001153     0.001200     YES
 Predicted change in Energy=-6.871605D-07
                           ----------------------------
                           ! Non-Optimized Parameters !
                           ! (Angstroms and Degrees)  !
 --------------------------                            --------------------------
 ! Name  Definition              Value          Derivative Info.                !
 --------------------------------------------------------------------------------
 ! R1    R(1,2)                  1.0889         -DE/DX =    0.0001              !
 ! R2    R(1,3)                  1.0883         -DE/DX =    0.0                 !
 ! R3    R(1,4)                  1.0883         -DE/DX =    0.0                 !
 ! R4    R(1,5)                  1.3725         -DE/DX =    0.0                 !
 ! R5    R(5,6)                  1.1441         -DE/DX =   -0.0001              !
 ! A1    A(2,1,3)              114.9757         -DE/DX =    0.0                 !
 ! A2    A(2,1,4)              114.9757         -DE/DX =    0.0                 !
 ! A3    A(2,1,5)              102.386          -DE/DX =   -0.0001              !
 ! A4    A(3,1,4)              115.3613         -DE/DX =    0.0                 !
 ! A5    A(3,1,5)              103.2828         -DE/DX =    0.0001              !
 ! A6    A(4,1,5)              103.2828         -DE/DX =    0.0001              !
 ! A7    L(1,5,6,2,-1)         179.0523         -DE/DX =    0.0001              !
 ! A8    L(1,5,6,2,-2)         180.0            -DE/DX =    0.0                 !
 ! D1    D(2,1,4,3)           -137.4136         -DE/DX =    0.0001              !
 ! D2    D(2,1,5,3)            119.7371         -DE/DX =    0.0                 !
 ! D3    D(2,1,5,4)           -119.7371         -DE/DX =    0.0                 !
 ! D4    D(3,1,5,4)            120.5258         -DE/DX =    0.0001              !
 --------------------------------------------------------------------------------
 GradGradGradGradGradGradGradGradGradGradGradGradGradGradGradGradGradGrad

 Leave Link  103 at Wed Oct  7 13:43:53 2020, MaxMem=  2684354560 cpu:               2.1 elap:               0.7
 (Enter /udrive/faculty/rpeverati/g16/g16/l9999.exe)

 ----------------------------------------------------------------------

 Electric dipole moment (input orientation):
 (Debye = 10**-18 statcoulomb cm , SI units = C m)
                  (au)            (Debye)         (10**-30 SI)
   Tot        0.852230D+00      0.216615D+01      0.722551D+01
   x          0.131618D-02      0.334540D-02      0.111590D-01
   y         -0.852229D+00     -0.216615D+01     -0.722550D+01
   z          0.000000D+00      0.000000D+00      0.000000D+00

 Dipole polarizability, Alpha (input orientation).
 (esu units = cm**3 , SI units = C**2 m**2 J**-1)
 Alpha(0;0):
               (au)            (10**-24 esu)      (10**-40 SI)
   iso        0.198365D+02      0.293947D+01      0.327060D+01
   aniso      0.170368D+02      0.252460D+01      0.280899D+01
   xx         0.142898D+02      0.211753D+01      0.235607D+01
   yx        -0.767586D-01     -0.113744D-01     -0.126558D-01
   yy         0.311931D+02      0.462234D+01      0.514304D+01
   zx         0.000000D+00      0.000000D+00      0.000000D+00
   zy         0.000000D+00      0.000000D+00      0.000000D+00
   zz         0.140268D+02      0.207855D+01      0.231270D+01

 ----------------------------------------------------------------------

 Dipole orientation:
     6         -0.00106013         -0.00000164          2.19670086
     1         -2.01360276         -0.00310980          2.62411766
     1          0.98703510          1.73927950          2.67404237
     1          0.99240266         -1.73622246          2.67404237
     1          0.02189213          0.00003381         -0.39606014
     8          0.00219639          0.00000339         -2.55958179

 Electric dipole moment (dipole orientation):
 (Debye = 10**-18 statcoulomb cm , SI units = C m)
                  (au)            (Debye)         (10**-30 SI)
   Tot        0.852230D+00      0.216615D+01      0.722551D+01
   x          0.000000D+00      0.000000D+00      0.000000D+00
   y          0.000000D+00      0.000000D+00      0.000000D+00
   z          0.852230D+00      0.216615D+01      0.722551D+01

 Dipole polarizability, Alpha (dipole orientation).
 (esu units = cm**3 , SI units = C**2 m**2 J**-1)
 Alpha(0;0):
               (au)            (10**-24 esu)      (10**-40 SI)
   iso        0.198365D+02      0.293947D+01      0.327060D+01
   aniso      0.170368D+02      0.252460D+01      0.280899D+01
   xx         0.142896D+02      0.211750D+01      0.235604D+01
   yx         0.409688D-03      0.607095D-04      0.675484D-04
   yy         0.140268D+02      0.207855D+01      0.231270D+01
   zx         0.506528D-01      0.750598D-02      0.835153D-02
   zy         0.792308D-04      0.117408D-04      0.130634D-04
   zz         0.311933D+02      0.462237D+01      0.514307D+01

 ----------------------------------------------------------------------

 Test job not archived.
 1\1\GINC-NODE20\Freq\UPBE1PBE\6-31G(d)\C1H4O1(3)\RPEVERATI\07-Oct-2020
 \0\\#P Freq PBE1PBE/6-31G* 5D 7F Integral=UltraFineGrid SCF=(NoSymm,XQ
 C,MaxCyc=120) IOp(1/33=1) Geom=Check Guess=Read\\TS search on BH76.\\0
 ,3\C,0.0012342767,-1.1624435135,0.\H,-1.0634081082,-1.3902672468,0.\H,
 0.52592206,-1.414231738,0.919579313\H,0.52592206,-1.414231738,-0.91957
 9313\H,0.011261132,0.2096036396,0.\O,-0.0009295591,1.3544725333,0.\\Ve
 rsion=ES64L-G16RevA.03\State=3-A'\HF=-115.4210766\S2=2.011471\S2-1=0.\
 S2A=2.000044\RMSD=3.519e-10\RMSF=1.123e-04\ZeroPoint=0.0392807\Thermal
 =0.0430462\Dipole=0.0013162,-0.8522289,0.\DipoleDeriv=-0.0131179,0.000
 2752,0.0000004,-0.0115428,0.493867,0.,-0.0000035,0.0000008,-0.014873,-
 0.0389984,0.0054582,0.,-0.0413424,0.0076934,0.,0.0000013,-0.0000003,0.
 0757819,0.0501662,-0.0015823,-0.0466638,0.025419,0.004344,0.0474667,-0
 .0496995,-0.0032965,-0.0079443,0.0501662,-0.0015823,0.0466638,0.025419
 ,0.004344,-0.0474664,0.0496995,0.0032964,-0.0079444,0.2118095,0.003685
 ,-0.0000002,0.0045538,-0.6479403,-0.0000002,-0.0000004,0.,0.2070892,-0
 .2600261,-0.0062535,-0.0000002,-0.0025057,0.1376917,0.,0.0000008,-0.00
 00002,-0.2521095\Polar=14.2897932,-0.0767586,31.1930701,0.0000038,-0.0
 00001,14.0267676\Quadrupole=1.0148116,-1.182359,0.1675474,0.004274,0.,
 0.\PG=CS [SG(C1H2O1),X(H2)]\NImag=1\\0.59881486,-0.00852829,0.14066821
 ,0.00000038,-0.00000006,0.60530364,-0.33549152,-0.06011299,-0.00000006
 ,0.35317945,-0.07165691,-0.03760087,0.00000003,0.06767017,0.03959181,-
 0.00000014,0.00000002,-0.05582283,0.00000002,-0.00000001,0.04673499,-0
 .12185303,0.03415026,-0.11936729,-0.00858774,0.00886629,-0.02475957,0.
 12090161,0.03937919,-0.04083431,0.06791386,-0.00413675,0.00450109,-0.0
 0675591,-0.03760924,0.04260149,-0.12067010,0.05816839,-0.26695958,0.00
 298819,-0.00004616,0.00446897,0.13101538,-0.06458278,0.27683990,-0.121
 85303,0.03415026,0.11936730,-0.00858774,0.00886629,0.02475956,0.009790
 83,-0.00428320,-0.01335967,0.12090161,0.03937919,-0.04083431,-0.067913
 65,-0.00413675,0.00450109,0.00675584,-0.00428320,0.00488620,0.00744211
 ,-0.03760924,0.04260149,0.12067010,-0.05816839,-0.26695964,-0.00298819
 ,0.00004616,0.00446900,0.01335967,-0.00744211,-0.01410456,-0.13101538,
 0.06458278,0.27683990,-0.02539655,-0.00113960,-0.00000017,-0.00093062,
 -0.01469734,0.00000006,-0.00017427,0.00724994,-0.00024701,-0.00017427,
 0.00724994,0.00024701,0.03864165,0.00031855,0.10512842,-0.00000023,0.0
 0195536,-0.01700334,0.00000008,-0.00130925,-0.01615582,-0.00184421,-0.
 00130925,-0.01615582,0.00184421,0.00050256,-0.05611149,0.00000004,0.,-
 0.01467675,0.,0.,-0.00008896,-0.00059764,0.01076318,-0.00140014,0.0005
 9764,-0.01076315,-0.00140015,-0.00000002,-0.00000002,0.02200566,0.0057
 7933,0.00148035,-0.00000016,0.00041815,0.00095150,0.00000006,-0.000077
 41,-0.00059992,0.00027321,-0.00007741,-0.00059992,-0.00027321,-0.01196
 597,-0.00015800,-0.00000002,0.00592328,0.00110818,-0.12652712,0.000000
 05,-0.00123903,0.00601022,-0.00000002,0.00018514,0.00500133,0.00086264
 ,0.00018514,0.00500133,-0.00086264,0.00083455,0.00029811,0.,-0.0010739
 7,0.11021613,-0.00000009,0.00000002,-0.00088484,0.00000001,0.,0.000238
 83,0.00034946,0.00010381,0.00115543,-0.00034946,-0.00010386,0.00115545
 ,0.00000004,0.00000005,-0.00443967,0.00000004,-0.00000001,0.00277480\\
 -0.00030139,-0.00022545,0.,0.00008499,0.00000642,0.,0.00004734,0.00009
 544,-0.00003177,0.00004734,0.00009544,0.00003177,0.00014910,-0.0001080
 5,0.,-0.00002737,0.00013620,0.\\\@


 MUD THROWN IS GROUND LOST -- FROM A TEA BAG
 Job cpu time:       0 days  0 hours  2 minutes 16.5 seconds.
 Elapsed time:       0 days  0 hours  0 minutes 19.0 seconds.
 File lengths (MBytes):  RWF=      7 Int=      0 D2E=      0 Chk=      1 Scr=      1
 Normal termination of Gaussian 16 at Wed Oct  7 13:43:54 2020.
