 Entering Gaussian System, Link 0=g16
 Input=MN_81_RKT04_BH76_PBE0_631Gs.in
 Output=MN_81_RKT04_BH76_PBE0_631Gs.log
 Initial command:
 /udrive/faculty/rpeverati/g16/g16/l1.exe "/udrive/scratch-directories/gaussian09/rpeverati/Gau-21789.inp" -scrdir="/udrive/scratch-directories/gaussian09/rpeverati/"
 Entering Link 1 = /udrive/faculty/rpeverati/g16/g16/l1.exe PID=     21806.
  
 Copyright (c) 1988,1990,1992,1993,1995,1998,2003,2009,2016,
            Gaussian, Inc.  All Rights Reserved.
  
 This is part of the Gaussian(R) 16 program.  It is based on
 the Gaussian(R) 09 system (copyright 2009, Gaussian, Inc.),
 the Gaussian(R) 03 system (copyright 2003, Gaussian, Inc.),
 the Gaussian(R) 98 system (copyright 1998, Gaussian, Inc.),
 the Gaussian(R) 94 system (copyright 1995, Gaussian, Inc.),
 the Gaussian 92(TM) system (copyright 1992, Gaussian, Inc.),
 the Gaussian 90(TM) system (copyright 1990, Gaussian, Inc.),
 the Gaussian 88(TM) system (copyright 1988, Gaussian, Inc.),
 the Gaussian 86(TM) system (copyright 1986, Carnegie Mellon
 University), and the Gaussian 82(TM) system (copyright 1983,
 Carnegie Mellon University). Gaussian is a federally registered
 trademark of Gaussian, Inc.
  
 This software contains proprietary and confidential information,
 including trade secrets, belonging to Gaussian, Inc.
  
 This software is provided under written license and may be
 used, copied, transmitted, or stored only in accord with that
 written license.
  
 The following legend is applicable only to US Government
 contracts under FAR:
  
                    RESTRICTED RIGHTS LEGEND
  
 Use, reproduction and disclosure by the US Government is
 subject to restrictions as set forth in subparagraphs (a)
 and (c) of the Commercial Computer Software - Restricted
 Rights clause in FAR 52.227-19.
  
 Gaussian, Inc.
 340 Quinnipiac St., Bldg. 40, Wallingford CT 06492
  
  
 ---------------------------------------------------------------
 Warning -- This program may not be used in any manner that
 competes with the business of Gaussian, Inc. or will provide
 assistance to any competitor of Gaussian, Inc.  The licensee
 of this program is prohibited from giving any competitor of
 Gaussian, Inc. access to this program.  By using this program,
 the user acknowledges that Gaussian, Inc. is engaged in the
 business of creating and licensing software in the field of
 computational chemistry and represents and warrants to the
 licensee that it is not a competitor of Gaussian, Inc. and that
 it will not use this program in any manner prohibited above.
 ---------------------------------------------------------------
  

 Cite this work as:
 Gaussian 16, Revision A.03,
 M. J. Frisch, G. W. Trucks, H. B. Schlegel, G. E. Scuseria, 
 M. A. Robb, J. R. Cheeseman, G. Scalmani, V. Barone, 
 G. A. Petersson, H. Nakatsuji, X. Li, M. Caricato, A. V. Marenich, 
 J. Bloino, B. G. Janesko, R. Gomperts, B. Mennucci, H. P. Hratchian, 
 J. V. Ortiz, A. F. Izmaylov, J. L. Sonnenberg, D. Williams-Young, 
 F. Ding, F. Lipparini, F. Egidi, J. Goings, B. Peng, A. Petrone, 
 T. Henderson, D. Ranasinghe, V. G. Zakrzewski, J. Gao, N. Rega, 
 G. Zheng, W. Liang, M. Hada, M. Ehara, K. Toyota, R. Fukuda, 
 J. Hasegawa, M. Ishida, T. Nakajima, Y. Honda, O. Kitao, H. Nakai, 
 T. Vreven, K. Throssell, J. A. Montgomery, Jr., J. E. Peralta, 
 F. Ogliaro, M. J. Bearpark, J. J. Heyd, E. N. Brothers, K. N. Kudin, 
 V. N. Staroverov, T. A. Keith, R. Kobayashi, J. Normand, 
 K. Raghavachari, A. P. Rendell, J. C. Burant, S. S. Iyengar, 
 J. Tomasi, M. Cossi, J. M. Millam, M. Klene, C. Adamo, R. Cammi, 
 J. W. Ochterski, R. L. Martin, K. Morokuma, O. Farkas, 
 J. B. Foresman, and D. J. Fox, Gaussian, Inc., Wallingford CT, 2016.
 
 ******************************************
 Gaussian 16:  ES64L-G16RevA.03 25-Dec-2016
                 9-Oct-2020 
 ******************************************
 %NoSave
 %nproc=12
 Will use up to   12 processors via shared memory.
 %mem=20GB
 %chk=MN_81_RKT04_BH76_PBE0_631Gs
 ----------------------------------------------------------------------
 #P Opt(TS,MaxCyc=50,NoEigenTest,MaxStep=10,AddRedundant) PBE1PBE/6-31G
 * 5D 7F Integral=UltraFineGrid SCF=(NoSymm,XQC,MaxCyc=120) IOp(1/33=1)
 ----------------------------------------------------------------------
 1/5=1,6=50,8=10,11=1,18=120,26=4,33=1,38=1/1,3;
 2/9=110,12=2,17=6,18=5,40=1/2;
 3/5=1,6=6,7=1,8=11,11=2,25=1,30=1,71=1,74=-13,75=-5/1,2,3;
 4/9=2/1;
 5/5=2,7=120,8=3,13=1,38=5/2,8;
 6/7=2,8=2,9=2,10=2,28=1/1;
 7//1,2,3,16;
 1/5=1,6=50,8=10,11=1,18=20,26=4,33=1/3(2);
 2/9=110/2;
 99//99;
 2/9=110/2;
 3/5=1,6=6,7=1,8=11,11=2,25=1,30=1,71=1,74=-13,75=-5/1,2,3;
 4/5=5,9=2,16=3,69=1/1;
 5/5=2,7=120,8=3,13=1,38=5/2,8;
 7//1,2,3,16;
 1/5=1,6=50,8=10,11=1,18=20,26=4,33=1/3(-5);
 2/9=110/2;
 6/7=2,8=2,9=2,10=2,19=2,28=1/1;
 99/9=1/99;
 Leave Link    1 at Fri Oct  9 10:59:21 2020, MaxMem=  2684354560 cpu:               1.9 elap:               0.2
 (Enter /udrive/faculty/rpeverati/g16/g16/l101.exe)
 ONIOM results not found on unit 2.
 ------------------
 TS search on BH76.
 ------------------
 TstMul:  ICh=     0
 TstMul:  Mul=     2
 TstMul:  ICh=     0
 TstMul:  Mul=     2
 Symbolic Z-matrix:
 Charge =  0 Multiplicity = 2
 C                    -1.21149   0.00797   0.00041 
 O                     1.29397  -0.10869   0.00013 
 H                     0.00948  -0.11802   0.0028 
 H                    -1.52553  -0.23325   1.01007 
 H                    -1.43067   1.03323  -0.27808 
 H                    -1.55271  -0.71011  -0.7377 
 H                     1.41664   0.8499   -0.00059 
 
 RdStrC is calling ZToCFu for IStruc=1 NZ=     7.
 PrtBox:  NBox=     1 Levels=  1 BoxLen=    8.00 SMaxX=        5.61
          Shift=            2.934200            1.341920            1.394060
 Box      1 Number                   0 centers from      1 to      7:
 After GenITR:
 ITRead=  0  0  0  0  0  0  0
 MicOpt= -1 -1 -1 -1 -1 -1 -1
 Add virtual bond connecting atoms H3         and O2         Dist= 2.43D+00.
 The following ModRedundant input section has been read:
 B       1       3 D                                                           
 B       2       3 D                                                           
 
 ITRead=  0  0  0  0  0  0  0
 MicOpt= -1 -1 -1 -1 -1 -1 -1
 NAtoms=      7 NQM=        7 NQMF=       0 NMMI=      0 NMMIF=      0
                NMic=       0 NMicF=      0.
                    Isotopes and Nuclear Properties:
 (Nuclear quadrupole moments (NQMom) in fm**2, nuclear magnetic moments (NMagM)
  in nuclear magnetons)

  Atom         1           2           3           4           5           6           7
 IAtWgt=          12          16           1           1           1           1           1
 AtmWgt=  12.0000000  15.9949146   1.0078250   1.0078250   1.0078250   1.0078250   1.0078250
 NucSpn=           0           0           1           1           1           1           1
 AtZEff=   0.0000000   0.0000000   0.0000000   0.0000000   0.0000000   0.0000000   0.0000000
 NQMom=    0.0000000   0.0000000   0.0000000   0.0000000   0.0000000   0.0000000   0.0000000
 NMagM=    0.0000000   0.0000000   2.7928460   2.7928460   2.7928460   2.7928460   2.7928460
 AtZNuc=   6.0000000   8.0000000   1.0000000   1.0000000   1.0000000   1.0000000   1.0000000
 No MM parameters found.
 Leave Link  101 at Fri Oct  9 10:59:21 2020, MaxMem=  2684354560 cpu:               5.3 elap:               0.5
 (Enter /udrive/faculty/rpeverati/g16/g16/l103.exe)

 GradGradGradGradGradGradGradGradGradGradGradGradGradGradGradGradGradGrad
 Berny optimization.
 Optmz: redundant internal coordinate code flag= 1
 Initialization pass.
                           ----------------------------
                           !    Initial Parameters    !
                           ! (Angstroms and Degrees)  !
 --------------------------                            --------------------------
 ! Name  Definition              Value          Derivative Info.                !
 --------------------------------------------------------------------------------
 ! R1    R(1,3)                  1.2274         calc D2E/DXDY, step=    0.0026  !
 ! R2    R(1,4)                  1.0845         estimate D2E/DX2                !
 ! R3    R(1,5)                  1.0848         estimate D2E/DX2                !
 ! R4    R(1,6)                  1.0848         estimate D2E/DX2                !
 ! R5    R(2,3)                  1.2845         calc D2E/DXDY, step=    0.0026  !
 ! R6    R(2,7)                  0.9664         estimate D2E/DX2                !
 ! A1    A(3,1,4)              105.2711         estimate D2E/DX2                !
 ! A2    A(3,1,5)              107.367          estimate D2E/DX2                !
 ! A3    A(3,1,6)              104.2563         estimate D2E/DX2                !
 ! A4    A(4,1,5)              112.9983         estimate D2E/DX2                !
 ! A5    A(4,1,6)              113.273          estimate D2E/DX2                !
 ! A6    A(5,1,6)              112.7916         estimate D2E/DX2                !
 ! A7    A(3,2,7)               97.7088         estimate D2E/DX2                !
 ! A8    L(1,3,2,7,-1)         173.692          estimate D2E/DX2                !
 ! A9    L(1,3,2,7,-2)         180.3499         estimate D2E/DX2                !
 ! D1    D(4,1,2,7)           -104.2472         estimate D2E/DX2                !
 ! D2    D(5,1,2,7)             15.3168         estimate D2E/DX2                !
 ! D3    D(6,1,2,7)            134.7639         estimate D2E/DX2                !
 --------------------------------------------------------------------------------
 Maximum allowed force set to 1.00D+20.
 Trust Radius=1.00D-01 FncErr=1.00D-07 GrdErr=1.00D-06 EigMax=2.50D+02 EigMin=1.00D-04
 Number of steps in this run=     50 maximum allowed number of steps=    100.
 Search for a saddle point of order  1.
 GradGradGradGradGradGradGradGradGradGradGradGradGradGradGradGradGradGrad

 Leave Link  103 at Fri Oct  9 10:59:22 2020, MaxMem=  2684354560 cpu:               0.2 elap:               0.1
 (Enter /udrive/faculty/rpeverati/g16/g16/l202.exe)
                          Input orientation:                          
 ---------------------------------------------------------------------
 Center     Atomic      Atomic             Coordinates (Angstroms)
 Number     Number       Type             X           Y           Z
 ---------------------------------------------------------------------
      1          6           0       -1.211488    0.007968    0.000407
      2          8           0        1.293965   -0.108694    0.000133
      3          1           0        0.009476   -0.118020    0.002799
      4          1           0       -1.525528   -0.233250    1.010072
      5          1           0       -1.430668    1.033234   -0.278082
      6          1           0       -1.552712   -0.710113   -0.737705
      7          1           0        1.416639    0.849896   -0.000591
 ---------------------------------------------------------------------
                    Distance matrix (angstroms):
                    1          2          3          4          5
     1  C    0.000000
     2  O    2.508168   0.000000
     3  H    1.227449   1.284526   0.000000
     4  H    1.084542   2.997505   1.839596   0.000000
     5  H    1.084789   2.967327   1.865019   1.808956   0.000000
     6  H    1.084843   3.001613   1.827389   1.811867   1.807044
     7  H    2.759691   0.966408   1.707917   3.294084   2.866665
                    6          7
     6  H    0.000000
     7  H    3.434241   0.000000
 Stoichiometry    CH5O(2)
 Framework group  C1[X(CH5O)]
 Deg. of freedom    15
 Full point group                 C1      NOp   1
 Largest Abelian subgroup         C1      NOp   1
 Largest concise Abelian subgroup C1      NOp   1
                         Standard orientation:                         
 ---------------------------------------------------------------------
 Center     Atomic      Atomic             Coordinates (Angstroms)
 Number     Number       Type             X           Y           Z
 ---------------------------------------------------------------------
      1          6           0       -1.211488    0.007968    0.000407
      2          8           0        1.293965   -0.108694    0.000133
      3          1           0        0.009476   -0.118020    0.002799
      4          1           0       -1.525528   -0.233250    1.010072
      5          1           0       -1.430668    1.033235   -0.278082
      6          1           0       -1.552712   -0.710113   -0.737705
      7          1           0        1.416639    0.849895   -0.000591
 ---------------------------------------------------------------------
 Rotational constants (GHZ):         120.8646308           9.2474374           9.1021904
 Leave Link  202 at Fri Oct  9 10:59:22 2020, MaxMem=  2684354560 cpu:               0.2 elap:               0.1
 (Enter /udrive/faculty/rpeverati/g16/g16/l301.exe)
 Standard basis: 6-31G(d) (5D, 7F)
 Ernie: Thresh=  0.10000D-02 Tol=  0.10000D-05 Strict=F.
 There are    40 symmetry adapted cartesian basis functions of A   symmetry.
 There are    38 symmetry adapted basis functions of A   symmetry.
    38 basis functions,    76 primitive gaussians,    40 cartesian basis functions
    10 alpha electrons        9 beta electrons
       nuclear repulsion energy        37.1187830199 Hartrees.
 IExCor= 1009 DFT=T Ex+Corr=PBE1PBE ExCW=0 ScaHFX=  0.250000
 ScaDFX=  0.750000  0.750000  1.000000  1.000000 ScalE2=  1.000000  1.000000
 IRadAn=      5 IRanWt=     -1 IRanGd=            0 ICorTp=0 IEmpDi=  4
 NAtoms=    7 NActive=    7 NUniq=    7 SFac= 1.00D+00 NAtFMM=   60 NAOKFM=F Big=F
 Integral buffers will be    131072 words long.
 Raffenetti 2 integral format.
 Two-electron integral symmetry is turned on.
 Leave Link  301 at Fri Oct  9 10:59:22 2020, MaxMem=  2684354560 cpu:               0.7 elap:               0.1
 (Enter /udrive/faculty/rpeverati/g16/g16/l302.exe)
 NPDir=0 NMtPBC=     1 NCelOv=     1 NCel=       1 NClECP=     1 NCelD=      1
         NCelK=      1 NCelE2=     1 NClLst=     1 CellRange=     0.0.
 One-electron integrals computed using PRISM.
 One-electron integral symmetry used in STVInt
 NBasis=    38 RedAO= T EigKep=  1.02D-02  NBF=    38
 NBsUse=    38 1.00D-06 EigRej= -1.00D+00 NBFU=    38
 Precomputing XC quadrature grid using
 IXCGrd= 4 IRadAn=           5 IRanWt=          -1 IRanGd=           0 AccXCQ= 0.00D+00.
 Generated NRdTot=       0 NPtTot=           0 NUsed=           0 NTot=          32
 NSgBfM=    40    40    40    40    40 MxSgAt=     7 MxSgA2=     7.
 Leave Link  302 at Fri Oct  9 10:59:22 2020, MaxMem=  2684354560 cpu:               2.6 elap:               0.3
 (Enter /udrive/faculty/rpeverati/g16/g16/l303.exe)
 DipDrv:  MaxL=1.
 Leave Link  303 at Fri Oct  9 10:59:22 2020, MaxMem=  2684354560 cpu:               0.3 elap:               0.1
 (Enter /udrive/faculty/rpeverati/g16/g16/l401.exe)
 SCF N**3 symmetry information disabled.
 ExpMin= 1.61D-01 ExpMax= 5.48D+03 ExpMxC= 8.25D+02 IAcc=3 IRadAn=         5 AccDes= 0.00D+00
 Harris functional with IExCor= 1009 and IRadAn=       5 diagonalized for initial guess.
 HarFok:  IExCor= 1009 AccDes= 0.00D+00 IRadAn=         5 IDoV= 1 UseB2=F ITyADJ=14
 ICtDFT=  3500011 ScaDFX=  1.000000  1.000000  1.000000  1.000000
 FoFCou: FMM=F IPFlag=           0 FMFlag=      100000 FMFlg1=           0
         NFxFlg=           0 DoJE=T BraDBF=F KetDBF=T FulRan=T
         wScrn=  0.000000 ICntrl=       500 IOpCl=  0 I1Cent=   200000004 NGrid=           0
         NMat0=    1 NMatS0=      1 NMatT0=    0 NMatD0=    1 NMtDS0=    0 NMtDT0=    0
 Petite list used in FoFCou.
 Harris En= -116.134926279624    
 JPrj=0 DoOrth=F DoCkMO=F.
 Initial guess <Sx>= 0.0000 <Sy>= 0.0000 <Sz>= 0.5000 <S**2>= 0.7500 S= 0.5000
 Leave Link  401 at Fri Oct  9 10:59:23 2020, MaxMem=  2684354560 cpu:               5.2 elap:               0.5
 (Enter /udrive/faculty/rpeverati/g16/g16/l502.exe)
 Keep R1 and R2 ints in memory in canonical form, NReq=10906541.
 FoFCou: FMM=F IPFlag=           0 FMFlag=           0 FMFlg1=           0
         NFxFlg=           0 DoJE=F BraDBF=F KetDBF=F FulRan=T
         wScrn=  0.000000 ICntrl=       600 IOpCl=  0 I1Cent=           0 NGrid=           0
         NMat0=    1 NMatS0=    741 NMatT0=    0 NMatD0=    1 NMtDS0=    0 NMtDT0=    0
 Symmetry not used in FoFCou.
 Two-electron integral symmetry not used.
 UHF open shell SCF:
 Using DIIS extrapolation, IDIIS=  1040.
 NGot=  2684354560 LenX=  2683800373 LenY=  2683798332
 Requested convergence on RMS density matrix=1.00D-08 within 120 cycles.
 Requested convergence on MAX density matrix=1.00D-06.
 Requested convergence on             energy=1.00D-06.
 No special actions if energy rises.
 Integral accuracy reduced to 1.0D-05 until final iterations.

 Cycle   1  Pass 0  IDiag  1:
 E= -116.008195858577    
 DIIS: error= 5.31D-02 at cycle   1 NSaved=   1.
 NSaved= 1 IEnMin= 1 EnMin= -116.008195858577     IErMin= 1 ErrMin= 5.31D-02
 ErrMax= 5.31D-02  0.00D+00 EMaxC= 1.00D-01 BMatC= 3.27D-01 BMatP= 3.27D-01
 IDIUse=3 WtCom= 4.69D-01 WtEn= 5.31D-01
 Coeff-Com:  0.100D+01
 Coeff-En:   0.100D+01
 Coeff:      0.100D+01
 Gap=     0.303 Goal=   None    Shift=    0.000
 Gap=     0.168 Goal=   None    Shift=    0.000
 GapD=    0.168 DampG=1.000 DampE=0.500 DampFc=0.5000 IDamp=-1.
 Damping current iteration by 5.00D-01
 RMSDP=1.28D-02 MaxDP=1.18D-01              OVMax= 1.45D-01

 Cycle   2  Pass 0  IDiag  1:
 E= -116.047885817744     Delta-E=       -0.039689959167 Rises=F Damp=T
 DIIS: error= 9.28D-03 at cycle   2 NSaved=   2.
 NSaved= 2 IEnMin= 2 EnMin= -116.047885817744     IErMin= 2 ErrMin= 9.28D-03
 ErrMax= 9.28D-03  0.00D+00 EMaxC= 1.00D-01 BMatC= 1.08D-02 BMatP= 3.27D-01
 IDIUse=3 WtCom= 9.07D-01 WtEn= 9.28D-02
 Coeff-Com:  0.348D-01 0.965D+00
 Coeff-En:   0.000D+00 0.100D+01
 Coeff:      0.316D-01 0.968D+00
 Gap=     0.387 Goal=   None    Shift=    0.000
 Gap=     0.177 Goal=   None    Shift=    0.000
 RMSDP=2.19D-03 MaxDP=2.64D-02 DE=-3.97D-02 OVMax= 7.03D-02

 Cycle   3  Pass 0  IDiag  1:
 E= -116.089035970969     Delta-E=       -0.041150153225 Rises=F Damp=F
 DIIS: error= 6.24D-03 at cycle   3 NSaved=   3.
 NSaved= 3 IEnMin= 3 EnMin= -116.089035970969     IErMin= 3 ErrMin= 6.24D-03
 ErrMax= 6.24D-03  0.00D+00 EMaxC= 1.00D-01 BMatC= 4.64D-03 BMatP= 1.08D-02
 IDIUse=3 WtCom= 9.38D-01 WtEn= 6.24D-02
 Coeff-Com:  0.217D-02 0.352D+00 0.646D+00
 Coeff-En:   0.000D+00 0.000D+00 0.100D+01
 Coeff:      0.204D-02 0.330D+00 0.668D+00
 Gap=     0.391 Goal=   None    Shift=    0.000
 Gap=     0.167 Goal=   None    Shift=    0.000
 RMSDP=1.12D-03 MaxDP=1.59D-02 DE=-4.12D-02 OVMax= 3.71D-02

 Cycle   4  Pass 0  IDiag  1:
 E= -116.089705752275     Delta-E=       -0.000669781306 Rises=F Damp=F
 DIIS: error= 6.75D-03 at cycle   4 NSaved=   4.
 NSaved= 4 IEnMin= 4 EnMin= -116.089705752275     IErMin= 3 ErrMin= 6.24D-03
 ErrMax= 6.75D-03  0.00D+00 EMaxC= 1.00D-01 BMatC= 2.89D-03 BMatP= 4.64D-03
 IDIUse=3 WtCom= 9.32D-01 WtEn= 6.75D-02
 Coeff-Com:  0.240D-02-0.778D-01 0.435D+00 0.640D+00
 Coeff-En:   0.000D+00 0.000D+00 0.333D+00 0.667D+00
 Coeff:      0.224D-02-0.725D-01 0.429D+00 0.642D+00
 Gap=     0.392 Goal=   None    Shift=    0.000
 Gap=     0.177 Goal=   None    Shift=    0.000
 RMSDP=6.38D-04 MaxDP=7.96D-03 DE=-6.70D-04 OVMax= 9.64D-03

 Cycle   5  Pass 0  IDiag  1:
 E= -116.090371856972     Delta-E=       -0.000666104696 Rises=F Damp=F
 DIIS: error= 4.93D-04 at cycle   5 NSaved=   5.
 NSaved= 5 IEnMin= 5 EnMin= -116.090371856972     IErMin= 5 ErrMin= 4.93D-04
 ErrMax= 4.93D-04  0.00D+00 EMaxC= 1.00D-01 BMatC= 1.99D-05 BMatP= 2.89D-03
 IDIUse=3 WtCom= 9.95D-01 WtEn= 4.93D-03
 Coeff-Com: -0.887D-03-0.185D-01-0.390D-01-0.353D-01 0.109D+01
 Coeff-En:   0.000D+00 0.000D+00 0.000D+00 0.000D+00 0.100D+01
 Coeff:     -0.883D-03-0.184D-01-0.388D-01-0.352D-01 0.109D+01
 Gap=     0.392 Goal=   None    Shift=    0.000
 Gap=     0.178 Goal=   None    Shift=    0.000
 RMSDP=1.58D-04 MaxDP=2.11D-03 DE=-6.66D-04 OVMax= 3.60D-03

 Cycle   6  Pass 0  IDiag  1:
 E= -116.090385122077     Delta-E=       -0.000013265105 Rises=F Damp=F
 DIIS: error= 1.56D-04 at cycle   6 NSaved=   6.
 NSaved= 6 IEnMin= 6 EnMin= -116.090385122077     IErMin= 6 ErrMin= 1.56D-04
 ErrMax= 1.56D-04  0.00D+00 EMaxC= 1.00D-01 BMatC= 3.64D-06 BMatP= 1.99D-05
 IDIUse=3 WtCom= 9.98D-01 WtEn= 1.56D-03
 Coeff-Com: -0.689D-03 0.592D-02-0.536D-01-0.864D-01 0.243D+00 0.892D+00
 Coeff-En:   0.000D+00 0.000D+00 0.000D+00 0.000D+00 0.000D+00 0.100D+01
 Coeff:     -0.688D-03 0.591D-02-0.535D-01-0.863D-01 0.243D+00 0.892D+00
 Gap=     0.392 Goal=   None    Shift=    0.000
 Gap=     0.179 Goal=   None    Shift=    0.000
 RMSDP=3.77D-05 MaxDP=4.87D-04 DE=-1.33D-05 OVMax= 6.38D-04

 Cycle   7  Pass 0  IDiag  1:
 E= -116.090386484058     Delta-E=       -0.000001361982 Rises=F Damp=F
 DIIS: error= 3.00D-05 at cycle   7 NSaved=   7.
 NSaved= 7 IEnMin= 7 EnMin= -116.090386484058     IErMin= 7 ErrMin= 3.00D-05
 ErrMax= 3.00D-05  0.00D+00 EMaxC= 1.00D-01 BMatC= 7.74D-08 BMatP= 3.64D-06
 IDIUse=1 WtCom= 1.00D+00 WtEn= 0.00D+00
 Coeff-Com:  0.210D-03-0.411D-03 0.109D-01 0.141D-01-0.694D-01-0.175D+00
 Coeff-Com:  0.122D+01
 Coeff:      0.210D-03-0.411D-03 0.109D-01 0.141D-01-0.694D-01-0.175D+00
 Coeff:      0.122D+01
 Gap=     0.392 Goal=   None    Shift=    0.000
 Gap=     0.179 Goal=   None    Shift=    0.000
 RMSDP=9.11D-06 MaxDP=1.14D-04 DE=-1.36D-06 OVMax= 1.83D-04

 Initial convergence to 1.0D-05 achieved.  Increase integral accuracy.
 Cycle   8  Pass 1  IDiag  1:
 E= -116.090386682036     Delta-E=       -0.000000197978 Rises=F Damp=F
 DIIS: error= 9.04D-06 at cycle   1 NSaved=   1.
 NSaved= 1 IEnMin= 1 EnMin= -116.090386682036     IErMin= 1 ErrMin= 9.04D-06
 ErrMax= 9.04D-06  0.00D+00 EMaxC= 1.00D-01 BMatC= 7.86D-09 BMatP= 7.86D-09
 IDIUse=1 WtCom= 1.00D+00 WtEn= 0.00D+00
 Coeff-Com:  0.100D+01
 Coeff:      0.100D+01
 Gap=     0.392 Goal=   None    Shift=    0.000
 Gap=     0.179 Goal=   None    Shift=    0.000
 RMSDP=9.11D-06 MaxDP=1.14D-04 DE=-1.98D-07 OVMax= 2.93D-05

 Cycle   9  Pass 1  IDiag  1:
 E= -116.090386684794     Delta-E=       -0.000000002757 Rises=F Damp=F
 DIIS: error= 6.71D-06 at cycle   2 NSaved=   2.
 NSaved= 2 IEnMin= 2 EnMin= -116.090386684794     IErMin= 2 ErrMin= 6.71D-06
 ErrMax= 6.71D-06  0.00D+00 EMaxC= 1.00D-01 BMatC= 3.51D-09 BMatP= 7.86D-09
 IDIUse=1 WtCom= 1.00D+00 WtEn= 0.00D+00
 Coeff-Com:  0.349D+00 0.651D+00
 Coeff:      0.349D+00 0.651D+00
 Gap=     0.392 Goal=   None    Shift=    0.000
 Gap=     0.179 Goal=   None    Shift=    0.000
 RMSDP=9.39D-07 MaxDP=1.25D-05 DE=-2.76D-09 OVMax= 3.39D-05

 Cycle  10  Pass 1  IDiag  1:
 E= -116.090386685534     Delta-E=       -0.000000000741 Rises=F Damp=F
 DIIS: error= 5.12D-06 at cycle   3 NSaved=   3.
 NSaved= 3 IEnMin= 3 EnMin= -116.090386685534     IErMin= 3 ErrMin= 5.12D-06
 ErrMax= 5.12D-06  0.00D+00 EMaxC= 1.00D-01 BMatC= 1.83D-09 BMatP= 3.51D-09
 IDIUse=1 WtCom= 1.00D+00 WtEn= 0.00D+00
 Coeff-Com: -0.679D-01 0.398D+00 0.670D+00
 Coeff:     -0.679D-01 0.398D+00 0.670D+00
 Gap=     0.392 Goal=   None    Shift=    0.000
 Gap=     0.179 Goal=   None    Shift=    0.000
 RMSDP=6.09D-07 MaxDP=9.00D-06 DE=-7.41D-10 OVMax= 8.99D-06

 Cycle  11  Pass 1  IDiag  1:
 E= -116.090386686027     Delta-E=       -0.000000000492 Rises=F Damp=F
 DIIS: error= 8.07D-07 at cycle   4 NSaved=   4.
 NSaved= 4 IEnMin= 4 EnMin= -116.090386686027     IErMin= 4 ErrMin= 8.07D-07
 ErrMax= 8.07D-07  0.00D+00 EMaxC= 1.00D-01 BMatC= 9.74D-11 BMatP= 1.83D-09
 IDIUse=1 WtCom= 1.00D+00 WtEn= 0.00D+00
 Coeff-Com: -0.131D+00-0.595D-01 0.128D+00 0.106D+01
 Coeff:     -0.131D+00-0.595D-01 0.128D+00 0.106D+01
 Gap=     0.392 Goal=   None    Shift=    0.000
 Gap=     0.179 Goal=   None    Shift=    0.000
 RMSDP=3.33D-07 MaxDP=4.63D-06 DE=-4.92D-10 OVMax= 8.93D-06

 Cycle  12  Pass 1  IDiag  1:
 E= -116.090386686090     Delta-E=       -0.000000000064 Rises=F Damp=F
 DIIS: error= 1.49D-07 at cycle   5 NSaved=   5.
 NSaved= 5 IEnMin= 5 EnMin= -116.090386686090     IErMin= 5 ErrMin= 1.49D-07
 ErrMax= 1.49D-07  0.00D+00 EMaxC= 1.00D-01 BMatC= 2.16D-12 BMatP= 9.74D-11
 IDIUse=1 WtCom= 1.00D+00 WtEn= 0.00D+00
 Coeff-Com: -0.175D-01-0.953D-02 0.880D-05 0.154D+00 0.873D+00
 Coeff:     -0.175D-01-0.953D-02 0.880D-05 0.154D+00 0.873D+00
 Gap=     0.392 Goal=   None    Shift=    0.000
 Gap=     0.179 Goal=   None    Shift=    0.000
 RMSDP=4.02D-08 MaxDP=5.21D-07 DE=-6.37D-11 OVMax= 1.38D-06

 Cycle  13  Pass 1  IDiag  1:
 E= -116.090386686092     Delta-E=       -0.000000000002 Rises=F Damp=F
 DIIS: error= 1.05D-07 at cycle   6 NSaved=   6.
 NSaved= 6 IEnMin= 6 EnMin= -116.090386686092     IErMin= 6 ErrMin= 1.05D-07
 ErrMax= 1.05D-07  0.00D+00 EMaxC= 1.00D-01 BMatC= 4.91D-13 BMatP= 2.16D-12
 IDIUse=1 WtCom= 1.00D+00 WtEn= 0.00D+00
 Coeff-Com:  0.180D-01 0.987D-02-0.222D-01-0.149D+00 0.131D+00 0.101D+01
 Coeff:      0.180D-01 0.987D-02-0.222D-01-0.149D+00 0.131D+00 0.101D+01
 Gap=     0.392 Goal=   None    Shift=    0.000
 Gap=     0.179 Goal=   None    Shift=    0.000
 RMSDP=3.14D-08 MaxDP=5.42D-07 DE=-1.59D-12 OVMax= 1.44D-06

 Cycle  14  Pass 1  IDiag  1:
 E= -116.090386686092     Delta-E=       -0.000000000000 Rises=F Damp=F
 DIIS: error= 7.51D-08 at cycle   7 NSaved=   7.
 NSaved= 7 IEnMin= 7 EnMin= -116.090386686092     IErMin= 7 ErrMin= 7.51D-08
 ErrMax= 7.51D-08  0.00D+00 EMaxC= 1.00D-01 BMatC= 1.56D-13 BMatP= 4.91D-13
 IDIUse=1 WtCom= 1.00D+00 WtEn= 0.00D+00
 Coeff-Com:  0.941D-02 0.529D-02-0.911D-02-0.798D-01-0.811D-01 0.367D+00
 Coeff-Com:  0.789D+00
 Coeff:      0.941D-02 0.529D-02-0.911D-02-0.798D-01-0.811D-01 0.367D+00
 Coeff:      0.789D+00
 Gap=     0.392 Goal=   None    Shift=    0.000
 Gap=     0.179 Goal=   None    Shift=    0.000
 RMSDP=1.83D-08 MaxDP=3.39D-07 DE=-4.83D-13 OVMax= 8.98D-07

 Cycle  15  Pass 1  IDiag  1:
 E= -116.090386686093     Delta-E=       -0.000000000000 Rises=F Damp=F
 DIIS: error= 5.62D-08 at cycle   8 NSaved=   8.
 NSaved= 8 IEnMin= 8 EnMin= -116.090386686093     IErMin= 8 ErrMin= 5.62D-08
 ErrMax= 5.62D-08  0.00D+00 EMaxC= 1.00D-01 BMatC= 5.32D-14 BMatP= 1.56D-13
 IDIUse=1 WtCom= 1.00D+00 WtEn= 0.00D+00
 Coeff-Com: -0.142D-01-0.789D-02 0.165D-01 0.118D+00-0.121D-01-0.679D+00
 Coeff-Com: -0.438D+00 0.202D+01
 Coeff:     -0.142D-01-0.789D-02 0.165D-01 0.118D+00-0.121D-01-0.679D+00
 Coeff:     -0.438D+00 0.202D+01
 Gap=     0.392 Goal=   None    Shift=    0.000
 Gap=     0.179 Goal=   None    Shift=    0.000
 RMSDP=3.33D-08 MaxDP=6.35D-07 DE=-8.53D-14 OVMax= 1.68D-06

 Cycle  16  Pass 1  IDiag  1:
 E= -116.090386686093     Delta-E=       -0.000000000001 Rises=F Damp=F
 DIIS: error= 2.07D-08 at cycle   9 NSaved=   9.
 NSaved= 9 IEnMin= 9 EnMin= -116.090386686093     IErMin= 9 ErrMin= 2.07D-08
 ErrMax= 2.07D-08  0.00D+00 EMaxC= 1.00D-01 BMatC= 7.78D-15 BMatP= 5.32D-14
 IDIUse=1 WtCom= 1.00D+00 WtEn= 0.00D+00
 Coeff-Com: -0.108D-02-0.863D-03 0.797D-03 0.973D-02 0.206D-01-0.322D-01
 Coeff-Com: -0.175D+00-0.243D+00 0.142D+01
 Coeff:     -0.108D-02-0.863D-03 0.797D-03 0.973D-02 0.206D-01-0.322D-01
 Coeff:     -0.175D+00-0.243D+00 0.142D+01
 Gap=     0.392 Goal=   None    Shift=    0.000
 Gap=     0.179 Goal=   None    Shift=    0.000
 RMSDP=1.70D-08 MaxDP=3.23D-07 DE=-5.68D-13 OVMax= 8.57D-07

 Cycle  17  Pass 1  IDiag  1:
 E= -116.090386686093     Delta-E=        0.000000000000 Rises=F Damp=F
 DIIS: error= 2.70D-09 at cycle  10 NSaved=  10.
 NSaved=10 IEnMin= 9 EnMin= -116.090386686093     IErMin=10 ErrMin= 2.70D-09
 ErrMax= 2.70D-09  0.00D+00 EMaxC= 1.00D-01 BMatC= 4.90D-16 BMatP= 7.78D-15
 IDIUse=1 WtCom= 1.00D+00 WtEn= 0.00D+00
 Coeff-Com:  0.133D-02 0.671D-03-0.145D-02-0.111D-01 0.151D-02 0.647D-01
 Coeff-Com:  0.360D-01-0.215D+00 0.953D-01 0.103D+01
 Coeff:      0.133D-02 0.671D-03-0.145D-02-0.111D-01 0.151D-02 0.647D-01
 Coeff:      0.360D-01-0.215D+00 0.953D-01 0.103D+01
 Gap=     0.392 Goal=   None    Shift=    0.000
 Gap=     0.179 Goal=   None    Shift=    0.000
 RMSDP=2.20D-09 MaxDP=4.11D-08 DE= 8.53D-14 OVMax= 1.09D-07

 SCF Done:  E(UPBE1PBE) =  -116.090386686     A.U. after   17 cycles
            NFock= 17  Conv=0.22D-08     -V/T= 2.0047
 <Sx>= 0.0000 <Sy>= 0.0000 <Sz>= 0.5000 <S**2>= 0.7581 S= 0.5040
 <L.S>= 0.000000000000E+00
 KE= 1.155512938790D+02 PE=-3.467313000403D+02 EE= 7.797083645520D+01
 Annihilation of the first spin contaminant:
 S**2 before annihilation     0.7581,   after     0.7500
 Leave Link  502 at Fri Oct  9 10:59:25 2020, MaxMem=  2684354560 cpu:              32.1 elap:               2.7
 (Enter /udrive/faculty/rpeverati/g16/g16/l508.exe)
 QCSCF skips out because SCF is already converged.
 Leave Link  508 at Fri Oct  9 10:59:25 2020, MaxMem=  2684354560 cpu:               0.1 elap:               0.1
 (Enter /udrive/faculty/rpeverati/g16/g16/l601.exe)
 Copying SCF densities to generalized density rwf, IOpCl= 1 IROHF=0.

 **********************************************************************

            Population analysis using the SCF density.

 **********************************************************************

 Orbital symmetries:
 Alpha Orbitals:
       Occupied  (A) (A) (A) (A) (A) (A) (A) (A) (A) (A)
       Virtual   (A) (A) (A) (A) (A) (A) (A) (A) (A) (A) (A) (A)
                 (A) (A) (A) (A) (A) (A) (A) (A) (A) (A) (A) (A)
                 (A) (A) (A) (A)
 Beta  Orbitals:
       Occupied  (A) (A) (A) (A) (A) (A) (A) (A) (A)
       Virtual   (A) (A) (A) (A) (A) (A) (A) (A) (A) (A) (A) (A)
                 (A) (A) (A) (A) (A) (A) (A) (A) (A) (A) (A) (A)
                 (A) (A) (A) (A) (A)
 The electronic state is 2-A.
 Alpha  occ. eigenvalues --  -19.23336 -10.23457  -1.01559  -0.73648  -0.50317
 Alpha  occ. eigenvalues --   -0.43964  -0.43112  -0.42643  -0.31224  -0.29108
 Alpha virt. eigenvalues --    0.10132   0.14189   0.17575   0.17862   0.29904
 Alpha virt. eigenvalues --    0.52996   0.53127   0.56229   0.80069   0.84504
 Alpha virt. eigenvalues --    0.91185   0.91282   0.93678   0.93841   0.99839
 Alpha virt. eigenvalues --    1.11114   1.23767   1.59956   1.63139   1.66771
 Alpha virt. eigenvalues --    1.74819   1.76933   1.78976   1.88450   2.23696
 Alpha virt. eigenvalues --    2.23816   2.42158   2.54886
  Beta  occ. eigenvalues --  -19.21502 -10.22623  -0.96678  -0.71319  -0.46789
  Beta  occ. eigenvalues --   -0.42543  -0.42441  -0.38479  -0.29417
  Beta virt. eigenvalues --   -0.11540   0.10776   0.14875   0.18108   0.18401
  Beta virt. eigenvalues --    0.32401   0.53447   0.53536   0.59886   0.80813
  Beta virt. eigenvalues --    0.86479   0.91782   0.91917   0.94622   0.94877
  Beta virt. eigenvalues --    1.01909   1.14471   1.25250   1.62711   1.65951
  Beta virt. eigenvalues --    1.69698   1.77623   1.78796   1.83092   1.92277
  Beta virt. eigenvalues --    2.24936   2.25023   2.43642   2.58198
          Condensed to atoms (all electrons):
               1          2          3          4          5          6
     1  C    5.437530  -0.061205   0.245982   0.366109   0.365835   0.368134
     2  O   -0.061205   8.391915   0.084885  -0.000289   0.000425   0.000124
     3  H    0.245982   0.084885   0.393675  -0.014097  -0.015380  -0.013850
     4  H    0.366109  -0.000289  -0.014097   0.485572  -0.024040  -0.023267
     5  H    0.365835   0.000425  -0.015380  -0.024040   0.499680  -0.023130
     6  H    0.368134   0.000124  -0.013850  -0.023267  -0.023130   0.478922
     7  H    0.013214   0.219352  -0.025375  -0.000149  -0.000737   0.000005
               7
     1  C    0.013214
     2  O    0.219352
     3  H   -0.025375
     4  H   -0.000149
     5  H   -0.000737
     6  H    0.000005
     7  H    0.387616
          Atomic-Atomic Spin Densities.
               1          2          3          4          5          6
     1  C    0.577100  -0.087541   0.037698  -0.014537  -0.012309  -0.015520
     2  O   -0.087541   0.783850  -0.042677   0.002657   0.002438   0.002751
     3  H    0.037698  -0.042677  -0.090231   0.002254   0.002737   0.001939
     4  H   -0.014537   0.002657   0.002254  -0.009169   0.002362   0.003044
     5  H   -0.012309   0.002438   0.002737   0.002362  -0.013656   0.002499
     6  H   -0.015520   0.002751   0.001939   0.003044   0.002499  -0.007122
     7  H    0.004417  -0.007423   0.003814  -0.000163  -0.000249  -0.000140
               7
     1  C    0.004417
     2  O   -0.007423
     3  H    0.003814
     4  H   -0.000163
     5  H   -0.000249
     6  H   -0.000140
     7  H   -0.016876
 Mulliken charges and spin densities:
               1          2
     1  C   -0.735598   0.489308
     2  O   -0.635207   0.654055
     3  H    0.344160  -0.084467
     4  H    0.210163  -0.013550
     5  H    0.197346  -0.016178
     6  H    0.213062  -0.012549
     7  H    0.406074  -0.016619
 Sum of Mulliken charges =   0.00000   1.00000
 Mulliken charges and spin densities with hydrogens summed into heavy atoms:
               1          2
     1  C    0.229134   0.362564
     2  O   -0.229134   0.637436
 Electronic spatial extent (au):  <R**2>=            156.0658
 Charge=              0.0000 electrons
 Dipole moment (field-independent basis, Debye):
    X=             -1.2479    Y=              1.5806    Z=             -0.0030  Tot=              2.0139
 Quadrupole moment (field-independent basis, Debye-Ang):
   XX=            -14.4520   YY=            -12.5206   ZZ=            -14.3868
   XY=              2.6106   XZ=              0.0003   YZ=              0.0151
 Traceless Quadrupole moment (field-independent basis, Debye-Ang):
   XX=             -0.6655   YY=              1.2658   ZZ=             -0.6003
   XY=              2.6106   XZ=              0.0003   YZ=              0.0151
 Octapole moment (field-independent basis, Debye-Ang**2):
  XXX=              6.0192  YYY=              2.1318  ZZZ=              0.5542  XYY=              2.9089
  XXY=              3.4574  XXZ=             -0.0085  XZZ=              0.1133  YZZ=             -0.3046
  YYZ=             -0.5570  XYZ=             -0.0682
 Hexadecapole moment (field-independent basis, Debye-Ang**3):
 XXXX=           -150.7138 YYYY=            -19.5472 ZZZZ=            -18.9308 XXXY=              6.5874
 XXXZ=             -0.0037 YYYX=              1.8264 YYYZ=             -0.0272 ZZZX=             -0.8966
 ZZZY=              0.0499 XXYY=            -24.8453 XXZZ=            -27.7176 YYZZ=             -6.6574
 XXYZ=              0.1721 YYXZ=              0.8911 ZZXY=              1.3137
 N-N= 3.711878301994D+01 E-N=-3.467313000436D+02  KE= 1.155512938790D+02
                          Isotropic Fermi Contact Couplings
        Atom                 a.u.       MegaHertz       Gauss      10(-4) cm-1
     1  C(13)              0.14299     160.74686      57.35848      53.61938
     2  O(17)              0.11554     -70.03987     -24.99197     -23.36279
     3  H(1)              -0.02344    -104.77628     -37.38678     -34.94960
     4  H(1)              -0.00395     -17.66554      -6.30350      -5.89259
     5  H(1)              -0.00495     -22.13418      -7.89803      -7.38317
     6  H(1)              -0.00362     -16.15916      -5.76599      -5.39012
     7  H(1)              -0.00992     -44.34389     -15.82300     -14.79153
 --------------------------------------------------------
       Center         ----  Spin Dipole Couplings  ----
                      3XX-RR        3YY-RR        3ZZ-RR
 --------------------------------------------------------
     1   Atom        0.532068     -0.264296     -0.267772
     2   Atom        2.459729     -1.191543     -1.268186
     3   Atom        0.239318     -0.118346     -0.120971
     4   Atom        0.002321     -0.030164      0.027843
     5   Atom        0.000859      0.028442     -0.029301
     6   Atom        0.002883     -0.002087     -0.000796
     7   Atom       -0.025433      0.115438     -0.090004
 --------------------------------------------------------
                        XY            XZ            YZ
 --------------------------------------------------------
     1   Atom       -0.046983      0.002586     -0.000447
     2   Atom       -0.436509     -0.003885      0.000546
     3   Atom       -0.010374     -0.000232     -0.000140
     4   Atom        0.001709     -0.015332     -0.014944
     5   Atom       -0.013252      0.003147     -0.016914
     6   Atom        0.009937      0.012328      0.032409
     7   Atom        0.025981     -0.000084     -0.000148
 --------------------------------------------------------


 ---------------------------------------------------------------------------------
              Anisotropic Spin Dipole Couplings in Principal Axis System
 ---------------------------------------------------------------------------------

       Atom             a.u.   MegaHertz   Gauss  10(-4) cm-1        Axes

              Baa    -0.2679   -35.948   -12.827   -11.991  0.0166  0.3350  0.9421
     1 C(13)  Bbb    -0.2670   -35.823   -12.782   -11.949  0.0564  0.9404 -0.3354
              Bcc     0.5348    71.770    25.609    23.940  0.9983 -0.0587  0.0032
 
              Baa    -1.2682    91.765    32.744    30.610  0.0006 -0.0036  1.0000
     2 O(17)  Bbb    -1.2430    89.943    32.094    30.002  0.1171  0.9931  0.0035
              Bcc     2.5112  -181.708   -64.838   -60.611  0.9931 -0.1171 -0.0010
 
              Baa    -0.1210   -64.549   -23.033   -21.531  0.0024  0.0626  0.9980
     3 H(1)   Bbb    -0.1186   -63.300   -22.587   -21.114  0.0289  0.9976 -0.0627
              Bcc     0.2396   127.849    45.620    42.646  0.9996 -0.0290 -0.0006
 
              Baa    -0.0339   -18.090    -6.455    -6.034  0.0597  0.9667  0.2488
     4 H(1)   Bbb    -0.0041    -2.203    -0.786    -0.735  0.9170 -0.1516  0.3689
              Bcc     0.0380    20.293     7.241     6.769 -0.3943 -0.2061  0.8956
 
              Baa    -0.0339   -18.085    -6.453    -6.033  0.0135  0.2645  0.9643
     5 H(1)   Bbb    -0.0041    -2.200    -0.785    -0.734  0.9389  0.3284 -0.1033
              Bcc     0.0380    20.285     7.238     6.766 -0.3440  0.9067 -0.2439
 
              Baa    -0.0339   -18.102    -6.459    -6.038 -0.0465 -0.7054  0.7073
     6 H(1)   Bbb    -0.0041    -2.196    -0.784    -0.733  0.9112 -0.3201 -0.2594
              Bcc     0.0380    20.298     7.243     6.771  0.4093  0.6324  0.6576
 
              Baa    -0.0900   -48.022   -17.135   -16.018  0.0011  0.0006  1.0000
     7 H(1)   Bbb    -0.0301   -16.045    -5.725    -5.352  0.9844 -0.1758 -0.0009
              Bcc     0.1201    64.067    22.861    21.371  0.1758  0.9844 -0.0008
 

 ---------------------------------------------------------------------------------

 No NMR shielding tensors so no spin-rotation constants.
 Leave Link  601 at Fri Oct  9 10:59:26 2020, MaxMem=  2684354560 cpu:               4.7 elap:               0.4
 (Enter /udrive/faculty/rpeverati/g16/g16/l701.exe)
 ... and contract with generalized density number  0.
 Compute integral first derivatives.
 Leave Link  701 at Fri Oct  9 10:59:26 2020, MaxMem=  2684354560 cpu:               2.6 elap:               0.3
 (Enter /udrive/faculty/rpeverati/g16/g16/l702.exe)
 L702 exits ... SP integral derivatives will be done elsewhere.
 Leave Link  702 at Fri Oct  9 10:59:26 2020, MaxMem=  2684354560 cpu:               0.3 elap:               0.1
 (Enter /udrive/faculty/rpeverati/g16/g16/l703.exe)
 Integral derivatives from FoFJK, PRISM(SPDF).
 Compute integral first derivatives, UseDBF=F ICtDFT=           0.
 Calling FoFJK, ICntrl=      2127 FMM=F ISym2X=0 I1Cent= 0 IOpClX= 1 NMat=1 NMatS=1 NMatT=0.
 FoFJK:  IHMeth= 1 ICntrl=    2127 DoSepK=F KAlg= 0 I1Cent=           0 FoldK=F
 IRaf=         0 NMat=       1 IRICut=       1 DoRegI=T DoRafI=F ISym2E= 0 IDoP0=0 IntGTp=1.
 FoFCou: FMM=F IPFlag=           0 FMFlag=      100000 FMFlg1=         800
         NFxFlg=           0 DoJE=F BraDBF=F KetDBF=F FulRan=T
         wScrn=  0.000000 ICntrl=      2127 IOpCl=  1 I1Cent=           0 NGrid=           0
         NMat0=    1 NMatS0=      1 NMatT0=    0 NMatD0=    1 NMtDS0=    0 NMtDT0=    0
 Symmetry not used in FoFCou.
 Leave Link  703 at Fri Oct  9 10:59:27 2020, MaxMem=  2684354560 cpu:               9.1 elap:               0.8
 (Enter /udrive/faculty/rpeverati/g16/g16/l716.exe)
 Dipole        =-4.90945626D-01 6.21874050D-01-1.17984928D-03
 ***** Axes restored to original set *****
 -------------------------------------------------------------------
 Center     Atomic                   Forces (Hartrees/Bohr)
 Number     Number              X              Y              Z
 -------------------------------------------------------------------
      1        6           0.005958488    0.000277665    0.000011076
      2        8           0.000513904   -0.006128488   -0.000083949
      3        1          -0.003987588   -0.002689044    0.000115692
      4        1          -0.001796234   -0.000818176    0.003412277
      5        1          -0.001573880    0.003666299   -0.001019814
      6        1          -0.001795823   -0.002368731   -0.002443466
      7        1           0.002681134    0.008060475    0.000008183
 -------------------------------------------------------------------
 Cartesian Forces:  Max     0.008060475 RMS     0.003207284
 Leave Link  716 at Fri Oct  9 10:59:27 2020, MaxMem=  2684354560 cpu:               0.4 elap:               0.1
 (Enter /udrive/faculty/rpeverati/g16/g16/l103.exe)

 GradGradGradGradGradGradGradGradGradGradGradGradGradGradGradGradGradGrad
 Berny optimization.
 Optmz: redundant internal coordinate code flag= 1
 FormGI is forming the generalized inverse of G from B-inverse, IUseBI=4.
 Internal  Forces:  Max     0.008335931 RMS     0.002802969
 Numerically estimating second derivatives.
 Iteration  1 RMS(Cart)=  0.00152412 RMS(Int)=  0.00000402
 Iteration  2 RMS(Cart)=  0.00000012 RMS(Int)=  0.00000402
 Largest change from initial coordinates is atom    3       0.001 Angstoms.
 GradGradGradGradGradGradGradGradGradGradGradGradGradGradGradGradGradGrad

 Leave Link  103 at Fri Oct  9 10:59:27 2020, MaxMem=  2684354560 cpu:               0.6 elap:               0.1
 (Enter /udrive/faculty/rpeverati/g16/g16/l202.exe)
                          Input orientation:                          
 ---------------------------------------------------------------------
 Center     Atomic      Atomic             Coordinates (Angstroms)
 Number     Number       Type             X           Y           Z
 ---------------------------------------------------------------------
      1          6           0       -1.210374    0.007970    0.000408
      2          8           0        1.292430   -0.108795    0.000132
      3          1           0        0.007939   -0.117927    0.002796
      4          1           0       -1.524450   -0.233208    1.010072
      5          1           0       -1.429405    1.033268   -0.278082
      6          1           0       -1.551702   -0.710064   -0.737701
      7          1           0        1.415248    0.849777   -0.000592
 ---------------------------------------------------------------------
                    Distance matrix (angstroms):
                    1          2          3          4          5
     1  C    0.000000
     2  O    2.505526   0.000000
     3  H    1.224803   1.284526   0.000000
     4  H    1.084542   2.995041   1.837420   0.000000
     5  H    1.084789   2.964809   1.862821   1.808959   0.000000
     6  H    1.084843   2.999168   1.825224   1.811863   1.807046
     7  H    2.757269   0.966408   1.707917   3.291827   2.864039
                    6          7
     6  H    0.000000
     7  H    3.432088   0.000000
 Stoichiometry    CH5O(2)
 Framework group  C1[X(CH5O)]
 Deg. of freedom    15
 Full point group                 C1      NOp   1
 RotChk:  IX=0 Diff= 3.41D-05
 Largest Abelian subgroup         C1      NOp   1
 Largest concise Abelian subgroup C1      NOp   1
                         Standard orientation:                         
 ---------------------------------------------------------------------
 Center     Atomic      Atomic             Coordinates (Angstroms)
 Number     Number       Type             X           Y           Z
 ---------------------------------------------------------------------
      1          6           0       -1.210102    0.007977    0.000409
      2          8           0        1.292705   -0.108727    0.000132
      3          1           0        0.008214   -0.117891    0.002796
      4          1           0       -1.524172   -0.233208    1.010072
      5          1           0       -1.429157    1.033270   -0.278081
      6          1           0       -1.551412   -0.710065   -0.737701
      7          1           0        1.415500    0.849847   -0.000592
 ---------------------------------------------------------------------
 Rotational constants (GHZ):         120.8660164           9.2657386           9.1199265
 Leave Link  202 at Fri Oct  9 10:59:27 2020, MaxMem=  2684354560 cpu:               0.2 elap:               0.1
 (Enter /udrive/faculty/rpeverati/g16/g16/l301.exe)
 Standard basis: 6-31G(d) (5D, 7F)
 Ernie: Thresh=  0.10000D-02 Tol=  0.10000D-05 Strict=F.
 There are    40 symmetry adapted cartesian basis functions of A   symmetry.
 There are    38 symmetry adapted basis functions of A   symmetry.
    38 basis functions,    76 primitive gaussians,    40 cartesian basis functions
    10 alpha electrons        9 beta electrons
       nuclear repulsion energy        37.1409764247 Hartrees.
 IExCor= 1009 DFT=T Ex+Corr=PBE1PBE ExCW=0 ScaHFX=  0.250000
 ScaDFX=  0.750000  0.750000  1.000000  1.000000 ScalE2=  1.000000  1.000000
 IRadAn=      5 IRanWt=     -1 IRanGd=            0 ICorTp=0 IEmpDi=  4
 NAtoms=    7 NActive=    7 NUniq=    7 SFac= 1.00D+00 NAtFMM=   60 NAOKFM=F Big=F
 Integral buffers will be    131072 words long.
 Raffenetti 2 integral format.
 Two-electron integral symmetry is turned on.
 Leave Link  301 at Fri Oct  9 10:59:28 2020, MaxMem=  2684354560 cpu:               0.8 elap:               0.1
 (Enter /udrive/faculty/rpeverati/g16/g16/l302.exe)
 NPDir=0 NMtPBC=     1 NCelOv=     1 NCel=       1 NClECP=     1 NCelD=      1
         NCelK=      1 NCelE2=     1 NClLst=     1 CellRange=     0.0.
 One-electron integrals computed using PRISM.
 One-electron integral symmetry used in STVInt
 NBasis=    38 RedAO= T EigKep=  1.02D-02  NBF=    38
 NBsUse=    38 1.00D-06 EigRej= -1.00D+00 NBFU=    38
 Precomputing XC quadrature grid using
 IXCGrd= 4 IRadAn=           5 IRanWt=          -1 IRanGd=           0 AccXCQ= 0.00D+00.
 Generated NRdTot=       0 NPtTot=           0 NUsed=           0 NTot=          32
 NSgBfM=    40    40    40    40    40 MxSgAt=     7 MxSgA2=     7.
 Leave Link  302 at Fri Oct  9 10:59:28 2020, MaxMem=  2684354560 cpu:               2.6 elap:               0.3
 (Enter /udrive/faculty/rpeverati/g16/g16/l303.exe)
 DipDrv:  MaxL=1.
 Leave Link  303 at Fri Oct  9 10:59:28 2020, MaxMem=  2684354560 cpu:               0.3 elap:               0.1
 (Enter /udrive/faculty/rpeverati/g16/g16/l401.exe)
 Initial guess from the checkpoint file:  "MN_81_RKT04_BH76_PBE0_631Gs.chk"
 SCF N**3 symmetry information disabled.
 B after Tr=     0.000000    0.000000    0.000000
         Rot=    1.000000   -0.000000   -0.000000    0.000020 Ang=  -0.00 deg.
 Guess basis will be translated and rotated to current coordinates.
 JPrj=2 DoOrth=T DoCkMO=T.
 Initial guess <Sx>= 0.0000 <Sy>= 0.0000 <Sz>= 0.5000 <S**2>= 0.7581 S= 0.5040
 Generating alternative initial guess.
 ExpMin= 1.61D-01 ExpMax= 5.48D+03 ExpMxC= 8.25D+02 IAcc=2 IRadAn=         4 AccDes= 0.00D+00
 Harris functional with IExCor= 1009 and IRadAn=       4 diagonalized for initial guess.
 HarFok:  IExCor= 1009 AccDes= 0.00D+00 IRadAn=         4 IDoV= 1 UseB2=F ITyADJ=14
 ICtDFT=  3500011 ScaDFX=  1.000000  1.000000  1.000000  1.000000
 FoFCou: FMM=F IPFlag=           0 FMFlag=      100000 FMFlg1=           0
         NFxFlg=           0 DoJE=T BraDBF=F KetDBF=T FulRan=T
         wScrn=  0.000000 ICntrl=       500 IOpCl=  0 I1Cent=   200000004 NGrid=           0
         NMat0=    1 NMatS0=      1 NMatT0=    0 NMatD0=    1 NMtDS0=    0 NMtDT0=    0
 Petite list used in FoFCou.
 Harris En= -116.134547571788    
 Leave Link  401 at Fri Oct  9 10:59:28 2020, MaxMem=  2684354560 cpu:               5.2 elap:               0.5
 (Enter /udrive/faculty/rpeverati/g16/g16/l502.exe)
 Keep R1 and R2 ints in memory in canonical form, NReq=10906541.
 FoFCou: FMM=F IPFlag=           0 FMFlag=           0 FMFlg1=           0
         NFxFlg=           0 DoJE=F BraDBF=F KetDBF=F FulRan=T
         wScrn=  0.000000 ICntrl=       600 IOpCl=  0 I1Cent=           0 NGrid=           0
         NMat0=    1 NMatS0=    741 NMatT0=    0 NMatD0=    1 NMtDS0=    0 NMtDT0=    0
 Symmetry not used in FoFCou.
 Two-electron integral symmetry not used.
 UHF open shell SCF:
 Using DIIS extrapolation, IDIIS=  1040.
 NGot=  2684354560 LenX=  2683800373 LenY=  2683798332
 Requested convergence on RMS density matrix=1.00D-08 within 120 cycles.
 Requested convergence on MAX density matrix=1.00D-06.
 Requested convergence on             energy=1.00D-06.
 No special actions if energy rises.
 Integral accuracy reduced to 1.0D-05 until final iterations.

 Cycle   1  Pass 0  IDiag  1:
 E= -116.090386943256    
 DIIS: error= 1.25D-04 at cycle   1 NSaved=   1.
 NSaved= 1 IEnMin= 1 EnMin= -116.090386943256     IErMin= 1 ErrMin= 1.25D-04
 ErrMax= 1.25D-04  0.00D+00 EMaxC= 1.00D-01 BMatC= 2.74D-06 BMatP= 2.74D-06
 IDIUse=3 WtCom= 9.99D-01 WtEn= 1.25D-03
 Coeff-Com:  0.100D+01
 Coeff-En:   0.100D+01
 Coeff:      0.100D+01
 Gap=     0.574 Goal=   None    Shift=    0.000
 Gap=     0.601 Goal=   None    Shift=    0.000
 RMSDP=3.95D-05 MaxDP=4.88D-04              OVMax= 1.15D-03

 Cycle   2  Pass 0  IDiag  1:
 E= -116.090387797577     Delta-E=       -0.000000854321 Rises=F Damp=F
 DIIS: error= 1.77D-04 at cycle   2 NSaved=   2.
 NSaved= 2 IEnMin= 2 EnMin= -116.090387797577     IErMin= 1 ErrMin= 1.25D-04
 ErrMax= 1.77D-04  0.00D+00 EMaxC= 1.00D-01 BMatC= 1.81D-06 BMatP= 2.74D-06
 IDIUse=3 WtCom= 9.98D-01 WtEn= 1.77D-03
 Coeff-Com:  0.422D+00 0.578D+00
 Coeff-En:   0.000D+00 0.100D+01
 Coeff:      0.422D+00 0.578D+00
 Gap=     0.392 Goal=   None    Shift=    0.000
 Gap=     0.179 Goal=   None    Shift=    0.000
 RMSDP=2.02D-05 MaxDP=2.14D-04 DE=-8.54D-07 OVMax= 4.23D-04

 Cycle   3  Pass 0  IDiag  1:
 E= -116.090388125752     Delta-E=       -0.000000328175 Rises=F Damp=F
 DIIS: error= 6.59D-05 at cycle   3 NSaved=   3.
 NSaved= 3 IEnMin= 3 EnMin= -116.090388125752     IErMin= 3 ErrMin= 6.59D-05
 ErrMax= 6.59D-05  0.00D+00 EMaxC= 1.00D-01 BMatC= 4.19D-07 BMatP= 1.81D-06
 IDIUse=1 WtCom= 1.00D+00 WtEn= 0.00D+00
 Coeff-Com:  0.367D-02 0.314D+00 0.682D+00
 Coeff:      0.367D-02 0.314D+00 0.682D+00
 Gap=     0.392 Goal=   None    Shift=    0.000
 Gap=     0.179 Goal=   None    Shift=    0.000
 RMSDP=7.56D-06 MaxDP=1.08D-04 DE=-3.28D-07 OVMax= 2.92D-04

 Initial convergence to 1.0D-05 achieved.  Increase integral accuracy.
 Cycle   4  Pass 1  IDiag  1:
 E= -116.090388380081     Delta-E=       -0.000000254329 Rises=F Damp=F
 DIIS: error= 2.05D-05 at cycle   1 NSaved=   1.
 NSaved= 1 IEnMin= 1 EnMin= -116.090388380081     IErMin= 1 ErrMin= 2.05D-05
 ErrMax= 2.05D-05  0.00D+00 EMaxC= 1.00D-01 BMatC= 2.86D-08 BMatP= 2.86D-08
 IDIUse=1 WtCom= 1.00D+00 WtEn= 0.00D+00
 Coeff-Com:  0.100D+01
 Coeff:      0.100D+01
 Gap=     0.392 Goal=   None    Shift=    0.000
 Gap=     0.179 Goal=   None    Shift=    0.000
 RMSDP=7.56D-06 MaxDP=1.08D-04 DE=-2.54D-07 OVMax= 6.98D-05

 Cycle   5  Pass 1  IDiag  1:
 E= -116.090388380216     Delta-E=       -0.000000000135 Rises=F Damp=F
 DIIS: error= 2.49D-05 at cycle   2 NSaved=   2.
 NSaved= 2 IEnMin= 2 EnMin= -116.090388380216     IErMin= 1 ErrMin= 2.05D-05
 ErrMax= 2.49D-05  0.00D+00 EMaxC= 1.00D-01 BMatC= 4.00D-08 BMatP= 2.86D-08
 IDIUse=1 WtCom= 1.00D+00 WtEn= 0.00D+00
 Coeff-Com:  0.545D+00 0.455D+00
 Coeff:      0.545D+00 0.455D+00
 Gap=     0.392 Goal=   None    Shift=    0.000
 Gap=     0.179 Goal=   None    Shift=    0.000
 RMSDP=2.20D-06 MaxDP=2.49D-05 DE=-1.35D-10 OVMax= 5.99D-05

 Cycle   6  Pass 1  IDiag  1:
 E= -116.090388388450     Delta-E=       -0.000000008234 Rises=F Damp=F
 DIIS: error= 7.00D-06 at cycle   3 NSaved=   3.
 NSaved= 3 IEnMin= 3 EnMin= -116.090388388450     IErMin= 3 ErrMin= 7.00D-06
 ErrMax= 7.00D-06  0.00D+00 EMaxC= 1.00D-01 BMatC= 1.95D-09 BMatP= 2.86D-08
 IDIUse=1 WtCom= 1.00D+00 WtEn= 0.00D+00
 Coeff-Com:  0.106D+00 0.193D+00 0.701D+00
 Coeff:      0.106D+00 0.193D+00 0.701D+00
 Gap=     0.392 Goal=   None    Shift=    0.000
 Gap=     0.179 Goal=   None    Shift=    0.000
 RMSDP=7.35D-07 MaxDP=1.05D-05 DE=-8.23D-09 OVMax= 1.39D-05

 Cycle   7  Pass 1  IDiag  1:
 E= -116.090388388996     Delta-E=       -0.000000000546 Rises=F Damp=F
 DIIS: error= 1.77D-06 at cycle   4 NSaved=   4.
 NSaved= 4 IEnMin= 4 EnMin= -116.090388388996     IErMin= 4 ErrMin= 1.77D-06
 ErrMax= 1.77D-06  0.00D+00 EMaxC= 1.00D-01 BMatC= 2.72D-10 BMatP= 1.95D-09
 IDIUse=1 WtCom= 1.00D+00 WtEn= 0.00D+00
 Coeff-Com: -0.181D+00-0.773D-01 0.241D+00 0.102D+01
 Coeff:     -0.181D+00-0.773D-01 0.241D+00 0.102D+01
 Gap=     0.392 Goal=   None    Shift=    0.000
 Gap=     0.179 Goal=   None    Shift=    0.000
 RMSDP=6.11D-07 MaxDP=7.28D-06 DE=-5.46D-10 OVMax= 1.78D-05

 Cycle   8  Pass 1  IDiag  1:
 E= -116.090388389177     Delta-E=       -0.000000000181 Rises=F Damp=F
 DIIS: error= 4.92D-07 at cycle   5 NSaved=   5.
 NSaved= 5 IEnMin= 5 EnMin= -116.090388389177     IErMin= 5 ErrMin= 4.92D-07
 ErrMax= 4.92D-07  0.00D+00 EMaxC= 1.00D-01 BMatC= 1.88D-11 BMatP= 2.72D-10
 IDIUse=1 WtCom= 1.00D+00 WtEn= 0.00D+00
 Coeff-Com: -0.629D-01-0.325D-01 0.196D-01 0.337D+00 0.739D+00
 Coeff:     -0.629D-01-0.325D-01 0.196D-01 0.337D+00 0.739D+00
 Gap=     0.392 Goal=   None    Shift=    0.000
 Gap=     0.179 Goal=   None    Shift=    0.000
 RMSDP=9.46D-08 MaxDP=1.29D-06 DE=-1.81D-10 OVMax= 1.66D-06

 Cycle   9  Pass 1  IDiag  1:
 E= -116.090388389184     Delta-E=       -0.000000000007 Rises=F Damp=F
 DIIS: error= 7.56D-08 at cycle   6 NSaved=   6.
 NSaved= 6 IEnMin= 6 EnMin= -116.090388389184     IErMin= 6 ErrMin= 7.56D-08
 ErrMax= 7.56D-08  0.00D+00 EMaxC= 1.00D-01 BMatC= 5.55D-13 BMatP= 1.88D-11
 IDIUse=1 WtCom= 1.00D+00 WtEn= 0.00D+00
 Coeff-Com:  0.196D-01 0.885D-02-0.167D-01-0.112D+00-0.110D+00 0.121D+01
 Coeff:      0.196D-01 0.885D-02-0.167D-01-0.112D+00-0.110D+00 0.121D+01
 Gap=     0.392 Goal=   None    Shift=    0.000
 Gap=     0.179 Goal=   None    Shift=    0.000
 RMSDP=2.18D-08 MaxDP=2.01D-07 DE=-6.71D-12 OVMax= 4.37D-07

 Cycle  10  Pass 1  IDiag  1:
 E= -116.090388389184     Delta-E=       -0.000000000000 Rises=F Damp=F
 DIIS: error= 2.18D-08 at cycle   7 NSaved=   7.
 NSaved= 7 IEnMin= 7 EnMin= -116.090388389184     IErMin= 7 ErrMin= 2.18D-08
 ErrMax= 2.18D-08  0.00D+00 EMaxC= 1.00D-01 BMatC= 4.84D-14 BMatP= 5.55D-13
 IDIUse=1 WtCom= 1.00D+00 WtEn= 0.00D+00
 Coeff-Com:  0.926D-02 0.458D-02-0.363D-02-0.487D-01-0.850D-01 0.189D+00
 Coeff-Com:  0.934D+00
 Coeff:      0.926D-02 0.458D-02-0.363D-02-0.487D-01-0.850D-01 0.189D+00
 Coeff:      0.934D+00
 Gap=     0.392 Goal=   None    Shift=    0.000
 Gap=     0.179 Goal=   None    Shift=    0.000
 RMSDP=6.46D-09 MaxDP=6.15D-08 DE=-3.41D-13 OVMax= 1.55D-07

 SCF Done:  E(UPBE1PBE) =  -116.090388389     A.U. after   10 cycles
            NFock= 10  Conv=0.65D-08     -V/T= 2.0046
 <Sx>= 0.0000 <Sy>= 0.0000 <Sz>= 0.5000 <S**2>= 0.7580 S= 0.5040
 <L.S>= 0.000000000000E+00
 KE= 1.155542406297D+02 PE=-3.467776054681D+02 EE= 7.799200002449D+01
 Annihilation of the first spin contaminant:
 S**2 before annihilation     0.7580,   after     0.7500
 Leave Link  502 at Fri Oct  9 10:59:30 2020, MaxMem=  2684354560 cpu:              22.1 elap:               1.9
 (Enter /udrive/faculty/rpeverati/g16/g16/l508.exe)
 QCSCF skips out because SCF is already converged.
 Leave Link  508 at Fri Oct  9 10:59:30 2020, MaxMem=  2684354560 cpu:               0.1 elap:               0.1
 (Enter /udrive/faculty/rpeverati/g16/g16/l701.exe)
 ... and contract with generalized density number  0.
 Compute integral first derivatives.
 Leave Link  701 at Fri Oct  9 10:59:31 2020, MaxMem=  2684354560 cpu:               2.6 elap:               0.3
 (Enter /udrive/faculty/rpeverati/g16/g16/l702.exe)
 L702 exits ... SP integral derivatives will be done elsewhere.
 Leave Link  702 at Fri Oct  9 10:59:31 2020, MaxMem=  2684354560 cpu:               0.3 elap:               0.1
 (Enter /udrive/faculty/rpeverati/g16/g16/l703.exe)
 Integral derivatives from FoFJK, PRISM(SPDF).
 Compute integral first derivatives, UseDBF=F ICtDFT=           0.
 Calling FoFJK, ICntrl=      2127 FMM=F ISym2X=0 I1Cent= 0 IOpClX= 1 NMat=1 NMatS=1 NMatT=0.
 FoFJK:  IHMeth= 1 ICntrl=    2127 DoSepK=F KAlg= 0 I1Cent=           0 FoldK=F
 IRaf=         0 NMat=       1 IRICut=       1 DoRegI=T DoRafI=F ISym2E= 0 IDoP0=0 IntGTp=1.
 FoFCou: FMM=F IPFlag=           0 FMFlag=      100000 FMFlg1=         800
         NFxFlg=           0 DoJE=F BraDBF=F KetDBF=F FulRan=T
         wScrn=  0.000000 ICntrl=      2127 IOpCl=  1 I1Cent=           0 NGrid=           0
         NMat0=    1 NMatS0=      1 NMatT0=    0 NMatD0=    1 NMtDS0=    0 NMtDT0=    0
 Symmetry not used in FoFCou.
 Leave Link  703 at Fri Oct  9 10:59:32 2020, MaxMem=  2684354560 cpu:               9.1 elap:               0.8
 (Enter /udrive/faculty/rpeverati/g16/g16/l716.exe)
 Dipole        =-4.88156894D-01 6.21804187D-01-1.18231389D-03
 ***** Axes restored to original set *****
 -------------------------------------------------------------------
 Center     Atomic                   Forces (Hartrees/Bohr)
 Number     Number              X              Y              Z
 -------------------------------------------------------------------
      1        6           0.005405225    0.000337576    0.000012042
      2        8           0.001023444   -0.006146441   -0.000085554
      3        1          -0.003757479   -0.002761570    0.000118790
      4        1          -0.001856965   -0.000809414    0.003403373
      5        1          -0.001637150    0.003661741   -0.001017984
      6        1          -0.001855675   -0.002356277   -0.002438998
      7        1           0.002678601    0.008074386    0.000008331
 -------------------------------------------------------------------
 Cartesian Forces:  Max     0.008074386 RMS     0.003162649
 Leave Link  716 at Fri Oct  9 10:59:32 2020, MaxMem=  2684354560 cpu:               0.3 elap:               0.1
 (Enter /udrive/faculty/rpeverati/g16/g16/l103.exe)

 GradGradGradGradGradGradGradGradGradGradGradGradGradGradGradGradGradGrad
 Berny optimization.
 Optmz: redundant internal coordinate code flag= 1
 Red2BG:  D1=  1.42D-01 OD1=  3.90D-03 B2RMS=  0.00D+00 IAprox=0
 FormGI is forming the generalized inverse of G from B-inverse, IUseBI=4.
 Internal  Forces:  Max     0.008349653 RMS     0.002842290
 Numerically estimating second derivatives.
 Iteration  1 RMS(Cart)=  0.00139940 RMS(Int)=  0.00000383
 Iteration  2 RMS(Cart)=  0.00000008 RMS(Int)=  0.00000383
 Largest change from initial coordinates is atom    2       0.002 Angstoms.
 GradGradGradGradGradGradGradGradGradGradGradGradGradGradGradGradGradGrad

 Leave Link  103 at Fri Oct  9 10:59:32 2020, MaxMem=  2684354560 cpu:               0.4 elap:               0.1
 (Enter /udrive/faculty/rpeverati/g16/g16/l202.exe)
                          Input orientation:                          
 ---------------------------------------------------------------------
 Center     Atomic      Atomic             Coordinates (Angstroms)
 Number     Number       Type             X           Y           Z
 ---------------------------------------------------------------------
      1          6           0       -1.212234    0.007883    0.000407
      2          8           0        1.295877   -0.108502    0.000133
      3          1           0        0.008743   -0.117978    0.002799
      4          1           0       -1.526249   -0.233373    1.010071
      5          1           0       -1.431523    1.033126   -0.278083
      6          1           0       -1.553381   -0.710237   -0.737702
      7          1           0        1.418454    0.850100   -0.000591
 ---------------------------------------------------------------------
                    Distance matrix (angstroms):
                    1          2          3          4          5
     1  C    0.000000
     2  O    2.510810   0.000000
     3  H    1.227449   1.287172   0.000000
     4  H    1.084542   2.999994   1.839596   0.000000
     5  H    1.084789   2.969753   1.865021   1.808959   0.000000
     6  H    1.084843   3.004124   1.827388   1.811863   1.807046
     7  H    2.762218   0.966408   1.710108   3.296456   2.869298
                    6          7
     6  H    0.000000
     7  H    3.436537   0.000000
 Stoichiometry    CH5O(2)
 Framework group  C1[X(CH5O)]
 Deg. of freedom    15
 Full point group                 C1      NOp   1
 RotChk:  IX=0 Diff= 1.88D-04
 Largest Abelian subgroup         C1      NOp   1
 Largest concise Abelian subgroup C1      NOp   1
                         Standard orientation:                         
 ---------------------------------------------------------------------
 Center     Atomic      Atomic             Coordinates (Angstroms)
 Number     Number       Type             X           Y           Z
 ---------------------------------------------------------------------
      1          6           0       -1.212741    0.007967    0.000407
      2          8           0        1.295357   -0.108692    0.000133
      3          1           0        0.008222   -0.118028    0.002799
      4          1           0       -1.526782   -0.233255    1.010071
      5          1           0       -1.431919    1.033234   -0.278083
      6          1           0       -1.553967   -0.710116   -0.737702
      7          1           0        1.418038    0.849897   -0.000591
 ---------------------------------------------------------------------
 Rotational constants (GHZ):         120.8647040           9.2290623           9.0843860
 Leave Link  202 at Fri Oct  9 10:59:32 2020, MaxMem=  2684354560 cpu:               0.2 elap:               0.1
 (Enter /udrive/faculty/rpeverati/g16/g16/l301.exe)
 Standard basis: 6-31G(d) (5D, 7F)
 Ernie: Thresh=  0.10000D-02 Tol=  0.10000D-05 Strict=F.
 There are    40 symmetry adapted cartesian basis functions of A   symmetry.
 There are    38 symmetry adapted basis functions of A   symmetry.
    38 basis functions,    76 primitive gaussians,    40 cartesian basis functions
    10 alpha electrons        9 beta electrons
       nuclear repulsion energy        37.0959979223 Hartrees.
 IExCor= 1009 DFT=T Ex+Corr=PBE1PBE ExCW=0 ScaHFX=  0.250000
 ScaDFX=  0.750000  0.750000  1.000000  1.000000 ScalE2=  1.000000  1.000000
 IRadAn=      5 IRanWt=     -1 IRanGd=            0 ICorTp=0 IEmpDi=  4
 NAtoms=    7 NActive=    7 NUniq=    7 SFac= 1.00D+00 NAtFMM=   60 NAOKFM=F Big=F
 Integral buffers will be    131072 words long.
 Raffenetti 2 integral format.
 Two-electron integral symmetry is turned on.
 Leave Link  301 at Fri Oct  9 10:59:32 2020, MaxMem=  2684354560 cpu:               0.8 elap:               0.1
 (Enter /udrive/faculty/rpeverati/g16/g16/l302.exe)
 NPDir=0 NMtPBC=     1 NCelOv=     1 NCel=       1 NClECP=     1 NCelD=      1
         NCelK=      1 NCelE2=     1 NClLst=     1 CellRange=     0.0.
 One-electron integrals computed using PRISM.
 One-electron integral symmetry used in STVInt
 NBasis=    38 RedAO= T EigKep=  1.02D-02  NBF=    38
 NBsUse=    38 1.00D-06 EigRej= -1.00D+00 NBFU=    38
 Precomputing XC quadrature grid using
 IXCGrd= 4 IRadAn=           5 IRanWt=          -1 IRanGd=           0 AccXCQ= 0.00D+00.
 Generated NRdTot=       0 NPtTot=           0 NUsed=           0 NTot=          32
 NSgBfM=    40    40    40    40    40 MxSgAt=     7 MxSgA2=     7.
 Leave Link  302 at Fri Oct  9 10:59:32 2020, MaxMem=  2684354560 cpu:               2.6 elap:               0.3
 (Enter /udrive/faculty/rpeverati/g16/g16/l303.exe)
 DipDrv:  MaxL=1.
 Leave Link  303 at Fri Oct  9 10:59:32 2020, MaxMem=  2684354560 cpu:               0.3 elap:               0.1
 (Enter /udrive/faculty/rpeverati/g16/g16/l401.exe)
 Initial guess from the checkpoint file:  "MN_81_RKT04_BH76_PBE0_631Gs.chk"
 SCF N**3 symmetry information disabled.
 B after Tr=    -0.000000   -0.000000   -0.000000
         Rot=    1.000000    0.000000    0.000000   -0.000021 Ang=   0.00 deg.
 Guess basis will be translated and rotated to current coordinates.
 JPrj=2 DoOrth=T DoCkMO=T.
 Initial guess <Sx>= 0.0000 <Sy>= 0.0000 <Sz>= 0.5000 <S**2>= 0.7581 S= 0.5040
 Generating alternative initial guess.
 ExpMin= 1.61D-01 ExpMax= 5.48D+03 ExpMxC= 8.25D+02 IAcc=2 IRadAn=         4 AccDes= 0.00D+00
 Harris functional with IExCor= 1009 and IRadAn=       4 diagonalized for initial guess.
 HarFok:  IExCor= 1009 AccDes= 0.00D+00 IRadAn=         4 IDoV= 1 UseB2=F ITyADJ=14
 ICtDFT=  3500011 ScaDFX=  1.000000  1.000000  1.000000  1.000000
 FoFCou: FMM=F IPFlag=           0 FMFlag=      100000 FMFlg1=           0
         NFxFlg=           0 DoJE=T BraDBF=F KetDBF=T FulRan=T
         wScrn=  0.000000 ICntrl=       500 IOpCl=  0 I1Cent=   200000004 NGrid=           0
         NMat0=    1 NMatS0=      1 NMatT0=    0 NMatD0=    1 NMtDS0=    0 NMtDT0=    0
 Petite list used in FoFCou.
 Harris En= -116.134481877825    
 Leave Link  401 at Fri Oct  9 10:59:33 2020, MaxMem=  2684354560 cpu:               5.1 elap:               0.5
 (Enter /udrive/faculty/rpeverati/g16/g16/l502.exe)
 Keep R1 and R2 ints in memory in canonical form, NReq=10906541.
 FoFCou: FMM=F IPFlag=           0 FMFlag=           0 FMFlg1=           0
         NFxFlg=           0 DoJE=F BraDBF=F KetDBF=F FulRan=T
         wScrn=  0.000000 ICntrl=       600 IOpCl=  0 I1Cent=           0 NGrid=           0
         NMat0=    1 NMatS0=    741 NMatT0=    0 NMatD0=    1 NMtDS0=    0 NMtDT0=    0
 Symmetry not used in FoFCou.
 Two-electron integral symmetry not used.
 UHF open shell SCF:
 Using DIIS extrapolation, IDIIS=  1040.
 NGot=  2684354560 LenX=  2683800373 LenY=  2683798332
 Requested convergence on RMS density matrix=1.00D-08 within 120 cycles.
 Requested convergence on MAX density matrix=1.00D-06.
 Requested convergence on             energy=1.00D-06.
 No special actions if energy rises.
 Integral accuracy reduced to 1.0D-05 until final iterations.

 Cycle   1  Pass 0  IDiag  1:
 E= -116.090400333737    
 DIIS: error= 1.82D-04 at cycle   1 NSaved=   1.
 NSaved= 1 IEnMin= 1 EnMin= -116.090400333737     IErMin= 1 ErrMin= 1.82D-04
 ErrMax= 1.82D-04  0.00D+00 EMaxC= 1.00D-01 BMatC= 5.38D-06 BMatP= 5.38D-06
 IDIUse=3 WtCom= 9.98D-01 WtEn= 1.82D-03
 Coeff-Com:  0.100D+01
 Coeff-En:   0.100D+01
 Coeff:      0.100D+01
 Gap=     0.574 Goal=   None    Shift=    0.000
 Gap=     0.601 Goal=   None    Shift=    0.000
 RMSDP=4.77D-05 MaxDP=4.61D-04              OVMax= 6.63D-04

 Cycle   2  Pass 0  IDiag  1:
 E= -116.090402092166     Delta-E=       -0.000001758428 Rises=F Damp=F
 DIIS: error= 4.98D-05 at cycle   2 NSaved=   2.
 NSaved= 2 IEnMin= 2 EnMin= -116.090402092166     IErMin= 2 ErrMin= 4.98D-05
 ErrMax= 4.98D-05  0.00D+00 EMaxC= 1.00D-01 BMatC= 2.77D-07 BMatP= 5.38D-06
 IDIUse=1 WtCom= 1.00D+00 WtEn= 0.00D+00
 Coeff-Com:  0.627D-01 0.937D+00
 Coeff:      0.627D-01 0.937D+00
 Gap=     0.393 Goal=   None    Shift=    0.000
 Gap=     0.179 Goal=   None    Shift=    0.000
 RMSDP=1.36D-05 MaxDP=1.49D-04 DE=-1.76D-06 OVMax= 4.28D-04

 Cycle   3  Pass 0  IDiag  1:
 E= -116.090402140790     Delta-E=       -0.000000048625 Rises=F Damp=F
 DIIS: error= 5.45D-05 at cycle   3 NSaved=   3.
 NSaved= 3 IEnMin= 3 EnMin= -116.090402140790     IErMin= 2 ErrMin= 4.98D-05
 ErrMax= 5.45D-05  0.00D+00 EMaxC= 1.00D-01 BMatC= 2.83D-07 BMatP= 2.77D-07
 IDIUse=1 WtCom= 1.00D+00 WtEn= 0.00D+00
 Coeff-Com: -0.226D-01 0.503D+00 0.519D+00
 Coeff:     -0.226D-01 0.503D+00 0.519D+00
 Gap=     0.393 Goal=   None    Shift=    0.000
 Gap=     0.179 Goal=   None    Shift=    0.000
 RMSDP=6.25D-06 MaxDP=8.68D-05 DE=-4.86D-08 OVMax= 1.04D-04

 Initial convergence to 1.0D-05 achieved.  Increase integral accuracy.
 Cycle   4  Pass 1  IDiag  1:
 E= -116.090402355284     Delta-E=       -0.000000214494 Rises=F Damp=F
 DIIS: error= 1.44D-05 at cycle   1 NSaved=   1.
 NSaved= 1 IEnMin= 1 EnMin= -116.090402355284     IErMin= 1 ErrMin= 1.44D-05
 ErrMax= 1.44D-05  0.00D+00 EMaxC= 1.00D-01 BMatC= 1.80D-08 BMatP= 1.80D-08
 IDIUse=1 WtCom= 1.00D+00 WtEn= 0.00D+00
 Coeff-Com:  0.100D+01
 Coeff:      0.100D+01
 Gap=     0.393 Goal=   None    Shift=    0.000
 Gap=     0.179 Goal=   None    Shift=    0.000
 RMSDP=6.25D-06 MaxDP=8.68D-05 DE=-2.14D-07 OVMax= 1.25D-04

 Cycle   5  Pass 1  IDiag  1:
 E= -116.090402353073     Delta-E=        0.000000002211 Rises=F Damp=F
 DIIS: error= 2.43D-05 at cycle   2 NSaved=   2.
 NSaved= 2 IEnMin= 1 EnMin= -116.090402355284     IErMin= 1 ErrMin= 1.44D-05
 ErrMax= 2.43D-05  0.00D+00 EMaxC= 1.00D-01 BMatC= 4.21D-08 BMatP= 1.80D-08
 IDIUse=1 WtCom= 1.00D+00 WtEn= 0.00D+00
 Coeff-Com:  0.614D+00 0.386D+00
 Coeff:      0.614D+00 0.386D+00
 Gap=     0.393 Goal=   None    Shift=    0.000
 Gap=     0.179 Goal=   None    Shift=    0.000
 RMSDP=2.10D-06 MaxDP=2.35D-05 DE= 2.21D-09 OVMax= 4.10D-05

 Cycle   6  Pass 1  IDiag  1:
 E= -116.090402361553     Delta-E=       -0.000000008481 Rises=F Damp=F
 DIIS: error= 2.47D-06 at cycle   3 NSaved=   3.
 NSaved= 3 IEnMin= 3 EnMin= -116.090402361553     IErMin= 3 ErrMin= 2.47D-06
 ErrMax= 2.47D-06  0.00D+00 EMaxC= 1.00D-01 BMatC= 3.24D-10 BMatP= 1.80D-08
 IDIUse=1 WtCom= 1.00D+00 WtEn= 0.00D+00
 Coeff-Com:  0.214D-01 0.294D-02 0.976D+00
 Coeff:      0.214D-01 0.294D-02 0.976D+00
 Gap=     0.393 Goal=   None    Shift=    0.000
 Gap=     0.179 Goal=   None    Shift=    0.000
 RMSDP=6.41D-07 MaxDP=6.62D-06 DE=-8.48D-09 OVMax= 2.22D-05

 Cycle   7  Pass 1  IDiag  1:
 E= -116.090402361812     Delta-E=       -0.000000000259 Rises=F Damp=F
 DIIS: error= 2.08D-06 at cycle   4 NSaved=   4.
 NSaved= 4 IEnMin= 4 EnMin= -116.090402361812     IErMin= 4 ErrMin= 2.08D-06
 ErrMax= 2.08D-06  0.00D+00 EMaxC= 1.00D-01 BMatC= 2.47D-10 BMatP= 3.24D-10
 IDIUse=1 WtCom= 1.00D+00 WtEn= 0.00D+00
 Coeff-Com: -0.150D+00-0.136D+00 0.285D+00 0.100D+01
 Coeff:     -0.150D+00-0.136D+00 0.285D+00 0.100D+01
 Gap=     0.393 Goal=   None    Shift=    0.000
 Gap=     0.179 Goal=   None    Shift=    0.000
 RMSDP=4.29D-07 MaxDP=5.58D-06 DE=-2.59D-10 OVMax= 8.92D-06

 Cycle   8  Pass 1  IDiag  1:
 E= -116.090402361909     Delta-E=       -0.000000000097 Rises=F Damp=F
 DIIS: error= 4.35D-07 at cycle   5 NSaved=   5.
 NSaved= 5 IEnMin= 5 EnMin= -116.090402361909     IErMin= 5 ErrMin= 4.35D-07
 ErrMax= 4.35D-07  0.00D+00 EMaxC= 1.00D-01 BMatC= 1.44D-11 BMatP= 2.47D-10
 IDIUse=1 WtCom= 1.00D+00 WtEn= 0.00D+00
 Coeff-Com: -0.709D-01-0.628D-01 0.656D-01 0.444D+00 0.624D+00
 Coeff:     -0.709D-01-0.628D-01 0.656D-01 0.444D+00 0.624D+00
 Gap=     0.393 Goal=   None    Shift=    0.000
 Gap=     0.179 Goal=   None    Shift=    0.000
 RMSDP=5.76D-08 MaxDP=7.04D-07 DE=-9.74D-11 OVMax= 1.83D-06

 Cycle   9  Pass 1  IDiag  1:
 E= -116.090402361914     Delta-E=       -0.000000000005 Rises=F Damp=F
 DIIS: error= 6.00D-08 at cycle   6 NSaved=   6.
 NSaved= 6 IEnMin= 6 EnMin= -116.090402361914     IErMin= 6 ErrMin= 6.00D-08
 ErrMax= 6.00D-08  0.00D+00 EMaxC= 1.00D-01 BMatC= 3.81D-13 BMatP= 1.44D-11
 IDIUse=1 WtCom= 1.00D+00 WtEn= 0.00D+00
 Coeff-Com:  0.270D-01 0.248D-01-0.349D-01-0.174D+00-0.109D+00 0.127D+01
 Coeff:      0.270D-01 0.248D-01-0.349D-01-0.174D+00-0.109D+00 0.127D+01
 Gap=     0.393 Goal=   None    Shift=    0.000
 Gap=     0.179 Goal=   None    Shift=    0.000
 RMSDP=2.01D-08 MaxDP=1.75D-07 DE=-4.66D-12 OVMax= 4.52D-07

 Cycle  10  Pass 1  IDiag  1:
 E= -116.090402361914     Delta-E=       -0.000000000000 Rises=F Damp=F
 DIIS: error= 1.33D-08 at cycle   7 NSaved=   7.
 NSaved= 7 IEnMin= 7 EnMin= -116.090402361914     IErMin= 7 ErrMin= 1.33D-08
 ErrMax= 1.33D-08  0.00D+00 EMaxC= 1.00D-01 BMatC= 2.05D-14 BMatP= 3.81D-13
 IDIUse=1 WtCom= 1.00D+00 WtEn= 0.00D+00
 Coeff-Com:  0.602D-02 0.558D-02-0.730D-02-0.386D-01-0.448D-01 0.977D-01
 Coeff-Com:  0.981D+00
 Coeff:      0.602D-02 0.558D-02-0.730D-02-0.386D-01-0.448D-01 0.977D-01
 Coeff:      0.981D+00
 Gap=     0.393 Goal=   None    Shift=    0.000
 Gap=     0.179 Goal=   None    Shift=    0.000
 RMSDP=4.38D-09 MaxDP=3.39D-08 DE=-2.84D-13 OVMax= 8.51D-08

 SCF Done:  E(UPBE1PBE) =  -116.090402362     A.U. after   10 cycles
            NFock= 10  Conv=0.44D-08     -V/T= 2.0047
 <Sx>= 0.0000 <Sy>= 0.0000 <Sz>= 0.5000 <S**2>= 0.7581 S= 0.5040
 <L.S>= 0.000000000000E+00
 KE= 1.155496281802D+02 PE=-3.466845619162D+02 EE= 7.794853345183D+01
 Annihilation of the first spin contaminant:
 S**2 before annihilation     0.7581,   after     0.7500
 Leave Link  502 at Fri Oct  9 10:59:35 2020, MaxMem=  2684354560 cpu:              22.0 elap:               1.9
 (Enter /udrive/faculty/rpeverati/g16/g16/l508.exe)
 QCSCF skips out because SCF is already converged.
 Leave Link  508 at Fri Oct  9 10:59:35 2020, MaxMem=  2684354560 cpu:               0.1 elap:               0.1
 (Enter /udrive/faculty/rpeverati/g16/g16/l701.exe)
 ... and contract with generalized density number  0.
 Compute integral first derivatives.
 Leave Link  701 at Fri Oct  9 10:59:35 2020, MaxMem=  2684354560 cpu:               2.6 elap:               0.3
 (Enter /udrive/faculty/rpeverati/g16/g16/l702.exe)
 L702 exits ... SP integral derivatives will be done elsewhere.
 Leave Link  702 at Fri Oct  9 10:59:35 2020, MaxMem=  2684354560 cpu:               0.3 elap:               0.1
 (Enter /udrive/faculty/rpeverati/g16/g16/l703.exe)
 Integral derivatives from FoFJK, PRISM(SPDF).
 Compute integral first derivatives, UseDBF=F ICtDFT=           0.
 Calling FoFJK, ICntrl=      2127 FMM=F ISym2X=0 I1Cent= 0 IOpClX= 1 NMat=1 NMatS=1 NMatT=0.
 FoFJK:  IHMeth= 1 ICntrl=    2127 DoSepK=F KAlg= 0 I1Cent=           0 FoldK=F
 IRaf=         0 NMat=       1 IRICut=       1 DoRegI=T DoRafI=F ISym2E= 0 IDoP0=0 IntGTp=1.
 FoFCou: FMM=F IPFlag=           0 FMFlag=      100000 FMFlg1=         800
         NFxFlg=           0 DoJE=F BraDBF=F KetDBF=F FulRan=T
         wScrn=  0.000000 ICntrl=      2127 IOpCl=  1 I1Cent=           0 NGrid=           0
         NMat0=    1 NMatS0=      1 NMatT0=    0 NMatD0=    1 NMtDS0=    0 NMtDT0=    0
 Symmetry not used in FoFCou.
 Leave Link  703 at Fri Oct  9 10:59:36 2020, MaxMem=  2684354560 cpu:               9.1 elap:               0.8
 (Enter /udrive/faculty/rpeverati/g16/g16/l716.exe)
 Dipole        =-4.88939118D-01 6.22014753D-01-1.17857838D-03
 ***** Axes restored to original set *****
 -------------------------------------------------------------------
 Center     Atomic                   Forces (Hartrees/Bohr)
 Number     Number              X              Y              Z
 -------------------------------------------------------------------
      1        6           0.006538432    0.000218156    0.000009324
      2        8           0.000401523   -0.006188522   -0.000082953
      3        1          -0.004343536   -0.002606900    0.000115154
      4        1          -0.001822905   -0.000815584    0.003407232
      5        1          -0.001594574    0.003663073   -0.001017830
      6        1          -0.001826683   -0.002363461   -0.002438943
      7        1           0.002647743    0.008093238    0.000008016
 -------------------------------------------------------------------
 Cartesian Forces:  Max     0.008093238 RMS     0.003287180
 Leave Link  716 at Fri Oct  9 10:59:36 2020, MaxMem=  2684354560 cpu:               0.3 elap:               0.1
 (Enter /udrive/faculty/rpeverati/g16/g16/l103.exe)

 GradGradGradGradGradGradGradGradGradGradGradGradGradGradGradGradGradGrad
 Berny optimization.
 Optmz: redundant internal coordinate code flag= 1
 Red2BG:  D1=  1.42D-01 OD1=  3.40D-03 B2RMS=  0.00D+00 IAprox=0
 FormGI is forming the generalized inverse of G from B-inverse, IUseBI=4.
 Internal  Forces:  Max     0.008364028 RMS     0.002807820
 Search for a saddle point.
 Step number   1 out of a maximum of   50
 All quantities printed in internal units (Hartrees-Bohrs-Radians)
 Swapping is turned off.
 Second derivative matrix not updated -- first step.
 The second derivative matrix:
                          R1        R2        R3        R4        R5
           R1           0.14824
           R2           0.00147   0.35451
           R3           0.00158  -0.00000   0.35422
           R4           0.00152  -0.00000  -0.00000   0.35415
           R5           0.10095  -0.00049  -0.00014  -0.00062   0.02916
           R6           0.00274   0.00000   0.00000   0.00000  -0.00562
           A1           0.01463   0.00000   0.00000   0.00000  -0.00642
           A2           0.01549  -0.00000  -0.00000  -0.00000  -0.00439
           A3           0.01414   0.00000   0.00000   0.00000  -0.00818
           A4          -0.01238  -0.00000  -0.00000  -0.00000   0.00469
           A5          -0.01246   0.00000   0.00000   0.00000   0.00647
           A6          -0.01263  -0.00000  -0.00000  -0.00000   0.00492
           A7          -0.00202  -0.00000  -0.00000  -0.00000   0.01331
           A8           0.00147  -0.00000  -0.00000  -0.00000   0.00211
           A9           0.00010   0.00000   0.00000   0.00000   0.00012
           D1           0.00000  -0.00000  -0.00000  -0.00000  -0.00087
           D2           0.00019   0.00000   0.00000   0.00000   0.00039
           D3          -0.00017   0.00000   0.00000   0.00000   0.00053
                          R6        A1        A2        A3        A4
           R6           0.54118
           A1           0.00000   0.16001
           A2          -0.00000  -0.00001   0.15998
           A3           0.00000   0.00001  -0.00000   0.16002
           A4          -0.00001  -0.00002  -0.00001  -0.00003   0.16003
           A5           0.00001   0.00003   0.00004   0.00002  -0.00001
           A6          -0.00000  -0.00001   0.00000  -0.00002   0.00003
           A7          -0.00000  -0.00000   0.00001  -0.00001   0.00002
           A8          -0.00000  -0.00001  -0.00001  -0.00001   0.00001
           A9           0.00000   0.00000   0.00000   0.00000  -0.00000
           D1          -0.00002  -0.00004  -0.00004  -0.00005   0.00004
           D2           0.00000   0.00001   0.00001   0.00001  -0.00001
           D3           0.00001   0.00003   0.00003   0.00004  -0.00003
                          A5        A6        A7        A8        A9
           A5           0.15995
           A6          -0.00002   0.16002
           A7          -0.00002   0.00001   0.16000
           A8           0.00001   0.00001   0.00001   0.00230
           A9          -0.00000  -0.00000  -0.00000   0.00000   0.00230
           D1           0.00004   0.00004   0.00003   0.00000   0.00000
           D2          -0.00001  -0.00001  -0.00001  -0.00000  -0.00000
           D3          -0.00003  -0.00003  -0.00002  -0.00000  -0.00000
                          D1        D2        D3
           D1           0.00230
           D2           0.00000   0.00230
           D3           0.00000  -0.00000   0.00230
 ITU=  0
 Eigenvectors of the second derivative matrix:
                           1         2         3         4         5
     Eigenvalues --    -0.03387   0.00230   0.00230   0.00231   0.10693
   1         R1         0.49940  -0.00252   0.00000  -0.02683   0.00164
   2         R2        -0.00296   0.00001  -0.00000   0.00014   0.00000
   3         R3        -0.00234   0.00001  -0.00000   0.00013  -0.00001
   4         R4        -0.00331   0.00001  -0.00000   0.00015   0.00001
   5         R5        -0.85020   0.00159  -0.00000   0.02198   0.00724
   6         R6        -0.01069   0.00003  -0.00000   0.00037   0.00007
[...]
           A1           0.01443   0.00117  -0.00607  -0.00643  -0.00644
           A2           0.01546  -0.00624   0.00024  -0.00634  -0.00440
           A3           0.01407  -0.00642  -0.00617   0.00150  -0.00842
           A4          -0.01240   0.00653   0.00683  -0.00366   0.00476
           A5          -0.01208   0.00681  -0.00380   0.00683   0.00662
           A6          -0.01263  -0.00363   0.00688   0.00655   0.00489
           A7          -0.00011  -0.00044   0.00111  -0.00108   0.01176
           A8           0.00279   0.00082  -0.00286   0.00205   0.00492
           A9          -0.00005  -0.00226   0.00063   0.00171  -0.00008
           D1           0.00018  -0.00007  -0.00498   0.00466  -0.00135
           D2           0.00019   0.00481   0.00001  -0.00489   0.00042
           D3          -0.00035  -0.00472   0.00508   0.00002   0.00098
                          R6        A1        A2        A3        A4
           R6           0.50511
           A1          -0.00119   0.07407
           A2          -0.00059  -0.00448   0.07868
           A3          -0.00164  -0.00484  -0.00496   0.07419
           A4           0.00088  -0.02340  -0.02692  -0.00429   0.05592
           A5           0.00082  -0.02717  -0.00417  -0.02668  -0.00533
           A6           0.00118  -0.00431  -0.02737  -0.02322  -0.00529
           A7           0.00813   0.00044  -0.00161   0.00173   0.00018
           A8          -0.00326   0.00271   0.00031   0.00407  -0.00678
           A9           0.00000  -0.00022  -0.00017   0.00015  -0.00203
           D1           0.00006  -0.00060  -0.00487   0.00544  -0.01952
           D2           0.00006   0.00322   0.00043  -0.00321   0.02019
           D3          -0.00027  -0.00567   0.00514   0.00036  -0.00065
                          A5        A6        A7        A8        A9
           A5           0.06046
           A6          -0.00510   0.05657
           A7          -0.00028  -0.00036   0.10995
           A8           0.00597  -0.00493   0.00410   0.02786
           A9          -0.00129   0.00352   0.00005   0.00002   0.00584
           D1           0.01961   0.00064  -0.00005   0.00149   0.00007
           D2           0.00005  -0.02091   0.00007  -0.00020  -0.00182
           D3          -0.01907   0.01947   0.00013  -0.00171   0.00132
                          D1        D2        D3
           D1           0.01667
           D2          -0.00830   0.01626
           D3          -0.00773  -0.00842   0.01627
 ITU=  0
 Eigenvectors of the second derivative matrix:
                           1         2         3         4         5
     Eigenvalues --    -0.04399   0.00001   0.00557   0.02609   0.06893
   1         R1         0.56325   0.00150  -0.00179  -0.04942   0.00574
   2         R2        -0.00702   0.00035  -0.00431  -0.00052  -0.03378
   3         R3        -0.00703   0.00028   0.00092   0.00037   0.03785
   4         R4        -0.00712  -0.00070   0.00352  -0.00239  -0.00204
   5         R5        -0.79825  -0.00153   0.00192   0.03097  -0.01616
   6         R6        -0.01482  -0.00027   0.00014   0.00803   0.00229
   7         A1        -0.08644  -0.02325   0.00653  -0.02443   0.47855
   8         A2        -0.07429   0.00410  -0.00332   0.01187  -0.45663
   9         A3        -0.09890   0.02029  -0.00456  -0.03852   0.02666
  10         A4         0.07045  -0.00611   0.00154   0.04251  -0.03935
  11         A5         0.07708   0.00269  -0.00525  -0.04103   0.36990
  12         A6         0.07158   0.00273   0.00469   0.03989  -0.36178
  13         A7         0.06176   0.00127  -0.00007  -0.05162  -0.03559
  14         A8         0.04375  -0.01137   0.00770   0.96482   0.15064
  15         A9        -0.00153  -0.04688  -0.99298   0.01204  -0.03931
  16         D1        -0.01873  -0.57224   0.04136  -0.18830   0.22356
  17         D2         0.00456  -0.57807  -0.05573   0.02589   0.18326
  18         D3         0.01636  -0.57881   0.09455   0.13932  -0.42494
                           6         7         8         9        10
     Eigenvalues --     0.07014   0.09493   0.10113   0.10915   0.11602
   1         R1         0.01436   0.01551  -0.04517   0.10813   0.02275
   2         R2         0.02261  -0.01128  -0.00472  -0.01683  -0.02959
   3         R3         0.01968  -0.00098   0.01521  -0.01047  -0.03046
   4         R4        -0.04199   0.00897  -0.00257  -0.01886  -0.02876
   5         R5        -0.01153   0.00499  -0.01464   0.11405   0.25857
   6         R6         0.00205   0.00181  -0.00332   0.01548  -0.01058
   7         A1        -0.30710  -0.48274  -0.29240  -0.20751  -0.35266
   8         A2        -0.22740  -0.03987   0.59294  -0.07591  -0.43094
   9         A3         0.56746   0.48477  -0.23973  -0.27988  -0.34177
  10         A4        -0.42236   0.49611  -0.25257   0.08710   0.30657
  11         A5         0.19192  -0.01293   0.51895   0.25142   0.33357
  12         A6         0.21723  -0.45399  -0.30798   0.13858   0.31063
  13         A7        -0.03384  -0.06453   0.16545  -0.86804   0.44835
  14         A8         0.10896  -0.01176   0.07696  -0.05164  -0.00983
  15         A9         0.03361  -0.03268  -0.01574  -0.00059   0.00128
  16         D1         0.35718  -0.10552   0.14092   0.02488   0.00930
  17         D2        -0.35199   0.22885   0.01773  -0.01044  -0.00403
  18         D3         0.03061  -0.09283  -0.14582  -0.01614  -0.00581
                          11        12        13        14        15
     Eigenvalues --     0.20346   0.36302   0.36371   0.36447   0.50542
   1         R1        -0.81579   0.00004   0.00084   0.00279  -0.00388
   2         R2        -0.00537   0.23793  -0.51812   0.81969   0.00024
   3         R3        -0.00571  -0.87136   0.25626   0.41459  -0.00297
   4         R4        -0.00633   0.42564   0.81423   0.39079   0.00077
   5         R5        -0.53021  -0.00112  -0.00004   0.00133   0.01320
   6         R6        -0.00394   0.00324  -0.00033  -0.00102  -0.99966
   7         A1        -0.09135   0.00953  -0.02570  -0.01745   0.00268
   8         A2        -0.11375  -0.01351  -0.00791  -0.02927   0.00143
   9         A3        -0.08085   0.01514   0.00853  -0.02779   0.00367
  10         A4         0.08375  -0.02122  -0.01528   0.02595  -0.00208
  11         A5         0.07262   0.02739   0.00457   0.02599  -0.00177
  12         A6         0.08496  -0.01459   0.03225   0.01098  -0.00270
  13         A7        -0.06792  -0.00564  -0.00142  -0.00131  -0.02009
  14         A8        -0.03594   0.01207   0.00131   0.00019   0.00687
  15         A9         0.00072  -0.00117   0.00819  -0.00275  -0.00001
  16         D1         0.00300   0.02191   0.00908  -0.00085  -0.00008
  17         D2        -0.00296  -0.00320  -0.02237   0.00694  -0.00011
  18         D3        -0.00034  -0.01908   0.01310  -0.00623   0.00046
 Eigenvalue     1 is  -4.40D-02 should be greater than     0.000000 Eigenvector:
                          R5        R1        A3        A1        A5
   1                   -0.79825   0.56325  -0.09890  -0.08644   0.07708
                          A2        A6        A4        A7        A8
   1                   -0.07429   0.07158   0.07045   0.06176   0.04375
 RedStp:  It= 1 RLamda= 0.000D+00 R=3.796D-01
          Err=6.338D-03 DErr= 6.857D+03 DDErr=5.264D+09
 RedStp:  It= 2 RLamda=-1.302D-06 R=3.307D-01
          Err=9.452D-04 DErr= 2.010D+03 DDErr=2.535D+09
 RedStp:  It= 3 RLamda=-2.095D-06 R=3.067D-01
          Err=4.494D-05 DErr= 3.769D+02 DDErr=1.649D+09
 RedStp:  It= 4 RLamda=-2.324D-06 R=3.004D-01
          Err=1.702D-07 DErr= 2.225D+01 DDErr=1.459D+09
 Quadratic step=3.796D-01 exceeds max=3.000D-01 adjusted using Lamda=-2.324D-06.
 Angle between NR and scaled steps=   0.04 degrees.
 Angle between quadratic step and forces=  84.68 degrees.
 Linear search not attempted -- first point.
 Iteration  1 RMS(Cart)=  0.05477944 RMS(Int)=  0.00464518
 Iteration  2 RMS(Cart)=  0.00382783 RMS(Int)=  0.00003059
 Iteration  3 RMS(Cart)=  0.00001148 RMS(Int)=  0.00002958
 Iteration  4 RMS(Cart)=  0.00000000 RMS(Int)=  0.00002958
 ITry= 1 IFail=0 DXMaxC= 1.63D-01 DCOld= 1.00D+10 DXMaxT= 3.00D-01 DXLimC= 3.00D+00 Rises=F
 Variable       Old X    -DE/DX   Delta X   Delta X   Delta X     New X
                                 (Linear)    (Quad)   (Total)
    R1        2.37029  -0.00000   0.00000  -0.00050  -0.00050   2.36978
    R2        2.05982   0.00000   0.00000  -0.00010  -0.00010   2.05973
    R3        2.06017  -0.00000   0.00000  -0.00010  -0.00010   2.06007
    R4        2.06033   0.00000   0.00000   0.00023   0.00023   2.06055
    R5        2.35741   0.00000   0.00000   0.00051   0.00051   2.35793
    R6        1.84027  -0.00002   0.00000   0.00005   0.00005   1.84032
    A1        1.83615   0.00001   0.00000   0.00706   0.00706   1.84321
    A2        1.87670   0.00001   0.00000  -0.00109  -0.00111   1.87559
    A3        1.81537  -0.00003   0.00000  -0.00641  -0.00639   1.80898
    A4        1.97313   0.00000   0.00000   0.00190   0.00184   1.97497
    A5        1.97828   0.00000   0.00000  -0.00082  -0.00078   1.97750
    A6        1.96854   0.00000   0.00000  -0.00079  -0.00079   1.96775
    A7        1.74339   0.00001   0.00000  -0.00028  -0.00028   1.74311
    A8        2.96976   0.00000   0.00000   0.00354   0.00352   2.97328
    A9        3.16795   0.00000   0.00000   0.01489   0.01489   3.18283
    D1       -1.80830  -0.00001   0.00000   0.17174   0.17166  -1.63664
    D2        0.27211   0.00001   0.00000   0.17377   0.17381   0.44592
    D3        2.34886   0.00000   0.00000   0.17385   0.17389   2.52275
         Item               Value     Threshold  Converged?
 Maximum Force            0.000026     0.000450     YES
 RMS     Force            0.000009     0.000300     YES
 Maximum Displacement     0.163101     0.001800     NO 
 RMS     Displacement     0.054704     0.001200     NO 
 Predicted change in Energy=-6.163123D-07
                           ----------------------------
                           ! Non-Optimized Parameters !
                           ! (Angstroms and Degrees)  !
 --------------------------                            --------------------------
 ! Name  Definition              Value          Derivative Info.                !
 --------------------------------------------------------------------------------
 ! R1    R(1,3)                  1.254          -DE/DX =    0.0                 !
 ! R2    R(1,4)                  1.09           -DE/DX =    0.0                 !
 ! R3    R(1,5)                  1.0901         -DE/DX =    0.0                 !
 ! R4    R(1,6)                  1.0904         -DE/DX =    0.0                 !
 ! R5    R(2,3)                  1.2478         -DE/DX =    0.0                 !
 ! R6    R(2,7)                  0.9739         -DE/DX =    0.0                 !
 ! A1    A(3,1,4)              105.6081         -DE/DX =    0.0                 !
 ! A2    A(3,1,5)              107.4632         -DE/DX =    0.0                 !
 ! A3    A(3,1,6)              103.6467         -DE/DX =    0.0                 !
 ! A4    A(4,1,5)              113.1577         -DE/DX =    0.0                 !
 ! A5    A(4,1,6)              113.3026         -DE/DX =    0.0                 !
 ! A6    A(5,1,6)              112.744          -DE/DX =    0.0                 !
 ! A7    A(3,2,7)               99.8728         -DE/DX =    0.0                 !
 ! A8    L(1,3,2,7,-1)         170.3564         -DE/DX =    0.0                 !
 ! A9    L(1,3,2,7,-2)         182.363          -DE/DX =    0.0                 !
 ! D1    D(4,1,2,7)            -93.7724         -DE/DX =    0.0                 !
 ! D2    D(5,1,2,7)             25.5493         -DE/DX =    0.0                 !
 ! D3    D(6,1,2,7)            144.5428         -DE/DX =    0.0                 !
 --------------------------------------------------------------------------------
 GradGradGradGradGradGradGradGradGradGradGradGradGradGradGradGradGradGrad

 Leave Link  103 at Fri Oct  9 11:00:15 2020, MaxMem=  2684354560 cpu:               0.4 elap:               0.1
 (Enter /udrive/faculty/rpeverati/g16/g16/l9999.exe)

 ----------------------------------------------------------------------

 Electric dipole moment (input orientation):
 (Debye = 10**-18 statcoulomb cm , SI units = C m)
                  (au)            (Debye)         (10**-30 SI)
   Tot        0.812275D+00      0.206460D+01      0.688676D+01
   x         -0.534921D+00     -0.135963D+01     -0.453525D+01
   y          0.611253D+00      0.155365D+01      0.518242D+01
   z          0.449745D-02      0.114314D-01      0.381310D-01

 Dipole polarizability, Alpha (input orientation).
 (esu units = cm**3 , SI units = C**2 m**2 J**-1)
 Alpha(0;0):
               (au)            (10**-24 esu)      (10**-40 SI)
   iso        0.226920D+02      0.336260D+01      0.374140D+01
   aniso      0.198805D+02      0.294599D+01      0.327786D+01
   xx         0.357368D+02      0.529564D+01      0.589220D+01
   yx         0.113279D+01      0.167862D+00      0.186772D+00
   yy         0.178514D+02      0.264530D+01      0.294330D+01
   zx        -0.903125D-01     -0.133829D-01     -0.148905D-01
   zy         0.358120D-02      0.530679D-03      0.590460D-03
   zz         0.144878D+02      0.214686D+01      0.238871D+01

 ----------------------------------------------------------------------

 Dipole orientation:
     6         -1.29388390         -1.12531254          1.51479690
     8          1.27628269          1.11746249         -1.73316119
     1         -0.09631742         -0.10902070         -0.26037609
     1         -0.60139797         -3.06364524          1.59355195
     1         -0.89097478         -0.05450012          3.22807833
     1         -3.26490430         -0.98549152          0.93129085
     1          2.31458719          2.02563026         -0.51507251

 Electric dipole moment (dipole orientation):
 (Debye = 10**-18 statcoulomb cm , SI units = C m)
                  (au)            (Debye)         (10**-30 SI)
   Tot        0.812275D+00      0.206460D+01      0.688676D+01
   x          0.000000D+00      0.000000D+00      0.000000D+00
   y          0.000000D+00      0.000000D+00      0.000000D+00
   z          0.812275D+00      0.206460D+01      0.688676D+01

 Dipole polarizability, Alpha (dipole orientation).
 (esu units = cm**3 , SI units = C**2 m**2 J**-1)
 Alpha(0;0):
               (au)            (10**-24 esu)      (10**-40 SI)
   iso        0.226920D+02      0.336260D+01      0.374140D+01
   aniso      0.198805D+02      0.294599D+01      0.327786D+01
   xx         0.227469D+02      0.337074D+01      0.375046D+01
   yx         0.724544D+01      0.107366D+01      0.119461D+01
   yy         0.208432D+02      0.308864D+01      0.343658D+01
   zx        -0.655287D+01     -0.971036D+00     -0.108042D+01
   zy        -0.574361D+01     -0.851116D+00     -0.946994D+00
   zz         0.244858D+02      0.362842D+01      0.403717D+01

 ----------------------------------------------------------------------

 Test job not archived.
 1\1\GINC-NODE04\Freq\UPBE1PBE\6-31G(d)\C1H5O1(2)\RPEVERATI\09-Oct-2020
 \0\\#P Freq PBE1PBE/6-31G* 5D 7F Integral=UltraFineGrid SCF=(NoSymm,XQ
 C,MaxCyc=120) IOp(1/33=1) Geom=Check Guess=Read\\TS search on BH76.\\0
 ,2\C,-1.2107581548,0.0056430097,0.0016534951\O,1.2795111297,-0.0990042
 635,-0.0053010856\H,0.0333189796,-0.1540069826,0.0090854898\H,-1.53531
 97174,-0.2304632873,1.0150828196\H,-1.4072942085,1.0405090292,-0.27933
 27384\H,-1.5641180292,-0.7084392934,-0.7426115841\H,1.4043453916,0.866
 7817715,-0.0015429782\\Version=ES64L-G16RevA.03\State=2-A\HF=-116.0904
 803\S2=0.758401\S2-1=0.\S2A=0.750027\RMSD=3.942e-10\RMSF=9.585e-06\Zer
 oPoint=0.0511129\Thermal=0.0558201\Dipole=-0.5349209,0.6112532,0.00449
 75\DipoleDeriv=0.6791276,0.0182018,-0.0089389,-0.0598385,-0.026598,-0.
 0058988,0.0031054,-0.005802,-0.0413796,-0.0126154,0.0330305,-0.0025777
 ,-0.0066941,-0.23112,0.0018151,-0.0088212,0.0010656,-0.5104429,-0.9054
 313,-0.0110733,0.0051038,-0.0501123,0.1618464,0.0022969,0.0083509,0.00
 34644,0.1819596,-0.0456566,-0.0191742,0.0674313,0.0091912,0.0732995,0.
 0235925,0.0040147,0.0297086,-0.045148,-0.0432101,0.0274871,-0.0100431,
 0.0140727,-0.0693795,0.0396758,-0.0017586,0.0374239,0.0661077,-0.04356
 39,-0.050867,-0.0507472,0.0067584,0.0234152,-0.0599755,-0.004519,-0.06
 48984,0.0146153,0.3713498,0.0023951,-0.0002282,0.0866225,0.0685364,-0.
 0015061,-0.0003723,-0.0009619,0.3342878\Polar=35.7367793,1.1327885,17.
 8513841,-0.0903125,0.0035812,14.4877559\Quadrupole=-0.5766677,1.002204
 9,-0.4255372,1.9548144,0.0071874,0.0122321\PG=C01 [X(C1H5O1)]\NImag=1\
 \0.24374673,0.02982139,0.58354022,-0.00376520,-0.00075628,0.58312671,-
 0.12381118,0.01702596,0.00000252,0.07086467,-0.00057493,0.00098258,-0.
 00041099,0.05047331,0.51711828,0.00148798,0.00018355,0.00249961,-0.000
 42472,0.00198617,0.00293580,0.03891229,-0.00709035,0.00024417,0.074584
 82,-0.01087358,-0.00098475,-0.05794263,0.01402619,-0.03382475,0.001378
 35,0.00702177,-0.02415837,-0.00025502,0.00237131,0.06242659,-0.0016258
 7,0.00152740,-0.02319131,0.00046831,0.00014529,-0.00595563,0.00123270,
 -0.00048269,0.03014554,-0.05666427,-0.02277129,0.09121450,0.00527480,-
 0.00006431,-0.00105998,-0.01788552,-0.00472348,0.01734287,0.06021012,-
 0.02120917,-0.06508214,0.05716534,-0.00047662,-0.00035527,-0.00028918,
 0.00241128,0.00061241,-0.00192423,0.02215124,0.06090794,0.08143381,0.0
 5824956,-0.30260162,0.00143494,-0.00048992,0.00094136,-0.00297821,0.00
 014200,-0.00119939,-0.08968734,-0.06361313,0.32044499,-0.04009788,0.05
 606480,-0.01564025,0.00365457,0.00059774,0.00006606,-0.01425824,0.0182
 1099,-0.00483947,0.00347058,-0.01058923,0.00229254,0.04328753,0.048023
 69,-0.31327684,0.07112393,-0.00031832,0.00095284,-0.00046411,-0.001325
 30,-0.00247135,0.00044507,0.00157283,-0.00270112,-0.00105162,-0.053817
 00,0.33164079,-0.01320578,0.07127224,-0.07073508,0.00001171,-0.0003593
 6,-0.00034780,0.00055498,0.00001241,-0.00072389,-0.00732282,0.02733700
 ,-0.00348483,0.01478967,-0.07757797,0.06695927,-0.06130160,-0.07067074
 ,-0.07205191,0.00644083,-0.00022267,0.00077576,-0.01956778,-0.01318428
 ,-0.01262780,0.00553385,0.00776683,0.00778247,0.00357470,0.00520140,0.
 00548285,0.06547754,-0.06453192,-0.17476510,-0.12853930,-0.00165682,0.
 00032848,0.00056944,0.00394714,0.00107632,0.00045334,0.00293580,0.0067
 5854,0.00654199,-0.01106425,-0.01449581,-0.02067163,0.06990452,0.18141
 383,-0.06434054,-0.12982007,-0.18712690,-0.00153226,0.00116282,0.00038
 782,0.00184696,-0.00111717,-0.00091775,-0.01134897,-0.01898148,-0.0141
 4330,0.00358470,0.00735408,0.00796602,0.07130379,0.14156878,0.19380450
 ,-0.00078409,-0.00237976,-0.00000383,-0.03700850,-0.03933556,0.0001396
 6,-0.00384294,-0.02372250,0.00004925,0.00006045,-0.00005433,-0.0002782
 0,0.00036874,0.00066268,-0.00031061,-0.00015755,0.00046554,0.00048631,
 0.04136389,-0.00555525,0.00242603,0.00003894,-0.07206928,-0.49486854,-
 0.00173085,0.01055951,-0.00366084,-0.00016418,0.00089920,-0.00014037,0
 .00022112,0.00059694,0.00035149,-0.00001268,0.00120494,-0.00031626,-0.
 00016696,0.06436393,0.49620850,0.00001560,-0.00065640,-0.00197141,0.00
 003951,-0.00203401,-0.00046117,0.00008414,0.00032211,0.00184244,0.0008
 6174,0.00030567,0.00004280,-0.00025326,0.00017063,0.00036631,-0.000665
 16,0.00007738,0.00002962,-0.00008258,0.00181460,0.00015141\\0.00000144
 ,-0.00002511,-0.00000764,0.00000085,-0.00001959,0.00000588,0.00000855,
 0.00001344,0.00000326,0.00000266,0.00000304,-0.00000235,0.00000246,0.0
 0000338,0.00000104,-0.00001197,0.00000841,0.00000262,-0.00000399,0.000
 01643,-0.00000281\\\@


 QED = W**5 (WHICH WAS WHAT WE WANTED)
 Job cpu time:       0 days  0 hours  2 minutes 30.4 seconds.
 Elapsed time:       0 days  0 hours  0 minutes 13.5 seconds.
 File lengths (MBytes):  RWF=      7 Int=      0 D2E=      0 Chk=      1 Scr=      1
 Normal termination of Gaussian 16 at Fri Oct  9 11:00:16 2020.
