 Entering Gaussian System, Link 0=g16
 Input=MN_91_RKT17_BH76_PBE0_631Gs.in
 Output=MN_91_RKT17_BH76_PBE0_631Gs.log
 Initial command:
 /udrive/faculty/rpeverati/g16/g16/l1.exe "/udrive/scratch-directories/gaussian09/rpeverati/Gau-9287.inp" -scrdir="/udrive/scratch-directories/gaussian09/rpeverati/"
 Entering Link 1 = /udrive/faculty/rpeverati/g16/g16/l1.exe PID=      9288.
  
 Copyright (c) 1988,1990,1992,1993,1995,1998,2003,2009,2016,
            Gaussian, Inc.  All Rights Reserved.
  
 This is part of the Gaussian(R) 16 program.  It is based on
 the Gaussian(R) 09 system (copyright 2009, Gaussian, Inc.),
 the Gaussian(R) 03 system (copyright 2003, Gaussian, Inc.),
 the Gaussian(R) 98 system (copyright 1998, Gaussian, Inc.),
 the Gaussian(R) 94 system (copyright 1995, Gaussian, Inc.),
 the Gaussian 92(TM) system (copyright 1992, Gaussian, Inc.),
 the Gaussian 90(TM) system (copyright 1990, Gaussian, Inc.),
 the Gaussian 88(TM) system (copyright 1988, Gaussian, Inc.),
 the Gaussian 86(TM) system (copyright 1986, Carnegie Mellon
 University), and the Gaussian 82(TM) system (copyright 1983,
 Carnegie Mellon University). Gaussian is a federally registered
 trademark of Gaussian, Inc.
  
 This software contains proprietary and confidential information,
 including trade secrets, belonging to Gaussian, Inc.
  
 This software is provided under written license and may be
 used, copied, transmitted, or stored only in accord with that
 written license.
  
 The following legend is applicable only to US Government
 contracts under FAR:
  
                    RESTRICTED RIGHTS LEGEND
  
 Use, reproduction and disclosure by the US Government is
 subject to restrictions as set forth in subparagraphs (a)
 and (c) of the Commercial Computer Software - Restricted
 Rights clause in FAR 52.227-19.
  
 Gaussian, Inc.
 340 Quinnipiac St., Bldg. 40, Wallingford CT 06492
  
  
 ---------------------------------------------------------------
 Warning -- This program may not be used in any manner that
 competes with the business of Gaussian, Inc. or will provide
 assistance to any competitor of Gaussian, Inc.  The licensee
 of this program is prohibited from giving any competitor of
 Gaussian, Inc. access to this program.  By using this program,
 the user acknowledges that Gaussian, Inc. is engaged in the
 business of creating and licensing software in the field of
 computational chemistry and represents and warrants to the
 licensee that it is not a competitor of Gaussian, Inc. and that
 it will not use this program in any manner prohibited above.
 ---------------------------------------------------------------
  

 Cite this work as:
 Gaussian 16, Revision A.03,
 M. J. Frisch, G. W. Trucks, H. B. Schlegel, G. E. Scuseria, 
 M. A. Robb, J. R. Cheeseman, G. Scalmani, V. Barone, 
 G. A. Petersson, H. Nakatsuji, X. Li, M. Caricato, A. V. Marenich, 
 J. Bloino, B. G. Janesko, R. Gomperts, B. Mennucci, H. P. Hratchian, 
 J. V. Ortiz, A. F. Izmaylov, J. L. Sonnenberg, D. Williams-Young, 
 F. Ding, F. Lipparini, F. Egidi, J. Goings, B. Peng, A. Petrone, 
 T. Henderson, D. Ranasinghe, V. G. Zakrzewski, J. Gao, N. Rega, 
 G. Zheng, W. Liang, M. Hada, M. Ehara, K. Toyota, R. Fukuda, 
 J. Hasegawa, M. Ishida, T. Nakajima, Y. Honda, O. Kitao, H. Nakai, 
 T. Vreven, K. Throssell, J. A. Montgomery, Jr., J. E. Peralta, 
 F. Ogliaro, M. J. Bearpark, J. J. Heyd, E. N. Brothers, K. N. Kudin, 
 V. N. Staroverov, T. A. Keith, R. Kobayashi, J. Normand, 
 K. Raghavachari, A. P. Rendell, J. C. Burant, S. S. Iyengar, 
 J. Tomasi, M. Cossi, J. M. Millam, M. Klene, C. Adamo, R. Cammi, 
 J. W. Ochterski, R. L. Martin, K. Morokuma, O. Farkas, 
 J. B. Foresman, and D. J. Fox, Gaussian, Inc., Wallingford CT, 2016.
 
 ******************************************
 Gaussian 16:  ES64L-G16RevA.03 25-Dec-2016
                 7-Oct-2020 
 ******************************************
 %NoSave
 %nproc=12
 Will use up to   12 processors via shared memory.
 %mem=20GB
 %chk=MN_91_RKT17_BH76_PBE0_631Gs
 ----------------------------------------------------------------------
 #P Opt(TS,MaxCyc=50,NoEigenTest,MaxStep=10,AddRedundant) PBE1PBE/6-31G
 * 5D 7F Integral=UltraFineGrid SCF=(NoSymm,XQC,MaxCyc=120) IOp(1/33=1)
 ----------------------------------------------------------------------
 1/5=1,6=50,8=10,11=1,18=120,26=4,33=1,38=1/1,3;
 2/9=110,12=2,17=6,18=5,40=1/2;
 3/5=1,6=6,7=1,8=11,11=2,25=1,30=1,71=1,74=-13,75=-5/1,2,3;
 4/9=2/1;
 5/5=2,7=120,8=3,13=1,38=5/2,8;
 6/7=2,8=2,9=2,10=2,28=1/1;
 7//1,2,3,16;
 1/5=1,6=50,8=10,11=1,18=20,26=4,33=1/3(2);
 2/9=110/2;
 99//99;
 2/9=110/2;
 3/5=1,6=6,7=1,8=11,11=2,25=1,30=1,71=1,74=-13,75=-5/1,2,3;
 4/5=5,9=2,16=3,69=1/1;
 5/5=2,7=120,8=3,13=1,38=5/2,8;
 7//1,2,3,16;
 1/5=1,6=50,8=10,11=1,18=20,26=4,33=1/3(-5);
 2/9=110/2;
 6/7=2,8=2,9=2,10=2,19=2,28=1/1;
 99/9=1/99;
 Leave Link    1 at Wed Oct  7 13:42:07 2020, MaxMem=  2684354560 cpu:               8.8 elap:               0.9
 (Enter /udrive/faculty/rpeverati/g16/g16/l101.exe)
 ONIOM data not found on unit 2.
 ------------------
 TS search on BH76.
 ------------------
 TstMul:  ICh=     0
 TstMul:  Mul=     3
 TstMul:  ICh=     0
 TstMul:  Mul=     3
 Symbolic Z-matrix:
 Charge =  0 Multiplicity = 3
 Cl                    0.01882  -0.8173    0. 
 H                    -0.47049   0.56948   0. 
 O                     0.01882   1.66558   0. 
 
 RdStrC is calling ZToCFu for IStruc=1 NZ=     3.
 PrtBox:  NBox=     1 Levels=  1 BoxLen=    8.00 SMaxX=        4.69
          Shift=            0.889094            1.544480            0.000000
 Box      1 Number                   0 centers from      1 to      3:
 After GenITR:
 ITRead=  0  0  0
 MicOpt= -1 -1 -1
 Add virtual bond connecting atoms O3         and H2         Dist= 2.27D+00.
 The following ModRedundant input section has been read:
 
 ITRead=  0  0  0
 MicOpt= -1 -1 -1
 NAtoms=      3 NQM=        3 NQMF=       0 NMMI=      0 NMMIF=      0
                NMic=       0 NMicF=      0.
                    Isotopes and Nuclear Properties:
 (Nuclear quadrupole moments (NQMom) in fm**2, nuclear magnetic moments (NMagM)
  in nuclear magnetons)

  Atom         1           2           3
 IAtWgt=          35           1          16
 AtmWgt=  34.9688527   1.0078250  15.9949146
 NucSpn=           3           1           0
 AtZEff=   0.0000000   0.0000000   0.0000000
 NQMom=   -8.1650000   0.0000000   0.0000000
 NMagM=    0.8218740   2.7928460   0.0000000
 AtZNuc=  17.0000000   1.0000000   8.0000000
 No MM parameters found.
 Leave Link  101 at Wed Oct  7 13:42:09 2020, MaxMem=  2684354560 cpu:              10.6 elap:               1.2
 (Enter /udrive/faculty/rpeverati/g16/g16/l103.exe)

 GradGradGradGradGradGradGradGradGradGradGradGradGradGradGradGradGradGrad
 Berny optimization.
 Optmz: redundant internal coordinate code flag= 1
 Initialization pass.
                           ----------------------------
                           !    Initial Parameters    !
                           ! (Angstroms and Degrees)  !
 --------------------------                            --------------------------
 ! Name  Definition              Value          Derivative Info.                !
 --------------------------------------------------------------------------------
 ! R1    R(1,2)                  1.4706         estimate D2E/DX2                !
 ! R2    R(2,3)                  1.2004         estimate D2E/DX2                !
 ! A1    A(1,2,3)              136.5089         estimate D2E/DX2                !
 --------------------------------------------------------------------------------
 Maximum allowed force set to 1.00D+20.
 Trust Radius=1.00D-01 FncErr=1.00D-07 GrdErr=1.00D-06 EigMax=2.50D+02 EigMin=1.00D-04
 Number of steps in this run=     50 maximum allowed number of steps=    100.
 Search for a saddle point of order  1.
 GradGradGradGradGradGradGradGradGradGradGradGradGradGradGradGradGradGrad

 Leave Link  103 at Wed Oct  7 13:42:10 2020, MaxMem=  2684354560 cpu:               1.6 elap:               0.6
 (Enter /udrive/faculty/rpeverati/g16/g16/l202.exe)
                          Input orientation:                          
 ---------------------------------------------------------------------
 Center     Atomic      Atomic             Coordinates (Angstroms)
 Number     Number       Type             X           Y           Z
 ---------------------------------------------------------------------
      1         17           0        0.018820   -0.817304    0.000000
      2          1           0       -0.470488    0.569479    0.000000
      3          8           0        0.018820    1.665580    0.000000
 ---------------------------------------------------------------------
                    Distance matrix (angstroms):
                    1          2          3
     1  Cl   0.000000
     2  H    1.470575   0.000000
     3  O    2.482884   1.200358   0.000000
 Stoichiometry    ClHO(3)
 Framework group  CS[SG(ClHO)]
 Deg. of freedom     3
 Full point group                 CS      NOp   2
 Largest Abelian subgroup         CS      NOp   2
 Largest concise Abelian subgroup C1      NOp   1
                         Standard orientation:                         
 ---------------------------------------------------------------------
 Center     Atomic      Atomic             Coordinates (Angstroms)
 Number     Number       Type             X           Y           Z
 ---------------------------------------------------------------------
      1         17           0        0.018820   -0.817302    0.000000
      2          1           0       -0.470489    0.569481    0.000000
      3          8           0        0.018820    1.665582    0.000000
 ---------------------------------------------------------------------
 Rotational constants (GHZ):        2147.4086014           7.4294964           7.4038808
 Leave Link  202 at Wed Oct  7 13:42:11 2020, MaxMem=  2684354560 cpu:               2.6 elap:               0.9
 (Enter /udrive/faculty/rpeverati/g16/g16/l301.exe)
 Standard basis: 6-31G(d) (5D, 7F)
 Ernie: Thresh=  0.10000D-02 Tol=  0.10000D-05 Strict=F.
 There are    27 symmetry adapted cartesian basis functions of A'  symmetry.
 There are     9 symmetry adapted cartesian basis functions of A"  symmetry.
 There are    25 symmetry adapted basis functions of A'  symmetry.
 There are     9 symmetry adapted basis functions of A"  symmetry.
    34 basis functions,    84 primitive gaussians,    36 cartesian basis functions
    14 alpha electrons       12 beta electrons
       nuclear repulsion energy        38.6298339587 Hartrees.
 IExCor= 1009 DFT=T Ex+Corr=PBE1PBE ExCW=0 ScaHFX=  0.250000
 ScaDFX=  0.750000  0.750000  1.000000  1.000000 ScalE2=  1.000000  1.000000
 IRadAn=      5 IRanWt=     -1 IRanGd=            0 ICorTp=0 IEmpDi=  4
 NAtoms=    3 NActive=    3 NUniq=    3 SFac= 1.00D+00 NAtFMM=   60 NAOKFM=F Big=F
 Integral buffers will be    131072 words long.
 Raffenetti 2 integral format.
 Two-electron integral symmetry is turned on.
 Leave Link  301 at Wed Oct  7 13:42:12 2020, MaxMem=  2684354560 cpu:               2.2 elap:               0.7
 (Enter /udrive/faculty/rpeverati/g16/g16/l302.exe)
 NPDir=0 NMtPBC=     1 NCelOv=     1 NCel=       1 NClECP=     1 NCelD=      1
         NCelK=      1 NCelE2=     1 NClLst=     1 CellRange=     0.0.
 One-electron integrals computed using PRISM.
 One-electron integral symmetry used in STVInt
 NBasis=    34 RedAO= T EigKep=  3.39D-02  NBF=    25     9
 NBsUse=    34 1.00D-06 EigRej= -1.00D+00 NBFU=    25     9
 Precomputing XC quadrature grid using
 IXCGrd= 4 IRadAn=           5 IRanWt=          -1 IRanGd=           0 AccXCQ= 0.00D+00.
 Generated NRdTot=       0 NPtTot=           0 NUsed=           0 NTot=          32
 NSgBfM=    36    36    36    36    36 MxSgAt=     3 MxSgA2=     3.
 Leave Link  302 at Wed Oct  7 13:42:14 2020, MaxMem=  2684354560 cpu:               6.4 elap:               1.2
 (Enter /udrive/faculty/rpeverati/g16/g16/l303.exe)
 DipDrv:  MaxL=1.
 Leave Link  303 at Wed Oct  7 13:42:15 2020, MaxMem=  2684354560 cpu:               3.3 elap:               0.7
 (Enter /udrive/faculty/rpeverati/g16/g16/l401.exe)
 SCF N**3 symmetry information disabled.
 ExpMin= 1.43D-01 ExpMax= 2.52D+04 ExpMxC= 3.78D+03 IAcc=3 IRadAn=         5 AccDes= 0.00D+00
 Harris functional with IExCor= 1009 and IRadAn=       5 diagonalized for initial guess.
 HarFok:  IExCor= 1009 AccDes= 0.00D+00 IRadAn=         5 IDoV= 1 UseB2=F ITyADJ=14
 ICtDFT=  3500011 ScaDFX=  1.000000  1.000000  1.000000  1.000000
 FoFCou: FMM=F IPFlag=           0 FMFlag=      100000 FMFlg1=           0
         NFxFlg=           0 DoJE=T BraDBF=F KetDBF=T FulRan=T
         wScrn=  0.000000 ICntrl=       500 IOpCl=  0 I1Cent=   200000004 NGrid=           0
         NMat0=    1 NMatS0=      1 NMatT0=    0 NMatD0=    1 NMtDS0=    0 NMtDT0=    0
 Petite list used in FoFCou.
 Harris En= -535.482016709470    
 JPrj=0 DoOrth=F DoCkMO=F.
 Initial guess orbital symmetries:
 Alpha Orbitals:
       Occupied  (A') (A') (A') (A') (A') (A") (A') (A') (A') (A')
                 (A") (A') (A") (A')
       Virtual   (A') (A') (A") (A') (A') (A') (A") (A') (A') (A")
                 (A') (A") (A') (A') (A') (A") (A') (A") (A') (A')
 Beta  Orbitals:
       Occupied  (A') (A') (A') (A') (A') (A") (A') (A') (A') (A')
                 (A") (A')
       Virtual   (A") (A') (A') (A') (A") (A') (A') (A') (A") (A')
                 (A') (A") (A') (A") (A') (A') (A') (A") (A') (A")
                 (A') (A')
 The electronic state of the initial guess is 3-A".
 Initial guess <Sx>= 0.0000 <Sy>= 0.0000 <Sz>= 1.0000 <S**2>= 2.0000 S= 1.0000
 Leave Link  401 at Wed Oct  7 13:42:17 2020, MaxMem=  2684354560 cpu:              11.4 elap:               1.5
 (Enter /udrive/faculty/rpeverati/g16/g16/l502.exe)
 Keep R1 and R2 ints in memory in symmetry-blocked form, NReq=10542223.
 FoFCou: FMM=F IPFlag=           0 FMFlag=           0 FMFlg1=           0
         NFxFlg=           0 DoJE=F BraDBF=F KetDBF=F FulRan=T
         wScrn=  0.000000 ICntrl=       600 IOpCl=  0 I1Cent=           0 NGrid=           0
         NMat0=    1 NMatS0=    595 NMatT0=    0 NMatD0=    1 NMtDS0=    0 NMtDT0=    0
 Petite list used in FoFCou.
 UHF open shell SCF:
 Using DIIS extrapolation, IDIIS=  1040.
 NGot=  2684354560 LenX=  2684161189 LenY=  2684159452
 Requested convergence on RMS density matrix=1.00D-08 within 120 cycles.
 Requested convergence on MAX density matrix=1.00D-06.
 Requested convergence on             energy=1.00D-06.
 No special actions if energy rises.
 Integral accuracy reduced to 1.0D-05 until final iterations.

 Cycle   1  Pass 0  IDiag  1:
 E= -535.110849535009    
 DIIS: error= 9.83D-02 at cycle   1 NSaved=   1.
 NSaved= 1 IEnMin= 1 EnMin= -535.110849535009     IErMin= 1 ErrMin= 9.83D-02
 ErrMax= 9.83D-02  0.00D+00 EMaxC= 1.00D-01 BMatC= 1.33D+00 BMatP= 1.33D+00
 IDIUse=3 WtCom= 1.74D-02 WtEn= 9.83D-01
 Coeff-Com:  0.100D+01
 Coeff-En:   0.100D+01
 Coeff:      0.100D+01
 Gap=     0.543 Goal=   None    Shift=    0.000
 Gap=     0.018 Goal=   None    Shift=    0.000
 GapD=    0.018 DampG=0.250 DampE=0.500 DampFc=0.2500 IDamp=-1.
 Damping current iteration by 2.50D-01
 RMSDP=7.51D-02 MaxDP=1.16D+00              OVMax= 9.40D-01

 Cycle   2  Pass 0  IDiag  1:
 E= -535.316320878330     Delta-E=       -0.205471343322 Rises=F Damp=T
 DIIS: error= 2.32D-02 at cycle   2 NSaved=   2.
 NSaved= 2 IEnMin= 2 EnMin= -535.316320878330     IErMin= 2 ErrMin= 2.32D-02
 ErrMax= 2.32D-02  0.00D+00 EMaxC= 1.00D-01 BMatC= 6.53D-02 BMatP= 1.33D+00
 IDIUse=3 WtCom= 7.68D-01 WtEn= 2.32D-01
 Coeff-Com: -0.142D+00 0.114D+01
 Coeff-En:   0.136D-01 0.986D+00
 Coeff:     -0.106D+00 0.111D+01
 Gap=     0.481 Goal=   None    Shift=    0.000
 Gap=     0.130 Goal=   None    Shift=    0.000
 RMSDP=2.19D-02 MaxDP=3.40D-01 DE=-2.05D-01 OVMax= 5.25D-01

 Cycle   3  Pass 0  IDiag  1:
 E= -535.422597687509     Delta-E=       -0.106276809178 Rises=F Damp=F
 DIIS: error= 8.66D-02 at cycle   3 NSaved=   3.
 NSaved= 3 IEnMin= 3 EnMin= -535.422597687509     IErMin= 2 ErrMin= 2.32D-02
 ErrMax= 8.66D-02  0.00D+00 EMaxC= 1.00D-01 BMatC= 5.81D-01 BMatP= 6.53D-02
 IDIUse=2 WtCom= 0.00D+00 WtEn= 1.00D+00
 EnCoef did   100 forward-backward iterations
 Coeff-En:   0.332D+00 0.471D-02 0.663D+00
 Coeff:      0.332D+00 0.471D-02 0.663D+00
 Gap=     0.549 Goal=   None    Shift=    0.000
 Gap=     0.111 Goal=   None    Shift=    0.000
 RMSDP=1.50D-02 MaxDP=1.93D-01 DE=-1.06D-01 OVMax= 3.00D-01

 Cycle   4  Pass 0  IDiag  1:
 E= -535.588240025914     Delta-E=       -0.165642338405 Rises=F Damp=F
 DIIS: error= 1.85D-02 at cycle   4 NSaved=   4.
 NSaved= 4 IEnMin= 4 EnMin= -535.588240025914     IErMin= 4 ErrMin= 1.85D-02
 ErrMax= 1.85D-02  0.00D+00 EMaxC= 1.00D-01 BMatC= 1.93D-02 BMatP= 6.53D-02
 IDIUse=3 WtCom= 8.15D-01 WtEn= 1.85D-01
 Coeff-Com: -0.765D-01 0.646D-01 0.538D-01 0.958D+00
 Coeff-En:   0.000D+00 0.000D+00 0.550D-02 0.994D+00
 Coeff:     -0.624D-01 0.527D-01 0.449D-01 0.965D+00
 Gap=     0.469 Goal=   None    Shift=    0.000
 Gap=     0.126 Goal=   None    Shift=    0.000
 RMSDP=4.80D-03 MaxDP=9.18D-02 DE=-1.66D-01 OVMax= 1.92D-01

 Cycle   5  Pass 0  IDiag  1:
 E= -535.594228792699     Delta-E=       -0.005988766786 Rises=F Damp=F
 DIIS: error= 1.28D-02 at cycle   5 NSaved=   5.
 NSaved= 5 IEnMin= 5 EnMin= -535.594228792699     IErMin= 5 ErrMin= 1.28D-02
 ErrMax= 1.28D-02  0.00D+00 EMaxC= 1.00D-01 BMatC= 1.47D-02 BMatP= 1.93D-02
 IDIUse=3 WtCom= 8.72D-01 WtEn= 1.28D-01
 Coeff-Com: -0.240D-01 0.901D-01-0.125D+00 0.191D+00 0.868D+00
 Coeff-En:   0.000D+00 0.000D+00 0.000D+00 0.269D+00 0.731D+00
 Coeff:     -0.209D-01 0.785D-01-0.109D+00 0.201D+00 0.850D+00
 Gap=     0.458 Goal=   None    Shift=    0.000
 Gap=     0.128 Goal=   None    Shift=    0.000
 RMSDP=1.85D-03 MaxDP=3.07D-02 DE=-5.99D-03 OVMax= 5.63D-02

 Cycle   6  Pass 0  IDiag  1:
 E= -535.598799633266     Delta-E=       -0.004570840567 Rises=F Damp=F
 DIIS: error= 5.77D-03 at cycle   6 NSaved=   6.
 NSaved= 6 IEnMin= 6 EnMin= -535.598799633266     IErMin= 6 ErrMin= 5.77D-03
 ErrMax= 5.77D-03  0.00D+00 EMaxC= 1.00D-01 BMatC= 2.49D-03 BMatP= 1.47D-02
 IDIUse=3 WtCom= 9.42D-01 WtEn= 5.77D-02
 Coeff-Com:  0.542D-02 0.396D-01-0.582D-01-0.726D-01-0.688D-01 0.115D+01
 Coeff-En:   0.000D+00 0.000D+00 0.000D+00 0.000D+00 0.000D+00 0.100D+01
 Coeff:      0.510D-02 0.374D-01-0.549D-01-0.684D-01-0.648D-01 0.115D+01
 Gap=     0.456 Goal=   None    Shift=    0.000
 Gap=     0.136 Goal=   None    Shift=    0.000
 RMSDP=1.53D-03 MaxDP=2.16D-02 DE=-4.57D-03 OVMax= 4.90D-02

 Cycle   7  Pass 0  IDiag  1:
 E= -535.600261720490     Delta-E=       -0.001462087224 Rises=F Damp=F
 DIIS: error= 2.45D-03 at cycle   7 NSaved=   7.
 NSaved= 7 IEnMin= 7 EnMin= -535.600261720490     IErMin= 7 ErrMin= 2.45D-03
 ErrMax= 2.45D-03  0.00D+00 EMaxC= 1.00D-01 BMatC= 5.56D-04 BMatP= 2.49D-03
 IDIUse=3 WtCom= 9.75D-01 WtEn= 2.45D-02
 Coeff-Com:  0.329D-02-0.907D-02 0.391D-01-0.462D-01-0.476D+00-0.232D+00
 Coeff-Com:  0.172D+01
 Coeff-En:   0.000D+00 0.000D+00 0.000D+00 0.000D+00 0.000D+00 0.000D+00
 Coeff-En:   0.100D+01
 Coeff:      0.321D-02-0.885D-02 0.382D-01-0.450D-01-0.465D+00-0.226D+00
 Coeff:      0.170D+01
 Gap=     0.447 Goal=   None    Shift=    0.000
 Gap=     0.130 Goal=   None    Shift=    0.000
 RMSDP=2.14D-03 MaxDP=3.46D-02 DE=-1.46D-03 OVMax= 8.08D-02

 Cycle   8  Pass 0  IDiag  1:
 E= -535.600891176669     Delta-E=       -0.000629456179 Rises=F Damp=F
 DIIS: error= 3.11D-03 at cycle   8 NSaved=   8.
 NSaved= 8 IEnMin= 8 EnMin= -535.600891176669     IErMin= 7 ErrMin= 2.45D-03
 ErrMax= 3.11D-03  0.00D+00 EMaxC= 1.00D-01 BMatC= 8.85D-04 BMatP= 5.56D-04
 IDIUse=3 WtCom= 9.75D-01 WtEn= 2.45D-02
 Coeff-Com: -0.922D-02 0.148D-01 0.502D-02 0.292D-02 0.883D-01 0.871D-03
 Coeff-Com:  0.816D-01 0.816D+00
 Coeff-En:   0.000D+00 0.000D+00 0.000D+00 0.000D+00 0.000D+00 0.000D+00
 Coeff-En:   0.000D+00 0.100D+01
 Coeff:     -0.900D-02 0.145D-01 0.490D-02 0.285D-02 0.861D-01 0.849D-03
 Coeff:      0.796D-01 0.820D+00
 Gap=     0.452 Goal=   None    Shift=    0.000
 Gap=     0.134 Goal=   None    Shift=    0.000
 RMSDP=5.38D-04 MaxDP=6.65D-03 DE=-6.29D-04 OVMax= 1.14D-02

 Cycle   9  Pass 0  IDiag  1:
 E= -535.601099402471     Delta-E=       -0.000208225802 Rises=F Damp=F
 DIIS: error= 7.46D-04 at cycle   9 NSaved=   9.
 NSaved= 9 IEnMin= 9 EnMin= -535.601099402471     IErMin= 9 ErrMin= 7.46D-04
 ErrMax= 7.46D-04  0.00D+00 EMaxC= 1.00D-01 BMatC= 2.35D-05 BMatP= 5.56D-04
 IDIUse=3 WtCom= 9.93D-01 WtEn= 7.46D-03
 Coeff-Com: -0.738D-03-0.503D-02 0.172D-02 0.119D-01 0.871D-01-0.111D+00
 Coeff-Com: -0.515D+00-0.196D+00 0.173D+01
 Coeff-En:   0.000D+00 0.000D+00 0.000D+00 0.000D+00 0.000D+00 0.000D+00
 Coeff-En:   0.000D+00 0.000D+00 0.100D+01
 Coeff:     -0.733D-03-0.500D-02 0.171D-02 0.118D-01 0.864D-01-0.111D+00
 Coeff:     -0.511D+00-0.194D+00 0.172D+01
 Gap=     0.453 Goal=   None    Shift=    0.000
 Gap=     0.135 Goal=   None    Shift=    0.000
 RMSDP=9.47D-04 MaxDP=1.18D-02 DE=-2.08D-04 OVMax= 3.51D-02

 Cycle  10  Pass 0  IDiag  1:
 E= -535.601229145839     Delta-E=       -0.000129743368 Rises=F Damp=F
 DIIS: error= 4.15D-04 at cycle  10 NSaved=  10.
 NSaved=10 IEnMin=10 EnMin= -535.601229145839     IErMin=10 ErrMin= 4.15D-04
 ErrMax= 4.15D-04  0.00D+00 EMaxC= 1.00D-01 BMatC= 1.51D-05 BMatP= 2.35D-05
 IDIUse=3 WtCom= 9.96D-01 WtEn= 4.15D-03
 Coeff-Com: -0.175D-02 0.485D-02-0.151D-02 0.296D-02-0.313D-01 0.115D-01
 Coeff-Com:  0.139D+00-0.158D+00-0.323D+00 0.136D+01
 Coeff-En:   0.000D+00 0.000D+00 0.000D+00 0.000D+00 0.000D+00 0.000D+00
 Coeff-En:   0.000D+00 0.000D+00 0.000D+00 0.100D+01
 Coeff:     -0.175D-02 0.483D-02-0.150D-02 0.295D-02-0.312D-01 0.114D-01
 Coeff:      0.138D+00-0.158D+00-0.322D+00 0.136D+01
 Gap=     0.454 Goal=   None    Shift=    0.000
 Gap=     0.135 Goal=   None    Shift=    0.000
 RMSDP=2.80D-04 MaxDP=2.94D-03 DE=-1.30D-04 OVMax= 7.79D-03

 Cycle  11  Pass 0  IDiag  1:
 E= -535.601249192396     Delta-E=       -0.000020046557 Rises=F Damp=F
 DIIS: error= 2.46D-04 at cycle  11 NSaved=  11.
 NSaved=11 IEnMin=11 EnMin= -535.601249192396     IErMin=11 ErrMin= 2.46D-04
 ErrMax= 2.46D-04  0.00D+00 EMaxC= 1.00D-01 BMatC= 5.57D-06 BMatP= 1.51D-05
 IDIUse=3 WtCom= 9.98D-01 WtEn= 2.46D-03
 Coeff-Com:  0.424D-03-0.153D-02 0.275D-02-0.133D-02-0.446D-01-0.102D-01
 Coeff-Com:  0.190D+00 0.151D+00-0.558D+00-0.252D+00 0.152D+01
 Coeff-En:   0.000D+00 0.000D+00 0.000D+00 0.000D+00 0.000D+00 0.000D+00
 Coeff-En:   0.000D+00 0.000D+00 0.000D+00 0.000D+00 0.100D+01
 Coeff:      0.423D-03-0.153D-02 0.275D-02-0.133D-02-0.445D-01-0.102D-01
 Coeff:      0.189D+00 0.150D+00-0.557D+00-0.252D+00 0.152D+01
 Gap=     0.453 Goal=   None    Shift=    0.000
 Gap=     0.135 Goal=   None    Shift=    0.000
 RMSDP=2.99D-04 MaxDP=3.48D-03 DE=-2.00D-05 OVMax= 1.01D-02

 Cycle  12  Pass 0  IDiag  1:
 E= -535.601258294159     Delta-E=       -0.000009101763 Rises=F Damp=F
 DIIS: error= 1.68D-04 at cycle  12 NSaved=  12.
 NSaved=12 IEnMin=12 EnMin= -535.601258294159     IErMin=12 ErrMin= 1.68D-04
 ErrMax= 1.68D-04  0.00D+00 EMaxC= 1.00D-01 BMatC= 2.32D-06 BMatP= 5.57D-06
 IDIUse=3 WtCom= 9.98D-01 WtEn= 1.68D-03
 Coeff-Com:  0.363D-04 0.800D-04-0.376D-03-0.311D-03 0.613D-02 0.380D-02
 Coeff-Com: -0.621D-02-0.325D-01 0.112D+00-0.250D+00-0.140D+00 0.131D+01
 Coeff-En:   0.000D+00 0.000D+00 0.000D+00 0.000D+00 0.000D+00 0.000D+00
 Coeff-En:   0.000D+00 0.000D+00 0.000D+00 0.000D+00 0.000D+00 0.100D+01
 Coeff:      0.362D-04 0.799D-04-0.375D-03-0.310D-03 0.612D-02 0.379D-02
 Coeff:     -0.620D-02-0.324D-01 0.111D+00-0.249D+00-0.140D+00 0.131D+01
 Gap=     0.453 Goal=   None    Shift=    0.000
 Gap=     0.135 Goal=   None    Shift=    0.000
 RMSDP=9.28D-05 MaxDP=1.28D-03 DE=-9.10D-06 OVMax= 3.45D-03

 Cycle  13  Pass 0  IDiag  1:
 E= -535.601259958666     Delta-E=       -0.000001664507 Rises=F Damp=F
 DIIS: error= 3.53D-05 at cycle  13 NSaved=  13.
 NSaved=13 IEnMin=13 EnMin= -535.601259958666     IErMin=13 ErrMin= 3.53D-05
 ErrMax= 3.53D-05  0.00D+00 EMaxC= 1.00D-01 BMatC= 1.12D-07 BMatP= 2.32D-06
 IDIUse=1 WtCom= 1.00D+00 WtEn= 0.00D+00
 Coeff-Com: -0.206D-04-0.262D-04 0.434D-04 0.354D-04 0.135D-02-0.522D-02
 Coeff-Com: -0.118D-01-0.172D-01 0.673D-01 0.705D-02-0.168D+00 0.841D-01
 Coeff-Com:  0.104D+01
 Coeff:     -0.206D-04-0.262D-04 0.434D-04 0.354D-04 0.135D-02-0.522D-02
 Coeff:     -0.118D-01-0.172D-01 0.673D-01 0.705D-02-0.168D+00 0.841D-01
 Coeff:      0.104D+01
 Gap=     0.453 Goal=   None    Shift=    0.000
 Gap=     0.135 Goal=   None    Shift=    0.000
 RMSDP=2.67D-05 MaxDP=3.37D-04 DE=-1.66D-06 OVMax= 7.82D-04

 Cycle  14  Pass 0  IDiag  1:
 E= -535.601260047695     Delta-E=       -0.000000089030 Rises=F Damp=F
 DIIS: error= 5.18D-06 at cycle  14 NSaved=  14.
 NSaved=14 IEnMin=14 EnMin= -535.601260047695     IErMin=14 ErrMin= 5.18D-06
 ErrMax= 5.18D-06  0.00D+00 EMaxC= 1.00D-01 BMatC= 3.43D-09 BMatP= 1.12D-07
 IDIUse=1 WtCom= 1.00D+00 WtEn= 0.00D+00
 Coeff-Com: -0.232D-04 0.353D-04 0.455D-05 0.342D-04-0.285D-03 0.480D-03
 Coeff-Com: -0.118D-02-0.872D-03 0.180D-02 0.250D-01-0.236D-01-0.101D+00
 Coeff-Com:  0.464D-01 0.105D+01
 Coeff:     -0.232D-04 0.353D-04 0.455D-05 0.342D-04-0.285D-03 0.480D-03
 Coeff:     -0.118D-02-0.872D-03 0.180D-02 0.250D-01-0.236D-01-0.101D+00
 Coeff:      0.464D-01 0.105D+01
 Gap=     0.453 Goal=   None    Shift=    0.000
 Gap=     0.135 Goal=   None    Shift=    0.000
 RMSDP=6.04D-06 MaxDP=9.52D-05 DE=-8.90D-08 OVMax= 2.17D-04

 Initial convergence to 1.0D-05 achieved.  Increase integral accuracy.
 Cycle  15  Pass 1  IDiag  1:
 E= -535.601261246849     Delta-E=       -0.000001199154 Rises=F Damp=F
 DIIS: error= 1.54D-06 at cycle   1 NSaved=   1.
 NSaved= 1 IEnMin= 1 EnMin= -535.601261246849     IErMin= 1 ErrMin= 1.54D-06
 ErrMax= 1.54D-06  0.00D+00 EMaxC= 1.00D-01 BMatC= 4.10D-10 BMatP= 4.10D-10
 IDIUse=1 WtCom= 1.00D+00 WtEn= 0.00D+00
 Coeff-Com:  0.100D+01
 Coeff:      0.100D+01
 Gap=     0.453 Goal=   None    Shift=    0.000
 Gap=     0.135 Goal=   None    Shift=    0.000
 RMSDP=6.04D-06 MaxDP=9.52D-05 DE=-1.20D-06 OVMax= 2.32D-05

 Cycle  16  Pass 1  IDiag  1:
 E= -535.601261247150     Delta-E=       -0.000000000301 Rises=F Damp=F
 DIIS: error= 7.36D-07 at cycle   2 NSaved=   2.
 NSaved= 2 IEnMin= 2 EnMin= -535.601261247150     IErMin= 2 ErrMin= 7.36D-07
 ErrMax= 7.36D-07  0.00D+00 EMaxC= 1.00D-01 BMatC= 7.10D-11 BMatP= 4.10D-10
 IDIUse=1 WtCom= 1.00D+00 WtEn= 0.00D+00
 Coeff-Com:  0.154D+00 0.846D+00
 Coeff:      0.154D+00 0.846D+00
 Gap=     0.453 Goal=   None    Shift=    0.000
 Gap=     0.135 Goal=   None    Shift=    0.000
 RMSDP=4.00D-07 MaxDP=5.15D-06 DE=-3.01D-10 OVMax= 1.20D-05

 Cycle  17  Pass 1  IDiag  1:
 E= -535.601261247227     Delta-E=       -0.000000000077 Rises=F Damp=F
 DIIS: error= 4.46D-07 at cycle   3 NSaved=   3.
 NSaved= 3 IEnMin= 3 EnMin= -535.601261247227     IErMin= 3 ErrMin= 4.46D-07
 ErrMax= 4.46D-07  0.00D+00 EMaxC= 1.00D-01 BMatC= 3.96D-11 BMatP= 7.10D-11
 IDIUse=1 WtCom= 1.00D+00 WtEn= 0.00D+00
 Coeff-Com: -0.592D-01 0.353D+00 0.706D+00
 Coeff:     -0.592D-01 0.353D+00 0.706D+00
 Gap=     0.453 Goal=   None    Shift=    0.000
 Gap=     0.135 Goal=   None    Shift=    0.000
 RMSDP=3.06D-07 MaxDP=4.16D-06 DE=-7.71D-11 OVMax= 1.12D-05

 Cycle  18  Pass 1  IDiag  1:
 E= -535.601261247266     Delta-E=       -0.000000000039 Rises=F Damp=F
 DIIS: error= 5.68D-07 at cycle   4 NSaved=   4.
 NSaved= 4 IEnMin= 4 EnMin= -535.601261247266     IErMin= 3 ErrMin= 4.46D-07
 ErrMax= 5.68D-07  0.00D+00 EMaxC= 1.00D-01 BMatC= 2.99D-11 BMatP= 3.96D-11
 IDIUse=1 WtCom= 1.00D+00 WtEn= 0.00D+00
 Coeff-Com: -0.102D+00 0.663D-02 0.536D+00 0.560D+00
 Coeff:     -0.102D+00 0.663D-02 0.536D+00 0.560D+00
 Gap=     0.453 Goal=   None    Shift=    0.000
 Gap=     0.135 Goal=   None    Shift=    0.000
 RMSDP=2.33D-07 MaxDP=3.28D-06 DE=-3.89D-11 OVMax= 6.67D-06

 Cycle  19  Pass 1  IDiag  1:
 E= -535.601261247296     Delta-E=       -0.000000000030 Rises=F Damp=F
 DIIS: error= 3.48D-07 at cycle   5 NSaved=   5.
 NSaved= 5 IEnMin= 5 EnMin= -535.601261247296     IErMin= 5 ErrMin= 3.48D-07
 ErrMax= 3.48D-07  0.00D+00 EMaxC= 1.00D-01 BMatC= 5.91D-12 BMatP= 2.99D-11
 IDIUse=1 WtCom= 1.00D+00 WtEn= 0.00D+00
 Coeff-Com:  0.619D-01-0.139D+00-0.621D+00-0.130D+00 0.183D+01
 Coeff:      0.619D-01-0.139D+00-0.621D+00-0.130D+00 0.183D+01
 Gap=     0.453 Goal=   None    Shift=    0.000
 Gap=     0.135 Goal=   None    Shift=    0.000
 RMSDP=4.37D-07 MaxDP=4.87D-06 DE=-2.98D-11 OVMax= 1.43D-05

 Cycle  20  Pass 1  IDiag  1:
 E= -535.601261247326     Delta-E=       -0.000000000030 Rises=F Damp=F
 DIIS: error= 1.72D-07 at cycle   6 NSaved=   6.
 NSaved= 6 IEnMin= 6 EnMin= -535.601261247326     IErMin= 6 ErrMin= 1.72D-07
 ErrMax= 1.72D-07  0.00D+00 EMaxC= 1.00D-01 BMatC= 1.93D-12 BMatP= 5.91D-12
 IDIUse=1 WtCom= 1.00D+00 WtEn= 0.00D+00
 Coeff-Com: -0.459D-02 0.102D+00 0.141D+00 0.142D+00-0.126D+01 0.188D+01
 Coeff:     -0.459D-02 0.102D+00 0.141D+00 0.142D+00-0.126D+01 0.188D+01
 Gap=     0.453 Goal=   None    Shift=    0.000
 Gap=     0.135 Goal=   None    Shift=    0.000
 RMSDP=2.42D-07 MaxDP=2.67D-06 DE=-3.00D-11 OVMax= 7.17D-06

 Cycle  21  Pass 1  IDiag  1:
 E= -535.601261247334     Delta-E=       -0.000000000008 Rises=F Damp=F
 DIIS: error= 5.52D-08 at cycle   7 NSaved=   7.
 NSaved= 7 IEnMin= 7 EnMin= -535.601261247334     IErMin= 7 ErrMin= 5.52D-08
 ErrMax= 5.52D-08  0.00D+00 EMaxC= 1.00D-01 BMatC= 5.63D-13 BMatP= 1.93D-12
 IDIUse=1 WtCom= 1.00D+00 WtEn= 0.00D+00
 Coeff-Com: -0.170D-01 0.714D-01 0.182D+00 0.148D+00-0.953D+00 0.627D+00
 Coeff-Com:  0.943D+00
 Coeff:     -0.170D-01 0.714D-01 0.182D+00 0.148D+00-0.953D+00 0.627D+00
 Coeff:      0.943D+00
 Gap=     0.453 Goal=   None    Shift=    0.000
 Gap=     0.135 Goal=   None    Shift=    0.000
 RMSDP=9.20D-08 MaxDP=1.11D-06 DE=-8.30D-12 OVMax= 2.99D-06

 Cycle  22  Pass 1  IDiag  1:
 E= -535.601261247333     Delta-E=        0.000000000001 Rises=F Damp=F
 DIIS: error= 3.33D-08 at cycle   8 NSaved=   8.
 NSaved= 8 IEnMin= 7 EnMin= -535.601261247334     IErMin= 8 ErrMin= 3.33D-08
 ErrMax= 3.33D-08  0.00D+00 EMaxC= 1.00D-01 BMatC= 1.31D-13 BMatP= 5.63D-13
 IDIUse=1 WtCom= 1.00D+00 WtEn= 0.00D+00
 Coeff-Com:  0.636D-02-0.333D-01-0.992D-01-0.666D-03 0.400D+00-0.444D+00
 Coeff-Com: -0.261D+00 0.143D+01
 Coeff:      0.636D-02-0.333D-01-0.992D-01-0.666D-03 0.400D+00-0.444D+00
 Coeff:     -0.261D+00 0.143D+01
 Gap=     0.453 Goal=   None    Shift=    0.000
 Gap=     0.135 Goal=   None    Shift=    0.000
 RMSDP=3.13D-08 MaxDP=4.01D-07 DE= 6.82D-13 OVMax= 1.12D-06

 Cycle  23  Pass 1  IDiag  1:
 E= -535.601261247336     Delta-E=       -0.000000000002 Rises=F Damp=F
 DIIS: error= 1.74D-08 at cycle   9 NSaved=   9.
 NSaved= 9 IEnMin= 9 EnMin= -535.601261247336     IErMin= 9 ErrMin= 1.74D-08
 ErrMax= 1.74D-08  0.00D+00 EMaxC= 1.00D-01 BMatC= 2.75D-14 BMatP= 1.31D-13
 IDIUse=1 WtCom= 1.00D+00 WtEn= 0.00D+00
 Coeff-Com:  0.305D-02-0.108D-01-0.389D-01-0.332D-03 0.136D+00-0.817D-01
 Coeff-Com: -0.164D+00-0.102D+00 0.126D+01
 Coeff:      0.305D-02-0.108D-01-0.389D-01-0.332D-03 0.136D+00-0.817D-01
 Coeff:     -0.164D+00-0.102D+00 0.126D+01
 Gap=     0.453 Goal=   None    Shift=    0.000
 Gap=     0.135 Goal=   None    Shift=    0.000
 RMSDP=9.32D-09 MaxDP=9.18D-08 DE=-2.16D-12 OVMax= 2.61D-07

 SCF Done:  E(UPBE1PBE) =  -535.601261247     A.U. after   23 cycles
            NFock= 23  Conv=0.93D-08     -V/T= 2.0017
 <Sx>= 0.0000 <Sy>= 0.0000 <Sz>= 1.0000 <S**2>= 2.0093 S= 1.0031
 <L.S>= 0.000000000000E+00
 KE= 5.346933557655D+02 PE=-1.350572496510D+03 EE= 2.416480455388D+02
 Annihilation of the first spin contaminant:
 S**2 before annihilation     2.0093,   after     2.0000
 Leave Link  502 at Wed Oct  7 13:42:29 2020, MaxMem=  2684354560 cpu:             125.9 elap:              12.1
 (Enter /udrive/faculty/rpeverati/g16/g16/l508.exe)
 QCSCF skips out because SCF is already converged.
 Leave Link  508 at Wed Oct  7 13:42:30 2020, MaxMem=  2684354560 cpu:               1.0 elap:               0.5
 (Enter /udrive/faculty/rpeverati/g16/g16/l601.exe)
 Copying SCF densities to generalized density rwf, IOpCl= 1 IROHF=0.

 **********************************************************************

            Population analysis using the SCF density.

 **********************************************************************

 Orbital symmetries:
 Alpha Orbitals:
       Occupied  (A') (A') (A') (A') (A') (A") (A') (A') (A') (A")
                 (A') (A') (A') (A")
       Virtual   (A') (A') (A") (A') (A') (A') (A") (A') (A") (A')
                 (A") (A') (A') (A') (A') (A") (A') (A") (A') (A')
 Beta  Orbitals:
       Occupied  (A') (A') (A') (A') (A') (A") (A') (A') (A') (A')
                 (A") (A')
       Virtual   (A') (A") (A') (A') (A") (A') (A') (A') (A') (A")
                 (A') (A") (A') (A") (A') (A') (A') (A") (A') (A")
                 (A') (A')
 The electronic state is 3-A".
 Alpha  occ. eigenvalues -- -101.71566 -19.38847  -9.54776  -7.28604  -7.27324
 Alpha  occ. eigenvalues --   -7.27266  -1.10167  -0.86521  -0.57435  -0.50407
 Alpha  occ. eigenvalues --   -0.44896  -0.38211  -0.35651  -0.35375
 Alpha virt. eigenvalues --    0.09951   0.39303   0.44414   0.45074   0.45785
 Alpha virt. eigenvalues --    0.61834   0.76741   0.79968   0.85927   0.86083
 Alpha virt. eigenvalues --    0.86356   0.87288   0.92027   1.05521   1.28016
 Alpha virt. eigenvalues --    1.64229   1.67938   1.68267   1.73119   2.07994
  Beta  occ. eigenvalues -- -101.71196 -19.34382  -9.54422  -7.27525  -7.27032
  Beta  occ. eigenvalues --   -7.26988  -0.97605  -0.83076  -0.51053  -0.36531
  Beta  occ. eigenvalues --   -0.34608  -0.34554
  Beta virt. eigenvalues --   -0.21007  -0.18866   0.11983   0.40281   0.45275
  Beta virt. eigenvalues --    0.45730   0.48182   0.64722   0.83421   0.83626
  Beta virt. eigenvalues --    0.87093   0.87186   0.90192   0.93527   0.97030
  Beta virt. eigenvalues --    1.09194   1.33881   1.74065   1.76904   1.77658
  Beta virt. eigenvalues --    1.79512   2.13361
          Condensed to atoms (all electrons):
               1          2          3
     1  Cl  17.125593   0.144776  -0.046687
     2  H    0.144776   0.425524   0.050971
     3  O   -0.046687   0.050971   8.150763
          Atomic-Atomic Spin Densities.
               1          2          3
     1  Cl   0.484977   0.025484  -0.070928
     2  H    0.025484  -0.039483  -0.037134
     3  O   -0.070928  -0.037134   1.719662
 Mulliken charges and spin densities:
               1          2
     1  Cl  -0.223681   0.439533
     2  H    0.378729  -0.051133
     3  O   -0.155048   1.611600
 Sum of Mulliken charges =  -0.00000   2.00000
 Mulliken charges and spin densities with hydrogens summed into heavy atoms:
               1          2
     1  Cl  -0.223681   0.439533
     3  O    0.223681   1.560467
 Electronic spatial extent (au):  <R**2>=            163.2566
 Charge=             -0.0000 electrons
 Dipole moment (field-independent basis, Debye):
    X=             -0.7371    Y=              0.9456    Z=              0.0000  Tot=              1.1989
 Quadrupole moment (field-independent basis, Debye-Ang):
   XX=            -18.8972   YY=            -18.4205   ZZ=            -18.4619
   XY=             -0.6004   XZ=              0.0000   YZ=              0.0000
 Traceless Quadrupole moment (field-independent basis, Debye-Ang):
   XX=             -0.3040   YY=              0.1727   ZZ=              0.1313
   XY=             -0.6004   XZ=              0.0000   YZ=              0.0000
 Octapole moment (field-independent basis, Debye-Ang**2):
  XXX=             -0.4365  YYY=              2.1991  ZZZ=              0.0000  XYY=             -0.4569
  XXY=              1.3285  XXZ=              0.0000  XZZ=             -0.1032  YZZ=              2.8788
  YYZ=              0.0000  XYZ=              0.0000
 Hexadecapole moment (field-independent basis, Debye-Ang**3):
 XXXX=            -19.7815 YYYY=           -148.8566 ZZZZ=            -18.3352 XXXY=              0.3355
 XXXZ=              0.0000 YYYX=             -0.6830 YYYZ=              0.0000 ZZZX=              0.0000
 ZZZY=              0.0000 XXYY=            -29.9818 XXZZ=             -6.3661 YYZZ=            -27.5649
 XXYZ=              0.0000 YYXZ=              0.0000 ZZXY=              0.1668
 N-N= 3.862983395866D+01 E-N=-1.350572496367D+03  KE= 5.346933557655D+02
                          Isotropic Fermi Contact Couplings
        Atom                 a.u.       MegaHertz       Gauss      10(-4) cm-1
     1  Cl(35)             0.05136      11.25945       4.01765       3.75575
     2  H(1)              -0.02984     -66.68045     -23.79324     -22.24220
     3  O(17)              0.21821     -66.14039     -23.60054     -22.06206
 --------------------------------------------------------
       Center         ----  Spin Dipole Couplings  ----
                      3XX-RR        3YY-RR        3ZZ-RR
 --------------------------------------------------------
     1   Atom       -1.317584      2.554109     -1.236525
     2   Atom       -0.061932      0.186480     -0.124548
     3   Atom       -2.630462      0.264731      2.365731
 --------------------------------------------------------
                        XY            XZ            YZ
 --------------------------------------------------------
     1   Atom        1.151429      0.000000      0.000000
     2   Atom        0.118050      0.000000      0.000000
     3   Atom       -1.276903      0.000000      0.000000
 --------------------------------------------------------


 ---------------------------------------------------------------------------------
              Anisotropic Spin Dipole Couplings in Principal Axis System
 ---------------------------------------------------------------------------------

       Atom             a.u.   MegaHertz   Gauss  10(-4) cm-1        Axes

              Baa    -1.6341   -85.527   -30.518   -28.529  0.9642 -0.2651  0.0000
     1 Cl(35) Bbb    -1.2365   -64.717   -23.093   -21.587  0.0000  0.0000  1.0000
              Bcc     2.8707   150.244    53.611    50.116  0.2651  0.9642  0.0000
 
              Baa    -0.1245   -66.453   -23.712   -22.166  0.0000  0.0000  1.0000
     2 H(1)   Bbb    -0.1091   -58.201   -20.768   -19.414  0.9287 -0.3709  0.0000
              Bcc     0.2336   124.654    44.480    41.580  0.3709  0.9287  0.0000
 
              Baa    -3.1132   225.266    80.380    75.141  0.9354  0.3536  0.0000
     3 O(17)  Bbb     0.7474   -54.083   -19.298   -18.040 -0.3536  0.9354  0.0000
              Bcc     2.3657  -171.183   -61.082   -57.100  0.0000  0.0000  1.0000
 

 ---------------------------------------------------------------------------------

 No NMR shielding tensors so no spin-rotation constants.
 Leave Link  601 at Wed Oct  7 13:42:32 2020, MaxMem=  2684354560 cpu:              11.4 elap:               1.4
 (Enter /udrive/faculty/rpeverati/g16/g16/l701.exe)
 ... and contract with generalized density number  0.
 Compute integral first derivatives.
 Leave Link  701 at Wed Oct  7 13:42:33 2020, MaxMem=  2684354560 cpu:               6.6 elap:               1.0
 (Enter /udrive/faculty/rpeverati/g16/g16/l702.exe)
 L702 exits ... SP integral derivatives will be done elsewhere.
 Leave Link  702 at Wed Oct  7 13:42:34 2020, MaxMem=  2684354560 cpu:               1.3 elap:               0.6
 (Enter /udrive/faculty/rpeverati/g16/g16/l703.exe)
 Integral derivatives from FoFJK, PRISM(SPDF).
 Compute integral first derivatives, UseDBF=F ICtDFT=           0.
 Calling FoFJK, ICntrl=      2127 FMM=F ISym2X=1 I1Cent= 0 IOpClX= 1 NMat=1 NMatS=1 NMatT=0.
 FoFJK:  IHMeth= 1 ICntrl=    2127 DoSepK=F KAlg= 0 I1Cent=           0 FoldK=F
 IRaf=         0 NMat=       1 IRICut=       1 DoRegI=T DoRafI=F ISym2E= 1 IDoP0=0 IntGTp=1.
 FoFCou: FMM=F IPFlag=           0 FMFlag=      100000 FMFlg1=         800
         NFxFlg=           0 DoJE=F BraDBF=F KetDBF=F FulRan=T
         wScrn=  0.000000 ICntrl=      2127 IOpCl=  1 I1Cent=           0 NGrid=           0
         NMat0=    1 NMatS0=      1 NMatT0=    0 NMatD0=    1 NMtDS0=    0 NMtDT0=    0
 Petite list used in FoFCou.
 Leave Link  703 at Wed Oct  7 13:42:35 2020, MaxMem=  2684354560 cpu:               8.0 elap:               1.1
 (Enter /udrive/faculty/rpeverati/g16/g16/l716.exe)
 Dipole        =-2.89985472D-01 3.72037660D-01 0.00000000D+00
 ***** Axes restored to original set *****
 -------------------------------------------------------------------
 Center     Atomic                   Forces (Hartrees/Bohr)
 Number     Number              X              Y              Z
 -------------------------------------------------------------------
      1       17           0.003060047   -0.006270836   -0.000000000
      2        1          -0.001649697    0.011845329   -0.000000000
      3        8          -0.001410350   -0.005574493   -0.000000000
 -------------------------------------------------------------------
 Cartesian Forces:  Max     0.011845329 RMS     0.004997607
 Leave Link  716 at Wed Oct  7 13:42:36 2020, MaxMem=  2684354560 cpu:               2.2 elap:               0.6
 (Enter /udrive/faculty/rpeverati/g16/g16/l103.exe)

 GradGradGradGradGradGradGradGradGradGradGradGradGradGradGradGradGradGrad
 Berny optimization.
 Optmz: redundant internal coordinate code flag= 1
 FormGI is forming the generalized inverse of G from B-inverse, IUseBI=4.
 Internal  Forces:  Max     0.006932260 RMS     0.005326740
 Search for a saddle point.
 Step number   1 out of a maximum of   50
 All quantities printed in internal units (Hartrees-Bohrs-Radians)
 Swapping is turned off.
 Second derivative matrix not updated -- first step.
 The second derivative matrix:
                          R1        R2        A1
           R1           0.18225
           R2           0.00000   0.24639
           A1           0.00000   0.00000   0.25000
 ITU=  0
 Eigenvectors of the second derivative matrix:
                           1         2         3
     Eigenvalues --     0.18225   0.24639   0.25000
   1         R1        -1.00000   0.00000   0.00000
   2         R2         0.00000   1.00000   0.00000
   3         A1        -0.00000   0.00000  -1.00000
 Eigenvalue     1 is   1.82D-01 should be less than     0.000000 Eigenvector:
                          R1        A1        R2
   1                   -1.00000  -0.00000   0.00000
 RLam0= 1.83D-01.
 Iter=   1 RLamda= 0.00000000D+00 Sum=-1.50145544D-04.
 Iter=   2 RLamda=-1.50145544D-04 Sum=-1.50054279D-04.
 Iter=   3 RLamda=-1.50054279D-04 Sum=-1.50054334D-04.
 RFO step:  Lambda0=1.825128859D-01 Lambda=-1.50054279D-04.
 Linear search not attempted -- option 19 set.
 Iteration  1 RMS(Cart)=  0.02142981 RMS(Int)=  0.00005423
 Iteration  2 RMS(Cart)=  0.00005303 RMS(Int)=  0.00000000
 Iteration  3 RMS(Cart)=  0.00000000 RMS(Int)=  0.00000000
 ITry= 1 IFail=0 DXMaxC= 2.63D-02 DCOld= 1.00D+10 DXMaxT= 1.00D-01 DXLimC= 3.00D+00 Rises=F
 ClnCor:  largest displacement from symmetrization is 0.00D+00 for atom     0.
 Variable       Old X    -DE/DX   Delta X   Delta X   Delta X     New X
                                 (Linear)    (Quad)   (Total)
    R1        2.77898   0.00693   0.00000  -0.02465  -0.02465   2.75434
    R2        2.26835  -0.00567   0.00000  -0.02298  -0.02298   2.24537
    A1        2.38253  -0.00223   0.00000  -0.00891  -0.00891   2.37362
         Item               Value     Threshold  Converged?
 Maximum Force            0.006932     0.000450     NO 
 RMS     Force            0.005327     0.000300     NO 
 Maximum Displacement     0.026340     0.001800     NO 
 RMS     Displacement     0.021415     0.001200     NO 
 Predicted change in Energy= 1.511429D-04
 Lowest energy point so far.  Saving SCF results.
 Largest change from initial coordinates is atom    1       0.014 Angstoms.
 GradGradGradGradGradGradGradGradGradGradGradGradGradGradGradGradGradGrad

 Leave Link  103 at Wed Oct  7 13:42:38 2020, MaxMem=  2684354560 cpu:               5.8 elap:               1.2
 (Enter /udrive/faculty/rpeverati/g16/g16/l202.exe)
                          Input orientation:                          
 ---------------------------------------------------------------------
 Center     Atomic      Atomic             Coordinates (Angstroms)
 Number     Number       Type             X           Y           Z
 ---------------------------------------------------------------------
      1         17           0        0.019001   -0.803365    0.000000
      2          1           0       -0.470958    0.569347    0.000000
      3          8           0        0.019108    1.651774    0.000000
 ---------------------------------------------------------------------
                    Distance matrix (angstroms):
                    1          2          3
     1  Cl   0.000000
     2  H    1.457532   0.000000
     3  O    2.455139   1.188197   0.000000
 Stoichiometry    ClHO(3)
 Framework group  CS[SG(ClHO)]
 Deg. of freedom     3
 Full point group                 CS      NOp   2
 RotChk:  IX=0 Diff= 6.16D-05
 Largest Abelian subgroup         CS      NOp   2
 Largest concise Abelian subgroup C1      NOp   1
                         Standard orientation:                         
 ---------------------------------------------------------------------
 Center     Atomic      Atomic             Coordinates (Angstroms)
 Number     Number       Type             X           Y           Z
 ---------------------------------------------------------------------
      1         17           0        0.018847   -0.808223    0.000000
      2          1           0       -0.471172    0.564468    0.000000
      3          8           0        0.018847    1.646916    0.000000
 ---------------------------------------------------------------------
 Rotational constants (GHZ):        2141.2416944           7.5981669           7.5713003
 Leave Link  202 at Wed Oct  7 13:42:39 2020, MaxMem=  2684354560 cpu:               2.4 elap:               0.5
 (Enter /udrive/faculty/rpeverati/g16/g16/l301.exe)
 Standard basis: 6-31G(d) (5D, 7F)
 Ernie: Thresh=  0.10000D-02 Tol=  0.10000D-05 Strict=F.
 There are    27 symmetry adapted cartesian basis functions of A'  symmetry.
 There are     9 symmetry adapted cartesian basis functions of A"  symmetry.
 There are    25 symmetry adapted basis functions of A'  symmetry.
 There are     9 symmetry adapted basis functions of A"  symmetry.
    34 basis functions,    84 primitive gaussians,    36 cartesian basis functions
    14 alpha electrons       12 beta electrons
       nuclear repulsion energy        39.0482300185 Hartrees.
 IExCor= 1009 DFT=T Ex+Corr=PBE1PBE ExCW=0 ScaHFX=  0.250000
 ScaDFX=  0.750000  0.750000  1.000000  1.000000 ScalE2=  1.000000  1.000000
 IRadAn=      5 IRanWt=     -1 IRanGd=            0 ICorTp=0 IEmpDi=  4
 NAtoms=    3 NActive=    3 NUniq=    3 SFac= 1.00D+00 NAtFMM=   60 NAOKFM=F Big=F
 Integral buffers will be    131072 words long.
 Raffenetti 2 integral format.
 Two-electron integral symmetry is turned on.
 Leave Link  301 at Wed Oct  7 13:42:39 2020, MaxMem=  2684354560 cpu:               1.7 elap:               0.5
 (Enter /udrive/faculty/rpeverati/g16/g16/l302.exe)
 NPDir=0 NMtPBC=     1 NCelOv=     1 NCel=       1 NClECP=     1 NCelD=      1
         NCelK=      1 NCelE2=     1 NClLst=     1 CellRange=     0.0.
 One-electron integrals computed using PRISM.
 One-electron integral symmetry used in STVInt
 NBasis=    34 RedAO= T EigKep=  3.31D-02  NBF=    25     9
 NBsUse=    34 1.00D-06 EigRej= -1.00D+00 NBFU=    25     9
 Precomputing XC quadrature grid using
 IXCGrd= 4 IRadAn=           5 IRanWt=          -1 IRanGd=           0 AccXCQ= 0.00D+00.
 Generated NRdTot=       0 NPtTot=           0 NUsed=           0 NTot=          32
 NSgBfM=    36    36    36    36    36 MxSgAt=     3 MxSgA2=     3.
 Leave Link  302 at Wed Oct  7 13:42:41 2020, MaxMem=  2684354560 cpu:               8.9 elap:               1.5
 (Enter /udrive/faculty/rpeverati/g16/g16/l303.exe)
 DipDrv:  MaxL=1.
 Leave Link  303 at Wed Oct  7 13:42:42 2020, MaxMem=  2684354560 cpu:               2.4 elap:               0.7
 (Enter /udrive/faculty/rpeverati/g16/g16/l401.exe)
 Initial guess from the checkpoint file:  "MN_91_RKT17_BH76_PBE0_631Gs.chk"
 SCF N**3 symmetry information disabled.
 B after Tr=    -0.000000    0.000000    0.000000
         Rot=    1.000000    0.000000    0.000000   -0.000042 Ang=  -0.00 deg.
 Guess basis will be translated and rotated to current coordinates.
 JPrj=2 DoOrth=T DoCkMO=T.
 Initial guess orbital symmetries:
 Alpha Orbitals:
       Occupied  (A') (A') (A') (A') (A') (A") (A') (A') (A') (A")
                 (A') (A') (A') (A")
       Virtual   (A') (A') (A") (A') (A') (A') (A") (A') (A") (A')
                 (A") (A') (A') (A') (A') (A") (A') (A") (A') (A')
 Beta  Orbitals:
       Occupied  (A') (A') (A') (A') (A') (A") (A') (A') (A') (A')
                 (A") (A')
       Virtual   (A') (A") (A') (A') (A") (A') (A') (A') (A') (A")
                 (A') (A") (A') (A") (A') (A') (A') (A") (A') (A")
                 (A') (A')
 The electronic state of the initial guess is 3-A".
 Initial guess <Sx>= 0.0000 <Sy>= 0.0000 <Sz>= 1.0000 <S**2>= 2.0091 S= 1.0030
 Generating alternative initial guess.
 ExpMin= 1.43D-01 ExpMax= 2.52D+04 ExpMxC= 3.78D+03 IAcc=2 IRadAn=         4 AccDes= 0.00D+00
 Harris functional with IExCor= 1009 and IRadAn=       4 diagonalized for initial guess.
 HarFok:  IExCor= 1009 AccDes= 0.00D+00 IRadAn=         4 IDoV= 1 UseB2=F ITyADJ=14
 ICtDFT=  3500011 ScaDFX=  1.000000  1.000000  1.000000  1.000000
 FoFCou: FMM=F IPFlag=           0 FMFlag=      100000 FMFlg1=           0
         NFxFlg=           0 DoJE=T BraDBF=F KetDBF=T FulRan=T
         wScrn=  0.000000 ICntrl=       500 IOpCl=  0 I1Cent=   200000004 NGrid=           0
         NMat0=    1 NMatS0=      1 NMatT0=    0 NMatD0=    1 NMtDS0=    0 NMtDT0=    0
 Petite list used in FoFCou.
 Harris En= -535.484210103453    
 Leave Link  401 at Wed Oct  7 13:42:44 2020, MaxMem=  2684354560 cpu:              11.3 elap:               1.7
 (Enter /udrive/faculty/rpeverati/g16/g16/l502.exe)
 Keep R1 and R2 ints in memory in symmetry-blocked form, NReq=10542223.
 FoFCou: FMM=F IPFlag=           0 FMFlag=           0 FMFlg1=           0
         NFxFlg=           0 DoJE=F BraDBF=F KetDBF=F FulRan=T
         wScrn=  0.000000 ICntrl=       600 IOpCl=  0 I1Cent=           0 NGrid=           0
         NMat0=    1 NMatS0=    595 NMatT0=    0 NMatD0=    1 NMtDS0=    0 NMtDT0=    0
 Petite list used in FoFCou.
 UHF open shell SCF:
 Using DIIS extrapolation, IDIIS=  1040.
 NGot=  2684354560 LenX=  2684161189 LenY=  2684159452
 Requested convergence on RMS density matrix=1.00D-08 within 120 cycles.
 Requested convergence on MAX density matrix=1.00D-06.
 Requested convergence on             energy=1.00D-06.
 No special actions if energy rises.
 Integral accuracy reduced to 1.0D-05 until final iterations.

 Cycle   1  Pass 0  IDiag  1:
 E= -535.601041858633    
 DIIS: error= 1.26D-03 at cycle   1 NSaved=   1.
 NSaved= 1 IEnMin= 1 EnMin= -535.601041858633     IErMin= 1 ErrMin= 1.26D-03
 ErrMax= 1.26D-03  0.00D+00 EMaxC= 1.00D-01 BMatC= 1.53D-04 BMatP= 1.53D-04
 IDIUse=3 WtCom= 9.87D-01 WtEn= 1.26D-02
 Coeff-Com:  0.100D+01
 Coeff-En:   0.100D+01
 Coeff:      0.100D+01
 Gap=     0.459 Goal=   None    Shift=    0.000
 Gap=     0.138 Goal=   None    Shift=    0.000
 GapD=    0.138 DampG=1.000 DampE=1.000 DampFc=1.0000 IDamp=-1.
 RMSDP=3.81D-04 MaxDP=3.16D-03              OVMax= 5.97D-03

 Cycle   2  Pass 0  IDiag  1:
 E= -535.601104286580     Delta-E=       -0.000062427947 Rises=F Damp=F
 DIIS: error= 5.00D-04 at cycle   2 NSaved=   2.
 NSaved= 2 IEnMin= 2 EnMin= -535.601104286580     IErMin= 2 ErrMin= 5.00D-04
 ErrMax= 5.00D-04  0.00D+00 EMaxC= 1.00D-01 BMatC= 2.45D-05 BMatP= 1.53D-04
 IDIUse=3 WtCom= 9.95D-01 WtEn= 5.00D-03
 Coeff-Com:  0.162D+00 0.838D+00
 Coeff-En:   0.000D+00 0.100D+01
 Coeff:      0.162D+00 0.838D+00
 Gap=     0.460 Goal=   None    Shift=    0.000
 Gap=     0.139 Goal=   None    Shift=    0.000
 RMSDP=1.77D-04 MaxDP=2.02D-03 DE=-6.24D-05 OVMax= 2.98D-03

 Cycle   3  Pass 0  IDiag  1:
 E= -535.601101374127     Delta-E=        0.000002912452 Rises=F Damp=F
 DIIS: error= 5.92D-04 at cycle   3 NSaved=   3.
 NSaved= 3 IEnMin= 2 EnMin= -535.601104286580     IErMin= 2 ErrMin= 5.00D-04
 ErrMax= 5.92D-04  0.00D+00 EMaxC= 1.00D-01 BMatC= 3.51D-05 BMatP= 2.45D-05
 IDIUse=3 WtCom= 2.91D-01 WtEn= 7.09D-01
 Coeff-Com:  0.333D-02 0.546D+00 0.450D+00
 Coeff-En:   0.000D+00 0.578D+00 0.422D+00
 Coeff:      0.970D-03 0.569D+00 0.430D+00
 Gap=     0.460 Goal=   None    Shift=    0.000
 Gap=     0.138 Goal=   None    Shift=    0.000
 RMSDP=1.11D-04 MaxDP=1.63D-03 DE= 2.91D-06 OVMax= 3.14D-03

 Cycle   4  Pass 0  IDiag  1:
 E= -535.601111437746     Delta-E=       -0.000010063618 Rises=F Damp=F
 DIIS: error= 1.30D-04 at cycle   4 NSaved=   4.
 NSaved= 4 IEnMin= 4 EnMin= -535.601111437746     IErMin= 4 ErrMin= 1.30D-04
 ErrMax= 1.30D-04  0.00D+00 EMaxC= 1.00D-01 BMatC= 2.22D-06 BMatP= 2.45D-05
 IDIUse=3 WtCom= 9.99D-01 WtEn= 1.30D-03
 Coeff-Com: -0.250D-01 0.182D+00 0.255D+00 0.587D+00
 Coeff-En:   0.000D+00 0.000D+00 0.000D+00 0.100D+01
 Coeff:     -0.249D-01 0.182D+00 0.255D+00 0.588D+00
 Gap=     0.460 Goal=   None    Shift=    0.000
 Gap=     0.138 Goal=   None    Shift=    0.000
 RMSDP=2.07D-05 MaxDP=2.09D-04 DE=-1.01D-05 OVMax= 3.28D-04

 Cycle   5  Pass 0  IDiag  1:
 E= -535.601112034418     Delta-E=       -0.000000596672 Rises=F Damp=F
 DIIS: error= 4.94D-05 at cycle   5 NSaved=   5.
 NSaved= 5 IEnMin= 5 EnMin= -535.601112034418     IErMin= 5 ErrMin= 4.94D-05
 ErrMax= 4.94D-05  0.00D+00 EMaxC= 1.00D-01 BMatC= 2.70D-07 BMatP= 2.22D-06
 IDIUse=1 WtCom= 1.00D+00 WtEn= 0.00D+00
 Coeff-Com: -0.583D-03-0.456D-01 0.295D-01-0.141D+00 0.116D+01
 Coeff:     -0.583D-03-0.456D-01 0.295D-01-0.141D+00 0.116D+01
 Gap=     0.460 Goal=   None    Shift=    0.000
 Gap=     0.138 Goal=   None    Shift=    0.000
 RMSDP=1.89D-05 MaxDP=2.08D-04 DE=-5.97D-07 OVMax= 5.08D-04

 Cycle   6  Pass 0  IDiag  1:
 E= -535.601112211916     Delta-E=       -0.000000177498 Rises=F Damp=F
 DIIS: error= 2.07D-05 at cycle   6 NSaved=   6.
 NSaved= 6 IEnMin= 6 EnMin= -535.601112211916     IErMin= 6 ErrMin= 2.07D-05
 ErrMax= 2.07D-05  0.00D+00 EMaxC= 1.00D-01 BMatC= 5.34D-08 BMatP= 2.70D-07
 IDIUse=1 WtCom= 1.00D+00 WtEn= 0.00D+00
 Coeff-Com:  0.316D-02-0.200D-01-0.115D-01-0.123D+00-0.116D+00 0.127D+01
 Coeff:      0.316D-02-0.200D-01-0.115D-01-0.123D+00-0.116D+00 0.127D+01
 Gap=     0.460 Goal=   None    Shift=    0.000
 Gap=     0.138 Goal=   None    Shift=    0.000
 RMSDP=1.56D-05 MaxDP=1.93D-04 DE=-1.77D-07 OVMax= 5.04D-04

 Cycle   7  Pass 0  IDiag  1:
 E= -535.601112297524     Delta-E=       -0.000000085608 Rises=F Damp=F
 DIIS: error= 1.40D-05 at cycle   7 NSaved=   7.
 NSaved= 7 IEnMin= 7 EnMin= -535.601112297524     IErMin= 7 ErrMin= 1.40D-05
 ErrMax= 1.40D-05  0.00D+00 EMaxC= 1.00D-01 BMatC= 1.37D-08 BMatP= 5.34D-08
 IDIUse=1 WtCom= 1.00D+00 WtEn= 0.00D+00
 Coeff-Com: -0.215D-02 0.328D-01 0.129D-01 0.952D-01-0.479D+00-0.479D+00
 Coeff-Com:  0.182D+01
 Coeff:     -0.215D-02 0.328D-01 0.129D-01 0.952D-01-0.479D+00-0.479D+00
 Coeff:      0.182D+01
 Gap=     0.460 Goal=   None    Shift=    0.000
 Gap=     0.138 Goal=   None    Shift=    0.000
 RMSDP=1.88D-05 MaxDP=2.22D-04 DE=-8.56D-08 OVMax= 5.82D-04

 Cycle   8  Pass 0  IDiag  1:
 E= -535.601112351797     Delta-E=       -0.000000054273 Rises=F Damp=F
 DIIS: error= 6.23D-06 at cycle   8 NSaved=   8.
 NSaved= 8 IEnMin= 8 EnMin= -535.601112351797     IErMin= 8 ErrMin= 6.23D-06
 ErrMax= 6.23D-06  0.00D+00 EMaxC= 1.00D-01 BMatC= 1.98D-09 BMatP= 1.37D-08
 IDIUse=1 WtCom= 1.00D+00 WtEn= 0.00D+00
 Coeff-Com: -0.188D-02 0.157D-01 0.690D-02 0.632D-01-0.678D-01-0.452D+00
 Coeff-Com:  0.313D+00 0.112D+01
 Coeff:     -0.188D-02 0.157D-01 0.690D-02 0.632D-01-0.678D-01-0.452D+00
 Coeff:      0.313D+00 0.112D+01
 Gap=     0.460 Goal=   None    Shift=    0.000
 Gap=     0.138 Goal=   None    Shift=    0.000
 RMSDP=8.29D-06 MaxDP=9.72D-05 DE=-5.43D-08 OVMax= 2.60D-04

 Initial convergence to 1.0D-05 achieved.  Increase integral accuracy.
 Cycle   9  Pass 1  IDiag  1:
 E= -535.601115886722     Delta-E=       -0.000003534925 Rises=F Damp=F
 DIIS: error= 1.86D-06 at cycle   1 NSaved=   1.
 NSaved= 1 IEnMin= 1 EnMin= -535.601115886722     IErMin= 1 ErrMin= 1.86D-06
 ErrMax= 1.86D-06  0.00D+00 EMaxC= 1.00D-01 BMatC= 3.78D-10 BMatP= 3.78D-10
 IDIUse=1 WtCom= 1.00D+00 WtEn= 0.00D+00
 Coeff-Com:  0.100D+01
 Coeff:      0.100D+01
 Gap=     0.460 Goal=   None    Shift=    0.000
 Gap=     0.138 Goal=   None    Shift=    0.000
 RMSDP=8.29D-06 MaxDP=9.72D-05 DE=-3.53D-06 OVMax= 3.61D-05

 Cycle  10  Pass 1  IDiag  1:
 E= -535.601115887249     Delta-E=       -0.000000000526 Rises=F Damp=F
 DIIS: error= 1.19D-06 at cycle   2 NSaved=   2.
 NSaved= 2 IEnMin= 2 EnMin= -535.601115887249     IErMin= 2 ErrMin= 1.19D-06
 ErrMax= 1.19D-06  0.00D+00 EMaxC= 1.00D-01 BMatC= 1.30D-10 BMatP= 3.78D-10
 IDIUse=1 WtCom= 1.00D+00 WtEn= 0.00D+00
 Coeff-Com:  0.163D+00 0.837D+00
 Coeff:      0.163D+00 0.837D+00
 Gap=     0.460 Goal=   None    Shift=    0.000
 Gap=     0.138 Goal=   None    Shift=    0.000
 RMSDP=6.47D-07 MaxDP=8.70D-06 DE=-5.26D-10 OVMax= 2.47D-05

 Cycle  11  Pass 1  IDiag  1:
 E= -535.601115887445     Delta-E=       -0.000000000196 Rises=F Damp=F
 DIIS: error= 1.36D-06 at cycle   3 NSaved=   3.
 NSaved= 3 IEnMin= 3 EnMin= -535.601115887445     IErMin= 2 ErrMin= 1.19D-06
 ErrMax= 1.36D-06  0.00D+00 EMaxC= 1.00D-01 BMatC= 1.47D-10 BMatP= 1.30D-10
 IDIUse=1 WtCom= 1.00D+00 WtEn= 0.00D+00
 Coeff-Com: -0.154D+00 0.575D+00 0.579D+00
 Coeff:     -0.154D+00 0.575D+00 0.579D+00
 Gap=     0.460 Goal=   None    Shift=    0.000
 Gap=     0.138 Goal=   None    Shift=    0.000
 RMSDP=5.22D-07 MaxDP=6.39D-06 DE=-1.96D-10 OVMax= 1.45D-05

 Cycle  12  Pass 1  IDiag  1:
 E= -535.601115887597     Delta-E=       -0.000000000152 Rises=F Damp=F
 DIIS: error= 8.07D-07 at cycle   4 NSaved=   4.
 NSaved= 4 IEnMin= 4 EnMin= -535.601115887597     IErMin= 4 ErrMin= 8.07D-07
 ErrMax= 8.07D-07  0.00D+00 EMaxC= 1.00D-01 BMatC= 4.83D-11 BMatP= 1.30D-10
 IDIUse=1 WtCom= 1.00D+00 WtEn= 0.00D+00
 Coeff-Com: -0.166D+00-0.163D+00 0.327D+00 0.100D+01
 Coeff:     -0.166D+00-0.163D+00 0.327D+00 0.100D+01
 Gap=     0.460 Goal=   None    Shift=    0.000
 Gap=     0.138 Goal=   None    Shift=    0.000
 RMSDP=7.01D-07 MaxDP=8.06D-06 DE=-1.52D-10 OVMax= 2.45D-05

 Cycle  13  Pass 1  IDiag  1:
 E= -535.601115887736     Delta-E=       -0.000000000139 Rises=F Damp=F
 DIIS: error= 5.99D-07 at cycle   5 NSaved=   5.
 NSaved= 5 IEnMin= 5 EnMin= -535.601115887736     IErMin= 5 ErrMin= 5.99D-07
 ErrMax= 5.99D-07  0.00D+00 EMaxC= 1.00D-01 BMatC= 1.36D-11 BMatP= 4.83D-11
 IDIUse=1 WtCom= 1.00D+00 WtEn= 0.00D+00
 Coeff-Com:  0.813D-01-0.446D+00-0.276D+00-0.569D-02 0.165D+01
 Coeff:      0.813D-01-0.446D+00-0.276D+00-0.569D-02 0.165D+01
 Gap=     0.460 Goal=   None    Shift=    0.000
 Gap=     0.138 Goal=   None    Shift=    0.000
 RMSDP=9.31D-07 MaxDP=9.15D-06 DE=-1.39D-10 OVMax= 2.93D-05

 Cycle  14  Pass 1  IDiag  1:
 E= -535.601115887819     Delta-E=       -0.000000000083 Rises=F Damp=F
 DIIS: error= 2.77D-07 at cycle   6 NSaved=   6.
 NSaved= 6 IEnMin= 6 EnMin= -535.601115887819     IErMin= 6 ErrMin= 2.77D-07
 ErrMax= 2.77D-07  0.00D+00 EMaxC= 1.00D-01 BMatC= 8.73D-12 BMatP= 1.36D-11
 IDIUse=1 WtCom= 1.00D+00 WtEn= 0.00D+00
 Coeff-Com:  0.104D-01 0.474D-01 0.214D+00-0.358D+00-0.132D+00 0.122D+01
 Coeff:      0.104D-01 0.474D-01 0.214D+00-0.358D+00-0.132D+00 0.122D+01
 Gap=     0.460 Goal=   None    Shift=    0.000
 Gap=     0.138 Goal=   None    Shift=    0.000
 RMSDP=1.43D-07 MaxDP=1.74D-06 DE=-8.27D-11 OVMax= 4.56D-06

 Cycle  15  Pass 1  IDiag  1:
 E= -535.601115887825     Delta-E=       -0.000000000006 Rises=F Damp=F
 DIIS: error= 1.22D-07 at cycle   7 NSaved=   7.
 NSaved= 7 IEnMin= 7 EnMin= -535.601115887825     IErMin= 7 ErrMin= 1.22D-07
 ErrMax= 1.22D-07  0.00D+00 EMaxC= 1.00D-01 BMatC= 1.67D-12 BMatP= 8.73D-12
 IDIUse=1 WtCom= 1.00D+00 WtEn= 0.00D+00
 Coeff-Com: -0.241D-01 0.139D+00 0.203D+00-0.150D+00-0.561D+00 0.147D+00
 Coeff-Com:  0.125D+01
 Coeff:     -0.241D-01 0.139D+00 0.203D+00-0.150D+00-0.561D+00 0.147D+00
 Coeff:      0.125D+01
 Gap=     0.460 Goal=   None    Shift=    0.000
 Gap=     0.138 Goal=   None    Shift=    0.000
 RMSDP=1.16D-07 MaxDP=1.51D-06 DE=-6.03D-12 OVMax= 4.06D-06

 Cycle  16  Pass 1  IDiag  1:
 E= -535.601115887827     Delta-E=       -0.000000000002 Rises=F Damp=F
 DIIS: error= 2.51D-08 at cycle   8 NSaved=   8.
 NSaved= 8 IEnMin= 8 EnMin= -535.601115887827     IErMin= 8 ErrMin= 2.51D-08
 ErrMax= 2.51D-08  0.00D+00 EMaxC= 1.00D-01 BMatC= 6.85D-14 BMatP= 1.67D-12
 IDIUse=1 WtCom= 1.00D+00 WtEn= 0.00D+00
 Coeff-Com:  0.165D-02-0.258D-01-0.372D-01 0.469D-01 0.810D-01-0.185D+00
 Coeff-Com: -0.119D+00 0.124D+01
 Coeff:      0.165D-02-0.258D-01-0.372D-01 0.469D-01 0.810D-01-0.185D+00
 Coeff:     -0.119D+00 0.124D+01
 Gap=     0.460 Goal=   None    Shift=    0.000
 Gap=     0.138 Goal=   None    Shift=    0.000
 RMSDP=3.35D-08 MaxDP=4.36D-07 DE=-1.93D-12 OVMax= 1.19D-06

 Cycle  17  Pass 1  IDiag  1:
 E= -535.601115887827     Delta-E=       -0.000000000001 Rises=F Damp=F
 DIIS: error= 7.36D-09 at cycle   9 NSaved=   9.
 NSaved= 9 IEnMin= 9 EnMin= -535.601115887827     IErMin= 9 ErrMin= 7.36D-09
 ErrMax= 7.36D-09  0.00D+00 EMaxC= 1.00D-01 BMatC= 4.30D-15 BMatP= 6.85D-14
 IDIUse=1 WtCom= 1.00D+00 WtEn= 0.00D+00
 Coeff-Com:  0.226D-02-0.131D-01-0.153D-01 0.964D-02 0.533D-01-0.172D-01
 Coeff-Com: -0.104D+00 0.692D-02 0.108D+01
 Coeff:      0.226D-02-0.131D-01-0.153D-01 0.964D-02 0.533D-01-0.172D-01
 Coeff:     -0.104D+00 0.692D-02 0.108D+01
 Gap=     0.460 Goal=   None    Shift=    0.000
 Gap=     0.138 Goal=   None    Shift=    0.000
 RMSDP=4.46D-09 MaxDP=5.69D-08 DE=-6.82D-13 OVMax= 1.36D-07

 SCF Done:  E(UPBE1PBE) =  -535.601115888     A.U. after   17 cycles
            NFock= 17  Conv=0.45D-08     -V/T= 2.0016
 <Sx>= 0.0000 <Sy>= 0.0000 <Sz>= 1.0000 <S**2>= 2.0090 S= 1.0030
 <L.S>= 0.000000000000E+00
 KE= 5.347239559778D+02 PE=-1.351427486501D+03 EE= 2.420541846168D+02
 Annihilation of the first spin contaminant:
 S**2 before annihilation     2.0090,   after     2.0000
 Leave Link  502 at Wed Oct  7 13:42:48 2020, MaxMem=  2684354560 cpu:              31.4 elap:               3.4
 (Enter /udrive/faculty/rpeverati/g16/g16/l508.exe)
 QCSCF skips out because SCF is already converged.
 Leave Link  508 at Wed Oct  7 13:42:49 2020, MaxMem=  2684354560 cpu:               1.0 elap:               0.5
 (Enter /udrive/faculty/rpeverati/g16/g16/l701.exe)
 ... and contract with generalized density number  0.
 Compute integral first derivatives.
 Leave Link  701 at Wed Oct  7 13:42:50 2020, MaxMem=  2684354560 cpu:               6.6 elap:               1.2
 (Enter /udrive/faculty/rpeverati/g16/g16/l702.exe)
 L702 exits ... SP integral derivatives will be done elsewhere.
 Leave Link  702 at Wed Oct  7 13:42:51 2020, MaxMem=  2684354560 cpu:               1.5 elap:               0.7
 (Enter /udrive/faculty/rpeverati/g16/g16/l703.exe)
 Integral derivatives from FoFJK, PRISM(SPDF).
 Compute integral first derivatives, UseDBF=F ICtDFT=           0.
 Calling FoFJK, ICntrl=      2127 FMM=F ISym2X=1 I1Cent= 0 IOpClX= 1 NMat=1 NMatS=1 NMatT=0.
 FoFJK:  IHMeth= 1 ICntrl=    2127 DoSepK=F KAlg= 0 I1Cent=           0 FoldK=F
 IRaf=         0 NMat=       1 IRICut=       1 DoRegI=T DoRafI=F ISym2E= 1 IDoP0=0 IntGTp=1.
 FoFCou: FMM=F IPFlag=           0 FMFlag=      100000 FMFlg1=         800
         NFxFlg=           0 DoJE=F BraDBF=F KetDBF=F FulRan=T
         wScrn=  0.000000 ICntrl=      2127 IOpCl=  1 I1Cent=           0 NGrid=           0
         NMat0=    1 NMatS0=      1 NMatT0=    0 NMatD0=    1 NMtDS0=    0 NMtDT0=    0
 Petite list used in FoFCou.
 Leave Link  703 at Wed Oct  7 13:42:53 2020, MaxMem=  2684354560 cpu:              12.7 elap:               1.8
 (Enter /udrive/faculty/rpeverati/g16/g16/l716.exe)
 Dipole        =-2.91603346D-01 3.54491355D-01 0.00000000D+00
 ***** Axes restored to original set *****
 -------------------------------------------------------------------
 Center     Atomic                   Forces (Hartrees/Bohr)
 Number     Number              X              Y              Z
 -------------------------------------------------------------------
      1       17           0.004729426   -0.012009136   -0.000000000
      2        1          -0.004586713    0.013577589   -0.000000000
      3        8          -0.000142713   -0.001568453   -0.000000000
 -------------------------------------------------------------------
 Cartesian Forces:  Max     0.013577589 RMS     0.006450289
 Leave Link  716 at Wed Oct  7 13:42:55 2020, MaxMem=  2684354560 cpu:               2.1 elap:               0.8
 (Enter /udrive/faculty/rpeverati/g16/g16/l103.exe)

 GradGradGradGradGradGradGradGradGradGradGradGradGradGradGradGradGradGrad
 Berny optimization.
 Optmz: redundant internal coordinate code flag= 1
 Red2BG:  D1=  6.44D-01 OD1=  7.33D-03 B2RMS=  0.00D+00 IAprox=0
 FormGI is forming the generalized inverse of G from B-inverse, IUseBI=4.
 Internal  Forces:  Max     0.012900624 RMS     0.007527218
 Search for a saddle point.
 Step number   2 out of a maximum of   50
 All quantities printed in internal units (Hartrees-Bohrs-Radians)
 Swapping is turned off.
 Update second derivatives using D2CorX and points    1    2
 The second derivative matrix:
                          R1        R2        A1
           R1           0.24235
           R2           0.00340   0.19103
           A1          -0.00933  -0.03330   0.23212
 ITU=  0  0
 Eigenvectors of the second derivative matrix:
                           1         2         3
     Eigenvalues --     0.17242   0.23590   0.25719
   1         R1        -0.02292  -0.83351  -0.55203
   2         R2        -0.87160   0.28712  -0.39733
   3         A1        -0.48968  -0.47204   0.73307
 Eigenvalue     1 is   1.72D-01 should be less than     0.000000 Eigenvector:
                          R2        A1        R1
   1                   -0.87160  -0.48968  -0.02292
 RLam0= 1.72D-01.
 Iter=   1 RLamda= 0.00000000D+00 Sum=-6.91039551D-04.
 Iter=   2 RLamda=-6.91039551D-04 Sum=-6.89072157D-04.
 Iter=   3 RLamda=-6.89072157D-04 Sum=-6.89077743D-04.
 RFO step:  Lambda0=1.724311578D-01 Lambda=-6.89072157D-04.
 Linear search not attempted -- option 19 set.
 Iteration  1 RMS(Cart)=  0.04788526 RMS(Int)=  0.00034055
 Iteration  2 RMS(Cart)=  0.00034255 RMS(Int)=  0.00000008
 Iteration  3 RMS(Cart)=  0.00000009 RMS(Int)=  0.00000000
 ITry= 1 IFail=0 DXMaxC= 5.95D-02 DCOld= 1.00D+10 DXMaxT= 1.00D-01 DXLimC= 3.00D+00 Rises=F
 ClnCor:  largest displacement from symmetrization is 2.22D-15 for atom     3.
 Variable       Old X    -DE/DX   Delta X   Delta X   Delta X     New X
                                 (Linear)    (Quad)   (Total)
    R1        2.75434   0.01290   0.00000   0.05448   0.05448   2.80882
    R2        2.24537  -0.00149   0.00000   0.04490   0.04490   2.29027
    A1        2.37362  -0.00116   0.00000   0.02634   0.02634   2.39996
         Item               Value     Threshold  Converged?
 Maximum Force            0.012901     0.000450     NO 
 RMS     Force            0.007527     0.000300     NO 
 Maximum Displacement     0.059463     0.001800     NO 
 RMS     Displacement     0.048017     0.001200     NO 
 Predicted change in Energy=-1.725876D-05
 Largest change from initial coordinates is atom    1       0.012 Angstoms.
 GradGradGradGradGradGradGradGradGradGradGradGradGradGradGradGradGradGrad

 Leave Link  103 at Wed Oct  7 13:42:56 2020, MaxMem=  2684354560 cpu:               4.3 elap:               1.0
 (Enter /udrive/faculty/rpeverati/g16/g16/l202.exe)
                          Input orientation:                          
 ---------------------------------------------------------------------
 Center     Atomic      Atomic             Coordinates (Angstroms)
 Number     Number       Type             X           Y           Z
 ---------------------------------------------------------------------
      1         17           0        0.017328   -0.834832    0.000000
      2          1           0       -0.466629    0.570535    0.000000
      3          8           0        0.016453    1.682053    0.000000
 ---------------------------------------------------------------------
                    Distance matrix (angstroms):
                    1          2          3
     1  Cl   0.000000
     2  H    1.486362   0.000000
     3  O    2.516885   1.211957   0.000000
 Stoichiometry    ClHO(3)
 Framework group  CS[SG(ClHO)]
 Deg. of freedom     3
 Full point group                 CS      NOp   2
 RotChk:  IX=0 Diff= 5.54D-04
 Largest Abelian subgroup         CS      NOp   2
 Largest concise Abelian subgroup C1      NOp   1
                         Standard orientation:                         
 ---------------------------------------------------------------------
 Center     Atomic      Atomic             Coordinates (Angstroms)
 Number     Number       Type             X           Y           Z
 ---------------------------------------------------------------------
      1         17           0        0.018595   -0.828485    0.000000
      2          1           0       -0.464874    0.577050    0.000000
      3          8           0        0.018595    1.688400    0.000000
 ---------------------------------------------------------------------
 Rotational constants (GHZ):        2199.5838908           7.2301563           7.2064682
 Leave Link  202 at Wed Oct  7 13:42:57 2020, MaxMem=  2684354560 cpu:               2.3 elap:               0.6
 (Enter /udrive/faculty/rpeverati/g16/g16/l301.exe)
 Standard basis: 6-31G(d) (5D, 7F)
 Ernie: Thresh=  0.10000D-02 Tol=  0.10000D-05 Strict=F.
 There are    27 symmetry adapted cartesian basis functions of A'  symmetry.
 There are     9 symmetry adapted cartesian basis functions of A"  symmetry.
 There are    25 symmetry adapted basis functions of A'  symmetry.
 There are     9 symmetry adapted basis functions of A"  symmetry.
    34 basis functions,    84 primitive gaussians,    36 cartesian basis functions
    14 alpha electrons       12 beta electrons
       nuclear repulsion energy        38.1395330701 Hartrees.
 IExCor= 1009 DFT=T Ex+Corr=PBE1PBE ExCW=0 ScaHFX=  0.250000
 ScaDFX=  0.750000  0.750000  1.000000  1.000000 ScalE2=  1.000000  1.000000
 IRadAn=      5 IRanWt=     -1 IRanGd=            0 ICorTp=0 IEmpDi=  4
 NAtoms=    3 NActive=    3 NUniq=    3 SFac= 1.00D+00 NAtFMM=   60 NAOKFM=F Big=F
 Integral buffers will be    131072 words long.
 Raffenetti 2 integral format.
 Two-electron integral symmetry is turned on.
 Leave Link  301 at Wed Oct  7 13:42:58 2020, MaxMem=  2684354560 cpu:               1.9 elap:               0.6
 (Enter /udrive/faculty/rpeverati/g16/g16/l302.exe)
 NPDir=0 NMtPBC=     1 NCelOv=     1 NCel=       1 NClECP=     1 NCelD=      1
         NCelK=      1 NCelE2=     1 NClLst=     1 CellRange=     0.0.
 One-electron integrals computed using PRISM.
 One-electron integral symmetry used in STVInt
 NBasis=    34 RedAO= T EigKep=  3.46D-02  NBF=    25     9
 NBsUse=    34 1.00D-06 EigRej= -1.00D+00 NBFU=    25     9
 Precomputing XC quadrature grid using
 IXCGrd= 4 IRadAn=           5 IRanWt=          -1 IRanGd=           0 AccXCQ= 0.00D+00.
 Generated NRdTot=       0 NPtTot=           0 NUsed=           0 NTot=          32
 NSgBfM=    36    36    36    36    36 MxSgAt=     3 MxSgA2=     3.
 Leave Link  302 at Wed Oct  7 13:43:00 2020, MaxMem=  2684354560 cpu:               8.0 elap:               1.3
 (Enter /udrive/faculty/rpeverati/g16/g16/l303.exe)
 DipDrv:  MaxL=1.
 Leave Link  303 at Wed Oct  7 13:43:01 2020, MaxMem=  2684354560 cpu:               3.2 elap:               0.9
 (Enter /udrive/faculty/rpeverati/g16/g16/l401.exe)
 Initial guess from the checkpoint file:  "MN_91_RKT17_BH76_PBE0_631Gs.chk"
 SCF N**3 symmetry information disabled.
 B after Tr=     0.000000   -0.000000    0.000000
         Rot=    1.000000    0.000000    0.000000    0.000144 Ang=   0.02 deg.
 Guess basis will be translated and rotated to current coordinates.
 JPrj=2 DoOrth=T DoCkMO=T.
 Initial guess orbital symmetries:
 Alpha Orbitals:
       Occupied  (A') (A') (A') (A') (A') (A") (A') (A') (A') (A")
                 (A') (A') (A') (A")
       Virtual   (A') (A') (A") (A') (A') (A') (A") (A') (A') (A")
                 (A") (A') (A') (A') (A') (A") (A') (A") (A') (A')
 Beta  Orbitals:
       Occupied  (A') (A') (A') (A') (A') (A") (A') (A') (A') (A')
                 (A") (A')
       Virtual   (A') (A") (A') (A') (A") (A') (A') (A') (A') (A")
                 (A') (A") (A') (A") (A') (A') (A') (A") (A') (A")
                 (A') (A')
 The electronic state of the initial guess is 3-A".
 Initial guess <Sx>= 0.0000 <Sy>= 0.0000 <Sz>= 1.0000 <S**2>= 2.0093 S= 1.0031
 Generating alternative initial guess.
 ExpMin= 1.43D-01 ExpMax= 2.52D+04 ExpMxC= 3.78D+03 IAcc=2 IRadAn=         4 AccDes= 0.00D+00
 Harris functional with IExCor= 1009 and IRadAn=       4 diagonalized for initial guess.
 HarFok:  IExCor= 1009 AccDes= 0.00D+00 IRadAn=         4 IDoV= 1 UseB2=F ITyADJ=14
 ICtDFT=  3500011 ScaDFX=  1.000000  1.000000  1.000000  1.000000
 FoFCou: FMM=F IPFlag=           0 FMFlag=      100000 FMFlg1=           0
         NFxFlg=           0 DoJE=T BraDBF=F KetDBF=T FulRan=T
         wScrn=  0.000000 ICntrl=       500 IOpCl=  0 I1Cent=   200000004 NGrid=           0
         NMat0=    1 NMatS0=      1 NMatT0=    0 NMatD0=    1 NMtDS0=    0 NMtDT0=    0
 Petite list used in FoFCou.
 Harris En= -535.484729245722    
 Leave Link  401 at Wed Oct  7 13:43:03 2020, MaxMem=  2684354560 cpu:              11.3 elap:               1.7
 (Enter /udrive/faculty/rpeverati/g16/g16/l502.exe)
 Keep R1 and R2 ints in memory in symmetry-blocked form, NReq=10542223.
 FoFCou: FMM=F IPFlag=           0 FMFlag=           0 FMFlg1=           0
         NFxFlg=           0 DoJE=F BraDBF=F KetDBF=F FulRan=T
         wScrn=  0.000000 ICntrl=       600 IOpCl=  0 I1Cent=           0 NGrid=           0
         NMat0=    1 NMatS0=    595 NMatT0=    0 NMatD0=    1 NMtDS0=    0 NMtDT0=    0
 Petite list used in FoFCou.
 UHF open shell SCF:
 Using DIIS extrapolation, IDIIS=  1040.
 NGot=  2684354560 LenX=  2684161189 LenY=  2684159452
 Requested convergence on RMS density matrix=1.00D-08 within 120 cycles.
 Requested convergence on MAX density matrix=1.00D-06.
 Requested convergence on             energy=1.00D-06.
 No special actions if energy rises.
 Integral accuracy reduced to 1.0D-05 until final iterations.

 Cycle   1  Pass 0  IDiag  1:
 E= -535.600820896409    
 DIIS: error= 3.10D-03 at cycle   1 NSaved=   1.
 NSaved= 1 IEnMin= 1 EnMin= -535.600820896409     IErMin= 1 ErrMin= 3.10D-03
 ErrMax= 3.10D-03  0.00D+00 EMaxC= 1.00D-01 BMatC= 6.87D-04 BMatP= 6.87D-04
 IDIUse=3 WtCom= 9.69D-01 WtEn= 3.10D-02
 Coeff-Com:  0.100D+01
 Coeff-En:   0.100D+01
 Coeff:      0.100D+01
 Gap=     0.450 Goal=   None    Shift=    0.000
 Gap=     0.133 Goal=   None    Shift=    0.000
 GapD=    0.133 DampG=1.000 DampE=1.000 DampFc=1.0000 IDamp=-1.
 RMSDP=8.40D-04 MaxDP=7.04D-03              OVMax= 1.22D-02

 Cycle   2  Pass 0  IDiag  1:
 E= -535.601120985227     Delta-E=       -0.000300088818 Rises=F Damp=F
 DIIS: error= 9.40D-04 at cycle   2 NSaved=   2.
 NSaved= 2 IEnMin= 2 EnMin= -535.601120985227     IErMin= 2 ErrMin= 9.40D-04
 ErrMax= 9.40D-04  0.00D+00 EMaxC= 1.00D-01 BMatC= 8.50D-05 BMatP= 6.87D-04
 IDIUse=3 WtCom= 9.91D-01 WtEn= 9.40D-03
 Coeff-Com:  0.125D+00 0.875D+00
 Coeff-En:   0.000D+00 0.100D+01
 Coeff:      0.124D+00 0.876D+00
 Gap=     0.446 Goal=   None    Shift=    0.000
 Gap=     0.131 Goal=   None    Shift=    0.000
 RMSDP=3.42D-04 MaxDP=4.00D-03 DE=-3.00D-04 OVMax= 5.57D-03

 Cycle   3  Pass 0  IDiag  1:
 E= -535.601109152078     Delta-E=        0.000011833149 Rises=F Damp=F
 DIIS: error= 1.18D-03 at cycle   3 NSaved=   3.
 NSaved= 3 IEnMin= 2 EnMin= -535.601120985227     IErMin= 2 ErrMin= 9.40D-04
 ErrMax= 1.18D-03  0.00D+00 EMaxC= 1.00D-01 BMatC= 1.35D-04 BMatP= 8.50D-05
 IDIUse=3 WtCom= 2.26D-01 WtEn= 7.74D-01
 Coeff-Com: -0.484D-02 0.564D+00 0.441D+00
 Coeff-En:   0.000D+00 0.588D+00 0.412D+00
 Coeff:     -0.109D-02 0.583D+00 0.419D+00
 Gap=     0.447 Goal=   None    Shift=    0.000
 Gap=     0.132 Goal=   None    Shift=    0.000
 RMSDP=2.23D-04 MaxDP=3.23D-03 DE= 1.18D-05 OVMax= 6.22D-03

 Cycle   4  Pass 0  IDiag  1:
 E= -535.601147730253     Delta-E=       -0.000038578176 Rises=F Damp=F
 DIIS: error= 2.74D-04 at cycle   4 NSaved=   4.
 NSaved= 4 IEnMin= 4 EnMin= -535.601147730253     IErMin= 4 ErrMin= 2.74D-04
 ErrMax= 2.74D-04  0.00D+00 EMaxC= 1.00D-01 BMatC= 9.76D-06 BMatP= 8.50D-05
 IDIUse=3 WtCom= 9.97D-01 WtEn= 2.74D-03
 Coeff-Com: -0.256D-01 0.191D+00 0.259D+00 0.576D+00
 Coeff-En:   0.000D+00 0.000D+00 0.000D+00 0.100D+01
 Coeff:     -0.255D-01 0.190D+00 0.258D+00 0.577D+00
 Gap=     0.447 Goal=   None    Shift=    0.000
 Gap=     0.132 Goal=   None    Shift=    0.000
 RMSDP=4.57D-05 MaxDP=4.30D-04 DE=-3.86D-05 OVMax= 8.44D-04

 Cycle   5  Pass 0  IDiag  1:
 E= -535.601150571136     Delta-E=       -0.000002840882 Rises=F Damp=F
 DIIS: error= 9.06D-05 at cycle   5 NSaved=   5.
 NSaved= 5 IEnMin= 5 EnMin= -535.601150571136     IErMin= 5 ErrMin= 9.06D-05
 ErrMax= 9.06D-05  0.00D+00 EMaxC= 1.00D-01 BMatC= 9.97D-07 BMatP= 9.76D-06
 IDIUse=1 WtCom= 1.00D+00 WtEn= 0.00D+00
 Coeff-Com: -0.890D-04-0.443D-01 0.253D-01-0.137D+00 0.116D+01
 Coeff:     -0.890D-04-0.443D-01 0.253D-01-0.137D+00 0.116D+01
 Gap=     0.447 Goal=   None    Shift=    0.000
 Gap=     0.132 Goal=   None    Shift=    0.000
 RMSDP=4.28D-05 MaxDP=4.95D-04 DE=-2.84D-06 OVMax= 1.31D-03

 Cycle   6  Pass 0  IDiag  1:
 E= -535.601151472863     Delta-E=       -0.000000901727 Rises=F Damp=F
 DIIS: error= 5.21D-05 at cycle   6 NSaved=   6.
 NSaved= 6 IEnMin= 6 EnMin= -535.601151472863     IErMin= 6 ErrMin= 5.21D-05
 ErrMax= 5.21D-05  0.00D+00 EMaxC= 1.00D-01 BMatC= 2.73D-07 BMatP= 9.97D-07
 IDIUse=1 WtCom= 1.00D+00 WtEn= 0.00D+00
 Coeff-Com:  0.320D-02-0.177D-01-0.108D-01-0.126D+00-0.203D+00 0.135D+01
 Coeff:      0.320D-02-0.177D-01-0.108D-01-0.126D+00-0.203D+00 0.135D+01
 Gap=     0.447 Goal=   None    Shift=    0.000
 Gap=     0.132 Goal=   None    Shift=    0.000
 RMSDP=4.08D-05 MaxDP=4.97D-04 DE=-9.02D-07 OVMax= 1.40D-03

 Cycle   7  Pass 0  IDiag  1:
 E= -535.601152022538     Delta-E=       -0.000000549675 Rises=F Damp=F
 DIIS: error= 3.54D-05 at cycle   7 NSaved=   7.
 NSaved= 7 IEnMin= 7 EnMin= -535.601152022538     IErMin= 7 ErrMin= 3.54D-05
 ErrMax= 3.54D-05  0.00D+00 EMaxC= 1.00D-01 BMatC= 8.75D-08 BMatP= 2.73D-07
 IDIUse=1 WtCom= 1.00D+00 WtEn= 0.00D+00
 Coeff-Com: -0.256D-02 0.389D-01 0.181D-01 0.964D-01-0.610D+00-0.409D+00
 Coeff-Com:  0.187D+01
 Coeff:     -0.256D-02 0.389D-01 0.181D-01 0.964D-01-0.610D+00-0.409D+00
 Coeff:      0.187D+01
 Gap=     0.446 Goal=   None    Shift=    0.000
 Gap=     0.132 Goal=   None    Shift=    0.000
 RMSDP=5.39D-05 MaxDP=6.22D-04 DE=-5.50D-07 OVMax= 1.79D-03

 Cycle   8  Pass 0  IDiag  1:
 E= -535.601152406576     Delta-E=       -0.000000384039 Rises=F Damp=F
 DIIS: error= 1.45D-05 at cycle   8 NSaved=   8.
 NSaved= 8 IEnMin= 8 EnMin= -535.601152406576     IErMin= 8 ErrMin= 1.45D-05
 ErrMax= 1.45D-05  0.00D+00 EMaxC= 1.00D-01 BMatC= 1.11D-08 BMatP= 8.75D-08
 IDIUse=1 WtCom= 1.00D+00 WtEn= 0.00D+00
 Coeff-Com: -0.207D-02 0.172D-01 0.791D-02 0.658D-01-0.813D-01-0.453D+00
 Coeff-Com:  0.346D+00 0.110D+01
 Coeff:     -0.207D-02 0.172D-01 0.791D-02 0.658D-01-0.813D-01-0.453D+00
 Coeff:      0.346D+00 0.110D+01
 Gap=     0.446 Goal=   None    Shift=    0.000
 Gap=     0.132 Goal=   None    Shift=    0.000
 RMSDP=2.17D-05 MaxDP=2.47D-04 DE=-3.84D-07 OVMax= 7.32D-04

 Cycle   9  Pass 0  IDiag  1:
 E= -535.601152459075     Delta-E=       -0.000000052498 Rises=F Damp=F
 DIIS: error= 3.73D-06 at cycle   9 NSaved=   9.
[...]

              Baa    -1.3237   -69.279   -24.720   -23.109  0.9666 -0.2562  0.0000
     1 Cl(35) Bbb    -0.9492   -49.676   -17.726   -16.570  0.0000  0.0000  1.0000
              Bcc     2.2728   118.955    42.446    39.679  0.2562  0.9666  0.0000
 
              Baa    -0.1130   -60.290   -21.513   -20.111  0.0000  0.0000  1.0000
     2 H(1)   Bbb    -0.0945   -50.414   -17.989   -16.816  0.9336 -0.3584  0.0000
              Bcc     0.2075   110.704    39.502    36.927  0.3584  0.9336  0.0000
 
              Baa    -3.2797   237.319    84.681    79.161  0.9361  0.3517  0.0000
     3 O(17)  Bbb     1.0691   -77.358   -27.603   -25.804 -0.3517  0.9361  0.0000
              Bcc     2.2106  -159.961   -57.078   -53.357  0.0000  0.0000  1.0000
 

 ---------------------------------------------------------------------------------

 No NMR shielding tensors so no spin-rotation constants.
 Leave Link  601 at Wed Oct  7 13:45:41 2020, MaxMem=  2684354560 cpu:               5.9 elap:               1.0
 (Enter /udrive/faculty/rpeverati/g16/g16/l701.exe)
 ... and contract with generalized density number  0.
 Compute integral second derivatives.
 Leave Link  701 at Wed Oct  7 13:45:43 2020, MaxMem=  2684354560 cpu:               8.1 elap:               1.2
 (Enter /udrive/faculty/rpeverati/g16/g16/l702.exe)
 L702 exits ... SP integral derivatives will be done elsewhere.
 Leave Link  702 at Wed Oct  7 13:45:44 2020, MaxMem=  2684354560 cpu:               1.3 elap:               0.7
 (Enter /udrive/faculty/rpeverati/g16/g16/l703.exe)
 Integral derivatives from FoFJK, PRISM(SPDF).
 Compute integral second derivatives, UseDBF=F ICtDFT=           0.
 Calling FoFJK, ICntrl=    100127 FMM=F ISym2X=1 I1Cent= 0 IOpClX= 1 NMat=1 NMatS=1 NMatT=0.
 FoFJK:  IHMeth= 1 ICntrl=  100127 DoSepK=F KAlg= 0 I1Cent=           0 FoldK=F
 IRaf=         0 NMat=       1 IRICut=       1 DoRegI=T DoRafI=F ISym2E= 1 IDoP0=0 IntGTp=1.
 FoFCou: FMM=F IPFlag=           0 FMFlag=      100000 FMFlg1=         800
         NFxFlg=           0 DoJE=F BraDBF=F KetDBF=F FulRan=T
         wScrn=  0.000000 ICntrl=    100127 IOpCl=  1 I1Cent=           0 NGrid=           0
         NMat0=    1 NMatS0=      1 NMatT0=    0 NMatD0=    1 NMtDS0=    0 NMtDT0=    0
 Petite list used in FoFCou.
 Leave Link  703 at Wed Oct  7 13:45:46 2020, MaxMem=  2684354560 cpu:              15.7 elap:               1.9
 (Enter /udrive/faculty/rpeverati/g16/g16/l716.exe)
 Dipole        =-2.83796839D-01 4.50455275D-01 0.00000000D+00
 Polarizability= 9.41563959D+00-1.24248433D+00 4.99906103D+01
                -5.92918435D-14-5.13818976D-14 8.42503186D+00
 Full mass-weighted force constant matrix:
 Low frequencies ----1285.1486  -88.3664   -5.3968   -5.2834   -0.0088   -0.0081
 Low frequencies ---   -0.0062  312.4650 1372.7587
 ******    1 imaginary frequencies (negative Signs) ****** 
 Diagonal vibrational polarizability:
        2.5113635       3.8092625       0.0000000
 Harmonic frequencies (cm**-1), IR intensities (KM/Mole), Raman scattering
 activities (A**4/AMU), depolarization ratios for plane and unpolarized
 incident light, reduced masses (AMU), force constants (mDyne/A),
 and normal coordinates:
                      1                      2                      3
                     A'                     A'                     A'
 Frequencies --  -1285.1486               312.4650              1372.7587
 Red. masses --      1.0936                 5.4737                 1.1168
 Frc consts  --      1.0642                 0.3149                 1.2400
 IR Inten    --    113.2768                13.4244                54.2480
  Atom  AN      X      Y      Z        X      Y      Z        X      Y      Z
     1  17     0.00   0.01   0.00    -0.01  -0.21  -0.00    -0.01   0.04   0.00
     2   1     0.25   0.96   0.00     0.80   0.35  -0.00     0.94  -0.33   0.00
     3   8    -0.02  -0.07   0.00    -0.03   0.44   0.00    -0.03  -0.06   0.00

 -------------------
 - Thermochemistry -
 -------------------
 Temperature   298.150 Kelvin.  Pressure   1.00000 Atm.
 Atom     1 has atomic number 17 and mass  34.96885
 Atom     2 has atomic number  1 and mass   1.00783
 Atom     3 has atomic number  8 and mass  15.99491
 Molecular mass:    51.97159 amu.
 Principal axes and moments of inertia in atomic units:
                           1         2         3
     Eigenvalues --     0.90402 248.58807 249.49208
           X           -0.00393   0.99999   0.00000
           Y            0.99999   0.00393   0.00000
           Z            0.00000   0.00000   1.00000
 This molecule is an asymmetric top.
 Rotational symmetry number  1.
 Rotational temperatures (Kelvin)     95.81003     0.34842     0.34716
 Rotational constants (GHZ):        1996.35694     7.25997     7.23366
    1 imaginary frequencies ignored.
 Zero-point vibrational energy      10079.9 (Joules/Mol)
                                    2.40915 (Kcal/Mol)
 Warning -- explicit consideration of   1 degrees of freedom as
           vibrations may cause significant error
 Vibrational temperatures:    449.57  1975.09
          (Kelvin)
 
 Zero-point correction=                           0.003839 (Hartree/Particle)
 Thermal correction to Energy=                    0.007085
 Thermal correction to Enthalpy=                  0.008029
 Thermal correction to Gibbs Free Energy=        -0.020473
 Sum of electronic and zero-point Energies=           -535.596667
 Sum of electronic and thermal Energies=              -535.593421
 Sum of electronic and thermal Enthalpies=            -535.592477
 Sum of electronic and thermal Free Energies=         -535.620979
 
                     E (Thermal)             CV                S
                      KCal/Mol        Cal/Mol-Kelvin    Cal/Mol-Kelvin
 Total                    4.446              7.728             59.987
 Electronic               0.000              0.000              2.183
 Translational            0.889              2.981             37.767
 Rotational               0.889              2.981             18.667
 Vibrational              2.668              1.766              1.369
 Vibration     1          0.701              1.650              1.349
                       Q            Log10(Q)             Ln(Q)
 Total Bot       0.261073D+10          9.416762         21.682896
 Total V=0       0.152293D+12         11.182680         25.749073
 Vib (Bot)       0.220463D-01         -1.656664         -3.814611
 Vib (Bot)    1  0.604296D+00         -0.218750         -0.503691
 Vib (V=0)       0.128604D+01          0.109254          0.251566
 Vib (V=0)    1  0.128433D+01          0.108677          0.250237
 Electronic      0.300000D+01          0.477121          1.098612
 Translational   0.147266D+08          7.168103         16.505167
 Rotational      0.268042D+04          3.428202          7.893728
 
                                                          TS search on BH76.
                                                             IR Spectrum
 
      1                                                                                                                              
      3                                                                                                 3                            
      7                                                                                                 1                            
      3                                                                                                 2                            
 
      X                                                                                                 X                            
      X                                                                                                 X                            
      X                                                                                                 X                            
      X                                                                                                 X                            
      X                                                                                                 X                            
      X                                                                                                                              
      X                                                                                                                              
      X                                                                                                                              
      X                                                                                                                              
      X                                                                                                                              
      X                                                                                                                              
      X                                                                                                                              
      X                                                                                                                              
      X                                                                                                                              
      X                                                                                                                              
      X                                                                                                                              
      X                                                                                                                              
      X                                                                                                                              
      X                                                                                                                              
      X                                                                                                                              
 
 ***** Axes restored to original set *****
 -------------------------------------------------------------------
 Center     Atomic                   Forces (Hartrees/Bohr)
 Number     Number              X              Y              Z
 -------------------------------------------------------------------
      1       17          -0.000001463    0.000005753   -0.000000000
      2        1          -0.000008378   -0.000007290   -0.000000000
      3        8           0.000009841    0.000001537   -0.000000000
 -------------------------------------------------------------------
 Cartesian Forces:  Max     0.000009841 RMS     0.000005352
 Force constants in Cartesian coordinates: 
                1             2             3             4             5 
      1  0.158797D-01
      2 -0.388660D-01  0.133481D+00
      3  0.000000D+00  0.000000D+00 -0.900424D-04
      4 -0.317613D-01  0.682035D-01  0.000000D+00  0.537052D-01
      5  0.645184D-02 -0.387068D-01  0.000000D+00 -0.347975D-01 -0.463973D-01
      6  0.000000D+00  0.000000D+00  0.150651D-03  0.000000D+00  0.000000D+00
      7  0.158817D-01 -0.293375D-01  0.000000D+00 -0.219439D-01  0.283457D-01
      8  0.324142D-01 -0.947741D-01  0.000000D+00 -0.334060D-01  0.851041D-01
      9  0.000000D+00  0.000000D+00 -0.606089D-04  0.000000D+00  0.000000D+00
                6             7             8             9 
      6 -0.291291D-03
      7  0.000000D+00  0.606216D-02
      8  0.000000D+00  0.991846D-03  0.967007D-02
      9  0.140640D-03  0.000000D+00  0.000000D+00 -0.800310D-04
 FormGI is forming the generalized inverse of G from B-inverse, IUseBI=4.
 Force constants in internal coordinates: 
                1             2             3 
      1  0.144603D+00
      2  0.104956D+00  0.981799D-02
      3  0.242396D-01  0.159449D-02  0.348484D-01
 Leave Link  716 at Wed Oct  7 13:45:47 2020, MaxMem=  2684354560 cpu:               3.8 elap:               0.9
 (Enter /udrive/faculty/rpeverati/g16/g16/l103.exe)

 GradGradGradGradGradGradGradGradGradGradGradGradGradGradGradGradGradGrad
 Berny optimization.
 Optmz: redundant internal coordinate code flag= 1
 Red2BG:  D1=  6.12D-01 OD1=  9.24D-16 B2RMS=  0.00D+00 IAprox=1
 Red2BG is reusing G-inverse.
 Internal  Forces:  Max     0.000011764 RMS     0.000007805
 Search for a local minimum.
 Step number   1 out of a maximum of    2
 All quantities printed in internal units (Hartrees-Bohrs-Radians)
 Second derivative matrix not updated -- analytic derivatives used.
 The second derivative matrix:
                          R1        R2        A1
           R1           0.14460
           R2           0.10496   0.00982
           A1           0.02424   0.00159   0.03485
 ITU=  0
 Eigenvectors of the second derivative matrix:
                           1         2         3
     Eigenvalues --    -0.04880   0.03326   0.20480
   1         R1        -0.48526   0.05312  -0.87276
   2         R2         0.86552   0.17088  -0.47083
   3         A1         0.12412  -0.98386  -0.12889
 Eigenvalue     1 is  -4.88D-02 should be greater than     0.000000 Eigenvector:
                          R2        R1        A1
   1                    0.86552  -0.48526   0.12412
 Angle between quadratic step and forces=  15.04 degrees.
 Linear search not attempted -- first point.
 Iteration  1 RMS(Cart)=  0.00023042 RMS(Int)=  0.00000003
 Iteration  2 RMS(Cart)=  0.00000003 RMS(Int)=  0.00000000
 ITry= 1 IFail=0 DXMaxC= 2.87D-04 DCOld= 1.00D+10 DXMaxT= 3.00D-01 DXLimC= 3.00D+00 Rises=F
 ClnCor:  largest displacement from symmetrization is 2.22D-15 for atom     3.
 Variable       Old X    -DE/DX   Delta X   Delta X   Delta X     New X
                                 (Linear)    (Quad)   (Total)
    R1        2.69503  -0.00001   0.00000  -0.00004  -0.00004   2.69498
    R2        2.42758   0.00000   0.00000   0.00014   0.00014   2.42772
    A1        2.37214  -0.00001   0.00000  -0.00035  -0.00035   2.37179
         Item               Value     Threshold  Converged?
 Maximum Force            0.000012     0.000450     YES
 RMS     Force            0.000008     0.000300     YES
 Maximum Displacement     0.000287     0.001800     YES
 RMS     Displacement     0.000230     0.001200     YES
 Predicted change in Energy=-2.918560D-09
 Optimization completed.
    -- Stationary point found.
                           ----------------------------
                           !   Optimized Parameters   !
                           ! (Angstroms and Degrees)  !
 --------------------------                            --------------------------
 ! Name  Definition              Value          Derivative Info.                !
 --------------------------------------------------------------------------------
 ! R1    R(1,2)                  1.4261         -DE/DX =    0.0                 !
 ! R2    R(2,3)                  1.2846         -DE/DX =    0.0                 !
 ! A1    A(1,2,3)              135.9133         -DE/DX =    0.0                 !
 --------------------------------------------------------------------------------
 GradGradGradGradGradGradGradGradGradGradGradGradGradGradGradGradGradGrad

 Leave Link  103 at Wed Oct  7 13:45:49 2020, MaxMem=  2684354560 cpu:               5.8 elap:               0.9
 (Enter /udrive/faculty/rpeverati/g16/g16/l9999.exe)

 ----------------------------------------------------------------------

 Electric dipole moment (input orientation):
 (Debye = 10**-18 statcoulomb cm , SI units = C m)
                  (au)            (Debye)         (10**-30 SI)
   Tot        0.532401D+00      0.135323D+01      0.451388D+01
   x         -0.280512D+00     -0.712990D+00     -0.237828D+01
   y          0.452508D+00      0.115016D+01      0.383653D+01
   z          0.000000D+00      0.000000D+00      0.000000D+00

 Dipole polarizability, Alpha (input orientation).
 (esu units = cm**3 , SI units = C**2 m**2 J**-1)
 Alpha(0;0):
               (au)            (10**-24 esu)      (10**-40 SI)
   iso        0.226104D+02      0.335052D+01      0.372796D+01
   aniso      0.411356D+02      0.609566D+01      0.678234D+01
   xx         0.939971D+01      0.139289D+01      0.154980D+01
   yx        -0.947125D+00     -0.140349D+00     -0.156160D+00
   yy         0.500065D+02      0.741021D+01      0.824497D+01
   zx         0.000000D+00      0.000000D+00      0.000000D+00
   zy         0.000000D+00      0.000000D+00      0.000000D+00
   zz         0.842503D+01      0.124846D+01      0.138910D+01

 ----------------------------------------------------------------------

 Dipole orientation:
    17         -0.66491761         -0.41218501         -1.31738949
     1         -0.21296399         -0.13201721          1.32465696
     8          1.48676332          0.92165036          2.70083407

 Electric dipole moment (dipole orientation):
 (Debye = 10**-18 statcoulomb cm , SI units = C m)
                  (au)            (Debye)         (10**-30 SI)
   Tot        0.532401D+00      0.135323D+01      0.451388D+01
   x          0.000000D+00      0.000000D+00      0.000000D+00
   y          0.000000D+00      0.000000D+00      0.000000D+00
   z          0.532401D+00      0.135323D+01      0.451388D+01

 Dipole polarizability, Alpha (dipole orientation).
 (esu units = cm**3 , SI units = C**2 m**2 J**-1)
 Alpha(0;0):
               (au)            (10**-24 esu)      (10**-40 SI)
   iso        0.226104D+02      0.335052D+01      0.372796D+01
   aniso      0.411356D+02      0.609566D+01      0.678234D+01
   xx         0.166596D+02      0.246870D+01      0.274680D+01
   yx         0.510466D+01      0.756432D+00      0.841644D+00
   yy         0.115894D+02      0.171738D+01      0.191084D+01
   zx         0.150976D+02      0.223723D+01      0.248926D+01
   zy         0.935905D+01      0.138687D+01      0.154310D+01
   zz         0.395822D+02      0.586548D+01      0.652623D+01

 ----------------------------------------------------------------------

 Test job not archived.
 1\1\GINC-NODE61\Freq\UPBE1PBE\6-31G(d)\Cl1H1O1(3)\RPEVERATI\07-Oct-202
 0\0\\#P Freq PBE1PBE/6-31G* 5D 7F Integral=UltraFineGrid SCF=(NoSymm,X
 QC,MaxCyc=120) IOp(1/33=1) Geom=Check Guess=Read\\TS search on BH76.\\
 0,3\Cl,0.0154463841,-0.8106392028,0.\H,-0.4820275876,0.5259284694,0.\O
 ,0.0337329778,1.7024664413,0.\\Version=ES64L-G16RevA.03\State=3-A"\HF=
 -535.6005062\S2=2.008604\S2-1=0.\S2A=2.000026\RMSD=7.965e-10\RMSF=5.35
 2e-06\ZeroPoint=0.0038392\Thermal=0.0070849\Dipole=-0.2805117,0.452508
 3,0.\DipoleDeriv=-0.222858,-0.1067437,0.,0.0138823,-0.3073037,0.,0.,0.
 ,-0.2341063,0.231916,-0.0376425,0.,-0.0930211,-0.3071845,0.,0.,0.,0.29
 6549,-0.0090579,0.1443862,0.,0.0791388,0.6144882,0.,0.,0.,-0.0624427\P
 olar=9.3997069,-0.9471249,50.006543,0.,0.,8.4250319\Quadrupole=-0.2814
 81,0.2516625,0.0298185,-0.5361687,0.,0.\PG=CS [SG(Cl1H1O1)]\NImag=1\\0
 .01587965,-0.03886602,0.13348089,0.,0.,-0.00009004,-0.03176134,0.06820
 354,0.,0.05370519,0.00645184,-0.03870677,0.,-0.03479752,-0.04639729,0.
 ,0.,0.00015065,0.,0.,-0.00029129,0.01588169,-0.02933753,0.,-0.02194385
 ,0.02834568,0.,0.00606216,0.03241418,-0.09477413,0.,-0.03340603,0.0851
 0405,0.,0.00099185,0.00967007,0.,0.,-0.00006061,0.,0.,0.00014064,0.,0.
 ,-0.00008003\\0.00000146,-0.00000575,0.,0.00000838,0.00000729,0.,-0.00
 000984,-0.00000154,0.\\\@


 We're simply so accustomed to the marvels of everyday thought
 that we never wonder about it.
 -- Marvin Minsky in "Why people think computers are smart"
 Job cpu time:       0 days  0 hours  2 minutes 40.1 seconds.
 Elapsed time:       0 days  0 hours  0 minutes 24.3 seconds.
 File lengths (MBytes):  RWF=      5 Int=      0 D2E=      0 Chk=      1 Scr=      1
 Normal termination of Gaussian 16 at Wed Oct  7 13:45:50 2020.
