 Entering Gaussian System, Link 0=g16
 Input=MN_27_clch3clcomp_BH76_BLYP_631Gs.in
 Output=MN_27_clch3clcomp_BH76_BLYP_631Gs.log
 Initial command:
 /udrive/faculty/rpeverati/g16/g16/l1.exe "/udrive/scratch-directories/gaussian09/rpeverati/Gau-32039.inp" -scrdir="/udrive/scratch-directories/gaussian09/rpeverati/"
 Entering Link 1 = /udrive/faculty/rpeverati/g16/g16/l1.exe PID=     32040.
  
 Copyright (c) 1988,1990,1992,1993,1995,1998,2003,2009,2016,
            Gaussian, Inc.  All Rights Reserved.
  
 This is part of the Gaussian(R) 16 program.  It is based on
 the Gaussian(R) 09 system (copyright 2009, Gaussian, Inc.),
 the Gaussian(R) 03 system (copyright 2003, Gaussian, Inc.),
 the Gaussian(R) 98 system (copyright 1998, Gaussian, Inc.),
 the Gaussian(R) 94 system (copyright 1995, Gaussian, Inc.),
 the Gaussian 92(TM) system (copyright 1992, Gaussian, Inc.),
 the Gaussian 90(TM) system (copyright 1990, Gaussian, Inc.),
 the Gaussian 88(TM) system (copyright 1988, Gaussian, Inc.),
 the Gaussian 86(TM) system (copyright 1986, Carnegie Mellon
 University), and the Gaussian 82(TM) system (copyright 1983,
 Carnegie Mellon University). Gaussian is a federally registered
 trademark of Gaussian, Inc.
  
 This software contains proprietary and confidential information,
 including trade secrets, belonging to Gaussian, Inc.
  
 This software is provided under written license and may be
 used, copied, transmitted, or stored only in accord with that
 written license.
  
 The following legend is applicable only to US Government
 contracts under FAR:
  
                    RESTRICTED RIGHTS LEGEND
  
 Use, reproduction and disclosure by the US Government is
 subject to restrictions as set forth in subparagraphs (a)
 and (c) of the Commercial Computer Software - Restricted
 Rights clause in FAR 52.227-19.
  
 Gaussian, Inc.
 340 Quinnipiac St., Bldg. 40, Wallingford CT 06492
  
  
 ---------------------------------------------------------------
 Warning -- This program may not be used in any manner that
 competes with the business of Gaussian, Inc. or will provide
 assistance to any competitor of Gaussian, Inc.  The licensee
 of this program is prohibited from giving any competitor of
 Gaussian, Inc. access to this program.  By using this program,
 the user acknowledges that Gaussian, Inc. is engaged in the
 business of creating and licensing software in the field of
 computational chemistry and represents and warrants to the
 licensee that it is not a competitor of Gaussian, Inc. and that
 it will not use this program in any manner prohibited above.
 ---------------------------------------------------------------
  

 Cite this work as:
 Gaussian 16, Revision A.03,
 M. J. Frisch, G. W. Trucks, H. B. Schlegel, G. E. Scuseria, 
 M. A. Robb, J. R. Cheeseman, G. Scalmani, V. Barone, 
 G. A. Petersson, H. Nakatsuji, X. Li, M. Caricato, A. V. Marenich, 
 J. Bloino, B. G. Janesko, R. Gomperts, B. Mennucci, H. P. Hratchian, 
 J. V. Ortiz, A. F. Izmaylov, J. L. Sonnenberg, D. Williams-Young, 
 F. Ding, F. Lipparini, F. Egidi, J. Goings, B. Peng, A. Petrone, 
 T. Henderson, D. Ranasinghe, V. G. Zakrzewski, J. Gao, N. Rega, 
 G. Zheng, W. Liang, M. Hada, M. Ehara, K. Toyota, R. Fukuda, 
 J. Hasegawa, M. Ishida, T. Nakajima, Y. Honda, O. Kitao, H. Nakai, 
 T. Vreven, K. Throssell, J. A. Montgomery, Jr., J. E. Peralta, 
 F. Ogliaro, M. J. Bearpark, J. J. Heyd, E. N. Brothers, K. N. Kudin, 
 V. N. Staroverov, T. A. Keith, R. Kobayashi, J. Normand, 
 K. Raghavachari, A. P. Rendell, J. C. Burant, S. S. Iyengar, 
 J. Tomasi, M. Cossi, J. M. Millam, M. Klene, C. Adamo, R. Cammi, 
 J. W. Ochterski, R. L. Martin, K. Morokuma, O. Farkas, 
 J. B. Foresman, and D. J. Fox, Gaussian, Inc., Wallingford CT, 2016.
 
 ******************************************
 Gaussian 16:  ES64L-G16RevA.03 25-Dec-2016
                 7-Oct-2020 
 ******************************************
 %NoSave
 %nproc=12
 Will use up to   12 processors via shared memory.
 %mem=20GB
 %chk=MN_27_clch3clcomp_BH76_BLYP_631Gs
 ----------------------------------------------------------------------
 #P Opt(MaxCyc=100) BLYP/6-31G* 5D 7F Integral=UltraFineGrid SCF=(NoSym
 m,XQC,MaxCyc=120) IOp(1/33=1)
 ----------------------------------------------------------------------
 1/6=100,18=20,19=15,26=4,33=1,38=1/1,3;
 2/9=110,12=2,17=6,18=5,40=1/2;
 3/5=1,6=6,7=1,8=11,11=2,25=1,30=1,71=1,74=402,75=-5/1,2,3;
 4/9=2/1;
 5/5=2,7=120,8=3,13=1,38=5/2,8;
 6/7=2,8=2,9=2,10=2,28=1/1;
 7//1,2,3,16;
 1/6=100,18=20,19=15,26=4,33=1/3(2);
 2/9=110/2;
 99//99;
 2/9=110/2;
 3/5=1,6=6,7=1,8=11,11=2,25=1,30=1,71=1,74=402,75=-5/1,2,3;
 4/5=5,9=2,16=3,69=1/1;
 5/5=2,7=120,8=3,13=1,38=5/2,8;
 7//1,2,3,16;
 1/6=100,18=20,19=15,26=4,33=1/3(-5);
 2/9=110/2;
 6/7=2,8=2,9=2,10=2,19=2,28=1/1;
 99/9=1/99;
 Leave Link    1 at Wed Oct  7 14:45:42 2020, MaxMem=  2684354560 cpu:               8.6 elap:               0.9
 (Enter /udrive/faculty/rpeverati/g16/g16/l101.exe)
 ONIOM data not found on unit 2.
 ------------------
 TS search on BH76.
 ------------------
 TstMul:  ICh=    -1
 TstMul:  Mul=     1
 TstMul:  ICh=    -1
 TstMul:  Mul=     1
 Symbolic Z-matrix:
 Charge = -1 Multiplicity = 1
 Cl                    0.        0.       -2.21807 
 C                     0.        0.       -0.39967 
 H                    -0.51253   0.88773  -0.05771 
 H                    -0.51253  -0.88773  -0.05771 
 H                     1.02506   0.       -0.05771 
 Cl                    0.        0.        2.79088 
 
 RdStrC is calling ZToCFu for IStruc=1 NZ=     6.
 PrtBox:  NBox=     2 Levels=  1 BoxLen=    8.00 SMaxX=        9.47
          Shift=            0.968545            1.677569            4.191549
 Box      1 Number                   0 centers from      1 to      5:
 Box      2 Number                   1 centers from      6 to      6:
 After GenITR:
 ITRead=  0  0  0  0  0  0
 MicOpt= -1 -1 -1 -1 -1 -1
 Add virtual bond connecting atoms Cl6        and H3         Dist= 5.72D+00.
 Add virtual bond connecting atoms Cl6        and H4         Dist= 5.72D+00.
 Add virtual bond connecting atoms Cl6        and H5         Dist= 5.72D+00.
 ITRead=  0  0  0  0  0  0
 MicOpt= -1 -1 -1 -1 -1 -1
 NAtoms=      6 NQM=        6 NQMF=       0 NMMI=      0 NMMIF=      0
                NMic=       0 NMicF=      0.
                    Isotopes and Nuclear Properties:
 (Nuclear quadrupole moments (NQMom) in fm**2, nuclear magnetic moments (NMagM)
  in nuclear magnetons)

  Atom         1           2           3           4           5           6
 IAtWgt=          35          12           1           1           1          35
 AtmWgt=  34.9688527  12.0000000   1.0078250   1.0078250   1.0078250  34.9688527
 NucSpn=           3           0           1           1           1           3
 AtZEff=   0.0000000   0.0000000   0.0000000   0.0000000   0.0000000   0.0000000
 NQMom=   -8.1650000   0.0000000   0.0000000   0.0000000   0.0000000  -8.1650000
 NMagM=    0.8218740   0.0000000   2.7928460   2.7928460   2.7928460   0.8218740
 AtZNuc=  17.0000000   6.0000000   1.0000000   1.0000000   1.0000000  17.0000000
 No MM parameters found.
 Leave Link  101 at Wed Oct  7 14:45:44 2020, MaxMem=  2684354560 cpu:              13.0 elap:               1.6
 (Enter /udrive/faculty/rpeverati/g16/g16/l103.exe)

 GradGradGradGradGradGradGradGradGradGradGradGradGradGradGradGradGradGrad
 Berny optimization.
 Optmz: redundant internal coordinate code flag= 1
 Initialization pass.
                           ----------------------------
                           !    Initial Parameters    !
                           ! (Angstroms and Degrees)  !
 --------------------------                            --------------------------
 ! Name  Definition              Value          Derivative Info.                !
 --------------------------------------------------------------------------------
 ! R1    R(1,2)                  1.8184         estimate D2E/DX2                !
 ! R2    R(2,3)                  1.0806         estimate D2E/DX2                !
 ! R3    R(2,4)                  1.0806         estimate D2E/DX2                !
 ! R4    R(2,5)                  1.0806         estimate D2E/DX2                !
 ! R5    R(3,6)                  3.0274         estimate D2E/DX2                !
 ! R6    R(4,6)                  3.0274         estimate D2E/DX2                !
 ! R7    R(5,6)                  3.0274         estimate D2E/DX2                !
 ! A1    A(1,2,3)              108.4482         estimate D2E/DX2                !
 ! A2    A(1,2,4)              108.4482         estimate D2E/DX2                !
 ! A3    A(1,2,5)              108.4482         estimate D2E/DX2                !
 ! A4    A(3,2,4)              110.4746         estimate D2E/DX2                !
 ! A5    A(3,2,5)              110.4746         estimate D2E/DX2                !
 ! A6    A(4,2,5)              110.4746         estimate D2E/DX2                !
 ! A7    A(2,3,6)               88.657          estimate D2E/DX2                !
 ! A8    A(2,4,6)               88.657          estimate D2E/DX2                !
 ! A9    A(2,5,6)               88.657          estimate D2E/DX2                !
 ! A10   A(3,6,4)               34.1029         estimate D2E/DX2                !
 ! A11   A(3,6,5)               34.1029         estimate D2E/DX2                !
 ! A12   A(4,6,5)               34.1029         estimate D2E/DX2                !
 ! D1    D(1,2,3,6)            180.0            estimate D2E/DX2                !
 ! D2    D(4,2,3,6)             61.2727         estimate D2E/DX2                !
 ! D3    D(5,2,3,6)            -61.2727         estimate D2E/DX2                !
 ! D4    D(1,2,4,6)            180.0            estimate D2E/DX2                !
 ! D5    D(3,2,4,6)            -61.2727         estimate D2E/DX2                !
 ! D6    D(5,2,4,6)             61.2727         estimate D2E/DX2                !
 ! D7    D(1,2,5,6)            180.0            estimate D2E/DX2                !
 ! D8    D(3,2,5,6)             61.2727         estimate D2E/DX2                !
 ! D9    D(4,2,5,6)            -61.2727         estimate D2E/DX2                !
 ! D10   D(2,3,6,4)            -31.533          estimate D2E/DX2                !
 ! D11   D(2,3,6,5)             31.533          estimate D2E/DX2                !
 ! D12   D(2,4,6,3)             31.533          estimate D2E/DX2                !
 ! D13   D(2,4,6,5)            -31.533          estimate D2E/DX2                !
 ! D14   D(2,5,6,3)            -31.533          estimate D2E/DX2                !
 ! D15   D(2,5,6,4)             31.533          estimate D2E/DX2                !
 --------------------------------------------------------------------------------
 Maximum allowed force set to 1.00D+20.
 Trust Radius=3.00D-01 FncErr=1.00D-07 GrdErr=1.00D-06 EigMax=2.50D+02 EigMin=1.00D-04
 Number of steps in this run=    100 maximum allowed number of steps=    100.
 GradGradGradGradGradGradGradGradGradGradGradGradGradGradGradGradGradGrad

 Leave Link  103 at Wed Oct  7 14:45:45 2020, MaxMem=  2684354560 cpu:               1.2 elap:               0.7
 (Enter /udrive/faculty/rpeverati/g16/g16/l202.exe)
                          Input orientation:                          
 ---------------------------------------------------------------------
 Center     Atomic      Atomic             Coordinates (Angstroms)
 Number     Number       Type             X           Y           Z
 ---------------------------------------------------------------------
      1         17           0        0.000000    0.000000   -2.218072
      2          6           0        0.000000    0.000000   -0.399666
      3          1           0       -0.512532    0.887731   -0.057714
      4          1           0       -0.512532   -0.887731   -0.057714
      5          1           0        1.025064    0.000000   -0.057714
      6         17           0        0.000000    0.000000    2.790881
 ---------------------------------------------------------------------
                    Distance matrix (angstroms):
                    1          2          3          4          5
     1  Cl   0.000000
     2  C    1.818406   0.000000
     3  H    2.391214   1.080596   0.000000
     4  H    2.391214   1.080596   1.775463   0.000000
     5  H    2.391214   1.080596   1.775463   1.775463   0.000000
     6  Cl   5.008953   3.190547   3.027417   3.027417   3.027417
                    6
     6  Cl   0.000000
 Stoichiometry    CH3Cl2(1-)
 Framework group  C3V[C3(ClCCl),3SGV(H)]
 Deg. of freedom     4
 Full point group                 C3V     NOp   6
 Largest Abelian subgroup         CS      NOp   2
 Largest concise Abelian subgroup CS      NOp   2
                         Standard orientation:                         
 ---------------------------------------------------------------------
 Center     Atomic      Atomic             Coordinates (Angstroms)
 Number     Number       Type             X           Y           Z
 ---------------------------------------------------------------------
      1         17           0        0.000000    0.000000   -2.384738
      2          6           0        0.000000    0.000000   -0.566331
      3          1           0       -0.000000    1.025064   -0.224380
      4          1           0       -0.887731   -0.512532   -0.224380
      5          1           0        0.887731   -0.512532   -0.224380
      6         17           0        0.000000    0.000000    2.624216
 ---------------------------------------------------------------------
 Rotational constants (GHZ):         159.0775662           1.1350196           1.1350196
 Leave Link  202 at Wed Oct  7 14:45:46 2020, MaxMem=  2684354560 cpu:               2.5 elap:               0.7
 (Enter /udrive/faculty/rpeverati/g16/g16/l301.exe)
 Standard basis: 6-31G(d) (5D, 7F)
 Ernie: Thresh=  0.10000D-02 Tol=  0.10000D-05 Strict=F.
 There are    43 symmetry adapted cartesian basis functions of A'  symmetry.
 There are    16 symmetry adapted cartesian basis functions of A"  symmetry.
 There are    40 symmetry adapted basis functions of A'  symmetry.
 There are    16 symmetry adapted basis functions of A"  symmetry.
    56 basis functions,   144 primitive gaussians,    59 cartesian basis functions
    22 alpha electrons       22 beta electrons
       nuclear repulsion energy       107.0422334332 Hartrees.
 IExCor=  402 DFT=T Ex=B Corr=LYP ExCW=0 ScaHFX=  0.000000
 ScaDFX=  1.000000  1.000000  1.000000  1.000000 ScalE2=  1.000000  1.000000
 IRadAn=      5 IRanWt=     -1 IRanGd=            0 ICorTp=0 IEmpDi=  4
 NAtoms=    6 NActive=    6 NUniq=    4 SFac= 2.25D+00 NAtFMM=   60 NAOKFM=F Big=F
 Integral buffers will be    131072 words long.
 Raffenetti 2 integral format.
 Two-electron integral symmetry is turned on.
 Leave Link  301 at Wed Oct  7 14:45:47 2020, MaxMem=  2684354560 cpu:               2.4 elap:               0.7
 (Enter /udrive/faculty/rpeverati/g16/g16/l302.exe)
 NPDir=0 NMtPBC=     1 NCelOv=     1 NCel=       1 NClECP=     1 NCelD=      1
         NCelK=      1 NCelE2=     1 NClLst=     1 CellRange=     0.0.
 One-electron integrals computed using PRISM.
 One-electron integral symmetry used in STVInt
 NBasis=    56 RedAO= T EigKep=  1.81D-02  NBF=    40    16
 NBsUse=    56 1.00D-06 EigRej= -1.00D+00 NBFU=    40    16
 Precomputing XC quadrature grid using
 IXCGrd= 4 IRadAn=           5 IRanWt=          -1 IRanGd=           0 AccXCQ= 0.00D+00.
 Generated NRdTot=       0 NPtTot=           0 NUsed=           0 NTot=          32
 NSgBfM=    59    59    59    59    59 MxSgAt=     6 MxSgA2=     6.
 Leave Link  302 at Wed Oct  7 14:45:48 2020, MaxMem=  2684354560 cpu:               3.8 elap:               0.6
 (Enter /udrive/faculty/rpeverati/g16/g16/l303.exe)
 DipDrv:  MaxL=1.
 Leave Link  303 at Wed Oct  7 14:45:49 2020, MaxMem=  2684354560 cpu:               3.8 elap:               0.7
 (Enter /udrive/faculty/rpeverati/g16/g16/l401.exe)
 SCF N**3 symmetry information disabled.
 ExpMin= 1.43D-01 ExpMax= 2.52D+04 ExpMxC= 3.78D+03 IAcc=3 IRadAn=         5 AccDes= 0.00D+00
 Harris functional with IExCor=  402 and IRadAn=       5 diagonalized for initial guess.
 HarFok:  IExCor=  402 AccDes= 0.00D+00 IRadAn=         5 IDoV= 1 UseB2=F ITyADJ=14
 ICtDFT=  3500011 ScaDFX=  1.000000  1.000000  1.000000  1.000000
 FoFCou: FMM=F IPFlag=           0 FMFlag=      100000 FMFlg1=           0
         NFxFlg=           0 DoJE=T BraDBF=F KetDBF=T FulRan=T
         wScrn=  0.000000 ICntrl=       500 IOpCl=  0 I1Cent=   200000004 NGrid=           0
         NMat0=    1 NMatS0=      1 NMatT0=    0 NMatD0=    1 NMtDS0=    0 NMtDT0=    0
 Petite list used in FoFCou.
 Harris En= -960.362346953967    
 JPrj=0 DoOrth=F DoCkMO=F.
 Initial guess orbital symmetries:
       Occupied  (A1) (A1) (A1) (A1) (A1) (A1) (E) (E) (A1) (E)
                 (E) (A1) (A1) (A1) (E) (E) (A1) (E) (E) (A1) (E)
                 (E)
       Virtual   (A1) (A1) (E) (E) (A1) (A1) (A1) (E) (E) (E) (E)
                 (A1) (E) (E) (A1) (E) (E) (A1) (E) (E) (E) (E)
                 (E) (E) (E) (E) (A1) (A1) (A1) (E) (E) (A1) (E)
                 (E)
 The electronic state of the initial guess is 1-A1.
 Leave Link  401 at Wed Oct  7 14:45:51 2020, MaxMem=  2684354560 cpu:              13.5 elap:               1.5
 (Enter /udrive/faculty/rpeverati/g16/g16/l502.exe)
 Keep J ints in memory in symmetry-blocked form, NReq=11835881.
 FoFCou: FMM=F IPFlag=           0 FMFlag=           0 FMFlg1=           0
         NFxFlg=           0 DoJE=F BraDBF=F KetDBF=F FulRan=T
         wScrn=  0.000000 ICntrl=       600 IOpCl=  0 I1Cent=           0 NGrid=           0
         NMat0=    1 NMatS0=   1596 NMatT0=    0 NMatD0=    1 NMtDS0=    0 NMtDT0=    0
 Petite list used in FoFCou.
 Closed shell SCF:
 Using DIIS extrapolation, IDIIS=  1040.
 NGot=  2684354560 LenX=  2683679425 LenY=  2683675503
 Requested convergence on RMS density matrix=1.00D-08 within 120 cycles.
 Requested convergence on MAX density matrix=1.00D-06.
 Requested convergence on             energy=1.00D-06.
 No special actions if energy rises.
 Integral accuracy reduced to 1.0D-05 until final iterations.

 Cycle   1  Pass 0  IDiag  1:
 E= -960.207870189380    
 DIIS: error= 4.23D-02 at cycle   1 NSaved=   1.
 NSaved= 1 IEnMin= 1 EnMin= -960.207870189380     IErMin= 1 ErrMin= 4.23D-02
 ErrMax= 4.23D-02  0.00D+00 EMaxC= 1.00D-01 BMatC= 6.73D-02 BMatP= 6.73D-02
 IDIUse=3 WtCom= 5.77D-01 WtEn= 4.23D-01
 Coeff-Com:  0.100D+01
 Coeff-En:   0.100D+01
 Coeff:      0.100D+01
 Gap=     0.107 Goal=   None    Shift=    0.000
 GapD=    0.107 DampG=1.000 DampE=0.500 DampFc=0.5000 IDamp=-1.
 Damping current iteration by 5.00D-01
 RMSDP=1.77D-02 MaxDP=2.08D-01              OVMax= 2.77D-01

 Cycle   2  Pass 0  IDiag  1:
 E= -960.234971802368     Delta-E=       -0.027101612988 Rises=F Damp=T
 DIIS: error= 9.99D-03 at cycle   2 NSaved=   2.
 NSaved= 2 IEnMin= 2 EnMin= -960.234971802368     IErMin= 2 ErrMin= 9.99D-03
 ErrMax= 9.99D-03  0.00D+00 EMaxC= 1.00D-01 BMatC= 7.20D-03 BMatP= 6.73D-02
 IDIUse=3 WtCom= 9.00D-01 WtEn= 9.99D-02
 Coeff-Com:  0.203D+00 0.797D+00
 Coeff-En:   0.322D+00 0.678D+00
 Coeff:      0.215D+00 0.785D+00
 Gap=     0.120 Goal=   None    Shift=    0.000
 RMSDP=3.70D-03 MaxDP=6.01D-02 DE=-2.71D-02 OVMax= 1.81D-01

 Cycle   3  Pass 0  IDiag  1:
 E= -960.292580866407     Delta-E=       -0.057609064040 Rises=F Damp=F
 DIIS: error= 2.86D-03 at cycle   3 NSaved=   3.
 NSaved= 3 IEnMin= 3 EnMin= -960.292580866407     IErMin= 3 ErrMin= 2.86D-03
 ErrMax= 2.86D-03  0.00D+00 EMaxC= 1.00D-01 BMatC= 7.54D-04 BMatP= 7.20D-03
 IDIUse=3 WtCom= 9.71D-01 WtEn= 2.86D-02
 Coeff-Com:  0.611D-01 0.242D+00 0.696D+00
 Coeff-En:   0.000D+00 0.000D+00 0.100D+01
 Coeff:      0.594D-01 0.235D+00 0.705D+00
 Gap=     0.115 Goal=   None    Shift=    0.000
 RMSDP=1.21D-03 MaxDP=1.66D-02 DE=-5.76D-02 OVMax= 1.96D-02

 Cycle   4  Pass 0  IDiag  1:
 E= -960.293352849387     Delta-E=       -0.000771982980 Rises=F Damp=F
 DIIS: error= 1.35D-03 at cycle   4 NSaved=   4.
 NSaved= 4 IEnMin= 4 EnMin= -960.293352849387     IErMin= 4 ErrMin= 1.35D-03
 ErrMax= 1.35D-03  0.00D+00 EMaxC= 1.00D-01 BMatC= 1.28D-04 BMatP= 7.54D-04
 IDIUse=3 WtCom= 9.87D-01 WtEn= 1.35D-02
 Coeff-Com:  0.178D-01 0.525D-01 0.311D+00 0.618D+00
 Coeff-En:   0.000D+00 0.000D+00 0.600D-01 0.940D+00
 Coeff:      0.176D-01 0.518D-01 0.308D+00 0.623D+00
 Gap=     0.121 Goal=   None    Shift=    0.000
 RMSDP=4.87D-04 MaxDP=5.47D-03 DE=-7.72D-04 OVMax= 9.23D-03

 Cycle   5  Pass 0  IDiag  1:
 E= -960.293508703286     Delta-E=       -0.000155853899 Rises=F Damp=F
 DIIS: error= 5.54D-04 at cycle   5 NSaved=   5.
 NSaved= 5 IEnMin= 5 EnMin= -960.293508703286     IErMin= 5 ErrMin= 5.54D-04
 ErrMax= 5.54D-04  0.00D+00 EMaxC= 1.00D-01 BMatC= 1.46D-05 BMatP= 1.28D-04
 IDIUse=3 WtCom= 9.94D-01 WtEn= 5.54D-03
 Coeff-Com:  0.488D-02 0.577D-02 0.111D+00 0.333D+00 0.545D+00
 Coeff-En:   0.000D+00 0.000D+00 0.000D+00 0.000D+00 0.100D+01
 Coeff:      0.486D-02 0.574D-02 0.110D+00 0.331D+00 0.548D+00
 Gap=     0.119 Goal=   None    Shift=    0.000
 RMSDP=1.38D-04 MaxDP=1.73D-03 DE=-1.56D-04 OVMax= 2.78D-03

 Cycle   6  Pass 0  IDiag  1:
 E= -960.293525148697     Delta-E=       -0.000016445411 Rises=F Damp=F
 DIIS: error= 9.97D-05 at cycle   6 NSaved=   6.
 NSaved= 6 IEnMin= 6 EnMin= -960.293525148697     IErMin= 6 ErrMin= 9.97D-05
 ErrMax= 9.97D-05  0.00D+00 EMaxC= 1.00D-01 BMatC= 8.05D-07 BMatP= 1.46D-05
 IDIUse=1 WtCom= 1.00D+00 WtEn= 0.00D+00
 Coeff-Com:  0.137D-02 0.435D-03 0.386D-01 0.136D+00 0.295D+00 0.529D+00
 Coeff:      0.137D-02 0.435D-03 0.386D-01 0.136D+00 0.295D+00 0.529D+00
 Gap=     0.119 Goal=   None    Shift=    0.000
 RMSDP=3.12D-05 MaxDP=4.45D-04 DE=-1.64D-05 OVMax= 5.09D-04

 Cycle   7  Pass 0  IDiag  1:
 E= -960.293526214935     Delta-E=       -0.000001066238 Rises=F Damp=F
 DIIS: error= 1.76D-05 at cycle   7 NSaved=   7.
 NSaved= 7 IEnMin= 7 EnMin= -960.293526214935     IErMin= 7 ErrMin= 1.76D-05
 ErrMax= 1.76D-05  0.00D+00 EMaxC= 1.00D-01 BMatC= 3.01D-08 BMatP= 8.05D-07
 IDIUse=1 WtCom= 1.00D+00 WtEn= 0.00D+00
 Coeff-Com:  0.445D-03 0.283D-04 0.123D-01 0.446D-01 0.108D+00 0.239D+00
 Coeff-Com:  0.596D+00
 Coeff:      0.445D-03 0.283D-04 0.123D-01 0.446D-01 0.108D+00 0.239D+00
 Coeff:      0.596D+00
 Gap=     0.119 Goal=   None    Shift=    0.000
 RMSDP=4.80D-06 MaxDP=6.99D-05 DE=-1.07D-06 OVMax= 4.46D-05

 Initial convergence to 1.0D-05 achieved.  Increase integral accuracy.
 Cycle   8  Pass 1  IDiag  1:
 E= -960.293519211152     Delta-E=        0.000007003783 Rises=F Damp=F
 DIIS: error= 1.16D-05 at cycle   1 NSaved=   1.
 NSaved= 1 IEnMin= 1 EnMin= -960.293519211152     IErMin= 1 ErrMin= 1.16D-05
 ErrMax= 1.16D-05  0.00D+00 EMaxC= 1.00D-01 BMatC= 3.74D-09 BMatP= 3.74D-09
 IDIUse=1 WtCom= 1.00D+00 WtEn= 0.00D+00
 Coeff-Com:  0.100D+01
 Coeff:      0.100D+01
 Gap=     0.119 Goal=   None    Shift=    0.000
 RMSDP=4.80D-06 MaxDP=6.99D-05 DE= 7.00D-06 OVMax= 3.20D-05

 Cycle   9  Pass 1  IDiag  1:
 E= -960.293519215597     Delta-E=       -0.000000004445 Rises=F Damp=F
 DIIS: error= 4.58D-06 at cycle   2 NSaved=   2.
 NSaved= 2 IEnMin= 2 EnMin= -960.293519215597     IErMin= 2 ErrMin= 4.58D-06
 ErrMax= 4.58D-06  0.00D+00 EMaxC= 1.00D-01 BMatC= 1.12D-09 BMatP= 3.74D-09
 IDIUse=1 WtCom= 1.00D+00 WtEn= 0.00D+00
 Coeff-Com:  0.313D+00 0.687D+00
 Coeff:      0.313D+00 0.687D+00
 Gap=     0.119 Goal=   None    Shift=    0.000
 RMSDP=1.93D-06 MaxDP=2.86D-05 DE=-4.45D-09 OVMax= 3.63D-05

 Cycle  10  Pass 1  IDiag  1:
 E= -960.293519216504     Delta-E=       -0.000000000906 Rises=F Damp=F
 DIIS: error= 3.02D-06 at cycle   3 NSaved=   3.
 NSaved= 3 IEnMin= 3 EnMin= -960.293519216504     IErMin= 3 ErrMin= 3.02D-06
 ErrMax= 3.02D-06  0.00D+00 EMaxC= 1.00D-01 BMatC= 3.97D-10 BMatP= 1.12D-09
 IDIUse=1 WtCom= 1.00D+00 WtEn= 0.00D+00
 Coeff-Com:  0.314D-01 0.375D+00 0.594D+00
 Coeff:      0.314D-01 0.375D+00 0.594D+00
 Gap=     0.119 Goal=   None    Shift=    0.000
 RMSDP=8.97D-07 MaxDP=1.34D-05 DE=-9.06D-10 OVMax= 1.81D-05

 Cycle  11  Pass 1  IDiag  1:
 E= -960.293519217029     Delta-E=       -0.000000000525 Rises=F Damp=F
 DIIS: error= 4.30D-07 at cycle   4 NSaved=   4.
 NSaved= 4 IEnMin= 4 EnMin= -960.293519217029     IErMin= 4 ErrMin= 4.30D-07
 ErrMax= 4.30D-07  0.00D+00 EMaxC= 1.00D-01 BMatC= 2.32D-11 BMatP= 3.97D-10
 IDIUse=1 WtCom= 1.00D+00 WtEn= 0.00D+00
 Coeff-Com:  0.334D-02 0.172D+00 0.320D+00 0.504D+00
 Coeff:      0.334D-02 0.172D+00 0.320D+00 0.504D+00
 Gap=     0.119 Goal=   None    Shift=    0.000
 RMSDP=1.52D-07 MaxDP=1.64D-06 DE=-5.25D-10 OVMax= 2.78D-06

 Cycle  12  Pass 1  IDiag  1:
 E= -960.293519217054     Delta-E=       -0.000000000026 Rises=F Damp=F
 DIIS: error= 1.68D-07 at cycle   5 NSaved=   5.
 NSaved= 5 IEnMin= 5 EnMin= -960.293519217054     IErMin= 5 ErrMin= 1.68D-07
 ErrMax= 1.68D-07  0.00D+00 EMaxC= 1.00D-01 BMatC= 7.62D-13 BMatP= 2.32D-11
 IDIUse=1 WtCom= 1.00D+00 WtEn= 0.00D+00
 Coeff-Com:  0.107D-02 0.832D-01 0.158D+00 0.274D+00 0.483D+00
 Coeff:      0.107D-02 0.832D-01 0.158D+00 0.274D+00 0.483D+00
 Gap=     0.119 Goal=   None    Shift=    0.000
 RMSDP=1.60D-08 MaxDP=2.54D-07 DE=-2.57D-11 OVMax= 3.12D-07

 Cycle  13  Pass 1  IDiag  1:
 E= -960.293519217054     Delta-E=        0.000000000000 Rises=F Damp=F
 DIIS: error= 3.35D-08 at cycle   6 NSaved=   6.
 NSaved= 6 IEnMin= 5 EnMin= -960.293519217054     IErMin= 6 ErrMin= 3.35D-08
 ErrMax= 3.35D-08  0.00D+00 EMaxC= 1.00D-01 BMatC= 4.41D-14 BMatP= 7.62D-13
 IDIUse=1 WtCom= 1.00D+00 WtEn= 0.00D+00
 Coeff-Com:  0.287D-03 0.302D-01 0.587D-01 0.106D+00 0.253D+00 0.552D+00
 Coeff:      0.287D-03 0.302D-01 0.587D-01 0.106D+00 0.253D+00 0.552D+00
 Gap=     0.119 Goal=   None    Shift=    0.000
 RMSDP=5.02D-09 MaxDP=1.10D-07 DE= 2.27D-13 OVMax= 1.24D-07

 SCF Done:  E(RB-LYP) =  -960.293519217     A.U. after   13 cycles
            NFock= 13  Conv=0.50D-08     -V/T= 2.0021
 KE= 9.583235988537D+02 PE=-2.504979394866D+03 EE= 4.793200433618D+02
 Leave Link  502 at Wed Oct  7 14:45:55 2020, MaxMem=  2684354560 cpu:              38.9 elap:               3.8
 (Enter /udrive/faculty/rpeverati/g16/g16/l508.exe)
 QCSCF skips out because SCF is already converged.
 Leave Link  508 at Wed Oct  7 14:45:56 2020, MaxMem=  2684354560 cpu:               0.7 elap:               0.3
 (Enter /udrive/faculty/rpeverati/g16/g16/l601.exe)
 Copying SCF densities to generalized density rwf, IOpCl= 0 IROHF=0.

 **********************************************************************

            Population analysis using the SCF density.

 **********************************************************************

 Orbital symmetries:
       Occupied  (A1) (A1) (A1) (A1) (A1) (A1) (E) (E) (A1) (E)
                 (E) (A1) (A1) (A1) (E) (E) (A1) (E) (E) (A1) (E)
                 (E)
       Virtual   (A1) (A1) (E) (E) (A1) (A1) (E) (E) (A1) (E) (E)
                 (A1) (E) (E) (A1) (E) (E) (E) (E) (A1) (E) (E)
                 (A1) (E) (E) (E) (E) (A1) (A1) (E) (E) (A1) (E)
                 (E)
 The electronic state is 1-A1.
 Alpha  occ. eigenvalues -- -100.57591-100.40293  -9.80630  -9.02101  -8.84232
 Alpha  occ. eigenvalues --   -6.85366  -6.84367  -6.84367  -6.66957  -6.66863
 Alpha  occ. eigenvalues --   -6.66863  -0.61950  -0.45090  -0.38934  -0.23732
 Alpha  occ. eigenvalues --   -0.23732  -0.21573  -0.11213  -0.11213   0.02689
 Alpha  occ. eigenvalues --    0.03063   0.03063
 Alpha virt. eigenvalues --    0.14991   0.24516   0.28292   0.28292   0.49571
 Alpha virt. eigenvalues --    0.53144   0.55263   0.55263   0.59209   0.62971
 Alpha virt. eigenvalues --    0.62971   0.66790   0.68797   0.68797   0.90457
 Alpha virt. eigenvalues --    0.94139   0.94139   0.99010   0.99010   0.99468
 Alpha virt. eigenvalues --    1.02459   1.02459   1.13370   1.13450   1.13450
 Alpha virt. eigenvalues --    1.13795   1.13795   1.17121   1.36247   1.78019
 Alpha virt. eigenvalues --    1.78019   2.25289   2.31365   2.31365
          Condensed to atoms (all electrons):
               1          2          3          4          5          6
     1  Cl  17.229333   0.112807  -0.041349  -0.041349  -0.041349   0.002835
     2  C    0.112807   5.210365   0.373677   0.373677   0.373677  -0.004662
     3  H   -0.041349   0.373677   0.516702  -0.024925  -0.024925   0.009429
     4  H   -0.041349   0.373677  -0.024925   0.516702  -0.024925   0.009429
     5  H   -0.041349   0.373677  -0.024925  -0.024925   0.516702   0.009429
     6  Cl   0.002835  -0.004662   0.009429   0.009429   0.009429  17.887243
 Mulliken charges:
               1
     1  Cl  -0.220928
     2  C   -0.439541
     3  H    0.191391
     4  H    0.191391
     5  H    0.191391
     6  Cl  -0.913704
 Sum of Mulliken charges =  -1.00000
 Mulliken charges with hydrogens summed into heavy atoms:
               1
     1  Cl  -0.220928
     2  C    0.134631
     6  Cl  -0.913704
 Electronic spatial extent (au):  <R**2>=            890.2946
 Charge=             -1.0000 electrons
 Dipole moment (field-independent basis, Debye):
    X=             -0.0000    Y=             -0.0000    Z=             -7.9762  Tot=              7.9762
 Quadrupole moment (field-independent basis, Debye-Ang):
   XX=            -35.4783   YY=            -35.4783   ZZ=            -74.7294
   XY=             -0.0000   XZ=              0.0000   YZ=              0.0000
 Traceless Quadrupole moment (field-independent basis, Debye-Ang):
   XX=             13.0837   YY=             13.0837   ZZ=            -26.1674
   XY=             -0.0000   XZ=              0.0000   YZ=              0.0000
 Octapole moment (field-independent basis, Debye-Ang**2):
  XXX=              0.0000  YYY=              0.7298  ZZZ=            -74.6184  XYY=              0.0000
  XXY=             -0.7298  XXZ=             -4.7477  XZZ=              0.0000  YZZ=              0.0000
  YYZ=             -4.7477  XYZ=              0.0000
 Hexadecapole moment (field-independent basis, Debye-Ang**3):
 XXXX=            -46.8789 YYYY=            -46.8789 ZZZZ=          -1362.8401 XXXY=              0.0000
 XXXZ=             -0.0000 YYYX=              0.0000 YYYZ=             -0.1905 ZZZX=              0.0000
 ZZZY=             -0.0000 XXYY=            -15.6263 XXZZ=           -200.0775 YYZZ=           -200.0775
 XXYZ=              0.1905 YYXZ=             -0.0000 ZZXY=              0.0000
 N-N= 1.070422334332D+02 E-N=-2.504979393823D+03  KE= 9.583235988537D+02
 No NMR shielding tensors so no spin-rotation constants.
 Leave Link  601 at Wed Oct  7 14:45:57 2020, MaxMem=  2684354560 cpu:              11.8 elap:               1.4
 (Enter /udrive/faculty/rpeverati/g16/g16/l701.exe)
 ... and contract with generalized density number  0.
 Compute integral first derivatives.
 Leave Link  701 at Wed Oct  7 14:45:59 2020, MaxMem=  2684354560 cpu:               9.2 elap:               1.3
 (Enter /udrive/faculty/rpeverati/g16/g16/l702.exe)
 L702 exits ... SP integral derivatives will be done elsewhere.
 Leave Link  702 at Wed Oct  7 14:46:00 2020, MaxMem=  2684354560 cpu:               2.2 elap:               0.5
 (Enter /udrive/faculty/rpeverati/g16/g16/l703.exe)
 Integral derivatives from FoFJK, PRISM(SPDF).
 Compute integral first derivatives, UseDBF=F ICtDFT=           0.
 Calling FoFJK, ICntrl=      2527 FMM=F ISym2X=1 I1Cent= 0 IOpClX= 0 NMat=1 NMatS=1 NMatT=0.
 FoFJK:  IHMeth= 1 ICntrl=    2527 DoSepK=F KAlg= 0 I1Cent=           0 FoldK=F
 IRaf=         0 NMat=       1 IRICut=       1 DoRegI=T DoRafI=F ISym2E= 1 IDoP0=0 IntGTp=1.
 FoFCou: FMM=F IPFlag=           0 FMFlag=      100000 FMFlg1=         800
         NFxFlg=           0 DoJE=F BraDBF=F KetDBF=F FulRan=T
         wScrn=  0.000000 ICntrl=      2527 IOpCl=  0 I1Cent=           0 NGrid=           0
         NMat0=    1 NMatS0=      1 NMatT0=    0 NMatD0=    1 NMtDS0=    0 NMtDT0=    0
 Petite list used in FoFCou.
 Leave Link  703 at Wed Oct  7 14:46:01 2020, MaxMem=  2684354560 cpu:              11.3 elap:               1.4
 (Enter /udrive/faculty/rpeverati/g16/g16/l716.exe)
 Dipole        = 0.00000000D+00-2.22044605D-16-3.13808319D+00
 ***** Axes restored to original set *****
 -------------------------------------------------------------------
 Center     Atomic                   Forces (Hartrees/Bohr)
 Number     Number              X              Y              Z
 -------------------------------------------------------------------
      1       17           0.000000000   -0.000000000   -0.023399025
      2        6          -0.000000000   -0.000000000    0.010721648
      3        1          -0.003812359    0.006603199    0.004484341
      4        1          -0.003812359   -0.006603199    0.004484341
      5        1           0.007624718    0.000000000    0.004484341
      6       17           0.000000000   -0.000000000   -0.000775648
 -------------------------------------------------------------------
 Cartesian Forces:  Max     0.023399025 RMS     0.007062446
 Leave Link  716 at Wed Oct  7 14:46:02 2020, MaxMem=  2684354560 cpu:               1.8 elap:               0.5
 (Enter /udrive/faculty/rpeverati/g16/g16/l103.exe)

 GradGradGradGradGradGradGradGradGradGradGradGradGradGradGradGradGradGrad
 Berny optimization.
 Optmz: redundant internal coordinate code flag= 1
 FormGI is forming the generalized inverse of G from B-inverse, IUseBI=4.
 Internal  Forces:  Max     0.023399025 RMS     0.004729708
 Search for a local minimum.
 Step number   1 out of a maximum of  100
 All quantities printed in internal units (Hartrees-Bohrs-Radians)
 RMS Force = .47297D-02 SwitMx=.10000D-02 MixMth= 1
 Mixed Optimization -- RFO/linear search
 Second derivative matrix not updated -- first step.
 The second derivative matrix:
                          R1        R2        R3        R4        R5
           R1           0.24719
           R2           0.00000   0.35922
           R3           0.00000   0.00000   0.35922
           R4           0.00000   0.00000   0.00000   0.35922
           R5           0.00000   0.00000   0.00000   0.00000   0.01338
           R6           0.00000   0.00000   0.00000   0.00000   0.00000
           R7           0.00000   0.00000   0.00000   0.00000   0.00000
           A1           0.00000   0.00000   0.00000   0.00000   0.00000
           A2           0.00000   0.00000   0.00000   0.00000   0.00000
           A3           0.00000   0.00000   0.00000   0.00000   0.00000
           A4           0.00000   0.00000   0.00000   0.00000   0.00000
           A5           0.00000   0.00000   0.00000   0.00000   0.00000
           A6           0.00000   0.00000   0.00000   0.00000   0.00000
           A7           0.00000   0.00000   0.00000   0.00000   0.00000
           A8           0.00000   0.00000   0.00000   0.00000   0.00000
           A9           0.00000   0.00000   0.00000   0.00000   0.00000
           A10          0.00000   0.00000   0.00000   0.00000   0.00000
           A11          0.00000   0.00000   0.00000   0.00000   0.00000
           A12          0.00000   0.00000   0.00000   0.00000   0.00000
           D1           0.00000   0.00000   0.00000   0.00000   0.00000
           D2           0.00000   0.00000   0.00000   0.00000   0.00000
           D3           0.00000   0.00000   0.00000   0.00000   0.00000
           D4           0.00000   0.00000   0.00000   0.00000   0.00000
           D5           0.00000   0.00000   0.00000   0.00000   0.00000
           D6           0.00000   0.00000   0.00000   0.00000   0.00000
           D7           0.00000   0.00000   0.00000   0.00000   0.00000
           D8           0.00000   0.00000   0.00000   0.00000   0.00000
           D9           0.00000   0.00000   0.00000   0.00000   0.00000
           D10          0.00000   0.00000   0.00000   0.00000   0.00000
           D11          0.00000   0.00000   0.00000   0.00000   0.00000
           D12          0.00000   0.00000   0.00000   0.00000   0.00000
           D13          0.00000   0.00000   0.00000   0.00000   0.00000
           D14          0.00000   0.00000   0.00000   0.00000   0.00000
           D15          0.00000   0.00000   0.00000   0.00000   0.00000
                          R6        R7        A1        A2        A3
           R6           0.01338
           R7           0.00000   0.01338
           A1           0.00000   0.00000   0.16000
           A2           0.00000   0.00000   0.00000   0.16000
           A3           0.00000   0.00000   0.00000   0.00000   0.16000
           A4           0.00000   0.00000   0.00000   0.00000   0.00000
           A5           0.00000   0.00000   0.00000   0.00000   0.00000
           A6           0.00000   0.00000   0.00000   0.00000   0.00000
           A7           0.00000   0.00000   0.00000   0.00000   0.00000
           A8           0.00000   0.00000   0.00000   0.00000   0.00000
           A9           0.00000   0.00000   0.00000   0.00000   0.00000
           A10          0.00000   0.00000   0.00000   0.00000   0.00000
           A11          0.00000   0.00000   0.00000   0.00000   0.00000
           A12          0.00000   0.00000   0.00000   0.00000   0.00000
           D1           0.00000   0.00000   0.00000   0.00000   0.00000
           D2           0.00000   0.00000   0.00000   0.00000   0.00000
           D3           0.00000   0.00000   0.00000   0.00000   0.00000
           D4           0.00000   0.00000   0.00000   0.00000   0.00000
           D5           0.00000   0.00000   0.00000   0.00000   0.00000
           D6           0.00000   0.00000   0.00000   0.00000   0.00000
           D7           0.00000   0.00000   0.00000   0.00000   0.00000
           D8           0.00000   0.00000   0.00000   0.00000   0.00000
           D9           0.00000   0.00000   0.00000   0.00000   0.00000
           D10          0.00000   0.00000   0.00000   0.00000   0.00000
           D11          0.00000   0.00000   0.00000   0.00000   0.00000
           D12          0.00000   0.00000   0.00000   0.00000   0.00000
           D13          0.00000   0.00000   0.00000   0.00000   0.00000
           D14          0.00000   0.00000   0.00000   0.00000   0.00000
           D15          0.00000   0.00000   0.00000   0.00000   0.00000
                          A4        A5        A6        A7        A8
           A4           0.16000
           A5           0.00000   0.16000
           A6           0.00000   0.00000   0.16000
           A7           0.00000   0.00000   0.00000   0.25000
           A8           0.00000   0.00000   0.00000   0.00000   0.25000
           A9           0.00000   0.00000   0.00000   0.00000   0.00000
           A10          0.00000   0.00000   0.00000   0.00000   0.00000
           A11          0.00000   0.00000   0.00000   0.00000   0.00000
           A12          0.00000   0.00000   0.00000   0.00000   0.00000
           D1           0.00000   0.00000   0.00000   0.00000   0.00000
           D2           0.00000   0.00000   0.00000   0.00000   0.00000
           D3           0.00000   0.00000   0.00000   0.00000   0.00000
           D4           0.00000   0.00000   0.00000   0.00000   0.00000
           D5           0.00000   0.00000   0.00000   0.00000   0.00000
           D6           0.00000   0.00000   0.00000   0.00000   0.00000
           D7           0.00000   0.00000   0.00000   0.00000   0.00000
           D8           0.00000   0.00000   0.00000   0.00000   0.00000
           D9           0.00000   0.00000   0.00000   0.00000   0.00000
           D10          0.00000   0.00000   0.00000   0.00000   0.00000
           D11          0.00000   0.00000   0.00000   0.00000   0.00000
           D12          0.00000   0.00000   0.00000   0.00000   0.00000
           D13          0.00000   0.00000   0.00000   0.00000   0.00000
           D14          0.00000   0.00000   0.00000   0.00000   0.00000
           D15          0.00000   0.00000   0.00000   0.00000   0.00000
                          A9        A10       A11       A12       D1
           A9           0.25000
           A10          0.00000   0.16000
           A11          0.00000   0.00000   0.16000
           A12          0.00000   0.00000   0.00000   0.16000
           D1           0.00000   0.00000   0.00000   0.00000   0.00359
           D2           0.00000   0.00000   0.00000   0.00000   0.00000
           D3           0.00000   0.00000   0.00000   0.00000   0.00000
           D4           0.00000   0.00000   0.00000   0.00000   0.00000
           D5           0.00000   0.00000   0.00000   0.00000   0.00000
           D6           0.00000   0.00000   0.00000   0.00000   0.00000
           D7           0.00000   0.00000   0.00000   0.00000   0.00000
           D8           0.00000   0.00000   0.00000   0.00000   0.00000
           D9           0.00000   0.00000   0.00000   0.00000   0.00000
           D10          0.00000   0.00000   0.00000   0.00000   0.00000
           D11          0.00000   0.00000   0.00000   0.00000   0.00000
           D12          0.00000   0.00000   0.00000   0.00000   0.00000
           D13          0.00000   0.00000   0.00000   0.00000   0.00000
           D14          0.00000   0.00000   0.00000   0.00000   0.00000
           D15          0.00000   0.00000   0.00000   0.00000   0.00000
                          D2        D3        D4        D5        D6
           D2           0.00359
           D3           0.00000   0.00359
           D4           0.00000   0.00000   0.00359
           D5           0.00000   0.00000   0.00000   0.00359
           D6           0.00000   0.00000   0.00000   0.00000   0.00359
           D7           0.00000   0.00000   0.00000   0.00000   0.00000
           D8           0.00000   0.00000   0.00000   0.00000   0.00000
           D9           0.00000   0.00000   0.00000   0.00000   0.00000
           D10          0.00000   0.00000   0.00000   0.00000   0.00000
           D11          0.00000   0.00000   0.00000   0.00000   0.00000
           D12          0.00000   0.00000   0.00000   0.00000   0.00000
           D13          0.00000   0.00000   0.00000   0.00000   0.00000
           D14          0.00000   0.00000   0.00000   0.00000   0.00000
           D15          0.00000   0.00000   0.00000   0.00000   0.00000
                          D7        D8        D9        D10       D11
           D7           0.00359
           D8           0.00000   0.00359
           D9           0.00000   0.00000   0.00359
           D10          0.00000   0.00000   0.00000   0.00230
           D11          0.00000   0.00000   0.00000   0.00000   0.00230
           D12          0.00000   0.00000   0.00000   0.00000   0.00000
           D13          0.00000   0.00000   0.00000   0.00000   0.00000
           D14          0.00000   0.00000   0.00000   0.00000   0.00000
           D15          0.00000   0.00000   0.00000   0.00000   0.00000
                          D12       D13       D14       D15
           D12          0.00230
           D13          0.00000   0.00230
           D14          0.00000   0.00000   0.00230
           D15          0.00000   0.00000   0.00000   0.00230
 ITU=  0
 Eigenvectors of the second derivative matrix:
                           1         2         3         4         5
     Eigenvalues --     0.01517   0.03278   0.03278   0.07289   0.07289
   1         R1        -0.00000   0.00000  -0.00000  -0.00000  -0.00000
   2         R2        -0.00838   0.02339   0.00419   0.00941   0.00312
   3         R3        -0.00838  -0.00807  -0.02236  -0.00201  -0.00971
   4         R4        -0.00838  -0.01533   0.01816  -0.00740   0.00659
   5         R5        -0.57273  -0.48558  -0.08699  -0.08601  -0.02848
   6         R6        -0.57273   0.16746   0.46402   0.01835   0.08873
   7         R7        -0.57273   0.31813  -0.37703   0.06767  -0.06025
   8         A1         0.01997  -0.08147  -0.01459  -0.32227  -0.10669
   9         A2         0.01997   0.02810   0.07785   0.06874   0.33244
  10         A3         0.01997   0.05337  -0.06326   0.25353  -0.22575
  11         A4        -0.01919   0.06777  -0.08032  -0.30873   0.27490
  12         A5        -0.01919   0.03567   0.09885  -0.08370  -0.40482
  13         A6        -0.01919  -0.10344  -0.01853   0.39243   0.12992
  14         A7        -0.01218   0.23205   0.04157   0.04024   0.01332
  15         A8        -0.01218  -0.08002  -0.22175  -0.00858  -0.04151
  16         A9        -0.01218  -0.15203   0.18018  -0.03166   0.02819
  17         A10        0.05481   0.03378  -0.04004  -0.06098   0.05430
  18         A11        0.05481   0.01778   0.04928  -0.01653  -0.07996
  19         A12        0.05481  -0.05157  -0.00924   0.07751   0.02566
  20         D1         0.00000  -0.06036   0.33691  -0.12721   0.38426
  21         D2        -0.02523  -0.08462   0.29802   0.16588  -0.11630
  22         D3         0.02523  -0.02410   0.30886  -0.06371  -0.19231
  23         D4         0.00000   0.32195  -0.11619   0.39639  -0.08196
  24         D5         0.02523   0.27953  -0.13356  -0.13469   0.15133
  25         D6        -0.02523   0.30040  -0.07573  -0.18366  -0.08551
  26         D7        -0.00000  -0.26160  -0.22073  -0.26917  -0.30230
  27         D8        -0.02523  -0.21578  -0.22229   0.01778   0.20181
  28         D9         0.02523  -0.25543  -0.17530   0.19840   0.04098
  29         D10       -0.00516   0.09498  -0.09843  -0.17921   0.16373
  30         D11        0.00516  -0.05491  -0.12528   0.04610   0.23832
  31         D12        0.00516  -0.08104   0.11019   0.18334  -0.15909
  32         D13       -0.00516  -0.13273  -0.03304   0.23140   0.07333
  33         D14       -0.00516   0.03775   0.13147  -0.05219  -0.23706
  34         D15        0.00516   0.13595   0.01509  -0.22944  -0.07923
                           6         7         8         9        10
     Eigenvalues --     0.09633   0.09633   0.09933   0.24719   0.31260
   1         R1         0.00000  -0.00000   0.00000   1.00000   0.00000
   2         R2         0.01102  -0.01649   0.02860  -0.00000  -0.72371
   3         R3        -0.01979  -0.00129   0.02860  -0.00000   0.53503
   4         R4         0.00878   0.01779   0.02860  -0.00000   0.18867
   5         R5        -0.20272   0.30350   0.03087  -0.00000   0.00153
   6         R6         0.36420   0.02381   0.03087  -0.00000  -0.00113
   7         R7        -0.16148  -0.32731   0.03087  -0.00000  -0.00040
   8         A1         0.26010  -0.38941   0.22806  -0.00000  -0.00627
   9         A2        -0.46729  -0.03055   0.22806  -0.00000   0.00464
  10         A3         0.20719   0.41996   0.22806   0.00000   0.00163
  11         A4         0.15130   0.30668  -0.21923   0.00000   0.00157
  12         A5        -0.34125  -0.02231  -0.21923   0.00000   0.00445
  13         A6         0.18994  -0.28438  -0.21923   0.00000  -0.00601
  14         A7         0.09667  -0.14473   0.25234  -0.00000   0.11749
  15         A8        -0.17367  -0.01135   0.25234   0.00000  -0.08686
  16         A9         0.07700   0.15608   0.25234   0.00000  -0.03063
  17         A10        0.02223   0.04507  -0.04139  -0.00000  -0.02803
  18         A11       -0.05015  -0.00328  -0.04139  -0.00000  -0.07948
  19         A12        0.02791  -0.04179  -0.04139  -0.00000   0.10750
  20         D1        -0.25359  -0.16938   0.00000  -0.00000  -0.00081
  21         D2         0.06840  -0.07462  -0.28815   0.00000  -0.00356
  22         D3        -0.04273   0.09176   0.28815  -0.00000  -0.00004
  23         D4        -0.01989   0.30430  -0.00000   0.00000  -0.00214
  24         D5         0.10083  -0.00887   0.28815  -0.00000  -0.00603
  25         D6        -0.09882  -0.02193  -0.28815  -0.00000  -0.00343
  26         D7         0.27348  -0.13492  -0.00000  -0.00000   0.00295
  27         D8         0.03042   0.09654  -0.28815   0.00000   0.00699
  28         D9        -0.05810  -0.08289   0.28815  -0.00000   0.00607
  29         D10        0.07682   0.13914   0.00389   0.00000  -0.18473
  30         D11        0.15795   0.01767  -0.00389  -0.00000   0.12775
  31         D12       -0.06367  -0.14562  -0.00389   0.00000  -0.19056
  32         D13        0.08209  -0.13609   0.00389  -0.00000   0.04046
  33         D14       -0.15890  -0.00304   0.00389  -0.00000   0.14427
  34         D15       -0.09428   0.12795  -0.00389  -0.00000   0.06281
                          11        12
     Eigenvalues --     0.31260   0.34031
   1         R1         0.00000  -0.00000
   2         R2         0.19997  -0.54699
   3         R3         0.52676  -0.54699
   4         R4        -0.72674  -0.54699
   5         R5        -0.00042  -0.01130
   6         R6        -0.00111  -0.01130
   7         R7         0.00153  -0.01130
   8         A1         0.00173  -0.01030
   9         A2         0.00456  -0.01030
  10         A3        -0.00630  -0.01030
  11         A4        -0.00604   0.00990
  12         A5         0.00438   0.00990
  13         A6         0.00166   0.00990
  14         A7        -0.03246   0.08414
  15         A8        -0.08551   0.08414
  16         A9         0.11798   0.08414
  17         A10        0.10795  -0.16100
  18         A11       -0.07825  -0.16100
  19         A12       -0.02970  -0.16100
  20         D1        -0.00294  -0.00000
  21         D2        -0.00601   0.01302
  22         D3        -0.00699  -0.01302
  23         D4         0.00217  -0.00000
  24         D5         0.00352  -0.01302
  25         D6         0.00609   0.01302
  26         D7         0.00077   0.00000
  27         D8        -0.00007   0.01302
  28         D9         0.00346  -0.01302
  29         D10       -0.05994   0.01515
  30         D11       -0.14628  -0.01515
  31         D12       -0.03749  -0.01515
  32         D13        0.18995   0.01515
  33         D14       -0.13001   0.01515
  34         D15        0.18378  -0.01515
 Iter=   1 RLamda= 0.00000000D+00 Sum=-2.91381547D-03.
 Iter=   2 RLamda=-2.91381547D-03 Sum=-2.87837588D-03.
 Iter=   3 RLamda=-2.87837588D-03 Sum=-2.87879786D-03.
 Iter=   4 RLamda=-2.87879786D-03 Sum=-2.87879283D-03.
 RFO step:  Lambda=-2.87879786D-03 EMin= 1.51743270D-02
 Linear search not attempted -- first point.
 Iteration  1 RMS(Cart)=  0.01796316 RMS(Int)=  0.00008175
 Iteration  2 RMS(Cart)=  0.00004680 RMS(Int)=  0.00002978
 Iteration  3 RMS(Cart)=  0.00000000 RMS(Int)=  0.00002978
 ITry= 1 IFail=0 DXMaxC= 8.93D-02 DCOld= 1.00D+10 DXMaxT= 3.00D-01 DXLimC= 3.00D+00 Rises=F
 ClnCor:  largest displacement from symmetrization is 1.24D-08 for atom     1.
 Variable       Old X    -DE/DX   Delta X   Delta X   Delta X     New X
                                 (Linear)    (Quad)   (Total)
    R1        3.43629   0.02340   0.00000   0.09357   0.09357   3.52986
    R2        2.04203   0.00790   0.00000   0.02340   0.02340   2.06543
    R3        2.04203   0.00790   0.00000   0.02340   0.02340   2.06543
    R4        2.04203   0.00790   0.00000   0.02340   0.02340   2.06543
    R5        5.72099  -0.00000   0.00000  -0.01280  -0.01280   5.70819
    R6        5.72099  -0.00000   0.00000  -0.01280  -0.01280   5.70819
    R7        5.72099  -0.00000   0.00000  -0.01280  -0.01280   5.70819
    A1        1.89278   0.00082   0.00000   0.00741   0.00742   1.90020
    A2        1.89278   0.00082   0.00000   0.00741   0.00742   1.90020
    A3        1.89278   0.00082   0.00000   0.00741   0.00742   1.90020
    A4        1.92814  -0.00079   0.00000  -0.00712  -0.00719   1.92095
    A5        1.92814  -0.00079   0.00000  -0.00712  -0.00719   1.92095
    A6        1.92814  -0.00079   0.00000  -0.00712  -0.00719   1.92095
    A7        1.54736  -0.00048   0.00000   0.00337   0.00339   1.55075
    A8        1.54736  -0.00048   0.00000   0.00337   0.00339   1.55075
    A9        1.54736  -0.00048   0.00000   0.00337   0.00339   1.55075
   A10        0.59521   0.00221   0.00000   0.00688   0.00687   0.60208
   A11        0.59521   0.00221   0.00000   0.00688   0.00687   0.60208
   A12        0.59521   0.00221   0.00000   0.00688   0.00687   0.60208
    D1        3.14159   0.00000   0.00000   0.00000  -0.00000   3.14159
    D2        1.06941  -0.00103   0.00000  -0.00936  -0.00931   1.06010
    D3       -1.06941   0.00103   0.00000   0.00936   0.00931  -1.06010
    D4        3.14159  -0.00000   0.00000  -0.00000   0.00000  -3.14159
    D5       -1.06941   0.00103   0.00000   0.00936   0.00931  -1.06010
    D6        1.06941  -0.00103   0.00000  -0.00936  -0.00931   1.06010
    D7        3.14159   0.00000   0.00000   0.00000   0.00000   3.14159
    D8        1.06941  -0.00103   0.00000  -0.00936  -0.00931   1.06010
    D9       -1.06941   0.00103   0.00000   0.00936   0.00931  -1.06010
   D10       -0.55035  -0.00021   0.00000  -0.00065  -0.00065  -0.55101
   D11        0.55035   0.00021   0.00000   0.00065   0.00065   0.55101
   D12        0.55035   0.00021   0.00000   0.00065   0.00065   0.55101
   D13       -0.55035  -0.00021   0.00000  -0.00065  -0.00065  -0.55101
   D14       -0.55035  -0.00021   0.00000  -0.00065  -0.00065  -0.55101
   D15        0.55035   0.00021   0.00000   0.00065   0.00065   0.55101
         Item               Value     Threshold  Converged?
 Maximum Force            0.023399     0.000450     NO 
 RMS     Force            0.004730     0.000300     NO 
 Maximum Displacement     0.089279     0.001800     NO 
 RMS     Displacement     0.017978     0.001200     NO 
 Predicted change in Energy=-1.456041D-03
 Lowest energy point so far.  Saving SCF results.
 Largest change from initial coordinates is atom    1       0.003 Angstoms.
 GradGradGradGradGradGradGradGradGradGradGradGradGradGradGradGradGradGrad

 Leave Link  103 at Wed Oct  7 14:46:03 2020, MaxMem=  2684354560 cpu:               4.6 elap:               0.6
 (Enter /udrive/faculty/rpeverati/g16/g16/l202.exe)
                          Input orientation:                          
 ---------------------------------------------------------------------
 Center     Atomic      Atomic             Coordinates (Angstroms)
 Number     Number       Type             X           Y           Z
 ---------------------------------------------------------------------
      1         17           0        0.000000   -0.000000   -2.265317
      2          6           0        0.000000    0.000000   -0.397395
      3          1           0       -0.517109    0.895658   -0.043841
      4          1           0       -0.517109   -0.895658   -0.043841
      5          1           0        1.034217   -0.000000   -0.043841
      6         17           0        0.000000   -0.000000    2.794235
 ---------------------------------------------------------------------
                    Distance matrix (angstroms):
                    1          2          3          4          5
     1  Cl   0.000000
     2  C    1.867922   0.000000
     3  H    2.450420   1.092980   0.000000
     4  H    2.450420   1.092980   1.791317   0.000000
     5  H    2.450420   1.092980   1.791317   1.791317   0.000000
     6  Cl   5.059551   3.191629   3.020642   3.020642   3.020642
                    6
     6  Cl   0.000000
 Stoichiometry    CH3Cl2(1-)
 Framework group  C3V[C3(ClCCl),3SGV(H)]
 Deg. of freedom     4
 Full point group                 C3V     NOp   6
 RotChk:  IX=0 Diff= 0.00D+00
 Largest Abelian subgroup         CS      NOp   2
 Largest concise Abelian subgroup CS      NOp   2
                         Standard orientation:                         
 ---------------------------------------------------------------------
 Center     Atomic      Atomic             Coordinates (Angstroms)
 Number     Number       Type             X           Y           Z
 ---------------------------------------------------------------------
      1         17           0        0.000000    0.000000   -2.415915
      2          6           0        0.000000    0.000000   -0.547992
      3          1           0       -0.000000    1.034217   -0.194439
      4          1           0       -0.895658   -0.517109   -0.194439
      5          1           0        0.895658   -0.517109   -0.194439
      6         17           0        0.000000    0.000000    2.643637
 ---------------------------------------------------------------------
 Rotational constants (GHZ):         156.2741824           1.1136139           1.1136139
 Leave Link  202 at Wed Oct  7 14:46:03 2020, MaxMem=  2684354560 cpu:               1.8 elap:               0.3
 (Enter /udrive/faculty/rpeverati/g16/g16/l301.exe)
 Standard basis: 6-31G(d) (5D, 7F)
 Ernie: Thresh=  0.10000D-02 Tol=  0.10000D-05 Strict=F.
 There are    43 symmetry adapted cartesian basis functions of A'  symmetry.
 There are    16 symmetry adapted cartesian basis functions of A"  symmetry.
 There are    40 symmetry adapted basis functions of A'  symmetry.
 There are    16 symmetry adapted basis functions of A"  symmetry.
    56 basis functions,   144 primitive gaussians,    59 cartesian basis functions
    22 alpha electrons       22 beta electrons
       nuclear repulsion energy       105.5838098503 Hartrees.
 IExCor=  402 DFT=T Ex=B Corr=LYP ExCW=0 ScaHFX=  0.000000
 ScaDFX=  1.000000  1.000000  1.000000  1.000000 ScalE2=  1.000000  1.000000
 IRadAn=      5 IRanWt=     -1 IRanGd=            0 ICorTp=0 IEmpDi=  4
 NAtoms=    6 NActive=    6 NUniq=    4 SFac= 2.25D+00 NAtFMM=   60 NAOKFM=F Big=F
 Integral buffers will be    131072 words long.
 Raffenetti 2 integral format.
 Two-electron integral symmetry is turned on.
 Leave Link  301 at Wed Oct  7 14:46:04 2020, MaxMem=  2684354560 cpu:               1.4 elap:               0.4
 (Enter /udrive/faculty/rpeverati/g16/g16/l302.exe)
 NPDir=0 NMtPBC=     1 NCelOv=     1 NCel=       1 NClECP=     1 NCelD=      1
         NCelK=      1 NCelE2=     1 NClLst=     1 CellRange=     0.0.
 One-electron integrals computed using PRISM.
 One-electron integral symmetry used in STVInt
 NBasis=    56 RedAO= T EigKep=  1.95D-02  NBF=    40    16
 NBsUse=    56 1.00D-06 EigRej= -1.00D+00 NBFU=    40    16
 Precomputing XC quadrature grid using
 IXCGrd= 4 IRadAn=           5 IRanWt=          -1 IRanGd=           0 AccXCQ= 0.00D+00.
 Generated NRdTot=       0 NPtTot=           0 NUsed=           0 NTot=          32
 NSgBfM=    59    59    59    59    59 MxSgAt=     6 MxSgA2=     6.
 Leave Link  302 at Wed Oct  7 14:46:05 2020, MaxMem=  2684354560 cpu:               4.0 elap:               0.6
 (Enter /udrive/faculty/rpeverati/g16/g16/l303.exe)
 DipDrv:  MaxL=1.
 Leave Link  303 at Wed Oct  7 14:46:05 2020, MaxMem=  2684354560 cpu:               2.6 elap:               0.4
 (Enter /udrive/faculty/rpeverati/g16/g16/l401.exe)
 Initial guess from the checkpoint file:  "MN_27_clch3clcomp_BH76_BLYP_631Gs.chk"
 SCF N**3 symmetry information disabled.
 B after Tr=    -0.000000   -0.000000   -0.000000
         Rot=    1.000000    0.000000   -0.000000    0.000000 Ang=   0.00 deg.
 Guess basis will be translated and rotated to current coordinates.
 JPrj=2 DoOrth=T DoCkMO=T.
 Initial guess orbital symmetries:
       Occupied  (A1) (A1) (A1) (A1) (A1) (A1) (E) (E) (A1) (E)
                 (E) (A1) (A1) (A1) (E) (E) (A1) (E) (E) (A1) (E)
                 (E)
       Virtual   (A1) (A1) (E) (E) (A1) (A1) (E) (E) (A1) (E) (E)
                 (A1) (E) (E) (A1) (E) (E) (E) (E) (A1) (E) (E)
                 (A1) (E) (E) (E) (E) (A1) (A1) (E) (E) (A1) (E)
                 (E)
 The electronic state of the initial guess is 1-A1.
 Generating alternative initial guess.
 ExpMin= 1.43D-01 ExpMax= 2.52D+04 ExpMxC= 3.78D+03 IAcc=2 IRadAn=         4 AccDes= 0.00D+00
 Harris functional with IExCor=  402 and IRadAn=       4 diagonalized for initial guess.
 HarFok:  IExCor=  402 AccDes= 0.00D+00 IRadAn=         4 IDoV= 1 UseB2=F ITyADJ=14
 ICtDFT=  3500011 ScaDFX=  1.000000  1.000000  1.000000  1.000000
 FoFCou: FMM=F IPFlag=           0 FMFlag=      100000 FMFlg1=           0
         NFxFlg=           0 DoJE=T BraDBF=F KetDBF=T FulRan=T
         wScrn=  0.000000 ICntrl=       500 IOpCl=  0 I1Cent=   200000004 NGrid=           0
         NMat0=    1 NMatS0=      1 NMatT0=    0 NMatD0=    1 NMtDS0=    0 NMtDT0=    0
 Petite list used in FoFCou.
 Harris En= -960.361664621821    
 Leave Link  401 at Wed Oct  7 14:46:07 2020, MaxMem=  2684354560 cpu:              12.1 elap:               1.3
 (Enter /udrive/faculty/rpeverati/g16/g16/l502.exe)
 Keep J ints in memory in symmetry-blocked form, NReq=11835881.
 FoFCou: FMM=F IPFlag=           0 FMFlag=           0 FMFlg1=           0
         NFxFlg=           0 DoJE=F BraDBF=F KetDBF=F FulRan=T
         wScrn=  0.000000 ICntrl=       600 IOpCl=  0 I1Cent=           0 NGrid=           0
         NMat0=    1 NMatS0=   1596 NMatT0=    0 NMatD0=    1 NMtDS0=    0 NMtDT0=    0
 Petite list used in FoFCou.
 Closed shell SCF:
 Using DIIS extrapolation, IDIIS=  1040.
 NGot=  2684354560 LenX=  2683679425 LenY=  2683675503
 Requested convergence on RMS density matrix=1.00D-08 within 120 cycles.
 Requested convergence on MAX density matrix=1.00D-06.
 Requested convergence on             energy=1.00D-06.
 No special actions if energy rises.
 Integral accuracy reduced to 1.0D-05 until final iterations.

 Cycle   1  Pass 0  IDiag  1:
 E= -960.294716211580    
 DIIS: error= 2.30D-03 at cycle   1 NSaved=   1.
 NSaved= 1 IEnMin= 1 EnMin= -960.294716211580     IErMin= 1 ErrMin= 2.30D-03
 ErrMax= 2.30D-03  0.00D+00 EMaxC= 1.00D-01 BMatC= 3.41D-04 BMatP= 3.41D-04
 IDIUse=3 WtCom= 9.77D-01 WtEn= 2.30D-02
 Coeff-Com:  0.100D+01
 Coeff-En:   0.100D+01
 Coeff:      0.100D+01
 Gap=     0.111 Goal=   None    Shift=    0.000
 GapD=    0.111 DampG=1.000 DampE=1.000 DampFc=1.0000 IDamp=-1.
 RMSDP=7.82D-04 MaxDP=8.93D-03              OVMax= 1.47D-02

 Cycle   2  Pass 0  IDiag  1:
 E= -960.294965786063     Delta-E=       -0.000249574483 Rises=F Damp=F
 DIIS: error= 2.91D-03 at cycle   2 NSaved=   2.
 NSaved= 2 IEnMin= 2 EnMin= -960.294965786063     IErMin= 1 ErrMin= 2.30D-03
 ErrMax= 2.91D-03  0.00D+00 EMaxC= 1.00D-01 BMatC= 2.44D-04 BMatP= 3.41D-04
 IDIUse=3 WtCom= 9.71D-01 WtEn= 2.91D-02
 Coeff-Com:  0.445D+00 0.555D+00
 Coeff-En:   0.214D+00 0.786D+00
 Coeff:      0.438D+00 0.562D+00
 Gap=     0.107 Goal=   None    Shift=    0.000
 RMSDP=4.19D-04 MaxDP=7.46D-03 DE=-2.50D-04 OVMax= 1.18D-02

 Cycle   3  Pass 0  IDiag  1:
 E= -960.295134482415     Delta-E=       -0.000168696351 Rises=F Damp=F
 DIIS: error= 1.73D-03 at cycle   3 NSaved=   3.
 NSaved= 3 IEnMin= 3 EnMin= -960.295134482415     IErMin= 3 ErrMin= 1.73D-03
 ErrMax= 1.73D-03  0.00D+00 EMaxC= 1.00D-01 BMatC= 9.22D-05 BMatP= 2.44D-04
 IDIUse=3 WtCom= 9.83D-01 WtEn= 1.73D-02
 Coeff-Com:  0.234D-01 0.379D+00 0.597D+00
 Coeff-En:   0.000D+00 0.315D+00 0.685D+00
 Coeff:      0.230D-01 0.378D+00 0.599D+00
 Gap=     0.108 Goal=   None    Shift=    0.000
 RMSDP=1.97D-04 MaxDP=3.22D-03 DE=-1.69D-04 OVMax= 4.71D-03

 Cycle   4  Pass 0  IDiag  1:
 E= -960.295235950431     Delta-E=       -0.000101468017 Rises=F Damp=F
 DIIS: error= 1.46D-04 at cycle   4 NSaved=   4.
 NSaved= 4 IEnMin= 4 EnMin= -960.295235950431     IErMin= 4 ErrMin= 1.46D-04
 ErrMax= 1.46D-04  0.00D+00 EMaxC= 1.00D-01 BMatC= 1.14D-06 BMatP= 9.22D-05
 IDIUse=3 WtCom= 9.99D-01 WtEn= 1.46D-03
 Coeff-Com:  0.814D-02 0.189D+00 0.312D+00 0.491D+00
 Coeff-En:   0.000D+00 0.000D+00 0.000D+00 0.100D+01
 Coeff:      0.813D-02 0.188D+00 0.312D+00 0.492D+00
 Gap=     0.108 Goal=   None    Shift=    0.000
 RMSDP=4.66D-05 MaxDP=6.74D-04 DE=-1.01D-04 OVMax= 9.36D-04

 Cycle   5  Pass 0  IDiag  1:
 E= -960.295237492158     Delta-E=       -0.000001541727 Rises=F Damp=F
 DIIS: error= 3.57D-05 at cycle   5 NSaved=   5.
 NSaved= 5 IEnMin= 5 EnMin= -960.295237492158     IErMin= 5 ErrMin= 3.57D-05
 ErrMax= 3.57D-05  0.00D+00 EMaxC= 1.00D-01 BMatC= 4.83D-08 BMatP= 1.14D-06
 IDIUse=1 WtCom= 1.00D+00 WtEn= 0.00D+00
 Coeff-Com:  0.846D-03 0.563D-01 0.965D-01 0.203D+00 0.643D+00
 Coeff:      0.846D-03 0.563D-01 0.965D-01 0.203D+00 0.643D+00
 Gap=     0.108 Goal=   None    Shift=    0.000
 RMSDP=9.05D-06 MaxDP=1.51D-04 DE=-1.54D-06 OVMax= 1.71D-04

 Initial convergence to 1.0D-05 achieved.  Increase integral accuracy.
 Cycle   6  Pass 1  IDiag  1:
 E= -960.295232266386     Delta-E=        0.000005225772 Rises=F Damp=F
 DIIS: error= 1.16D-05 at cycle   1 NSaved=   1.
 NSaved= 1 IEnMin= 1 EnMin= -960.295232266386     IErMin= 1 ErrMin= 1.16D-05
 ErrMax= 1.16D-05  0.00D+00 EMaxC= 1.00D-01 BMatC= 9.50D-09 BMatP= 9.50D-09
 IDIUse=1 WtCom= 1.00D+00 WtEn= 0.00D+00
 Coeff-Com:  0.100D+01
 Coeff:      0.100D+01
 Gap=     0.108 Goal=   None    Shift=    0.000
 RMSDP=9.05D-06 MaxDP=1.51D-04 DE= 5.23D-06 OVMax= 2.36D-04

 Cycle   7  Pass 1  IDiag  1:
 E= -960.295232252831     Delta-E=        0.000000013554 Rises=F Damp=F
 DIIS: error= 1.47D-05 at cycle   2 NSaved=   2.
 NSaved= 2 IEnMin= 1 EnMin= -960.295232266386     IErMin= 1 ErrMin= 1.16D-05
 ErrMax= 1.47D-05  0.00D+00 EMaxC= 1.00D-01 BMatC= 2.01D-08 BMatP= 9.50D-09
 IDIUse=1 WtCom= 1.00D+00 WtEn= 0.00D+00
 Coeff-Com:  0.601D+00 0.399D+00
 Coeff:      0.601D+00 0.399D+00
 Gap=     0.108 Goal=   None    Shift=    0.000
 RMSDP=6.25D-06 MaxDP=8.02D-05 DE= 1.36D-08 OVMax= 1.43D-04

 Cycle   8  Pass 1  IDiag  1:
 E= -960.295232282361     Delta-E=       -0.000000029530 Rises=F Damp=F
 DIIS: error= 1.75D-06 at cycle   3 NSaved=   3.
 NSaved= 3 IEnMin= 3 EnMin= -960.295232282361     IErMin= 3 ErrMin= 1.75D-06
 ErrMax= 1.75D-06  0.00D+00 EMaxC= 1.00D-01 BMatC= 1.61D-10 BMatP= 9.50D-09
 IDIUse=1 WtCom= 1.00D+00 WtEn= 0.00D+00
 Coeff-Com:  0.686D-01 0.952D-01 0.836D+00
 Coeff:      0.686D-01 0.952D-01 0.836D+00
 Gap=     0.108 Goal=   None    Shift=    0.000
 RMSDP=5.21D-07 MaxDP=8.10D-06 DE=-2.95D-08 OVMax= 8.87D-06

 Cycle   9  Pass 1  IDiag  1:
 E= -960.295232282460     Delta-E=       -0.000000000099 Rises=F Damp=F
 DIIS: error= 1.32D-06 at cycle   4 NSaved=   4.
 NSaved= 4 IEnMin= 4 EnMin= -960.295232282460     IErMin= 4 ErrMin= 1.32D-06
 ErrMax= 1.32D-06  0.00D+00 EMaxC= 1.00D-01 BMatC= 8.82D-11 BMatP= 1.61D-10
 IDIUse=1 WtCom= 1.00D+00 WtEn= 0.00D+00
 Coeff-Com:  0.103D-01 0.374D-01 0.498D+00 0.454D+00
 Coeff:      0.103D-01 0.374D-01 0.498D+00 0.454D+00
 Gap=     0.108 Goal=   None    Shift=    0.000
 RMSDP=2.24D-07 MaxDP=4.40D-06 DE=-9.87D-11 OVMax= 5.14D-06

 Cycle  10  Pass 1  IDiag  1:
 E= -960.295232282562     Delta-E=       -0.000000000102 Rises=F Damp=F
 DIIS: error= 3.35D-07 at cycle   5 NSaved=   5.
 NSaved= 5 IEnMin= 5 EnMin= -960.295232282562     IErMin= 5 ErrMin= 3.35D-07
 ErrMax= 3.35D-07  0.00D+00 EMaxC= 1.00D-01 BMatC= 4.31D-12 BMatP= 8.82D-11
 IDIUse=1 WtCom= 1.00D+00 WtEn= 0.00D+00
 Coeff-Com:  0.211D-02 0.181D-01 0.248D+00 0.265D+00 0.467D+00
 Coeff:      0.211D-02 0.181D-01 0.248D+00 0.265D+00 0.467D+00
 Gap=     0.108 Goal=   None    Shift=    0.000
 RMSDP=4.11D-08 MaxDP=5.23D-07 DE=-1.02D-10 OVMax= 9.28D-07

 Cycle  11  Pass 1  IDiag  1:
 E= -960.295232282564     Delta-E=       -0.000000000003 Rises=F Damp=F
 DIIS: error= 5.10D-08 at cycle   6 NSaved=   6.
 NSaved= 6 IEnMin= 6 EnMin= -960.295232282564     IErMin= 6 ErrMin= 5.10D-08
 ErrMax= 5.10D-08  0.00D+00 EMaxC= 1.00D-01 BMatC= 1.30D-13 BMatP= 4.31D-12
 IDIUse=1 WtCom= 1.00D+00 WtEn= 0.00D+00
 Coeff-Com:  0.382D-03 0.601D-02 0.695D-01 0.816D-01 0.205D+00 0.638D+00
 Coeff:      0.382D-03 0.601D-02 0.695D-01 0.816D-01 0.205D+00 0.638D+00
 Gap=     0.108 Goal=   None    Shift=    0.000
 RMSDP=1.69D-08 MaxDP=2.35D-07 DE=-2.73D-12 OVMax= 3.64D-07

 Cycle  12  Pass 1  IDiag  1:
 E= -960.295232282563     Delta-E=        0.000000000001 Rises=F Damp=F
 DIIS: error= 8.46D-09 at cycle   7 NSaved=   7.
 NSaved= 7 IEnMin= 6 EnMin= -960.295232282564     IErMin= 7 ErrMin= 8.46D-09
 ErrMax= 8.46D-09  0.00D+00 EMaxC= 1.00D-01 BMatC= 3.00D-15 BMatP= 1.30D-13
 IDIUse=1 WtCom= 1.00D+00 WtEn= 0.00D+00
 Coeff-Com:  0.532D-04 0.168D-02 0.167D-01 0.210D-01 0.632D-01 0.254D+00
 Coeff-Com:  0.644D+00
 Coeff:      0.532D-04 0.168D-02 0.167D-01 0.210D-01 0.632D-01 0.254D+00
 Coeff:      0.644D+00
 Gap=     0.108 Goal=   None    Shift=    0.000
 RMSDP=2.24D-09 MaxDP=2.55D-08 DE= 9.09D-13 OVMax= 4.37D-08

 SCF Done:  E(RB-LYP) =  -960.295232283     A.U. after   12 cycles
            NFock= 12  Conv=0.22D-08     -V/T= 2.0022
 KE= 9.582169001059D+02 PE=-2.501971833977D+03 EE= 4.778758917385D+02
 Leave Link  502 at Wed Oct  7 14:46:08 2020, MaxMem=  2684354560 cpu:              15.7 elap:               1.6
 (Enter /udrive/faculty/rpeverati/g16/g16/l508.exe)
 QCSCF skips out because SCF is already converged.
 Leave Link  508 at Wed Oct  7 14:46:09 2020, MaxMem=  2684354560 cpu:               0.8 elap:               0.4
 (Enter /udrive/faculty/rpeverati/g16/g16/l701.exe)
 ... and contract with generalized density number  0.
 Compute integral first derivatives.
 Leave Link  701 at Wed Oct  7 14:46:10 2020, MaxMem=  2684354560 cpu:               9.8 elap:               1.3
 (Enter /udrive/faculty/rpeverati/g16/g16/l702.exe)
 L702 exits ... SP integral derivatives will be done elsewhere.
 Leave Link  702 at Wed Oct  7 14:46:11 2020, MaxMem=  2684354560 cpu:               1.5 elap:               0.4
 (Enter /udrive/faculty/rpeverati/g16/g16/l703.exe)
 Integral derivatives from FoFJK, PRISM(SPDF).
 Compute integral first derivatives, UseDBF=F ICtDFT=           0.
 Calling FoFJK, ICntrl=      2527 FMM=F ISym2X=1 I1Cent= 0 IOpClX= 0 NMat=1 NMatS=1 NMatT=0.
 FoFJK:  IHMeth= 1 ICntrl=    2527 DoSepK=F KAlg= 0 I1Cent=           0 FoldK=F
 IRaf=         0 NMat=       1 IRICut=       1 DoRegI=T DoRafI=F ISym2E= 1 IDoP0=0 IntGTp=1.
 FoFCou: FMM=F IPFlag=           0 FMFlag=      100000 FMFlg1=         800
         NFxFlg=           0 DoJE=F BraDBF=F KetDBF=F FulRan=T
         wScrn=  0.000000 ICntrl=      2527 IOpCl=  0 I1Cent=           0 NGrid=           0
         NMat0=    1 NMatS0=      1 NMatT0=    0 NMatD0=    1 NMtDS0=    0 NMtDT0=    0
 Petite list used in FoFCou.
 Leave Link  703 at Wed Oct  7 14:46:13 2020, MaxMem=  2684354560 cpu:              10.9 elap:               1.3
 (Enter /udrive/faculty/rpeverati/g16/g16/l716.exe)
 Dipole        =-2.22044605D-16-1.11022302D-16-3.02710193D+00
 ***** Axes restored to original set *****
 -------------------------------------------------------------------
 Center     Atomic                   Forces (Hartrees/Bohr)
 Number     Number              X              Y              Z
 -------------------------------------------------------------------
      1       17          -0.000000000    0.000000000   -0.006987899
      2        6          -0.000000000   -0.000000000    0.010989862
      3        1          -0.000255138    0.000441911   -0.000811690
      4        1          -0.000255138   -0.000441911   -0.000811690
      5        1           0.000510275   -0.000000000   -0.000811690
      6       17          -0.000000000   -0.000000000   -0.001566893
 -------------------------------------------------------------------
 Cartesian Forces:  Max     0.010989862 RMS     0.003116449
 Leave Link  716 at Wed Oct  7 14:46:13 2020, MaxMem=  2684354560 cpu:               1.6 elap:               0.6
 (Enter /udrive/faculty/rpeverati/g16/g16/l103.exe)

 GradGradGradGradGradGradGradGradGradGradGradGradGradGradGradGradGradGrad
 Berny optimization.
 Optmz: redundant internal coordinate code flag= 1
 Using GEDIIS/GDIIS optimizer.
 Red2BG:  D1=  4.63D-01 OD1=  5.54D-02 B2RMS=  0.00D+00 IAprox=0
 FormGI is forming the generalized inverse of G from B-inverse, IUseBI=4.
 Internal  Forces:  Max     0.006987899 RMS     0.001261032
 Search for a local minimum.
 Step number   2 out of a maximum of  100
 All quantities printed in internal units (Hartrees-Bohrs-Radians)
 RMS Force = .12610D-02 SwitMx=.10000D-02 MixMth= 1
 Mixed Optimization -- RFO/linear search
 Update second derivatives using D2CorX and points    1    2
 DE= -1.71D-03 DEPred=-1.46D-03 R= 1.18D+00
 TightC=F SS=  1.41D+00  RLast= 1.09D-01 DXNew= 5.0454D-01 3.2740D-01
 Trust test= 1.18D+00 RLast= 1.09D-01 DXMaxT set to 3.27D-01
 The second derivative matrix:
                          R1        R2        R3        R4        R5
           R1           0.17857
           R2          -0.01141   0.36153
           R3          -0.01141   0.00230   0.36153
           R4          -0.01141   0.00230   0.00230   0.36153
           R5           0.00500   0.00222   0.00222   0.00222   0.01347
           R6           0.00500   0.00222   0.00222   0.00222   0.00010
           R7           0.00500   0.00222   0.00222   0.00222   0.00010
           A1          -0.00026   0.00097   0.00097   0.00097   0.00035
           A2          -0.00026   0.00097   0.00097   0.00097   0.00035
           A3          -0.00026   0.00097   0.00097   0.00097   0.00035
           A4           0.00027  -0.00093  -0.00093  -0.00093  -0.00034
           A5           0.00027  -0.00093  -0.00093  -0.00093  -0.00034
           A6           0.00027  -0.00093  -0.00093  -0.00093  -0.00034
           A7          -0.00616  -0.00215  -0.00215  -0.00215   0.00007
           A8          -0.00616  -0.00215  -0.00215  -0.00215   0.00007
           A9          -0.00616  -0.00215  -0.00215  -0.00215   0.00007
           A10          0.00583   0.00379   0.00379   0.00379   0.00051
           A11          0.00583   0.00379   0.00379   0.00379   0.00051
           A12          0.00583   0.00379   0.00379   0.00379   0.00051
           D1           0.00000   0.00000   0.00000   0.00000  -0.00000
           D2          -0.01153  -0.00553  -0.00553  -0.00553  -0.00036
           D3           0.01153   0.00553   0.00553   0.00553   0.00036
           D4          -0.00000  -0.00000  -0.00000  -0.00000   0.00000
           D5           0.01153   0.00553   0.00553   0.00553   0.00036
           D6          -0.01153  -0.00553  -0.00553  -0.00553  -0.00036
           D7           0.00000   0.00000   0.00000   0.00000   0.00000
           D8          -0.01153  -0.00553  -0.00553  -0.00553  -0.00036
           D9           0.01153   0.00553   0.00553   0.00553   0.00036
           D10         -0.00138  -0.00066  -0.00066  -0.00066  -0.00004
           D11          0.00138   0.00066   0.00066   0.00066   0.00004
           D12          0.00138   0.00066   0.00066   0.00066   0.00004
           D13         -0.00138  -0.00066  -0.00066  -0.00066  -0.00004
           D14         -0.00138  -0.00066  -0.00066  -0.00066  -0.00004
           D15          0.00138   0.00066   0.00066   0.00066   0.00004
                          R6        R7        A1        A2        A3
           R6           0.01347
           R7           0.00010   0.01347
           A1           0.00035   0.00035   0.16024
           A2           0.00035   0.00035   0.00024   0.16024
           A3           0.00035   0.00035   0.00024   0.00024   0.16024
           A4          -0.00034  -0.00034  -0.00023  -0.00023  -0.00023
           A5          -0.00034  -0.00034  -0.00023  -0.00023  -0.00023
           A6          -0.00034  -0.00034  -0.00023  -0.00023  -0.00023
           A7           0.00007   0.00007  -0.00030  -0.00030  -0.00030
           A8           0.00007   0.00007  -0.00030  -0.00030  -0.00030
           A9           0.00007   0.00007  -0.00030  -0.00030  -0.00030
           A10          0.00051   0.00051   0.00070   0.00070   0.00070
           A11          0.00051   0.00051   0.00070   0.00070   0.00070
           A12          0.00051   0.00051   0.00070   0.00070   0.00070
           D1          -0.00000  -0.00000   0.00000   0.00000   0.00000
           D2          -0.00036  -0.00036  -0.00091  -0.00091  -0.00091
           D3           0.00036   0.00036   0.00091   0.00091   0.00091
           D4           0.00000   0.00000  -0.00000  -0.00000  -0.00000
           D5           0.00036   0.00036   0.00091   0.00091   0.00091
           D6          -0.00036  -0.00036  -0.00091  -0.00091  -0.00091
           D7           0.00000   0.00000   0.00000   0.00000   0.00000
           D8          -0.00036  -0.00036  -0.00091  -0.00091  -0.00091
           D9           0.00036   0.00036   0.00091   0.00091   0.00091
           D10         -0.00004  -0.00004  -0.00011  -0.00011  -0.00011
           D11          0.00004   0.00004   0.00011   0.00011   0.00011
           D12          0.00004   0.00004   0.00011   0.00011   0.00011
           D13         -0.00004  -0.00004  -0.00011  -0.00011  -0.00011
           D14         -0.00004  -0.00004  -0.00011  -0.00011  -0.00011
           D15          0.00004   0.00004   0.00011   0.00011   0.00011
                          A4        A5        A6        A7        A8
           A4           0.16023
           A5           0.00023   0.16023
           A6           0.00023   0.00023   0.16023
           A7           0.00029   0.00029   0.00029   0.24975
           A8           0.00029   0.00029   0.00029  -0.00025   0.24975
           A9           0.00029   0.00029   0.00029  -0.00025  -0.00025
           A10         -0.00068  -0.00068  -0.00068  -0.00024  -0.00024
           A11         -0.00068  -0.00068  -0.00068  -0.00024  -0.00024
           A12         -0.00068  -0.00068  -0.00068  -0.00024  -0.00024
           D1          -0.00000  -0.00000  -0.00000   0.00000   0.00000
           D2           0.00088   0.00088   0.00088  -0.00006  -0.00006
           D3          -0.00088  -0.00088  -0.00088   0.00006   0.00006
           D4           0.00000   0.00000   0.00000  -0.00000  -0.00000
           D5          -0.00088  -0.00088  -0.00088   0.00006   0.00006
           D6           0.00088   0.00088   0.00088  -0.00006  -0.00006
           D7          -0.00000  -0.00000  -0.00000   0.00000   0.00000
           D8           0.00088   0.00088   0.00088  -0.00006  -0.00006
           D9          -0.00088  -0.00088  -0.00088   0.00006   0.00006
           D10          0.00010   0.00010   0.00010  -0.00001  -0.00001
           D11         -0.00010  -0.00010  -0.00010   0.00001   0.00001
           D12         -0.00010  -0.00010  -0.00010   0.00001   0.00001
           D13          0.00010   0.00010   0.00010  -0.00001  -0.00001
           D14          0.00010   0.00010   0.00010  -0.00001  -0.00001
           D15         -0.00010  -0.00010  -0.00010   0.00001   0.00001
                          A9        A10       A11       A12       D1
           A9           0.24975
           A10         -0.00024   0.16140
           A11         -0.00024   0.00140   0.16140
           A12         -0.00024   0.00140   0.00140   0.16140
           D1           0.00000   0.00000   0.00000   0.00000   0.00359
           D2          -0.00006  -0.00145  -0.00145  -0.00145  -0.00000
           D3           0.00006   0.00145   0.00145   0.00145   0.00000
           D4          -0.00000  -0.00000  -0.00000  -0.00000   0.00000
           D5           0.00006   0.00145   0.00145   0.00145   0.00000
           D6          -0.00006  -0.00145  -0.00145  -0.00145  -0.00000
           D7           0.00000   0.00000   0.00000   0.00000   0.00000
           D8          -0.00006  -0.00145  -0.00145  -0.00145  -0.00000
           D9           0.00006   0.00145   0.00145   0.00145   0.00000
           D10         -0.00001  -0.00017  -0.00017  -0.00017  -0.00000
           D11          0.00001   0.00017   0.00017   0.00017   0.00000
           D12          0.00001   0.00017   0.00017   0.00017   0.00000
           D13         -0.00001  -0.00017  -0.00017  -0.00017  -0.00000
           D14         -0.00001  -0.00017  -0.00017  -0.00017  -0.00000
           D15          0.00001   0.00017   0.00017   0.00017   0.00000
                          D2        D3        D4        D5        D6
           D2           0.00476
           D3          -0.00117   0.00476
           D4           0.00000  -0.00000   0.00359
           D5          -0.00117   0.00117  -0.00000   0.00476
           D6           0.00117  -0.00117   0.00000  -0.00117   0.00476
           D7          -0.00000   0.00000  -0.00000   0.00000  -0.00000
           D8           0.00117  -0.00117   0.00000  -0.00117   0.00117
           D9          -0.00117   0.00117  -0.00000   0.00117  -0.00117
           D10          0.00014  -0.00014   0.00000  -0.00014   0.00014
[...]
  16         A9        -0.01065   0.15129  -0.06332  -0.07809   0.05758
  17         A10       -0.03473   0.05252  -0.02198   0.01379   0.05694
  18         A11       -0.05142  -0.04529  -0.03449   0.01379   0.05872
  19         A12        0.08615  -0.00722   0.05647   0.01379  -0.11566
  20         D1         0.04464  -0.29779  -0.03810  -0.00000   0.00006
  21         D2         0.09296  -0.00331   0.09852   0.09275   0.00382
  22         D3        -0.12931   0.02160  -0.09618  -0.09275  -0.00356
  23         D4         0.32325   0.18189  -0.23885   0.00000   0.00569
  24         D5        -0.06529   0.07249   0.06680  -0.09275   0.01459
  25         D6        -0.19796  -0.08367  -0.05212   0.09275   0.01084
  26         D7        -0.36789   0.11590   0.27694   0.00000  -0.00574
  27         D8         0.10500   0.08697  -0.04639   0.09275  -0.01466
  28         D9         0.19460  -0.09409   0.02938  -0.09275  -0.01103
  29         D10       -0.09410   0.16421  -0.05735  -0.00140   0.15887
  30         D11        0.14113   0.14448   0.09684   0.00140  -0.15695
  31         D12        0.10005  -0.15611   0.07670   0.00140   0.17325
  32         D13        0.24045  -0.03244   0.17088  -0.00140   0.01291
  33         D14       -0.14635  -0.13177  -0.11353  -0.00140  -0.17178
  34         D15       -0.24117   0.01163  -0.17355   0.00140  -0.01630
                          11        12
     Eigenvalues --     0.31329   0.35223
   1         R1        -0.00000   0.02914
   2         R2         0.00667  -0.54383
   3         R3         0.64777  -0.54383
   4         R4        -0.65444  -0.54383
   5         R5         0.00013  -0.01357
   6         R6         0.01236  -0.01357
   7         R7        -0.01249  -0.01357
   8         A1         0.00012  -0.01570
   9         A2         0.01200  -0.01570
  10         A3        -0.01212  -0.01570
  11         A4        -0.01189   0.01406
  12         A5         0.01177   0.01406
  13         A6         0.00012   0.01406
  14         A7        -0.00104   0.08320
  15         A8        -0.10078   0.08320
  16         A9         0.10181   0.08320
  17         A10        0.10068  -0.16821
  18         A11       -0.09966  -0.16821
  19         A12       -0.00103  -0.16821
  20         D1        -0.00660   0.00000
  21         D2        -0.01472   0.02081
  22         D3        -0.01479  -0.02081
  23         D4         0.00335  -0.00000
  24         D5         0.00431  -0.02081
  25         D6         0.01067   0.02081
  26         D7         0.00325  -0.00000
  27         D8         0.00405   0.02081
  28         D9         0.01048  -0.02081
  29         D10       -0.10663   0.01706
  30         D11       -0.10944  -0.01706
  31         D12       -0.08121  -0.01706
  32         D13        0.19090   0.01706
  33         D14       -0.08427   0.01706
  34         D15        0.19064  -0.01706
 DoSqrt=T IScMMF=    -3 MM Scaling Factor =       0.00000
 En-DIIS/RFO-DIIS/Sim-DIIS IScMMF=       -3 using points:     8    7    6    5    4    3
 Iter=   1 RLamda=-4.46207701D-02 Sum=-1.46945282D-08.
 Iter=   2 RLamda=-1.46945282D-08 Sum=-2.76966359D-08.
 Iter=   3 RLamda=-2.76966359D-08 Sum=-2.76966255D-08.
 RFO step:  Lambda=-2.76966359D-08.
 NNeg= 0 NGDIIS= 6 SimSw=  2.50D-01 Rises=F DC= -1.14D-07 SmlDif=  1.00D-05
 NRisDI= 0 DoIntr=F SqrtH=F CThrHd= 10.0 CDAdj=  3.0
 RMS Error=  0.1533820500D-03 NUsed= 6 OKEnD=F EnDIS=F
 Total RFO-DIIS matrix:
                 1             2             3             4             5 
      1   0.000000D+00 -0.100000D+01 -0.100000D+01 -0.100000D+01 -0.100000D+01
      2  -0.100000D+01  0.799886D-06 -0.627138D-06  0.755064D-05  0.118572D-05
      3  -0.100000D+01 -0.627138D-06  0.153110D-04 -0.519219D-04  0.144819D-03
      4  -0.100000D+01  0.755064D-05 -0.519219D-04  0.215892D-03 -0.393382D-03
      5  -0.100000D+01  0.118572D-05  0.144819D-03 -0.393382D-03  0.272084D-02
      6  -0.100000D+01 -0.273271D-04  0.613092D-03 -0.199872D-02  0.835965D-02
      7  -0.100000D+01 -0.698703D-04  0.132439D-02 -0.447505D-02  0.157933D-01
                 6             7 
      1  -0.100000D+01 -0.100000D+01
      2  -0.273271D-04 -0.698703D-04
      3   0.613092D-03  0.132439D-02
      4  -0.199872D-02 -0.447505D-02
      5   0.835965D-02  0.157933D-01
      6   0.297391D-01  0.599305D-01
      7   0.599305D-01  0.123969D+00
 InvSVX:  RCond= 8.39D-22 Info=           8 Equed=N FErr=  0.00D+00 BErr=  0.00D+00
 DIIS inversion failure, remove point   6.
 InvSVX:  RCond= 2.35D-10 Info=           0 Equed=N FErr=  1.23D-10 BErr=  8.78D-17
 DIIS inversion failure, remove point   5.
 InvSVX:  RCond= 1.59D-08 Info=           0 Equed=N FErr=  1.77D-13 BErr=  3.73D-17
 DIIS inversion failure, remove point   4.
 InvSVX:  RCond= 6.53D-08 Info=           0 Equed=N FErr=  3.90D-14 BErr=  6.23D-17
 DIIS inversion failure, remove point   3.
 InvSVX:  RCond= 1.95D-05 Info=           0 Equed=N FErr=  1.00D-15 BErr=  2.25D-17
 RFO-DIIS uses    2 points instead of    6
 DidBck=F Rises=F RFO-DIIS coefs:    0.91782    0.08218    0.00000    0.00000    0.00000
                  RFO-DIIS coefs:    0.00000
 Iteration  1 RMS(Cart)=  0.00007653 RMS(Int)=  0.00000001
 Iteration  2 RMS(Cart)=  0.00000000 RMS(Int)=  0.00000001
 ITry= 1 IFail=0 DXMaxC= 3.00D-04 DCOld= 1.00D+10 DXMaxT= 5.34D-01 DXLimC= 3.00D+00 Rises=F
 ClnCor:  largest displacement from symmetrization is 8.43D-09 for atom     1.
 Variable       Old X    -DE/DX   Delta X   Delta X   Delta X     New X
                                 (Linear)    (Quad)   (Total)
    R1        3.65539   0.00004  -0.00012   0.00053   0.00040   3.65579
    R2        2.06122  -0.00001   0.00001  -0.00002  -0.00001   2.06121
    R3        2.06122  -0.00001   0.00001  -0.00002  -0.00001   2.06121
    R4        2.06122  -0.00001   0.00001  -0.00002  -0.00001   2.06121
    R5        5.48682   0.00001   0.00018   0.00019   0.00037   5.48718
    R6        5.48682   0.00001   0.00018   0.00019   0.00037   5.48718
    R7        5.48682   0.00001   0.00018   0.00019   0.00037   5.48718
    A1        1.86416  -0.00000   0.00001  -0.00013  -0.00011   1.86404
    A2        1.86416  -0.00000   0.00001  -0.00013  -0.00011   1.86404
    A3        1.86416  -0.00000   0.00001  -0.00013  -0.00011   1.86404
    A4        1.95473   0.00000  -0.00001   0.00011   0.00010   1.95483
    A5        1.95473   0.00000  -0.00001   0.00011   0.00010   1.95483
    A6        1.95473   0.00000  -0.00001   0.00011   0.00010   1.95483
    A7        1.49630  -0.00000   0.00003  -0.00012  -0.00010   1.49620
    A8        1.49630  -0.00000   0.00003  -0.00012  -0.00010   1.49620
    A9        1.49630  -0.00000   0.00003  -0.00012  -0.00010   1.49620
   A10        0.63341  -0.00000  -0.00002  -0.00000  -0.00003   0.63339
   A11        0.63341  -0.00000  -0.00002  -0.00000  -0.00003   0.63339
   A12        0.63341  -0.00000  -0.00002  -0.00000  -0.00003   0.63339
    D1        3.14159  -0.00000   0.00000  -0.00000   0.00000   3.14159
    D2        1.10646   0.00000  -0.00002   0.00017   0.00015   1.10661
    D3       -1.10646  -0.00000   0.00002  -0.00017  -0.00015  -1.10661
    D4        3.14159   0.00000   0.00000   0.00000   0.00000  -3.14159
    D5       -1.10646  -0.00000   0.00002  -0.00017  -0.00015  -1.10661
    D6        1.10646   0.00000  -0.00002   0.00017   0.00015   1.10661
    D7        3.14159   0.00000   0.00000   0.00000   0.00000   3.14159
    D8        1.10646   0.00000  -0.00002   0.00017   0.00015   1.10661
    D9       -1.10646  -0.00000   0.00002  -0.00017  -0.00015  -1.10661
   D10       -0.55409   0.00000   0.00000   0.00000   0.00000  -0.55409
   D11        0.55409  -0.00000  -0.00000  -0.00000  -0.00000   0.55409
   D12        0.55409  -0.00000  -0.00000  -0.00000  -0.00000   0.55409
   D13       -0.55409   0.00000   0.00000   0.00000   0.00000  -0.55409
   D14       -0.55409   0.00000   0.00000   0.00000   0.00000  -0.55409
   D15        0.55409  -0.00000  -0.00000  -0.00000  -0.00000   0.55409
         Item               Value     Threshold  Converged?
 Maximum Force            0.000042     0.000450     YES
 RMS     Force            0.000008     0.000300     YES
 Maximum Displacement     0.000300     0.001800     YES
 RMS     Displacement     0.000077     0.001200     YES
 Predicted change in Energy=-1.384871D-08
 Optimization completed.
    -- Stationary point found.
                           ----------------------------
                           !   Optimized Parameters   !
                           ! (Angstroms and Degrees)  !
 --------------------------                            --------------------------
 ! Name  Definition              Value          Derivative Info.                !
 --------------------------------------------------------------------------------
 ! R1    R(1,2)                  1.9343         -DE/DX =    0.0                 !
 ! R2    R(2,3)                  1.0908         -DE/DX =    0.0                 !
 ! R3    R(2,4)                  1.0908         -DE/DX =    0.0                 !
 ! R4    R(2,5)                  1.0908         -DE/DX =    0.0                 !
 ! R5    R(3,6)                  2.9035         -DE/DX =    0.0                 !
 ! R6    R(4,6)                  2.9035         -DE/DX =    0.0                 !
 ! R7    R(5,6)                  2.9035         -DE/DX =    0.0                 !
 ! A1    A(1,2,3)              106.8083         -DE/DX =    0.0                 !
 ! A2    A(1,2,4)              106.8083         -DE/DX =    0.0                 !
 ! A3    A(1,2,5)              106.8083         -DE/DX =    0.0                 !
 ! A4    A(3,2,4)              111.9978         -DE/DX =    0.0                 !
 ! A5    A(3,2,5)              111.9978         -DE/DX =    0.0                 !
 ! A6    A(4,2,5)              111.9978         -DE/DX =    0.0                 !
 ! A7    A(2,3,6)               85.7315         -DE/DX =    0.0                 !
 ! A8    A(2,4,6)               85.7315         -DE/DX =    0.0                 !
 ! A9    A(2,5,6)               85.7315         -DE/DX =    0.0                 !
 ! A10   A(3,6,4)               36.292          -DE/DX =    0.0                 !
 ! A11   A(3,6,5)               36.292          -DE/DX =    0.0                 !
 ! A12   A(4,6,5)               36.292          -DE/DX =    0.0                 !
 ! D1    D(1,2,3,6)            180.0            -DE/DX =    0.0                 !
 ! D2    D(4,2,3,6)             63.3957         -DE/DX =    0.0                 !
 ! D3    D(5,2,3,6)            -63.3957         -DE/DX =    0.0                 !
 ! D4    D(1,2,4,6)           -180.0            -DE/DX =    0.0                 !
 ! D5    D(3,2,4,6)            -63.3957         -DE/DX =    0.0                 !
 ! D6    D(5,2,4,6)             63.3957         -DE/DX =    0.0                 !
 ! D7    D(1,2,5,6)            180.0            -DE/DX =    0.0                 !
 ! D8    D(3,2,5,6)             63.3957         -DE/DX =    0.0                 !
 ! D9    D(4,2,5,6)            -63.3957         -DE/DX =    0.0                 !
 ! D10   D(2,3,6,4)            -31.7469         -DE/DX =    0.0                 !
 ! D11   D(2,3,6,5)             31.7469         -DE/DX =    0.0                 !
 ! D12   D(2,4,6,3)             31.7469         -DE/DX =    0.0                 !
 ! D13   D(2,4,6,5)            -31.7469         -DE/DX =    0.0                 !
 ! D14   D(2,5,6,3)            -31.7469         -DE/DX =    0.0                 !
 ! D15   D(2,5,6,4)             31.7469         -DE/DX =    0.0                 !
 --------------------------------------------------------------------------------
 Lowest energy point so far.  Saving SCF results.
 Largest change from initial coordinates is atom    2       0.053 Angstoms.
 GradGradGradGradGradGradGradGradGradGradGradGradGradGradGradGradGradGrad

 Leave Link  103 at Wed Oct  7 14:48:05 2020, MaxMem=  2684354560 cpu:              13.6 elap:               1.6
 (Enter /udrive/faculty/rpeverati/g16/g16/l202.exe)
                          Input orientation:                          
 ---------------------------------------------------------------------
 Center     Atomic      Atomic             Coordinates (Angstroms)
 Number     Number       Type             X           Y           Z
 ---------------------------------------------------------------------
      1         17           0        0.000000   -0.000000   -2.273775
      2          6           0        0.000000   -0.000000   -0.339426
      3          1           0       -0.522077    0.904263   -0.024013
      4          1           0       -0.522077   -0.904263   -0.024013
      5          1           0        1.044153   -0.000000   -0.024013
      6         17           0        0.000000   -0.000000    2.685239
 ---------------------------------------------------------------------
                    Distance matrix (angstroms):
                    1          2          3          4          5
     1  Cl   0.000000
     2  C    1.934349   0.000000
     3  H    2.480259   1.090752   0.000000
     4  H    2.480259   1.090752   1.808526   0.000000
     5  H    2.480259   1.090752   1.808526   1.808526   0.000000
     6  Cl   4.959014   3.024665   2.903498   2.903498   2.903498
                    6
     6  Cl   0.000000
 Stoichiometry    CH3Cl2(1-)
 Framework group  C3V[C3(ClCCl),3SGV(H)]
 Deg. of freedom     4
 Full point group                 C3V     NOp   6
 RotChk:  IX=0 Diff= 0.00D+00
 Largest Abelian subgroup         CS      NOp   2
 Largest concise Abelian subgroup CS      NOp   2
                         Standard orientation:                         
 ---------------------------------------------------------------------
 Center     Atomic      Atomic             Coordinates (Angstroms)
 Number     Number       Type             X           Y           Z
 ---------------------------------------------------------------------
      1         17           0        0.000000    0.000000   -2.387410
      2          6           0        0.000000    0.000000   -0.453060
      3          1           0       -0.000000    1.044153   -0.137648
      4          1           0       -0.904263   -0.522077   -0.137648
      5          1           0        0.904263   -0.522077   -0.137648
      6         17           0        0.000000    0.000000    2.571604
 ---------------------------------------------------------------------
 Rotational constants (GHZ):         153.3142187           1.1625080           1.1625080
 Leave Link  202 at Wed Oct  7 14:48:05 2020, MaxMem=  2684354560 cpu:               1.6 elap:               0.7
 (Enter /udrive/faculty/rpeverati/g16/g16/l601.exe)
 Copying SCF densities to generalized density rwf, IOpCl= 0 IROHF=0.

 **********************************************************************

            Population analysis using the SCF density.

 **********************************************************************

 Orbital symmetries:
       Occupied  (A1) (A1) (A1) (A1) (A1) (A1) (E) (E) (A1) (E)
                 (E) (A1) (A1) (A1) (E) (E) (A1) (E) (E) (A1) (E)
                 (E)
       Virtual   (A1) (A1) (E) (E) (A1) (A1) (E) (E) (A1) (E) (E)
                 (A1) (E) (E) (A1) (E) (E) (A1) (E) (E) (E) (E)
                 (A1) (E) (E) (E) (E) (A1) (A1) (E) (E) (A1) (E)
                 (E)
 The electronic state is 1-A1.
 Alpha  occ. eigenvalues -- -100.56162-100.41502  -9.80999  -9.00548  -8.85467
 Alpha  occ. eigenvalues --   -6.83793  -6.82848  -6.82848  -6.68226  -6.68078
 Alpha  occ. eigenvalues --   -6.68078  -0.58801  -0.44843  -0.40088  -0.22683
 Alpha  occ. eigenvalues --   -0.22683  -0.19154  -0.10325  -0.10325   0.01441
 Alpha  occ. eigenvalues --    0.01958   0.01958
 Alpha virt. eigenvalues --    0.12860   0.24282   0.28624   0.28624   0.50130
 Alpha virt. eigenvalues --    0.55939   0.56033   0.56033   0.58848   0.63456
 Alpha virt. eigenvalues --    0.63456   0.67479   0.68573   0.68573   0.89245
 Alpha virt. eigenvalues --    0.95712   0.95712   0.97602   0.99865   0.99865
 Alpha virt. eigenvalues --    1.02714   1.02714   1.09860   1.12265   1.12265
 Alpha virt. eigenvalues --    1.12816   1.12816   1.19633   1.37865   1.76766
 Alpha virt. eigenvalues --    1.76766   2.18357   2.30223   2.30223
          Condensed to atoms (all electrons):
               1          2          3          4          5          6
     1  Cl  17.288429   0.104219  -0.034539  -0.034539  -0.034539   0.003413
     2  C    0.104219   5.185551   0.372246   0.372246   0.372246   0.000029
     3  H   -0.034539   0.372246   0.514603  -0.025580  -0.025580   0.008416
     4  H   -0.034539   0.372246  -0.025580   0.514603  -0.025580   0.008416
     5  H   -0.034539   0.372246  -0.025580  -0.025580   0.514603   0.008416
     6  Cl   0.003413   0.000029   0.008416   0.008416   0.008416  17.843632
 Mulliken charges:
               1
     1  Cl  -0.292445
     2  C   -0.406536
     3  H    0.190434
     4  H    0.190434
     5  H    0.190434
     6  Cl  -0.872322
 Sum of Mulliken charges =  -1.00000
 Mulliken charges with hydrogens summed into heavy atoms:
               1
     1  Cl  -0.292445
     2  C    0.164766
     6  Cl  -0.872322
 Electronic spatial extent (au):  <R**2>=            871.5189
 Charge=             -1.0000 electrons
 Dipole moment (field-independent basis, Debye):
    X=             -0.0000    Y=             -0.0000    Z=             -6.5867  Tot=              6.5867
 Quadrupole moment (field-independent basis, Debye-Ang):
   XX=            -35.5555   YY=            -35.5555   ZZ=            -73.8119
   XY=             -0.0000   XZ=             -0.0000   YZ=              0.0000
 Traceless Quadrupole moment (field-independent basis, Debye-Ang):
   XX=             12.7521   YY=             12.7521   ZZ=            -25.5043
   XY=             -0.0000   XZ=             -0.0000   YZ=              0.0000
 Octapole moment (field-independent basis, Debye-Ang**2):
  XXX=             -0.0000  YYY=              0.7801  ZZZ=            -60.7852  XYY=              0.0000
  XXY=             -0.7801  XXZ=             -3.8212  XZZ=              0.0000  YZZ=             -0.0000
  YYZ=             -3.8212  XYZ=              0.0000
 Hexadecapole moment (field-independent basis, Debye-Ang**3):
 XXXX=            -47.2733 YYYY=            -47.2733 ZZZZ=          -1317.7828 XXXY=              0.0000
 XXXZ=              0.0000 YYYX=              0.0000 YYYZ=             -0.1203 ZZZX=              0.0000
 ZZZY=             -0.0000 XXYY=            -15.7578 XXZZ=           -195.7913 YYZZ=           -195.7913
 XXYZ=              0.1203 YYXZ=             -0.0000 ZZXY=              0.0000
 N-N= 1.063751697473D+02 E-N=-2.503668965305D+03  KE= 9.581933112987D+02
 No NMR shielding tensors so no spin-rotation constants.
 Leave Link  601 at Wed Oct  7 14:48:07 2020, MaxMem=  2684354560 cpu:              13.1 elap:               1.6
 (Enter /udrive/faculty/rpeverati/g16/g16/l9999.exe)

 Test job not archived.
 1\1\GINC-NODE53\FOpt\RBLYP\6-31G(d)\C1H3Cl2(1-)\RPEVERATI\07-Oct-2020\
 0\\#P Opt(MaxCyc=100) BLYP/6-31G* 5D 7F Integral=UltraFineGrid SCF=(No
 Symm,XQC,MaxCyc=120) IOp(1/33=1)\\TS search on BH76.\\-1,1\Cl,0.,0.,-2
 .2737748502\C,0.,0.,-0.3394255029\H,-0.5220765519,0.9042631133,-0.0240
 129204\H,-0.5220765519,-0.9042631133,-0.0240129204\H,1.0441531038,0.,-
 0.0240129204\Cl,0.,0.,2.685239128\\Version=ES64L-G16RevA.03\State=1-A1
 \HF=-960.2959756\RMSD=7.964e-09\RMSF=1.873e-05\Dipole=0.,0.,-2.5913991
 \Quadrupole=9.4808991,9.4808991,-18.9617982,0.,0.,0.\PG=C03V [C3(Cl1C1
 Cl1),3SGV(H1)]\\@


 NECESSARY EVIL: ONE WE LIKE TOO MUCH TO RELINQUISH.
 Job cpu time:       0 days  0 hours 13 minutes 52.5 seconds.
 Elapsed time:       0 days  0 hours  1 minutes 58.8 seconds.
 File lengths (MBytes):  RWF=      5 Int=      0 D2E=      0 Chk=      1 Scr=      1
 Normal termination of Gaussian 16 at Wed Oct  7 14:48:09 2020.
