 Entering Gaussian System, Link 0=g16
 Input=MN_38_fch3fcomp_BH76_BLYP_631Gs.in
 Output=MN_38_fch3fcomp_BH76_BLYP_631Gs.log
 Initial command:
 /udrive/faculty/rpeverati/g16/g16/l1.exe "/udrive/scratch-directories/gaussian09/rpeverati/Gau-38605.inp" -scrdir="/udrive/scratch-directories/gaussian09/rpeverati/"
 Entering Link 1 = /udrive/faculty/rpeverati/g16/g16/l1.exe PID=     38606.
  
 Copyright (c) 1988,1990,1992,1993,1995,1998,2003,2009,2016,
            Gaussian, Inc.  All Rights Reserved.
  
 This is part of the Gaussian(R) 16 program.  It is based on
 the Gaussian(R) 09 system (copyright 2009, Gaussian, Inc.),
 the Gaussian(R) 03 system (copyright 2003, Gaussian, Inc.),
 the Gaussian(R) 98 system (copyright 1998, Gaussian, Inc.),
 the Gaussian(R) 94 system (copyright 1995, Gaussian, Inc.),
 the Gaussian 92(TM) system (copyright 1992, Gaussian, Inc.),
 the Gaussian 90(TM) system (copyright 1990, Gaussian, Inc.),
 the Gaussian 88(TM) system (copyright 1988, Gaussian, Inc.),
 the Gaussian 86(TM) system (copyright 1986, Carnegie Mellon
 University), and the Gaussian 82(TM) system (copyright 1983,
 Carnegie Mellon University). Gaussian is a federally registered
 trademark of Gaussian, Inc.
  
 This software contains proprietary and confidential information,
 including trade secrets, belonging to Gaussian, Inc.
  
 This software is provided under written license and may be
 used, copied, transmitted, or stored only in accord with that
 written license.
  
 The following legend is applicable only to US Government
 contracts under FAR:
  
                    RESTRICTED RIGHTS LEGEND
  
 Use, reproduction and disclosure by the US Government is
 subject to restrictions as set forth in subparagraphs (a)
 and (c) of the Commercial Computer Software - Restricted
 Rights clause in FAR 52.227-19.
  
 Gaussian, Inc.
 340 Quinnipiac St., Bldg. 40, Wallingford CT 06492
  
  
 ---------------------------------------------------------------
 Warning -- This program may not be used in any manner that
 competes with the business of Gaussian, Inc. or will provide
 assistance to any competitor of Gaussian, Inc.  The licensee
 of this program is prohibited from giving any competitor of
 Gaussian, Inc. access to this program.  By using this program,
 the user acknowledges that Gaussian, Inc. is engaged in the
 business of creating and licensing software in the field of
 computational chemistry and represents and warrants to the
 licensee that it is not a competitor of Gaussian, Inc. and that
 it will not use this program in any manner prohibited above.
 ---------------------------------------------------------------
  

 Cite this work as:
 Gaussian 16, Revision A.03,
 M. J. Frisch, G. W. Trucks, H. B. Schlegel, G. E. Scuseria, 
 M. A. Robb, J. R. Cheeseman, G. Scalmani, V. Barone, 
 G. A. Petersson, H. Nakatsuji, X. Li, M. Caricato, A. V. Marenich, 
 J. Bloino, B. G. Janesko, R. Gomperts, B. Mennucci, H. P. Hratchian, 
 J. V. Ortiz, A. F. Izmaylov, J. L. Sonnenberg, D. Williams-Young, 
 F. Ding, F. Lipparini, F. Egidi, J. Goings, B. Peng, A. Petrone, 
 T. Henderson, D. Ranasinghe, V. G. Zakrzewski, J. Gao, N. Rega, 
 G. Zheng, W. Liang, M. Hada, M. Ehara, K. Toyota, R. Fukuda, 
 J. Hasegawa, M. Ishida, T. Nakajima, Y. Honda, O. Kitao, H. Nakai, 
 T. Vreven, K. Throssell, J. A. Montgomery, Jr., J. E. Peralta, 
 F. Ogliaro, M. J. Bearpark, J. J. Heyd, E. N. Brothers, K. N. Kudin, 
 V. N. Staroverov, T. A. Keith, R. Kobayashi, J. Normand, 
 K. Raghavachari, A. P. Rendell, J. C. Burant, S. S. Iyengar, 
 J. Tomasi, M. Cossi, J. M. Millam, M. Klene, C. Adamo, R. Cammi, 
 J. W. Ochterski, R. L. Martin, K. Morokuma, O. Farkas, 
 J. B. Foresman, and D. J. Fox, Gaussian, Inc., Wallingford CT, 2016.
 
 ******************************************
 Gaussian 16:  ES64L-G16RevA.03 25-Dec-2016
                 7-Oct-2020 
 ******************************************
 %NoSave
 %nproc=12
 Will use up to   12 processors via shared memory.
 %mem=20GB
 %chk=MN_38_fch3fcomp_BH76_BLYP_631Gs
 ----------------------------------------------------------------------
 #P Opt(MaxCyc=100) BLYP/6-31G* 5D 7F Integral=UltraFineGrid SCF=(NoSym
 m,XQC,MaxCyc=120) IOp(1/33=1)
 ----------------------------------------------------------------------
 1/6=100,18=20,19=15,26=4,33=1,38=1/1,3;
 2/9=110,12=2,17=6,18=5,40=1/2;
 3/5=1,6=6,7=1,8=11,11=2,25=1,30=1,71=1,74=402,75=-5/1,2,3;
 4/9=2/1;
 5/5=2,7=120,8=3,13=1,38=5/2,8;
 6/7=2,8=2,9=2,10=2,28=1/1;
 7//1,2,3,16;
 1/6=100,18=20,19=15,26=4,33=1/3(2);
 2/9=110/2;
 99//99;
 2/9=110/2;
 3/5=1,6=6,7=1,8=11,11=2,25=1,30=1,71=1,74=402,75=-5/1,2,3;
 4/5=5,9=2,16=3,69=1/1;
 5/5=2,7=120,8=3,13=1,38=5/2,8;
 7//1,2,3,16;
 1/6=100,18=20,19=15,26=4,33=1/3(-5);
 2/9=110/2;
 6/7=2,8=2,9=2,10=2,19=2,28=1/1;
 99/9=1/99;
 Leave Link    1 at Wed Oct  7 14:46:12 2020, MaxMem=  2684354560 cpu:               6.4 elap:               0.8
 (Enter /udrive/faculty/rpeverati/g16/g16/l101.exe)
 ONIOM data not found on unit 2.
 ------------------
 TS search on BH76.
 ------------------
 TstMul:  ICh=    -1
 TstMul:  Mul=     1
 TstMul:  ICh=    -1
 TstMul:  Mul=     1
 Symbolic Z-matrix:
 Charge = -1 Multiplicity = 1
 F                     0.        0.       -1.79137 
 C                     0.        0.       -0.36562 
 H                    -0.51179   0.88645  -0.01759 
 H                    -0.51179  -0.88645  -0.01759 
 H                     1.02358   0.       -0.01759 
 F                     0.        0.        2.20975 
 
 RdStrC is calling ZToCFu for IStruc=1 NZ=     6.
 PrtBox:  NBox=     1 Levels=  1 BoxLen=    8.00 SMaxX=        7.56
          Shift=            0.967145            1.675144            3.385201
 Box      1 Number                   0 centers from      1 to      6:
 After GenITR:
 ITRead=  0  0  0  0  0  0
 MicOpt= -1 -1 -1 -1 -1 -1
 Add virtual bond connecting atoms F6         and C2         Dist= 4.87D+00.
 Add virtual bond connecting atoms F6         and H3         Dist= 4.63D+00.
 Add virtual bond connecting atoms F6         and H4         Dist= 4.63D+00.
 Add virtual bond connecting atoms F6         and H5         Dist= 4.63D+00.
 Add atom      6 valence  4 ND=      0 dihedral       4      3      6      2
 Add atom      6 valence  4 ND=      0 dihedral       5      3      6      2
 Add atom      6 valence  4 ND=      0 dihedral       5      4      6      2
 ITRead=  0  0  0  0  0  0
 MicOpt= -1 -1 -1 -1 -1 -1
 NAtoms=      6 NQM=        6 NQMF=       0 NMMI=      0 NMMIF=      0
                NMic=       0 NMicF=      0.
                    Isotopes and Nuclear Properties:
 (Nuclear quadrupole moments (NQMom) in fm**2, nuclear magnetic moments (NMagM)
  in nuclear magnetons)

  Atom         1           2           3           4           5           6
 IAtWgt=          19          12           1           1           1          19
 AtmWgt=  18.9984033  12.0000000   1.0078250   1.0078250   1.0078250  18.9984033
 NucSpn=           1           0           1           1           1           1
 AtZEff=   0.0000000   0.0000000   0.0000000   0.0000000   0.0000000   0.0000000
 NQMom=    0.0000000   0.0000000   0.0000000   0.0000000   0.0000000   0.0000000
 NMagM=    2.6288670   0.0000000   2.7928460   2.7928460   2.7928460   2.6288670
 AtZNuc=   9.0000000   6.0000000   1.0000000   1.0000000   1.0000000   9.0000000
 No MM parameters found.
 Leave Link  101 at Wed Oct  7 14:46:14 2020, MaxMem=  2684354560 cpu:              13.9 elap:               1.4
 (Enter /udrive/faculty/rpeverati/g16/g16/l103.exe)

 GradGradGradGradGradGradGradGradGradGradGradGradGradGradGradGradGradGrad
 Berny optimization.
 Optmz: redundant internal coordinate code flag= 1
 Initialization pass.
                           ----------------------------
                           !    Initial Parameters    !
                           ! (Angstroms and Degrees)  !
 --------------------------                            --------------------------
 ! Name  Definition              Value          Derivative Info.                !
 --------------------------------------------------------------------------------
 ! R1    R(1,2)                  1.4258         estimate D2E/DX2                !
 ! R2    R(2,3)                  1.0811         estimate D2E/DX2                !
 ! R3    R(2,4)                  1.0811         estimate D2E/DX2                !
 ! R4    R(2,5)                  1.0811         estimate D2E/DX2                !
 ! R5    R(2,6)                  2.5754         estimate D2E/DX2                !
 ! R6    R(3,6)                  2.4513         estimate D2E/DX2                !
 ! R7    R(4,6)                  2.4513         estimate D2E/DX2                !
 ! R8    R(5,6)                  2.4513         estimate D2E/DX2                !
 ! A1    A(1,2,3)              108.7787         estimate D2E/DX2                !
 ! A2    A(1,2,4)              108.7787         estimate D2E/DX2                !
 ! A3    A(1,2,5)              108.7787         estimate D2E/DX2                !
 ! A4    A(3,2,4)              110.1548         estimate D2E/DX2                !
 ! A5    A(3,2,5)              110.1548         estimate D2E/DX2                !
 ! A6    A(4,2,5)              110.1548         estimate D2E/DX2                !
 ! A7    A(3,6,4)               42.4004         estimate D2E/DX2                !
 ! A8    A(3,6,5)               42.4004         estimate D2E/DX2                !
 ! A9    A(4,6,5)               42.4004         estimate D2E/DX2                !
 ! A10   L(1,2,6,3,-1)         180.0            estimate D2E/DX2                !
 ! A11   L(1,2,6,3,-2)         180.0            estimate D2E/DX2                !
 ! D1    D(3,2,5,4)            121.7146         estimate D2E/DX2                !
 ! D2    D(4,3,6,2)             32.4318         estimate D2E/DX2                !
 ! D3    D(5,3,6,2)            -32.4318         estimate D2E/DX2                !
 ! D4    D(5,4,6,2)             32.4318         estimate D2E/DX2                !
 --------------------------------------------------------------------------------
 Maximum allowed force set to 1.00D+20.
 Trust Radius=3.00D-01 FncErr=1.00D-07 GrdErr=1.00D-06 EigMax=2.50D+02 EigMin=1.00D-04
 Number of steps in this run=    100 maximum allowed number of steps=    100.
 GradGradGradGradGradGradGradGradGradGradGradGradGradGradGradGradGradGrad

 Leave Link  103 at Wed Oct  7 14:46:15 2020, MaxMem=  2684354560 cpu:               1.6 elap:               0.6
 (Enter /udrive/faculty/rpeverati/g16/g16/l202.exe)
                          Input orientation:                          
 ---------------------------------------------------------------------
 Center     Atomic      Atomic             Coordinates (Angstroms)
 Number     Number       Type             X           Y           Z
 ---------------------------------------------------------------------
      1          9           0        0.000000    0.000000   -1.791371
      2          6           0        0.000000    0.000000   -0.365617
      3          1           0       -0.511791    0.886448   -0.017587
      4          1           0       -0.511791   -0.886448   -0.017587
      5          1           0        1.023582    0.000000   -0.017587
      6          9           0        0.000000    0.000000    2.209748
 ---------------------------------------------------------------------
                    Distance matrix (angstroms):
                    1          2          3          4          5
     1  F    0.000000
     2  C    1.425754   0.000000
     3  H    2.047934   1.081132   0.000000
     4  H    2.047934   1.081132   1.772896   0.000000
     5  H    2.047934   1.081132   1.772896   1.772896   0.000000
     6  F    4.001119   2.575365   2.451273   2.451273   2.451273
                    6
     6  F    0.000000
 Stoichiometry    CH3F2(1-)
 Framework group  C3V[C3(FCF),3SGV(H)]
 Deg. of freedom     4
 Full point group                 C3V     NOp   6
 Largest Abelian subgroup         CS      NOp   2
 Largest concise Abelian subgroup CS      NOp   2
                         Standard orientation:                         
 ---------------------------------------------------------------------
 Center     Atomic      Atomic             Coordinates (Angstroms)
 Number     Number       Type             X           Y           Z
 ---------------------------------------------------------------------
      1          9           0        0.000000    0.000000   -1.847628
      2          6           0        0.000000    0.000000   -0.421874
      3          1           0       -0.000000    1.023582   -0.073843
      4          1           0       -0.886448   -0.511791   -0.073843
      5          1           0        0.886448   -0.511791   -0.073843
      6          9           0        0.000000    0.000000    2.153492
 ---------------------------------------------------------------------
 Rotational constants (GHZ):         159.5384480           3.2253044           3.2253044
 Leave Link  202 at Wed Oct  7 14:46:16 2020, MaxMem=  2684354560 cpu:               1.6 elap:               0.6
 (Enter /udrive/faculty/rpeverati/g16/g16/l301.exe)
 Standard basis: 6-31G(d) (5D, 7F)
 Ernie: Thresh=  0.10000D-02 Tol=  0.10000D-05 Strict=F.
 There are    37 symmetry adapted cartesian basis functions of A'  symmetry.
 There are    14 symmetry adapted cartesian basis functions of A"  symmetry.
 There are    34 symmetry adapted basis functions of A'  symmetry.
 There are    14 symmetry adapted basis functions of A"  symmetry.
    48 basis functions,    96 primitive gaussians,    51 cartesian basis functions
    14 alpha electrons       14 beta electrons
       nuclear repulsion energy        64.3622347508 Hartrees.
 IExCor=  402 DFT=T Ex=B Corr=LYP ExCW=0 ScaHFX=  0.000000
 ScaDFX=  1.000000  1.000000  1.000000  1.000000 ScalE2=  1.000000  1.000000
 IRadAn=      5 IRanWt=     -1 IRanGd=            0 ICorTp=0 IEmpDi=  4
 NAtoms=    6 NActive=    6 NUniq=    4 SFac= 2.25D+00 NAtFMM=   60 NAOKFM=F Big=F
 Integral buffers will be    131072 words long.
 Raffenetti 2 integral format.
 Two-electron integral symmetry is turned on.
 Leave Link  301 at Wed Oct  7 14:46:17 2020, MaxMem=  2684354560 cpu:               2.3 elap:               0.7
 (Enter /udrive/faculty/rpeverati/g16/g16/l302.exe)
 NPDir=0 NMtPBC=     1 NCelOv=     1 NCel=       1 NClECP=     1 NCelD=      1
         NCelK=      1 NCelE2=     1 NClLst=     1 CellRange=     0.0.
 One-electron integrals computed using PRISM.
 One-electron integral symmetry used in STVInt
 NBasis=    48 RedAO= T EigKep=  1.87D-02  NBF=    34    14
 NBsUse=    48 1.00D-06 EigRej= -1.00D+00 NBFU=    34    14
 Precomputing XC quadrature grid using
 IXCGrd= 4 IRadAn=           5 IRanWt=          -1 IRanGd=           0 AccXCQ= 0.00D+00.
 Generated NRdTot=       0 NPtTot=           0 NUsed=           0 NTot=          32
 NSgBfM=    51    51    51    51    51 MxSgAt=     6 MxSgA2=     6.
 Leave Link  302 at Wed Oct  7 14:46:18 2020, MaxMem=  2684354560 cpu:               3.6 elap:               0.8
 (Enter /udrive/faculty/rpeverati/g16/g16/l303.exe)
 DipDrv:  MaxL=1.
 Leave Link  303 at Wed Oct  7 14:46:19 2020, MaxMem=  2684354560 cpu:               3.1 elap:               0.7
 (Enter /udrive/faculty/rpeverati/g16/g16/l401.exe)
 SCF N**3 symmetry information disabled.
 ExpMin= 1.61D-01 ExpMax= 7.00D+03 ExpMxC= 1.05D+03 IAcc=3 IRadAn=         5 AccDes= 0.00D+00
 Harris functional with IExCor=  402 and IRadAn=       5 diagonalized for initial guess.
 HarFok:  IExCor=  402 AccDes= 0.00D+00 IRadAn=         5 IDoV= 1 UseB2=F ITyADJ=14
 ICtDFT=  3500011 ScaDFX=  1.000000  1.000000  1.000000  1.000000
 FoFCou: FMM=F IPFlag=           0 FMFlag=      100000 FMFlg1=           0
         NFxFlg=           0 DoJE=T BraDBF=F KetDBF=T FulRan=T
         wScrn=  0.000000 ICntrl=       500 IOpCl=  0 I1Cent=   200000004 NGrid=           0
         NMat0=    1 NMatS0=      1 NMatT0=    0 NMatD0=    1 NMtDS0=    0 NMtDT0=    0
 Petite list used in FoFCou.
 Harris En= -239.792866166424    
 JPrj=0 DoOrth=F DoCkMO=F.
 Initial guess orbital symmetries:
       Occupied  (A1) (A1) (A1) (A1) (A1) (A1) (A1) (E) (E) (E)
                 (E) (A1) (E) (E)
       Virtual   (A1) (A1) (E) (E) (A1) (E) (E) (E) (E) (A1) (A1)
                 (E) (E) (A1) (E) (E) (A1) (E) (E) (A1) (E) (E)
                 (E) (E) (E) (E) (A1) (A1) (A1) (E) (E) (E) (E)
                 (A1)
 The electronic state of the initial guess is 1-A1.
 Leave Link  401 at Wed Oct  7 14:46:21 2020, MaxMem=  2684354560 cpu:               4.9 elap:               0.8
 (Enter /udrive/faculty/rpeverati/g16/g16/l502.exe)
 Keep J ints in memory in symmetry-blocked form, NReq=11153107.
 FoFCou: FMM=F IPFlag=           0 FMFlag=           0 FMFlg1=           0
         NFxFlg=           0 DoJE=F BraDBF=F KetDBF=F FulRan=T
         wScrn=  0.000000 ICntrl=       600 IOpCl=  0 I1Cent=           0 NGrid=           0
         NMat0=    1 NMatS0=   1176 NMatT0=    0 NMatD0=    1 NMtDS0=    0 NMtDT0=    0
 Petite list used in FoFCou.
 Closed shell SCF:
 Using DIIS extrapolation, IDIIS=  1040.
 NGot=  2684354560 LenX=  2683985987 LenY=  2683982945
 Requested convergence on RMS density matrix=1.00D-08 within 120 cycles.
 Requested convergence on MAX density matrix=1.00D-06.
 Requested convergence on             energy=1.00D-06.
 No special actions if energy rises.
 Integral accuracy reduced to 1.0D-05 until final iterations.

 Cycle   1  Pass 0  IDiag  1:
 E= -239.323276937000    
 DIIS: error= 9.70D-02 at cycle   1 NSaved=   1.
 NSaved= 1 IEnMin= 1 EnMin= -239.323276937000     IErMin= 1 ErrMin= 9.70D-02
 ErrMax= 9.70D-02  0.00D+00 EMaxC= 1.00D-01 BMatC= 2.03D-01 BMatP= 2.03D-01
 IDIUse=3 WtCom= 3.03D-02 WtEn= 9.70D-01
 Coeff-Com:  0.100D+01
 Coeff-En:   0.100D+01
 Coeff:      0.100D+01
 Gap=     0.106 Goal=   None    Shift=    0.000
 GapD=    0.106 DampG=1.000 DampE=0.500 DampFc=0.5000 IDamp=-1.
 Damping current iteration by 5.00D-01
 RMSDP=2.38D-01 MaxDP=5.63D+00              OVMax= 9.72D-01

 Cycle   2  Pass 0  IDiag  1:
 Density matrix breaks symmetry, PCut= 1.00D-04
 Density matrix has no symmetry -- integrals replicated.
 E= -237.594705185162     Delta-E=        1.728571751839 Rises=F Damp=T
 DIIS: error= 1.61D-01 at cycle   2 NSaved=   2.
 NSaved= 2 IEnMin= 1 EnMin= -239.323276937000     IErMin= 1 ErrMin= 9.70D-02
 ErrMax= 1.61D-01  0.00D+00 EMaxC= 1.00D-01 BMatC= 7.55D-01 BMatP= 2.03D-01
 IDIUse=2 WtCom= 0.00D+00 WtEn= 1.00D+00
 Coeff-En:   0.922D+00 0.777D-01
 Coeff:      0.922D+00 0.777D-01
 Gap=    -0.001 Goal=   None    Shift=    0.000
 RMSDP=1.16D-01 MaxDP=2.76D+00 DE= 1.73D+00 OVMax= 1.00D+00

 Cycle   3  Pass 0  IDiag  1:
 Density matrix breaks symmetry, PCut= 1.00D-04
 Density matrix has no symmetry -- integrals replicated.
 E= -239.223554387179     Delta-E=       -1.628849202017 Rises=F Damp=F
 DIIS: error= 1.26D-01 at cycle   3 NSaved=   3.
 NSaved= 3 IEnMin= 1 EnMin= -239.323276937000     IErMin= 1 ErrMin= 9.70D-02
 ErrMax= 1.26D-01  0.00D+00 EMaxC= 1.00D-01 BMatC= 3.65D-01 BMatP= 2.03D-01
 IDIUse=2 WtCom= 0.00D+00 WtEn= 1.00D+00
 Coeff-En:   0.601D+00 0.000D+00 0.399D+00
 Coeff:      0.601D+00 0.000D+00 0.399D+00
 Gap=     0.141 Goal=   None    Shift=    0.000
 RMSDP=1.58D-02 MaxDP=1.50D-01 DE=-1.63D+00 OVMax= 1.98D-01

 Cycle   4  Pass 0  IDiag  1:
 Density matrix breaks symmetry, PCut= 1.00D-04
 Density has only Abelian symmetry.
 E= -239.470771083082     Delta-E=       -0.247216695902 Rises=F Damp=F
 DIIS: error= 9.18D-03 at cycle   1 NSaved=   1.
 NSaved= 1 IEnMin= 1 EnMin= -239.470771083082     IErMin= 1 ErrMin= 9.18D-03
 ErrMax= 9.18D-03  0.00D+00 EMaxC= 1.00D-01 BMatC= 3.13D-03 BMatP= 3.13D-03
 IDIUse=3 WtCom= 9.08D-01 WtEn= 9.18D-02
 Coeff-Com:  0.100D+01
 Coeff-En:   0.100D+01
 Coeff:      0.100D+01
 Gap=     0.117 Goal=   None    Shift=    0.000
 RMSDP=3.18D-03 MaxDP=2.74D-02 DE=-2.47D-01 OVMax= 5.40D-02

 Cycle   5  Pass 0  IDiag  1:
 Density matrix breaks symmetry, PCut= 1.00D-04
 Density has only Abelian symmetry.
 E= -239.467413290013     Delta-E=        0.003357793069 Rises=F Damp=F
 DIIS: error= 1.31D-02 at cycle   2 NSaved=   2.
 NSaved= 2 IEnMin= 1 EnMin= -239.470771083082     IErMin= 1 ErrMin= 9.18D-03
 ErrMax= 1.31D-02  0.00D+00 EMaxC= 1.00D-01 BMatC= 6.83D-03 BMatP= 3.13D-03
 IDIUse=2 WtCom= 0.00D+00 WtEn= 1.00D+00
 Coeff-En:   0.666D+00 0.334D+00
 Coeff:      0.666D+00 0.334D+00
 Gap=     0.136 Goal=   None    Shift=    0.000
 RMSDP=2.04D-03 MaxDP=1.58D-02 DE= 3.36D-03 OVMax= 3.95D-02

 Cycle   6  Pass 0  IDiag  1:
 E= -239.473366864190     Delta-E=       -0.005953574177 Rises=F Damp=F
 DIIS: error= 4.25D-03 at cycle   1 NSaved=   1.
 NSaved= 1 IEnMin= 1 EnMin= -239.473366864190     IErMin= 1 ErrMin= 4.25D-03
 ErrMax= 4.25D-03  0.00D+00 EMaxC= 1.00D-01 BMatC= 4.24D-04 BMatP= 4.24D-04
 IDIUse=3 WtCom= 9.58D-01 WtEn= 4.25D-02
 Coeff-Com:  0.100D+01
 Coeff-En:   0.100D+01
 Coeff:      0.100D+01
 Gap=     0.123 Goal=   None    Shift=    0.000
 RMSDP=1.23D-03 MaxDP=1.13D-02 DE=-5.95D-03 OVMax= 1.86D-02

 Cycle   7  Pass 0  IDiag  1:
 E= -239.472762924000     Delta-E=        0.000603940190 Rises=F Damp=F
 DIIS: error= 8.05D-03 at cycle   2 NSaved=   2.
 NSaved= 2 IEnMin= 1 EnMin= -239.473366864190     IErMin= 1 ErrMin= 4.25D-03
 ErrMax= 8.05D-03  0.00D+00 EMaxC= 1.00D-01 BMatC= 1.31D-03 BMatP= 4.24D-04
 IDIUse=3 WtCom= 1.00D-01 WtEn= 9.00D-01
 Coeff-Com:  0.640D+00 0.360D+00
 Coeff-En:   0.719D+00 0.281D+00
 Coeff:      0.711D+00 0.289D+00
 Gap=     0.132 Goal=   None    Shift=    0.000
 RMSDP=8.14D-04 MaxDP=7.21D-03 DE= 6.04D-04 OVMax= 1.39D-02

 Cycle   8  Pass 0  IDiag  1:
 E= -239.473627299388     Delta-E=       -0.000864375388 Rises=F Damp=F
 DIIS: error= 1.10D-03 at cycle   3 NSaved=   3.
 NSaved= 3 IEnMin= 3 EnMin= -239.473627299388     IErMin= 3 ErrMin= 1.10D-03
 ErrMax= 1.10D-03  0.00D+00 EMaxC= 1.00D-01 BMatC= 4.14D-05 BMatP= 4.24D-04
 IDIUse=3 WtCom= 9.89D-01 WtEn= 1.10D-02
 Coeff-Com:  0.378D+00 0.152D+00 0.471D+00
 Coeff-En:   0.419D-01 0.000D+00 0.958D+00
 Coeff:      0.374D+00 0.150D+00 0.476D+00
 Gap=     0.132 Goal=   None    Shift=    0.000
 RMSDP=1.23D-04 MaxDP=1.54D-03 DE=-8.64D-04 OVMax= 1.43D-03

 Cycle   9  Pass 0  IDiag  1:
 E= -239.473661481007     Delta-E=       -0.000034181619 Rises=F Damp=F
 DIIS: error= 1.03D-04 at cycle   4 NSaved=   4.
 NSaved= 4 IEnMin= 4 EnMin= -239.473661481007     IErMin= 4 ErrMin= 1.03D-04
 ErrMax= 1.03D-04  0.00D+00 EMaxC= 1.00D-01 BMatC= 5.68D-07 BMatP= 4.14D-05
 IDIUse=3 WtCom= 9.99D-01 WtEn= 1.03D-03
 Coeff-Com:  0.135D+00 0.530D-01 0.210D+00 0.602D+00
 Coeff-En:   0.000D+00 0.000D+00 0.000D+00 0.100D+01
 Coeff:      0.135D+00 0.529D-01 0.210D+00 0.603D+00
 Gap=     0.132 Goal=   None    Shift=    0.000
 RMSDP=1.53D-05 MaxDP=1.52D-04 DE=-3.42D-05 OVMax= 1.68D-04

 Cycle  10  Pass 0  IDiag  1:
 E= -239.473662000755     Delta-E=       -0.000000519747 Rises=F Damp=F
 DIIS: error= 1.04D-05 at cycle   5 NSaved=   5.
 NSaved= 5 IEnMin= 5 EnMin= -239.473662000755     IErMin= 5 ErrMin= 1.04D-05
 ErrMax= 1.04D-05  0.00D+00 EMaxC= 1.00D-01 BMatC= 6.31D-09 BMatP= 5.68D-07
 IDIUse=1 WtCom= 1.00D+00 WtEn= 0.00D+00
 Coeff-Com:  0.525D-01 0.218D-01 0.783D-01 0.243D+00 0.605D+00
 Coeff:      0.525D-01 0.218D-01 0.783D-01 0.243D+00 0.605D+00
 Gap=     0.132 Goal=   None    Shift=    0.000
 RMSDP=2.36D-06 MaxDP=2.02D-05 DE=-5.20D-07 OVMax= 4.20D-05

 Initial convergence to 1.0D-05 achieved.  Increase integral accuracy.
 Cycle  11  Pass 1  IDiag  1:
 E= -239.473658015825     Delta-E=        0.000003984930 Rises=F Damp=F
 DIIS: error= 5.36D-06 at cycle   1 NSaved=   1.
 NSaved= 1 IEnMin= 1 EnMin= -239.473658015825     IErMin= 1 ErrMin= 5.36D-06
 ErrMax= 5.36D-06  0.00D+00 EMaxC= 1.00D-01 BMatC= 1.43D-09 BMatP= 1.43D-09
 IDIUse=1 WtCom= 1.00D+00 WtEn= 0.00D+00
 Coeff-Com:  0.100D+01
 Coeff:      0.100D+01
 Gap=     0.132 Goal=   None    Shift=    0.000
 RMSDP=2.36D-06 MaxDP=2.02D-05 DE= 3.98D-06 OVMax= 3.01D-05

 Cycle  12  Pass 1  IDiag  1:
 E= -239.473658012957     Delta-E=        0.000000002869 Rises=F Damp=F
 DIIS: error= 9.71D-06 at cycle   2 NSaved=   2.
 NSaved= 2 IEnMin= 1 EnMin= -239.473658015825     IErMin= 1 ErrMin= 5.36D-06
 ErrMax= 9.71D-06  0.00D+00 EMaxC= 1.00D-01 BMatC= 5.39D-09 BMatP= 1.43D-09
 IDIUse=1 WtCom= 1.00D+00 WtEn= 0.00D+00
 Coeff-Com:  0.663D+00 0.337D+00
 Coeff:      0.663D+00 0.337D+00
 Gap=     0.132 Goal=   None    Shift=    0.000
 RMSDP=1.33D-06 MaxDP=1.20D-05 DE= 2.87D-09 OVMax= 1.86D-05

 Cycle  13  Pass 1  IDiag  1:
 E= -239.473658017019     Delta-E=       -0.000000004062 Rises=F Damp=F
 DIIS: error= 1.29D-06 at cycle   3 NSaved=   3.
 NSaved= 3 IEnMin= 3 EnMin= -239.473658017019     IErMin= 3 ErrMin= 1.29D-06
 ErrMax= 1.29D-06  0.00D+00 EMaxC= 1.00D-01 BMatC= 3.44D-11 BMatP= 1.43D-09
 IDIUse=1 WtCom= 1.00D+00 WtEn= 0.00D+00
 Coeff-Com:  0.307D+00 0.153D+00 0.539D+00
 Coeff:      0.307D+00 0.153D+00 0.539D+00
 Gap=     0.132 Goal=   None    Shift=    0.000
 RMSDP=1.74D-07 MaxDP=1.84D-06 DE=-4.06D-09 OVMax= 3.00D-06

 Cycle  14  Pass 1  IDiag  1:
 E= -239.473658017029     Delta-E=       -0.000000000010 Rises=F Damp=F
 DIIS: error= 7.17D-07 at cycle   4 NSaved=   4.
 NSaved= 4 IEnMin= 4 EnMin= -239.473658017029     IErMin= 4 ErrMin= 7.17D-07
 ErrMax= 7.17D-07  0.00D+00 EMaxC= 1.00D-01 BMatC= 1.25D-11 BMatP= 3.44D-11
 IDIUse=1 WtCom= 1.00D+00 WtEn= 0.00D+00
 Coeff-Com:  0.491D-01 0.208D-01 0.382D+00 0.548D+00
 Coeff:      0.491D-01 0.208D-01 0.382D+00 0.548D+00
 Gap=     0.132 Goal=   None    Shift=    0.000
 RMSDP=1.44D-07 MaxDP=1.30D-06 DE=-1.02D-11 OVMax= 2.75D-06

 Cycle  15  Pass 1  IDiag  1:
 E= -239.473658017038     Delta-E=       -0.000000000010 Rises=F Damp=F
 DIIS: error= 1.36D-07 at cycle   5 NSaved=   5.
 NSaved= 5 IEnMin= 5 EnMin= -239.473658017038     IErMin= 5 ErrMin= 1.36D-07
 ErrMax= 1.36D-07  0.00D+00 EMaxC= 1.00D-01 BMatC= 9.55D-13 BMatP= 1.25D-11
 IDIUse=1 WtCom= 1.00D+00 WtEn= 0.00D+00
 Coeff-Com:  0.171D-01 0.746D-02 0.171D+00 0.342D+00 0.462D+00
 Coeff:      0.171D-01 0.746D-02 0.171D+00 0.342D+00 0.462D+00
 Gap=     0.132 Goal=   None    Shift=    0.000
 RMSDP=2.64D-08 MaxDP=2.08D-07 DE=-9.66D-12 OVMax= 4.88D-07

 Cycle  16  Pass 1  IDiag  1:
 E= -239.473658017040     Delta-E=       -0.000000000001 Rises=F Damp=F
 DIIS: error= 4.57D-08 at cycle   6 NSaved=   6.
 NSaved= 6 IEnMin= 6 EnMin= -239.473658017040     IErMin= 6 ErrMin= 4.57D-08
 ErrMax= 4.57D-08  0.00D+00 EMaxC= 1.00D-01 BMatC= 5.04D-14 BMatP= 9.55D-13
 IDIUse=1 WtCom= 1.00D+00 WtEn= 0.00D+00
 Coeff-Com:  0.193D-03 0.431D-03 0.173D-01 0.998D-01 0.159D+00 0.723D+00
 Coeff:      0.193D-03 0.431D-03 0.173D-01 0.998D-01 0.159D+00 0.723D+00
 Gap=     0.132 Goal=   None    Shift=    0.000
 RMSDP=8.51D-09 MaxDP=7.91D-08 DE=-1.25D-12 OVMax= 1.50D-07

 SCF Done:  E(RB-LYP) =  -239.473658017     A.U. after   16 cycles
            NFock= 16  Conv=0.85D-08     -V/T= 2.0035
 KE= 2.386341471271D+02 PE=-7.070729706520D+02 EE= 1.646029307571D+02
 Leave Link  502 at Wed Oct  7 14:46:23 2020, MaxMem=  2684354560 cpu:              22.1 elap:               2.3
 (Enter /udrive/faculty/rpeverati/g16/g16/l508.exe)
 QCSCF skips out because SCF is already converged.
 Leave Link  508 at Wed Oct  7 14:46:24 2020, MaxMem=  2684354560 cpu:               0.5 elap:               0.5
 (Enter /udrive/faculty/rpeverati/g16/g16/l601.exe)
 Copying SCF densities to generalized density rwf, IOpCl= 0 IROHF=0.

 **********************************************************************

            Population analysis using the SCF density.

 **********************************************************************

 Orbital symmetries:
       Occupied  (A1) (A1) (A1) (A1) (A1) (A1) (A1) (E) (E) (E)
                 (E) (A1) (E) (E)
       Virtual   (A1) (A1) (E) (E) (E) (E) (A1) (E) (E) (A1) (A1)
                 (A1) (E) (E) (E) (E) (A1) (E) (E) (A1) (E) (E)
                 (A1) (A1) (E) (E) (E) (E) (E) (E) (A1) (E) (E)
                 (A1)
 The electronic state is 1-A1.
 Alpha  occ. eigenvalues --  -24.05663 -23.77966  -9.75711  -0.84594  -0.52368
 Alpha  occ. eigenvalues --   -0.40061  -0.19765  -0.19451  -0.19451  -0.06789
 Alpha  occ. eigenvalues --   -0.06789   0.14181   0.15257   0.15257
 Alpha virt. eigenvalues --    0.28444   0.32720   0.35231   0.35231   0.71147
 Alpha virt. eigenvalues --    0.71147   0.71700   1.01439   1.01439   1.04422
 Alpha virt. eigenvalues --    1.16286   1.37354   1.37925   1.37925   1.54226
 Alpha virt. eigenvalues --    1.54226   1.60359   1.67304   1.67304   1.87449
 Alpha virt. eigenvalues --    1.97551   1.97551   2.05841   2.19468   2.22815
 Alpha virt. eigenvalues --    2.22815   2.23562   2.23562   2.34164   2.34164
 Alpha virt. eigenvalues --    2.35426   2.53321   2.53321   3.12173
          Condensed to atoms (all electrons):
               1          2          3          4          5          6
     1  F    9.351309   0.131245  -0.030872  -0.030872  -0.030872   0.000104
     2  C    0.131245   4.905302   0.348860   0.348860   0.348860   0.028831
     3  H   -0.030872   0.348860   0.663507  -0.048024  -0.048024   0.015676
     4  H   -0.030872   0.348860  -0.048024   0.663507  -0.048024   0.015676
     5  H   -0.030872   0.348860  -0.048024  -0.048024   0.663507   0.015676
     6  F    0.000104   0.028831   0.015676   0.015676   0.015676   9.718669
 Mulliken charges:
               1
     1  F   -0.390041
     2  C   -0.111958
     3  H    0.098877
     4  H    0.098877
     5  H    0.098877
     6  F   -0.794631
 Sum of Mulliken charges =  -1.00000
 Mulliken charges with hydrogens summed into heavy atoms:
               1
     1  F   -0.390041
     2  C    0.184672
     6  F   -0.794631
 Electronic spatial extent (au):  <R**2>=            331.2746
 Charge=             -1.0000 electrons
 Dipole moment (field-independent basis, Debye):
    X=             -0.0000    Y=              0.0000    Z=             -5.7621  Tot=              5.7621
 Quadrupole moment (field-independent basis, Debye-Ang):
   XX=            -17.8563   YY=            -17.8563   ZZ=            -41.5117
   XY=              0.0000   XZ=              0.0000   YZ=              0.0000
 Traceless Quadrupole moment (field-independent basis, Debye-Ang):
   XX=              7.8851   YY=              7.8851   ZZ=            -15.7702
   XY=              0.0000   XZ=              0.0000   YZ=              0.0000
 Octapole moment (field-independent basis, Debye-Ang**2):
  XXX=             -0.0000  YYY=              0.2918  ZZZ=            -29.6821  XYY=              0.0000
  XXY=             -0.2918  XXZ=             -0.6020  XZZ=              0.0000  YZZ=              0.0000
  YYZ=             -0.6020  XYZ=             -0.0000
 Hexadecapole moment (field-independent basis, Debye-Ang**3):
 XXXX=            -20.6252 YYYY=            -20.6252 ZZZZ=           -368.4537 XXXY=              0.0000
 XXXZ=              0.0000 YYYX=              0.0000 YYYZ=              0.0036 ZZZX=             -0.0000
 ZZZY=              0.0000 XXYY=             -6.8751 XXZZ=            -48.9921 YYZZ=            -48.9921
 XXYZ=             -0.0036 YYXZ=             -0.0000 ZZXY=              0.0000
 N-N= 6.436223475081D+01 E-N=-7.070729688472D+02  KE= 2.386341471271D+02
 No NMR shielding tensors so no spin-rotation constants.
 Leave Link  601 at Wed Oct  7 14:46:26 2020, MaxMem=  2684354560 cpu:               3.3 elap:               0.9
 (Enter /udrive/faculty/rpeverati/g16/g16/l701.exe)
 ... and contract with generalized density number  0.
 Compute integral first derivatives.
 Leave Link  701 at Wed Oct  7 14:46:27 2020, MaxMem=  2684354560 cpu:               6.1 elap:               1.0
 (Enter /udrive/faculty/rpeverati/g16/g16/l702.exe)
 L702 exits ... SP integral derivatives will be done elsewhere.
 Leave Link  702 at Wed Oct  7 14:46:28 2020, MaxMem=  2684354560 cpu:               1.5 elap:               0.5
 (Enter /udrive/faculty/rpeverati/g16/g16/l703.exe)
 Integral derivatives from FoFJK, PRISM(SPDF).
 Compute integral first derivatives, UseDBF=F ICtDFT=           0.
 Calling FoFJK, ICntrl=      2527 FMM=F ISym2X=1 I1Cent= 0 IOpClX= 0 NMat=1 NMatS=1 NMatT=0.
 FoFJK:  IHMeth= 1 ICntrl=    2527 DoSepK=F KAlg= 0 I1Cent=           0 FoldK=F
 IRaf=         0 NMat=       1 IRICut=       1 DoRegI=T DoRafI=F ISym2E= 1 IDoP0=0 IntGTp=1.
 FoFCou: FMM=F IPFlag=           0 FMFlag=      100000 FMFlg1=         800
         NFxFlg=           0 DoJE=F BraDBF=F KetDBF=F FulRan=T
         wScrn=  0.000000 ICntrl=      2527 IOpCl=  0 I1Cent=           0 NGrid=           0
         NMat0=    1 NMatS0=      1 NMatT0=    0 NMatD0=    1 NMtDS0=    0 NMtDT0=    0
 Petite list used in FoFCou.
 Leave Link  703 at Wed Oct  7 14:46:29 2020, MaxMem=  2684354560 cpu:               5.3 elap:               0.8
 (Enter /udrive/faculty/rpeverati/g16/g16/l716.exe)
 Dipole        =-4.44089210D-16 1.11022302D-16-2.26697163D+00
 ***** Axes restored to original set *****
 -------------------------------------------------------------------
 Center     Atomic                   Forces (Hartrees/Bohr)
 Number     Number              X              Y              Z
 -------------------------------------------------------------------
      1        9          -0.000000000    0.000000000   -0.026391588
      2        6          -0.000000000   -0.000000000    0.005630476
      3        1          -0.004050670    0.007015966    0.009651182
      4        1          -0.004050670   -0.007015966    0.009651182
      5        1           0.008101340    0.000000000    0.009651182
      6        9          -0.000000000   -0.000000000   -0.008192435
 -------------------------------------------------------------------
 Cartesian Forces:  Max     0.026391588 RMS     0.008405241
 Leave Link  716 at Wed Oct  7 14:46:30 2020, MaxMem=  2684354560 cpu:               3.1 elap:               0.7
 (Enter /udrive/faculty/rpeverati/g16/g16/l103.exe)

 GradGradGradGradGradGradGradGradGradGradGradGradGradGradGradGradGradGrad
 Berny optimization.
 Optmz: redundant internal coordinate code flag= 1
 FormGI is forming the generalized inverse of G from B-inverse, IUseBI=4.
 Internal  Forces:  Max     0.026391588 RMS     0.006879283
 Search for a local minimum.
 Step number   1 out of a maximum of  100
 All quantities printed in internal units (Hartrees-Bohrs-Radians)
 RMS Force = .68793D-02 SwitMx=.10000D-02 MixMth= 1
 Mixed Optimization -- RFO/linear search
 Second derivative matrix not updated -- first step.
 The second derivative matrix:
                          R1        R2        R3        R4        R5
           R1           0.41605
           R2           0.00000   0.35858
           R3           0.00000   0.00000   0.35858
           R4           0.00000   0.00000   0.00000   0.35858
           R5           0.00000   0.00000   0.00000   0.00000   0.03206
           R6           0.00000   0.00000   0.00000   0.00000   0.00000
           R7           0.00000   0.00000   0.00000   0.00000   0.00000
           R8           0.00000   0.00000   0.00000   0.00000   0.00000
           A1           0.00000   0.00000   0.00000   0.00000   0.00000
           A2           0.00000   0.00000   0.00000   0.00000   0.00000
           A3           0.00000   0.00000   0.00000   0.00000   0.00000
           A4           0.00000   0.00000   0.00000   0.00000   0.00000
           A5           0.00000   0.00000   0.00000   0.00000   0.00000
           A6           0.00000   0.00000   0.00000   0.00000   0.00000
           A7           0.00000   0.00000   0.00000   0.00000   0.00000
           A8           0.00000   0.00000   0.00000   0.00000   0.00000
           A9           0.00000   0.00000   0.00000   0.00000   0.00000
           A10          0.00000   0.00000   0.00000   0.00000   0.00000
           A11          0.00000   0.00000   0.00000   0.00000   0.00000
           D1           0.00000   0.00000   0.00000   0.00000   0.00000
           D2           0.00000   0.00000   0.00000   0.00000   0.00000
           D3           0.00000   0.00000   0.00000   0.00000   0.00000
           D4           0.00000   0.00000   0.00000   0.00000   0.00000
                          R6        R7        R8        A1        A2
           R6           0.02211
           R7           0.00000   0.02211
           R8           0.00000   0.00000   0.02211
           A1           0.00000   0.00000   0.00000   0.16000
           A2           0.00000   0.00000   0.00000   0.00000   0.16000
           A3           0.00000   0.00000   0.00000   0.00000   0.00000
           A4           0.00000   0.00000   0.00000   0.00000   0.00000
           A5           0.00000   0.00000   0.00000   0.00000   0.00000
           A6           0.00000   0.00000   0.00000   0.00000   0.00000
           A7           0.00000   0.00000   0.00000   0.00000   0.00000
           A8           0.00000   0.00000   0.00000   0.00000   0.00000
           A9           0.00000   0.00000   0.00000   0.00000   0.00000
           A10          0.00000   0.00000   0.00000   0.00000   0.00000
           A11          0.00000   0.00000   0.00000   0.00000   0.00000
           D1           0.00000   0.00000   0.00000   0.00000   0.00000
           D2           0.00000   0.00000   0.00000   0.00000   0.00000
           D3           0.00000   0.00000   0.00000   0.00000   0.00000
           D4           0.00000   0.00000   0.00000   0.00000   0.00000
                          A3        A4        A5        A6        A7
           A3           0.16000
           A4           0.00000   0.16000
           A5           0.00000   0.00000   0.16000
           A6           0.00000   0.00000   0.00000   0.16000
           A7           0.00000   0.00000   0.00000   0.00000   0.16000
           A8           0.00000   0.00000   0.00000   0.00000   0.00000
           A9           0.00000   0.00000   0.00000   0.00000   0.00000
           A10          0.00000   0.00000   0.00000   0.00000   0.00000
           A11          0.00000   0.00000   0.00000   0.00000   0.00000
           D1           0.00000   0.00000   0.00000   0.00000   0.00000
           D2           0.00000   0.00000   0.00000   0.00000   0.00000
           D3           0.00000   0.00000   0.00000   0.00000   0.00000
           D4           0.00000   0.00000   0.00000   0.00000   0.00000
                          A8        A9        A10       A11       D1
           A8           0.16000
           A9           0.00000   0.16000
           A10          0.00000   0.00000   0.00230
           A11          0.00000   0.00000   0.00000   0.00230
           D1           0.00000   0.00000   0.00000   0.00000   0.00352
           D2           0.00000   0.00000   0.00000   0.00000   0.00000
           D3           0.00000   0.00000   0.00000   0.00000   0.00000
           D4           0.00000   0.00000   0.00000   0.00000   0.00000
                          D2        D3        D4
           D2           0.00230
           D3           0.00000   0.00230
           D4           0.00000   0.00000   0.00230
 ITU=  0
 Eigenvectors of the second derivative matrix:
                           1         2         3         4         5
     Eigenvalues --     0.01937   0.01957   0.02718   0.06332   0.10012
   1         R1        -0.00000  -0.00000   0.00000  -0.00000   0.00000
   2         R2        -0.00050   0.00294  -0.01151   0.00368  -0.00014
   3         R3         0.00388  -0.00003  -0.01126   0.01113  -0.01082
   4         R4        -0.00336  -0.00286  -0.01124  -0.00431   0.01086
   5         R5        -0.00030  -0.00049  -0.49552   0.38914   0.02315
   6         R6        -0.12003   0.72762  -0.49469  -0.09943  -0.00598
   7         R7         0.68591  -0.25935  -0.49378  -0.09494  -0.20605
   8         R8        -0.56526  -0.46864  -0.49371  -0.08258   0.19067
   9         A1        -0.00544   0.03181   0.02094   0.21705   0.00695
  10         A2         0.03289  -0.01097   0.02100   0.21784   0.56552
  11         A3        -0.02816  -0.02132   0.02101   0.22391  -0.53092
  12         A4         0.00768   0.00499  -0.02430  -0.41432   0.03489
  13         A5        -0.00736   0.00244  -0.01850  -0.11357  -0.07149
  14         A6         0.00037  -0.00697  -0.01850  -0.11376  -0.00388
  15         A7        -0.04466  -0.03731   0.07186  -0.09312   0.02512
  16         A8         0.05465  -0.02101   0.07343  -0.01564  -0.03279
  17         A9        -0.00990   0.05852   0.07340  -0.01465   0.00024
  18         A10       -0.06434   0.38993  -0.00034  -0.00606  -0.00633
  19         A11        0.41244   0.06903  -0.00003  -0.00789   0.55025
  20         D1         0.00502   0.00327  -0.05479  -0.66846  -0.00592
  21         D2         0.06788   0.08163   0.01140   0.12127  -0.05898
  22         D3         0.09105  -0.05482  -0.00774   0.06959  -0.06471
  23         D4         0.03607  -0.10125   0.00786  -0.06980  -0.00942
                           6         7         8         9        10
     Eigenvalues --     0.10324   0.11592   0.11812   0.32840   0.33561
   1         R1         0.00000  -0.00000   0.00000   0.00000   0.00000
   2         R2        -0.00357  -0.01043   0.01970  -0.16511   0.66405
   3         R3        -0.00368   0.04544  -0.01732   0.11063   0.67122
   4         R4         0.00704  -0.03131  -0.00219   0.92151   0.02186
   5         R5         0.01997  -0.22239  -0.01422  -0.00703  -0.00330
   6         R6        -0.21056   0.01817   0.08542   0.00778   0.01690
   7         R7         0.09234   0.04840  -0.07930   0.01619   0.01721
   8         R8         0.09950   0.14652   0.00748   0.02084   0.01310
   9         A1         0.65301  -0.07351  -0.09341  -0.00683   0.01933
  10         A2        -0.30240  -0.11020   0.07463  -0.00182   0.01986
  11         A3        -0.31462  -0.21926  -0.00699   0.02105   0.00181
  12         A4         0.03296  -0.47242  -0.03116  -0.02515   0.02443
  13         A5         0.03377   0.40117   0.60571   0.02293  -0.03177
  14         A6        -0.10178   0.46373  -0.54945  -0.00986  -0.03260
  15         A7         0.01745  -0.12687  -0.00850  -0.01916   0.25727
  16         A8         0.01910   0.08693   0.15958   0.14742   0.11911
  17         A9        -0.04299   0.11195  -0.14649   0.19018   0.12022
  18         A10        0.54065   0.03539  -0.04601   0.00849  -0.00448
  19         A11        0.00563   0.03469   0.02420   0.00968  -0.00780
  20         D1        -0.00350  -0.02223  -0.00199  -0.02289  -0.01178
  21         D2        -0.04899   0.38114   0.02174   0.06237   0.00102
  22         D3         0.04687   0.16997   0.36684  -0.15993   0.06598
  23         D4         0.08868  -0.21253   0.34150   0.14260  -0.06643
                          11        12
     Eigenvalues --     0.33920   0.41605
   1         R1         0.00000   1.00000
   2         R2         0.66583  -0.00000
   3         R3        -0.66525  -0.00000
   4         R4         0.19305  -0.00000
   5         R5        -0.01796   0.00000
   6         R6         0.03196   0.00000
   7         R7        -0.00513  -0.00000
   8         R8        -0.00334  -0.00000
   9         A1         0.00170  -0.00000
  10         A2        -0.02618   0.00000
  11         A3        -0.00137   0.00000
  12         A4        -0.07509  -0.00000
  13         A5        -0.02841  -0.00000
  14         A6         0.12868   0.00000
  15         A7        -0.02247  -0.00000
  16         A8         0.15297  -0.00000
  17         A9        -0.05409  -0.00000
  18         A10       -0.00823  -0.00000
  19         A11        0.01082   0.00000
  20         D1        -0.02803  -0.00000
  21         D2        -0.14246   0.00000
  22         D3         0.03695  -0.00000
  23         D4         0.04805  -0.00000
 Iter=   1 RLamda= 0.00000000D+00 Sum=-4.03234793D-03.
 Iter=   2 RLamda=-4.03234793D-03 Sum=-3.87240824D-03.
 Iter=   3 RLamda=-3.87240824D-03 Sum=-3.87818265D-03.
 Iter=   4 RLamda=-3.87818265D-03 Sum=-3.87797345D-03.
 Iter=   5 RLamda=-3.87797345D-03 Sum=-3.87798102D-03.
 RFO step:  Lambda=-3.87797345D-03 EMin= 1.93662982D-02
 Linear search not attempted -- first point.
 Iteration  1 RMS(Cart)=  0.02544883 RMS(Int)=  0.00060708
 Iteration  2 RMS(Cart)=  0.00035668 RMS(Int)=  0.00041673
 Iteration  3 RMS(Cart)=  0.00000018 RMS(Int)=  0.00041673
 ITry= 1 IFail=0 DXMaxC= 7.72D-02 DCOld= 1.00D+10 DXMaxT= 3.00D-01 DXLimC= 3.00D+00 Rises=F
 ClnCor:  largest displacement from symmetrization is 5.86D-04 for atom     4.
 Variable       Old X    -DE/DX   Delta X   Delta X   Delta X     New X
                                 (Linear)    (Quad)   (Total)
    R1        2.69428   0.02639   0.00000   0.06285   0.06285   2.75713
    R2        2.04304   0.00977   0.00000   0.02754   0.02770   2.07074
    R3        2.04304   0.00986   0.00000   0.02753   0.02770   2.07074
    R4        2.04304   0.00955   0.00000   0.02755   0.02770   2.07074
    R5        4.86673   0.00063   0.00000  -0.03299  -0.03257   4.83416
    R6        4.63224  -0.00257   0.00000  -0.08084  -0.08098   4.55125
    R7        4.63224  -0.00258   0.00000  -0.08083  -0.08098   4.55125
    R8        4.63224  -0.00273   0.00000  -0.08105  -0.08098   4.55125
    A1        1.89855   0.00205   0.00000   0.02646   0.02641   1.92496
    A2        1.89855   0.00206   0.00000   0.02645   0.02641   1.92496
    A3        1.89855   0.00208   0.00000   0.02646   0.02641   1.92496
    A4        1.92256  -0.00080   0.00000  -0.02469  -0.02647   1.89609
    A5        1.92256  -0.00261   0.00000  -0.02631  -0.02647   1.89609
    A6        1.92256  -0.00262   0.00000  -0.02631  -0.02647   1.89609
    A7        0.74003   0.00394   0.00000   0.01731   0.01707   0.75710
    A8        0.74003   0.00341   0.00000   0.01689   0.01707   0.75710
    A9        0.74003   0.00342   0.00000   0.01689   0.01707   0.75710
   A10        3.14159   0.00001   0.00000   0.00003   0.00000   3.14159
   A11        3.14159   0.00002   0.00000   0.00007   0.00000   3.14159
    D1        2.12432  -0.00444   0.00000  -0.06555  -0.06457   2.05975
    D2        0.56604  -0.00029   0.00000   0.00144   0.00214   0.56818
    D3       -0.56604  -0.00078   0.00000  -0.00243  -0.00214  -0.56818
    D4        0.56604   0.00078   0.00000   0.00244   0.00214   0.56818
         Item               Value     Threshold  Converged?
 Maximum Force            0.026392     0.000450     NO 
 RMS     Force            0.006879     0.000300     NO 
 Maximum Displacement     0.077179     0.001800     NO 
 RMS     Displacement     0.025481     0.001200     NO 
 Predicted change in Energy=-1.999079D-03
 Lowest energy point so far.  Saving SCF results.
 Largest change from initial coordinates is atom    1       0.025 Angstoms.
 GradGradGradGradGradGradGradGradGradGradGradGradGradGradGradGradGradGrad

 Leave Link  103 at Wed Oct  7 14:46:31 2020, MaxMem=  2684354560 cpu:               6.1 elap:               0.9
 (Enter /udrive/faculty/rpeverati/g16/g16/l202.exe)
                          Input orientation:                          
 ---------------------------------------------------------------------
 Center     Atomic      Atomic             Coordinates (Angstroms)
 Number     Number       Type             X           Y           Z
 ---------------------------------------------------------------------
      1          9           0        0.000000    0.000000   -1.832213
      2          6           0        0.000000    0.000000   -0.373201
      3          1           0       -0.513891    0.890085    0.006822
      4          1           0       -0.513891   -0.890085    0.006822
      5          1           0        1.027781   -0.000000    0.006822
      6          9           0        0.000000    0.000000    2.184928
 ---------------------------------------------------------------------
                    Distance matrix (angstroms):
                    1          2          3          4          5
     1  F    0.000000
     2  C    1.459012   0.000000
     3  H    2.106747   1.095788   0.000000
     4  H    2.106747   1.095788   1.780169   0.000000
     5  H    2.106747   1.095788   1.780169   1.780169   0.000000
     6  F    4.017141   2.558130   2.408419   2.408419   2.408419
                    6
     6  F    0.000000
 Stoichiometry    CH3F2(1-)
 Framework group  C3V[C3(FCF),3SGV(H)]
 Deg. of freedom     4
 Full point group                 C3V     NOp   6
 RotChk:  IX=0 Diff= 0.00D+00
 Largest Abelian subgroup         CS      NOp   2
 Largest concise Abelian subgroup CS      NOp   2
                         Standard orientation:                         
 ---------------------------------------------------------------------
 Center     Atomic      Atomic             Coordinates (Angstroms)
 Number     Number       Type             X           Y           Z
 ---------------------------------------------------------------------
      1          9           0        0.000000    0.000000   -1.867609
      2          6           0        0.000000    0.000000   -0.408597
      3          1           0       -0.000000    1.027781   -0.028574
      4          1           0       -0.890085   -0.513891   -0.028574
      5          1           0        0.890085   -0.513891   -0.028574
      6          9           0        0.000000    0.000000    2.149532
 ---------------------------------------------------------------------
 Rotational constants (GHZ):         158.2375597           3.2057455           3.2057455
 Leave Link  202 at Wed Oct  7 14:46:32 2020, MaxMem=  2684354560 cpu:               1.7 elap:               0.6
 (Enter /udrive/faculty/rpeverati/g16/g16/l301.exe)
 Standard basis: 6-31G(d) (5D, 7F)
 Ernie: Thresh=  0.10000D-02 Tol=  0.10000D-05 Strict=F.
 There are    37 symmetry adapted cartesian basis functions of A'  symmetry.
 There are    14 symmetry adapted cartesian basis functions of A"  symmetry.
 There are    34 symmetry adapted basis functions of A'  symmetry.
 There are    14 symmetry adapted basis functions of A"  symmetry.
    48 basis functions,    96 primitive gaussians,    51 cartesian basis functions
    14 alpha electrons       14 beta electrons
       nuclear repulsion energy        63.7248604556 Hartrees.
 IExCor=  402 DFT=T Ex=B Corr=LYP ExCW=0 ScaHFX=  0.000000
 ScaDFX=  1.000000  1.000000  1.000000  1.000000 ScalE2=  1.000000  1.000000
 IRadAn=      5 IRanWt=     -1 IRanGd=            0 ICorTp=0 IEmpDi=  4
 NAtoms=    6 NActive=    6 NUniq=    4 SFac= 2.25D+00 NAtFMM=   60 NAOKFM=F Big=F
 Integral buffers will be    131072 words long.
 Raffenetti 2 integral format.
 Two-electron integral symmetry is turned on.
 Leave Link  301 at Wed Oct  7 14:46:33 2020, MaxMem=  2684354560 cpu:               2.4 elap:               0.9
 (Enter /udrive/faculty/rpeverati/g16/g16/l302.exe)
 NPDir=0 NMtPBC=     1 NCelOv=     1 NCel=       1 NClECP=     1 NCelD=      1
         NCelK=      1 NCelE2=     1 NClLst=     1 CellRange=     0.0.
 One-electron integrals computed using PRISM.
 One-electron integral symmetry used in STVInt
 NBasis=    48 RedAO= T EigKep=  1.99D-02  NBF=    34    14
 NBsUse=    48 1.00D-06 EigRej= -1.00D+00 NBFU=    34    14
 Precomputing XC quadrature grid using
 IXCGrd= 4 IRadAn=           5 IRanWt=          -1 IRanGd=           0 AccXCQ= 0.00D+00.
 Generated NRdTot=       0 NPtTot=           0 NUsed=           0 NTot=          32
 NSgBfM=    51    51    51    51    51 MxSgAt=     6 MxSgA2=     6.
 Leave Link  302 at Wed Oct  7 14:46:34 2020, MaxMem=  2684354560 cpu:               3.9 elap:               0.8
 (Enter /udrive/faculty/rpeverati/g16/g16/l303.exe)
 DipDrv:  MaxL=1.
 Leave Link  303 at Wed Oct  7 14:46:35 2020, MaxMem=  2684354560 cpu:               1.6 elap:               0.6
 (Enter /udrive/faculty/rpeverati/g16/g16/l401.exe)
 Initial guess from the checkpoint file:  "MN_38_fch3fcomp_BH76_BLYP_631Gs.chk"
 SCF N**3 symmetry information disabled.
 B after Tr=     0.000000   -0.000000   -0.000000
         Rot=    1.000000    0.000000   -0.000000    0.000000 Ang=   0.00 deg.
 Guess basis will be translated and rotated to current coordinates.
 JPrj=2 DoOrth=T DoCkMO=T.
 Initial guess orbital symmetries:
       Occupied  (A1) (A1) (A1) (A1) (A1) (A1) (A1) (E) (E) (E)
                 (E) (A1) (E) (E)
       Virtual   (A1) (A1) (E) (E) (E) (E) (A1) (E) (E) (A1) (A1)
                 (A1) (E) (E) (E) (E) (A1) (E) (E) (A1) (E) (E)
                 (A1) (A1) (E) (E) (E) (E) (E) (E) (A1) (E) (E)
                 (A1)
 The electronic state of the initial guess is 1-A1.
 Generating alternative initial guess.
 ExpMin= 1.61D-01 ExpMax= 7.00D+03 ExpMxC= 1.05D+03 IAcc=2 IRadAn=         4 AccDes= 0.00D+00
 Harris functional with IExCor=  402 and IRadAn=       4 diagonalized for initial guess.
 HarFok:  IExCor=  402 AccDes= 0.00D+00 IRadAn=         4 IDoV= 1 UseB2=F ITyADJ=14
 ICtDFT=  3500011 ScaDFX=  1.000000  1.000000  1.000000  1.000000
 FoFCou: FMM=F IPFlag=           0 FMFlag=      100000 FMFlg1=           0
         NFxFlg=           0 DoJE=T BraDBF=F KetDBF=T FulRan=T
         wScrn=  0.000000 ICntrl=       500 IOpCl=  0 I1Cent=   200000004 NGrid=           0
         NMat0=    1 NMatS0=      1 NMatT0=    0 NMatD0=    1 NMtDS0=    0 NMtDT0=    0
 Petite list used in FoFCou.
 Harris En= -239.790361358157    
 Leave Link  401 at Wed Oct  7 14:46:36 2020, MaxMem=  2684354560 cpu:               7.1 elap:               1.0
 (Enter /udrive/faculty/rpeverati/g16/g16/l502.exe)
 Keep J ints in memory in symmetry-blocked form, NReq=11153107.
 FoFCou: FMM=F IPFlag=           0 FMFlag=           0 FMFlg1=           0
         NFxFlg=           0 DoJE=F BraDBF=F KetDBF=F FulRan=T
         wScrn=  0.000000 ICntrl=       600 IOpCl=  0 I1Cent=           0 NGrid=           0
         NMat0=    1 NMatS0=   1176 NMatT0=    0 NMatD0=    1 NMtDS0=    0 NMtDT0=    0
 Petite list used in FoFCou.
 Closed shell SCF:
 Using DIIS extrapolation, IDIIS=  1040.
 NGot=  2684354560 LenX=  2683985987 LenY=  2683982945
 Requested convergence on RMS density matrix=1.00D-08 within 120 cycles.
 Requested convergence on MAX density matrix=1.00D-06.
 Requested convergence on             energy=1.00D-06.
 No special actions if energy rises.
 Integral accuracy reduced to 1.0D-05 until final iterations.

 Cycle   1  Pass 0  IDiag  1:
 E= -239.475547585378    
 DIIS: error= 2.89D-03 at cycle   1 NSaved=   1.
 NSaved= 1 IEnMin= 1 EnMin= -239.475547585378     IErMin= 1 ErrMin= 2.89D-03
 ErrMax= 2.89D-03  0.00D+00 EMaxC= 1.00D-01 BMatC= 4.73D-04 BMatP= 4.73D-04
 IDIUse=3 WtCom= 9.71D-01 WtEn= 2.89D-02
 Coeff-Com:  0.100D+01
 Coeff-En:   0.100D+01
 Coeff:      0.100D+01
 Gap=     0.140 Goal=   None    Shift=    0.000
 GapD=    0.140 DampG=1.000 DampE=1.000 DampFc=1.0000 IDamp=-1.
 RMSDP=7.94D-04 MaxDP=1.00D-02              OVMax= 9.50D-03

 Cycle   2  Pass 0  IDiag  1:
 E= -239.475968983779     Delta-E=       -0.000421398400 Rises=F Damp=F
 DIIS: error= 2.14D-03 at cycle   2 NSaved=   2.
 NSaved= 2 IEnMin= 2 EnMin= -239.475968983779     IErMin= 2 ErrMin= 2.14D-03
 ErrMax= 2.14D-03  0.00D+00 EMaxC= 1.00D-01 BMatC= 1.30D-04 BMatP= 4.73D-04
 IDIUse=3 WtCom= 9.79D-01 WtEn= 2.14D-02
 Coeff-Com:  0.294D+00 0.706D+00
 Coeff-En:   0.000D+00 0.100D+01
 Coeff:      0.288D+00 0.712D+00
 Gap=     0.134 Goal=   None    Shift=    0.000
 RMSDP=5.20D-04 MaxDP=4.85D-03 DE=-4.21D-04 OVMax= 8.97D-03

 Cycle   3  Pass 0  IDiag  1:
 E= -239.475926877707     Delta-E=        0.000042106072 Rises=F Damp=F
 DIIS: error= 2.03D-03 at cycle   3 NSaved=   3.
 NSaved= 3 IEnMin= 2 EnMin= -239.475968983779     IErMin= 3 ErrMin= 2.03D-03
 ErrMax= 2.03D-03  0.00D+00 EMaxC= 1.00D-01 BMatC= 1.74D-04 BMatP= 1.30D-04
 IDIUse=3 WtCom= 1.82D-01 WtEn= 8.18D-01
 Coeff-Com:  0.367D-01 0.532D+00 0.431D+00
 Coeff-En:   0.000D+00 0.558D+00 0.442D+00
 Coeff:      0.666D-02 0.553D+00 0.440D+00
 Gap=     0.139 Goal=   None    Shift=    0.000
 RMSDP=4.21D-04 MaxDP=3.18D-03 DE= 4.21D-05 OVMax= 8.00D-03

 Cycle   4  Pass 0  IDiag  1:
 E= -239.476079777434     Delta-E=       -0.000152899727 Rises=F Damp=F
 DIIS: error= 7.15D-04 at cycle   4 NSaved=   4.
 NSaved= 4 IEnMin= 4 EnMin= -239.476079777434     IErMin= 4 ErrMin= 7.15D-04
 ErrMax= 7.15D-04  0.00D+00 EMaxC= 1.00D-01 BMatC= 1.22D-05 BMatP= 1.30D-04
 IDIUse=3 WtCom= 9.93D-01 WtEn= 7.15D-03
 Coeff-Com:  0.149D-01 0.337D+00 0.298D+00 0.350D+00
 Coeff-En:   0.000D+00 0.000D+00 0.000D+00 0.100D+01
 Coeff:      0.148D-01 0.335D+00 0.296D+00 0.354D+00
 Gap=     0.138 Goal=   None    Shift=    0.000
 RMSDP=8.15D-05 MaxDP=6.77D-04 DE=-1.53D-04 OVMax= 1.37D-03

 Cycle   5  Pass 0  IDiag  1:
 E= -239.476089252961     Delta-E=       -0.000009475527 Rises=F Damp=F
 DIIS: error= 1.01D-04 at cycle   5 NSaved=   5.
 NSaved= 5 IEnMin= 5 EnMin= -239.476089252961     IErMin= 5 ErrMin= 1.01D-04
 ErrMax= 1.01D-04  0.00D+00 EMaxC= 1.00D-01 BMatC= 4.81D-07 BMatP= 1.22D-05
 IDIUse=3 WtCom= 9.99D-01 WtEn= 1.01D-03
 Coeff-Com:  0.364D-02 0.142D+00 0.144D+00 0.153D+00 0.557D+00
 Coeff-En:   0.000D+00 0.000D+00 0.000D+00 0.000D+00 0.100D+01
 Coeff:      0.363D-02 0.142D+00 0.144D+00 0.153D+00 0.557D+00
 Gap=     0.138 Goal=   None    Shift=    0.000
 RMSDP=1.12D-05 MaxDP=1.74D-04 DE=-9.48D-06 OVMax= 1.98D-04

 Cycle   6  Pass 0  IDiag  1:
 E= -239.476089500104     Delta-E=       -0.000000247143 Rises=F Damp=F
 DIIS: error= 4.54D-05 at cycle   6 NSaved=   6.
 NSaved= 6 IEnMin= 6 EnMin= -239.476089500104     IErMin= 6 ErrMin= 4.54D-05
 ErrMax= 4.54D-05  0.00D+00 EMaxC= 1.00D-01 BMatC= 1.07D-07 BMatP= 4.81D-07
 IDIUse=1 WtCom= 1.00D+00 WtEn= 0.00D+00
 Coeff-Com:  0.691D-03 0.344D-01 0.462D-01 0.247D-01 0.354D+00 0.540D+00
 Coeff:      0.691D-03 0.344D-01 0.462D-01 0.247D-01 0.354D+00 0.540D+00
 Gap=     0.138 Goal=   None    Shift=    0.000
 RMSDP=1.14D-05 MaxDP=9.14D-05 DE=-2.47D-07 OVMax= 2.28D-04

 Cycle   7  Pass 0  IDiag  1:
 E= -239.476089597916     Delta-E=       -0.000000097812 Rises=F Damp=F
 DIIS: error= 5.74D-06 at cycle   7 NSaved=   7.
 NSaved= 7 IEnMin= 7 EnMin= -239.476089597916     IErMin= 7 ErrMin= 5.74D-06
 ErrMax= 5.74D-06  0.00D+00 EMaxC= 1.00D-01 BMatC= 1.29D-09 BMatP= 1.07D-07
 IDIUse=1 WtCom= 1.00D+00 WtEn= 0.00D+00
 Coeff-Com: -0.200D-04 0.450D-02 0.631D-02 0.324D-02 0.564D-01 0.162D+00
 Coeff-Com:  0.768D+00
 Coeff:     -0.200D-04 0.450D-02 0.631D-02 0.324D-02 0.564D-01 0.162D+00
 Coeff:      0.768D+00
 Gap=     0.138 Goal=   None    Shift=    0.000
 RMSDP=1.29D-06 MaxDP=1.09D-05 DE=-9.78D-08 OVMax= 2.59D-05

 Initial convergence to 1.0D-05 achieved.  Increase integral accuracy.
 Cycle   8  Pass 1  IDiag  1:
 E= -239.476085706136     Delta-E=        0.000003891781 Rises=F Damp=F
 DIIS: error= 1.66D-06 at cycle   1 NSaved=   1.
 NSaved= 1 IEnMin= 1 EnMin= -239.476085706136     IErMin= 1 ErrMin= 1.66D-06
 ErrMax= 1.66D-06  0.00D+00 EMaxC= 1.00D-01 BMatC= 6.00D-11 BMatP= 6.00D-11
 IDIUse=1 WtCom= 1.00D+00 WtEn= 0.00D+00
 Coeff-Com:  0.100D+01
 Coeff:      0.100D+01
 Gap=     0.138 Goal=   None    Shift=    0.000
 RMSDP=1.29D-06 MaxDP=1.09D-05 DE= 3.89D-06 OVMax= 5.89D-06

 Cycle   9  Pass 1  IDiag  1:
 E= -239.476085706117     Delta-E=        0.000000000018 Rises=F Damp=F
 DIIS: error= 2.27D-06 at cycle   2 NSaved=   2.
 NSaved= 2 IEnMin= 1 EnMin= -239.476085706136     IErMin= 1 ErrMin= 1.66D-06
 ErrMax= 2.27D-06  0.00D+00 EMaxC= 1.00D-01 BMatC= 1.08D-10 BMatP= 6.00D-11
 IDIUse=1 WtCom= 1.00D+00 WtEn= 0.00D+00
 Coeff-Com:  0.587D+00 0.413D+00
 Coeff:      0.587D+00 0.413D+00
 Gap=     0.138 Goal=   None    Shift=    0.000
 RMSDP=3.68D-07 MaxDP=3.29D-06 DE= 1.85D-11 OVMax= 7.06D-06

 Cycle  10  Pass 1  IDiag  1:
 E= -239.476085706176     Delta-E=       -0.000000000059 Rises=F Damp=F
 DIIS: error= 8.34D-07 at cycle   3 NSaved=   3.
 NSaved= 3 IEnMin= 3 EnMin= -239.476085706176     IErMin= 3 ErrMin= 8.34D-07
 ErrMax= 8.34D-07  0.00D+00 EMaxC= 1.00D-01 BMatC= 1.81D-11 BMatP= 6.00D-11
 IDIUse=1 WtCom= 1.00D+00 WtEn= 0.00D+00
 Coeff-Com:  0.489D-01 0.291D+00 0.660D+00
 Coeff:      0.489D-01 0.291D+00 0.660D+00
 Gap=     0.138 Goal=   None    Shift=    0.000
 RMSDP=1.60D-07 MaxDP=1.32D-06 DE=-5.92D-11 OVMax= 3.25D-06

 Cycle  11  Pass 1  IDiag  1:
 E= -239.476085706190     Delta-E=       -0.000000000014 Rises=F Damp=F
 DIIS: error= 1.68D-07 at cycle   4 NSaved=   4.
 NSaved= 4 IEnMin= 4 EnMin= -239.476085706190     IErMin= 4 ErrMin= 1.68D-07
 ErrMax= 1.68D-07  0.00D+00 EMaxC= 1.00D-01 BMatC= 1.12D-12 BMatP= 1.81D-11
 IDIUse=1 WtCom= 1.00D+00 WtEn= 0.00D+00
 Coeff-Com:  0.993D-02 0.134D+00 0.389D+00 0.466D+00
 Coeff:      0.993D-02 0.134D+00 0.389D+00 0.466D+00
 Gap=     0.138 Goal=   None    Shift=    0.000
 RMSDP=2.75D-08 MaxDP=2.28D-07 DE=-1.35D-11 OVMax= 5.15D-07

 Cycle  12  Pass 1  IDiag  1:
 E= -239.476085706192     Delta-E=       -0.000000000002 Rises=F Damp=F
 DIIS: error= 3.59D-08 at cycle   5 NSaved=   5.
 NSaved= 5 IEnMin= 5 EnMin= -239.476085706192     IErMin= 5 ErrMin= 3.59D-08
 ErrMax= 3.59D-08  0.00D+00 EMaxC= 1.00D-01 BMatC= 3.34D-14 BMatP= 1.12D-12
 IDIUse=1 WtCom= 1.00D+00 WtEn= 0.00D+00
 Coeff-Com:  0.287D-04 0.283D-01 0.120D+00 0.169D+00 0.683D+00
 Coeff:      0.287D-04 0.283D-01 0.120D+00 0.169D+00 0.683D+00
 Gap=     0.138 Goal=   None    Shift=    0.000
 RMSDP=6.57D-09 MaxDP=5.62D-08 DE=-1.93D-12 OVMax= 1.23D-07

 SCF Done:  E(RB-LYP) =  -239.476085706     A.U. after   12 cycles
            NFock= 12  Conv=0.66D-08     -V/T= 2.0040
 KE= 2.385226096591D+02 PE=-7.057282590147D+02 EE= 1.640047031938D+02
 Leave Link  502 at Wed Oct  7 14:46:39 2020, MaxMem=  2684354560 cpu:              20.5 elap:               2.2
 (Enter /udrive/faculty/rpeverati/g16/g16/l508.exe)
 QCSCF skips out because SCF is already converged.
 Leave Link  508 at Wed Oct  7 14:46:39 2020, MaxMem=  2684354560 cpu:               0.3 elap:               0.4
 (Enter /udrive/faculty/rpeverati/g16/g16/l701.exe)
 ... and contract with generalized density number  0.
 Compute integral first derivatives.
 Leave Link  701 at Wed Oct  7 14:46:41 2020, MaxMem=  2684354560 cpu:               4.0 elap:               0.9
 (Enter /udrive/faculty/rpeverati/g16/g16/l702.exe)
 L702 exits ... SP integral derivatives will be done elsewhere.
 Leave Link  702 at Wed Oct  7 14:46:42 2020, MaxMem=  2684354560 cpu:               1.6 elap:               0.6
 (Enter /udrive/faculty/rpeverati/g16/g16/l703.exe)
 Integral derivatives from FoFJK, PRISM(SPDF).
 Compute integral first derivatives, UseDBF=F ICtDFT=           0.
 Calling FoFJK, ICntrl=      2527 FMM=F ISym2X=1 I1Cent= 0 IOpClX= 0 NMat=1 NMatS=1 NMatT=0.
 FoFJK:  IHMeth= 1 ICntrl=    2527 DoSepK=F KAlg= 0 I1Cent=           0 FoldK=F
 IRaf=         0 NMat=       1 IRICut=       1 DoRegI=T DoRafI=F ISym2E= 1 IDoP0=0 IntGTp=1.
 FoFCou: FMM=F IPFlag=           0 FMFlag=      100000 FMFlg1=         800
         NFxFlg=           0 DoJE=F BraDBF=F KetDBF=F FulRan=T
         wScrn=  0.000000 ICntrl=      2527 IOpCl=  0 I1Cent=           0 NGrid=           0
         NMat0=    1 NMatS0=      1 NMatT0=    0 NMatD0=    1 NMtDS0=    0 NMtDT0=    0
 Petite list used in FoFCou.
 Leave Link  703 at Wed Oct  7 14:46:43 2020, MaxMem=  2684354560 cpu:               5.7 elap:               0.9
 (Enter /udrive/faculty/rpeverati/g16/g16/l716.exe)
 Dipole        =-2.22044605D-16-1.11022302D-16-2.14270402D+00
 ***** Axes restored to original set *****
 -------------------------------------------------------------------
 Center     Atomic                   Forces (Hartrees/Bohr)
 Number     Number              X              Y              Z
 -------------------------------------------------------------------
      1        9          -0.000000000   -0.000000000   -0.006065078
      2        6          -0.000000000    0.000000000    0.007163574
      3        1          -0.000021259    0.000036822    0.002266082
      4        1          -0.000021259   -0.000036822    0.002266082
      5        1           0.000042519    0.000000000    0.002266082
      6        9          -0.000000000   -0.000000000   -0.007896741
 -------------------------------------------------------------------
 Cartesian Forces:  Max     0.007896741 RMS     0.003035634
 Leave Link  716 at Wed Oct  7 14:46:44 2020, MaxMem=  2684354560 cpu:               2.0 elap:               0.5
 (Enter /udrive/faculty/rpeverati/g16/g16/l103.exe)

 GradGradGradGradGradGradGradGradGradGradGradGradGradGradGradGradGradGrad
 Berny optimization.
 Optmz: redundant internal coordinate code flag= 1
 Using GEDIIS/GDIIS optimizer.
 Red2BG:  D1=  5.06D-01 OD1=  1.07D-01 B2RMS=  0.00D+00 IAprox=0
 FormGI is forming the generalized inverse of G from B-inverse, IUseBI=4.
 Internal  Forces:  Max     0.006065078 RMS     0.001566922
 Search for a local minimum.
 Step number   2 out of a maximum of  100
 All quantities printed in internal units (Hartrees-Bohrs-Radians)
 RMS Force = .15669D-02 SwitMx=.10000D-02 MixMth= 1
 Mixed Optimization -- RFO/linear search
 Update second derivatives using D2CorX and points    1    2
 DE= -2.43D-03 DEPred=-2.00D-03 R= 1.21D+00
 TightC=F SS=  1.41D+00  RLast= 1.90D-01 DXNew= 5.0454D-01 5.7110D-01
 Trust test= 1.21D+00 RLast= 1.90D-01 DXMaxT set to 5.05D-01
 The second derivative matrix:
                          R1        R2        R3        R4        R5
           R1           0.38033
           R2          -0.00447   0.36091
           R3          -0.00375   0.00265   0.36155
           R4          -0.00573   0.00177   0.00208   0.35981
           R5           0.02728   0.01161   0.01171   0.01144   0.03452
           R6           0.00836   0.00292   0.00290   0.00295  -0.00106
           R7           0.00831   0.00290   0.00288   0.00293  -0.00106
           R8           0.00724   0.00242   0.00240   0.00247  -0.00121
           A1          -0.01501  -0.00480  -0.00473  -0.00493   0.00314
           A2          -0.01499  -0.00480  -0.00473  -0.00492   0.00314
           A3          -0.01481  -0.00472  -0.00464  -0.00484   0.00317
           A4           0.02387   0.00872   0.00869   0.00877  -0.00194
           A5           0.01119   0.00312   0.00302   0.00327  -0.00368
           A6           0.01112   0.00308   0.00299   0.00324  -0.00369
           A7           0.00472   0.00327   0.00339   0.00307   0.00401
           A8           0.00101   0.00163   0.00173   0.00146   0.00350
           A9           0.00113   0.00168   0.00178   0.00151   0.00352
           A10          0.00011   0.00005   0.00005   0.00005   0.00001
           A11          0.00015   0.00007   0.00007   0.00006   0.00002
           D1          -0.02954  -0.01316  -0.01331  -0.01289  -0.00433
           D2          -0.00256  -0.00113  -0.00114  -0.00111  -0.00034
           D3          -0.00499  -0.00221  -0.00224  -0.00217  -0.00069
           D4           0.00493   0.00218   0.00221   0.00214   0.00068
                          R6        R7        R8        A1        A2
           R6           0.02138
           R7          -0.00074   0.02138
           R8          -0.00071  -0.00070   0.02145
           A1           0.00161   0.00160   0.00150   0.15667
           A2           0.00161   0.00160   0.00150  -0.00333   0.15667
           A3           0.00160   0.00160   0.00149  -0.00331  -0.00331
           A4          -0.00186  -0.00186  -0.00182   0.00421   0.00421
           A5          -0.00150  -0.00150  -0.00137   0.00296   0.00296
           A6          -0.00150  -0.00150  -0.00136   0.00296   0.00295
           A7           0.00064   0.00063   0.00045  -0.00074  -0.00073
           A8           0.00074   0.00073   0.00059  -0.00110  -0.00110
           A9           0.00074   0.00073   0.00058  -0.00109  -0.00109
           A10         -0.00000  -0.00000  -0.00000   0.00001   0.00001
           A11         -0.00000  -0.00000  -0.00001   0.00001   0.00001
           D1           0.00076   0.00077   0.00100  -0.00281  -0.00281
           D2           0.00007   0.00007   0.00009  -0.00025  -0.00025
           D3           0.00014   0.00014   0.00018  -0.00049  -0.00049
           D4          -0.00014  -0.00014  -0.00017   0.00048   0.00048
                          A3        A4        A5        A6        A7
           A3           0.15671
           A4           0.00420   0.15545
           A5           0.00294  -0.00407   0.15751
           A6           0.00293  -0.00407  -0.00248   0.15753
           A7          -0.00070   0.00217   0.00011   0.00010   0.16187
           A8          -0.00107   0.00231   0.00058   0.00057   0.00126
           A9          -0.00106   0.00231   0.00056   0.00055   0.00128
           A10          0.00001  -0.00000  -0.00001  -0.00001   0.00002
           A11          0.00001  -0.00001  -0.00002  -0.00002   0.00002
           D1          -0.00285   0.00093   0.00363   0.00365  -0.00489
           D2          -0.00026   0.00010   0.00032   0.00032  -0.00041
           D3          -0.00050   0.00019   0.00062   0.00063  -0.00081
           D4           0.00049  -0.00018  -0.00061  -0.00062   0.00080
                          A8        A9        A10       A11       D1
           A8           0.16075
           A9           0.00077   0.16079
           A10          0.00001   0.00001   0.00230
           A11          0.00002   0.00002   0.00000   0.00230
           D1          -0.00410  -0.00412  -0.00002  -0.00003   0.01014
           D2          -0.00035  -0.00035  -0.00000  -0.00000   0.00054
           D3          -0.00068  -0.00069  -0.00000  -0.00001   0.00107
           D4           0.00068   0.00068   0.00000   0.00001  -0.00106
                          D2        D3        D4
           D2           0.00234
           D3           0.00009   0.00247
           D4          -0.00009  -0.00017   0.00247
 ITU=  1  0
 Use linear search instead of GDIIS.
 Eigenvectors of the second derivative matrix:
                           1         2         3         4         5
     Eigenvalues --     0.01941   0.01967   0.02007   0.06962   0.09934
   1         R1        -0.00097   0.00165   0.06885  -0.01722   0.00124
   2         R2         0.00010   0.00375   0.01561  -0.01199   0.00151
   3         R3        -0.00459   0.00012   0.01586  -0.00081   0.01090
   4         R4         0.00359  -0.00254   0.01590  -0.02331  -0.00849
   5         R5         0.00487  -0.00987  -0.45182   0.40668  -0.03220
   6         R6         0.08750   0.72287  -0.51391  -0.05725   0.00565
   7         R7        -0.66558  -0.30586  -0.49917  -0.05190   0.20525
   8         R8         0.59347  -0.44915  -0.48291  -0.03163  -0.19043
   9         A1         0.00316   0.03286   0.04363   0.19558  -0.00808
  10         A2        -0.03311  -0.01151   0.04423   0.19601  -0.56762
  11         A3         0.02886  -0.01869   0.04507   0.20998   0.52360
  12         A4        -0.00759   0.00382  -0.05165  -0.46739  -0.02401
  13         A5         0.00836   0.00213  -0.04270  -0.07595   0.07636
  14         A6         0.00036  -0.00869  -0.04256  -0.07619   0.00131
  15         A7         0.04749  -0.03461   0.07983  -0.12641  -0.02290
  16         A8        -0.05641  -0.02308   0.08097  -0.02070   0.03662
  17         A9         0.00621   0.06304   0.07977  -0.01909  -0.00046
  18         A10        0.04343   0.38743  -0.00806  -0.00995   0.00871
  19         A11       -0.41361   0.04710  -0.00537  -0.01523  -0.55414
  20         D1        -0.00418   0.00088  -0.10961  -0.64415   0.01491
  21         D2        -0.08038   0.08031   0.01141   0.16215   0.05843
  22         D3        -0.09638  -0.05984  -0.00799   0.09340   0.06843
  23         D4        -0.02838  -0.11106   0.01042  -0.09388   0.01376
                           6         7         8         9        10
     Eigenvalues --     0.10301   0.11614   0.11666   0.32973   0.33949
   1         R1         0.00096   0.00917  -0.00226   0.01597  -0.00142
   2         R2         0.00332  -0.00183  -0.01928  -0.38749   0.56125
   3         R3         0.00534   0.05747   0.00537  -0.12485  -0.76793
   4         R4        -0.00533  -0.01849   0.00477   0.85592   0.13794
   5         R5        -0.02646  -0.27461   0.06767   0.00645  -0.02035
   6         R6         0.20530  -0.00214  -0.09397   0.00797   0.02683
   7         R7        -0.08845   0.05706   0.07784   0.01527  -0.00792
   8         R8        -0.09937   0.14312  -0.03275   0.01770  -0.00856
   9         A1        -0.65304  -0.07500   0.12309  -0.00929  -0.00422
  10         A2         0.29540  -0.14462  -0.05897  -0.00570  -0.02649
  11         A3         0.31452  -0.23597   0.04819   0.01806  -0.00396
  12         A4        -0.02438  -0.39601   0.09875  -0.03148  -0.07344
  13         A5        -0.04329   0.30150  -0.66295   0.02961  -0.02310
  14         A6         0.11208   0.56371   0.44853  -0.00130   0.13225
  15         A7        -0.01551  -0.10721   0.02694  -0.10943  -0.06233
  16         A8        -0.02201   0.06988  -0.18105   0.09619   0.12610
  17         A9         0.04843   0.15099   0.12611   0.13717  -0.08179
  18         A10       -0.54206   0.04443   0.04868   0.00802  -0.00586
  19         A11       -0.00879   0.02859  -0.03298   0.01000   0.00974
  20         D1         0.00948   0.01240  -0.00234  -0.02173  -0.02651
  21         D2         0.04703   0.36063  -0.08660   0.05644  -0.14263
  22         D3        -0.05604   0.09306  -0.39313  -0.17267   0.03174
  23         D4        -0.09639  -0.26187  -0.30449   0.15738   0.04669
                          11        12
     Eigenvalues --     0.34597   0.38267
   1         R1         0.11572   0.99056
   2         R2         0.66433  -0.07189
   3         R3         0.54275  -0.06416
   4         R4         0.36168  -0.05716
   5         R5         0.04530   0.03583
   6         R6         0.04706   0.02762
   7         R7         0.04408   0.02772
   8         R8         0.04200   0.02808
   9         A1         0.02286  -0.00059
  10         A2         0.02095  -0.00045
  11         A3         0.01709  -0.00038
  12         A4        -0.00186   0.00002
  13         A5        -0.03751   0.00116
  14         A6        -0.02335   0.00028
  15         A7         0.22335  -0.03096
  16         A8         0.17857  -0.02932
  17         A9         0.15952  -0.02810
  18         A10       -0.00208   0.00010
  19         A11       -0.00169   0.00003
  20         D1        -0.03640   0.00083
  21         D2        -0.00483  -0.00240
  22         D3         0.01065   0.00198
  23         D4        -0.00341  -0.00246
 Iter=   1 RLamda= 0.00000000D+00 Sum=-9.45560729D-04.
 Iter=   2 RLamda=-9.45560729D-04 Sum=-9.10921444D-04.
 Iter=   3 RLamda=-9.10921444D-04 Sum=-9.12137210D-04.
 Iter=   4 RLamda=-9.12137210D-04 Sum=-9.12094474D-04.
 Iter=   5 RLamda=-9.12094474D-04 Sum=-9.12095976D-04.
 RFO step:  Lambda=-9.12094474D-04 EMin= 1.94081769D-02
 Quartic linear search produced a step of  0.41683.
 Iteration  1 RMS(Cart)=  0.02505943 RMS(Int)=  0.00032820
 Iteration  2 RMS(Cart)=  0.00012498 RMS(Int)=  0.00028655
 Iteration  3 RMS(Cart)=  0.00000002 RMS(Int)=  0.00028655
 ITry= 1 IFail=0 DXMaxC= 1.01D-01 DCOld= 1.00D+10 DXMaxT= 5.05D-01 DXLimC= 3.00D+00 Rises=F
 ClnCor:  largest displacement from symmetrization is 6.10D-04 for atom     3.
 Variable       Old X    -DE/DX   Delta X   Delta X   Delta X     New X
                                 (Linear)    (Quad)   (Total)
    R1        2.75713   0.00607   0.02620   0.00661   0.03281   2.78994
    R2        2.07074   0.00078   0.01154  -0.00517   0.00613   2.07687
    R3        2.07074   0.00077   0.01154  -0.00517   0.00613   2.07687
    R4        2.07074   0.00074   0.01154  -0.00518   0.00613   2.07687
    R5        4.83416  -0.00216  -0.01358  -0.10141  -0.11487   4.71929
    R6        4.55125  -0.00200  -0.03376  -0.08961  -0.12340   4.42785
    R7        4.55125  -0.00200  -0.03376  -0.08959  -0.12340   4.42785
    R8        4.55125  -0.00200  -0.03376  -0.08982  -0.12340   4.42785
    A1        1.92496   0.00005   0.01101  -0.00121   0.00986   1.93482
    A2        1.92496   0.00005   0.01101  -0.00121   0.00986   1.93482
    A3        1.92496   0.00005   0.01101  -0.00121   0.00986   1.93482
    A4        1.89609  -0.00002  -0.01103   0.00079  -0.01025   1.88584
    A5        1.89609  -0.00007  -0.01103   0.00147  -0.01025   1.88584
    A6        1.89609  -0.00007  -0.01103   0.00147  -0.01025   1.88584
    A7        0.75710   0.00064   0.00712   0.01390   0.02161   0.77870
    A8        0.75710   0.00062   0.00712   0.01411   0.02161   0.77870
    A9        0.75710   0.00062   0.00712   0.01411   0.02161   0.77870
   A10        3.14159  -0.00000   0.00000   0.00003   0.00000   3.14159
   A11        3.14159   0.00000   0.00000   0.00007   0.00000   3.14159
    D1        2.05975  -0.00011  -0.02691   0.00259  -0.02333   2.03642
    D2        0.56818   0.00006   0.00089   0.00210   0.00279   0.57097
    D3       -0.56818  -0.00008  -0.00089  -0.00162  -0.00279  -0.57097
    D4        0.56818   0.00009   0.00089   0.00163   0.00279   0.57097
         Item               Value     Threshold  Converged?
 Maximum Force            0.006065     0.000450     NO 
 RMS     Force            0.001567     0.000300     NO 
 Maximum Displacement     0.100912     0.001800     NO 
 RMS     Displacement     0.025082     0.001200     NO 
 Predicted change in Energy=-5.700306D-04
 Lowest energy point so far.  Saving SCF results.
 Largest change from initial coordinates is atom    3       0.057 Angstoms.
 GradGradGradGradGradGradGradGradGradGradGradGradGradGradGradGradGradGrad

 Leave Link  103 at Wed Oct  7 14:46:45 2020, MaxMem=  2684354560 cpu:               4.0 elap:               1.0
 (Enter /udrive/faculty/rpeverati/g16/g16/l202.exe)
                          Input orientation:                          
 ---------------------------------------------------------------------
 Center     Atomic      Atomic             Coordinates (Angstroms)
 Number     Number       Type             X           Y           Z
 ---------------------------------------------------------------------
      1          9           0        0.000000   -0.000000   -1.842186
      2          6           0        0.000000   -0.000000   -0.365814
      3          1           0       -0.513507    0.889421    0.025481
      4          1           0       -0.513507   -0.889421    0.025481
      5          1           0        1.027015   -0.000000    0.025481
      6          9           0        0.000000   -0.000000    2.131528
 ---------------------------------------------------------------------
                    Distance matrix (angstroms):
                    1          2          3          4          5
     1  F    0.000000
     2  C    1.476372   0.000000
     3  H    2.131417   1.099031   0.000000
     4  H    2.131417   1.099031   1.778841   0.000000
     5  H    2.131417   1.099031   1.778841   1.778841   0.000000
     6  F    3.973714   2.497342   2.343116   2.343116   2.343116
                    6
     6  F    0.000000
 Stoichiometry    CH3F2(1-)
 Framework group  C3V[C3(FCF),3SGV(H)]
 Deg. of freedom     4
 Full point group                 C3V     NOp   6
 RotChk:  IX=0 Diff= 0.00D+00
 Largest Abelian subgroup         CS      NOp   2
 Largest concise Abelian subgroup CS      NOp   2
                         Standard orientation:                         
 ---------------------------------------------------------------------
 Center     Atomic      Atomic             Coordinates (Angstroms)
 Number     Number       Type             X           Y           Z
 ---------------------------------------------------------------------
      1          9           0        0.000000    0.000000   -1.860172
      2          6           0        0.000000    0.000000   -0.383800
      3          1           0       -0.000000    1.027015    0.007494
      4          1           0       -0.889421   -0.513507    0.007494
      5          1           0        0.889421   -0.513507    0.007494
      6          9           0        0.000000    0.000000    2.113541
 ---------------------------------------------------------------------
 Rotational constants (GHZ):         158.4738452           3.2823781           3.2823781
[...]
           A9          -0.00047   0.00185  -0.00016  -0.00017  -0.00455
           A10          0.00001   0.00001  -0.00002  -0.00002   0.00003
           A11          0.00001   0.00002  -0.00003  -0.00003   0.00004
           D1          -0.00098  -0.00419   0.00333   0.00340  -0.00694
           D2          -0.00041  -0.00025   0.00073   0.00074  -0.00088
           D3          -0.00010  -0.00061   0.00042   0.00043  -0.00097
           D4           0.00009   0.00060  -0.00040  -0.00041   0.00095
                          A8        A9        A10       A11       D1
           A8           0.15478
           A9          -0.00519   0.15484
           A10          0.00002   0.00002   0.00230
           A11          0.00003   0.00003   0.00000   0.00230
           D1          -0.00452  -0.00464  -0.00009  -0.00011   0.02095
           D2          -0.00056  -0.00058  -0.00001  -0.00001   0.00229
           D3          -0.00064  -0.00066  -0.00001  -0.00002   0.00239
           D4           0.00063   0.00064   0.00001   0.00001  -0.00233
                          D2        D3        D4
           D2           0.00260
           D3           0.00031   0.00263
           D4          -0.00030  -0.00033   0.00262
 ITU=  1  1  1  1  1  1  0
 Eigenvectors of the second derivative matrix:
                           1         2         3         4         5
     Eigenvalues --     0.00878   0.01968   0.01990   0.03168   0.09935
   1         R1         0.04302  -0.00081   0.00059  -0.13299  -0.01064
   2         R2        -0.00895   0.00112   0.00386   0.03751   0.00260
   3         R3        -0.00885  -0.00465  -0.00050   0.03854  -0.01414
   4         R4        -0.00877   0.00450  -0.00393   0.03452   0.01830
   5         R5        -0.53681   0.00239  -0.00150   0.38049   0.02446
   6         R6        -0.47680   0.13388   0.72568  -0.15316  -0.01107
   7         R7        -0.47677  -0.69150  -0.24262  -0.15034  -0.20221
   8         R8        -0.47799   0.55260  -0.47866  -0.16077   0.18353
   9         A1        -0.00066   0.00781   0.03087   0.24266   0.02488
  10         A2        -0.00066  -0.03235  -0.01148   0.24297   0.54861
  11         A3        -0.00068   0.03016  -0.02352   0.24195  -0.52678
  12         A4         0.00098  -0.01352   0.00974  -0.31175   0.09605
  13         A5         0.00054   0.01043   0.00488  -0.21572  -0.10594
  14         A6         0.00053  -0.00265  -0.01040  -0.21575  -0.03783
  15         A7         0.09328   0.05164  -0.04528  -0.04945   0.04882
  16         A8         0.09328  -0.06522  -0.02356  -0.01964  -0.04578
  17         A9         0.09330   0.01324   0.06900  -0.01972  -0.00890
  18         A10        0.00020   0.07194   0.38486   0.00087   0.00873
  19         A11        0.00038  -0.41066   0.07796   0.00360   0.54666
  20         D1         0.00179  -0.01179   0.00854  -0.62349   0.03285
  21         D2         0.01300  -0.06613   0.08832   0.03873  -0.10322
  22         D3        -0.01313  -0.09439  -0.05781   0.02607  -0.08796
  23         D4         0.01312  -0.04288  -0.10362  -0.02570   0.01191
                           6         7         8         9        10
     Eigenvalues --     0.10289   0.10753   0.11687   0.31693   0.33006
   1         R1        -0.01314   0.05655   0.00055  -0.32201   0.09949
   2         R2        -0.00110  -0.02078   0.01880   0.30945  -0.57351
   3         R3        -0.00599   0.02771  -0.01860   0.47134  -0.42323
   4         R4         0.01525  -0.04242  -0.00058   0.66112   0.61791
   5         R5         0.02978  -0.12614  -0.00119  -0.05412   0.01260
   6         R6        -0.20203  -0.03075   0.09127   0.03609  -0.01285
   7         R7         0.09595   0.02125  -0.08892   0.04249  -0.00788
   8         R8         0.06984   0.16195  -0.00099   0.04714   0.00157
   9         A1         0.64120   0.07532  -0.09974  -0.01908  -0.01253
  10         A2        -0.32033  -0.05085   0.09035  -0.01540  -0.00966
  11         A3        -0.26399  -0.26489   0.00715  -0.00984   0.02497
  12         A4         0.11920  -0.51531  -0.00496   0.00247  -0.03466
  13         A5        -0.01297   0.38997   0.57235   0.03136   0.02511
  14         A6        -0.16433   0.37093  -0.56510   0.01145   0.00671
  15         A7         0.04601  -0.15638  -0.00173   0.15550  -0.21628
  16         A8         0.01235   0.09369   0.17101   0.20347   0.01813
  17         A9        -0.06552   0.09266  -0.16901   0.23042   0.04327
  18         A10        0.52992   0.11626  -0.05589   0.00322   0.01047
  19         A11       -0.02602   0.08681   0.02548   0.00225   0.01462
  20         D1         0.04140  -0.18219  -0.00180   0.02762  -0.02340
  21         D2        -0.11022   0.38020   0.00174   0.05764   0.03026
  22         D3         0.02424   0.20222   0.36006  -0.06929  -0.15640
  23         D4         0.12823  -0.18744   0.35599   0.06042   0.14794
                          11        12
     Eigenvalues --     0.33858   0.47507
   1         R1        -0.02020   0.92897
   2         R2         0.66433   0.19018
   3         R3        -0.67450   0.19804
   4         R4         0.15164   0.17465
   5         R5        -0.01938   0.06718
   6         R6         0.03538   0.01330
   7         R7        -0.00697   0.01333
   8         R8        -0.00283   0.00925
   9         A1         0.00382   0.03440
  10         A2        -0.03055   0.03462
  11         A3        -0.00236   0.03492
  12         A4        -0.07079  -0.00751
  13         A5        -0.03124  -0.04887
  14         A6         0.13175  -0.04979
  15         A7        -0.02681   0.07588
  16         A8         0.15711   0.05868
  17         A9        -0.06736   0.06003
  18         A10       -0.01077   0.00025
  19         A11        0.01218   0.00016
  20         D1        -0.02734  -0.06582
  21         D2        -0.14305  -0.00743
  22         D3         0.03829  -0.01533
  23         D4         0.03802   0.01482
 DoSqrt=T IScMMF=    -3 MM Scaling Factor =       0.00000
 En-DIIS/RFO-DIIS/Sim-DIIS IScMMF=       -3 using points:     7    6    5
 Iter=   1 RLamda=-4.12216148D-02 Sum=-4.77137362D-07.
 Iter=   2 RLamda=-4.77137362D-07 Sum=-7.31886173D-07.
 Iter=   3 RLamda=-7.31886173D-07 Sum=-7.31882474D-07.
 RFO step:  Lambda=-7.31886173D-07.
 NNeg= 0 NGDIIS= 3 SimSw=  2.50D-01 Rises=F DC= -1.38D-06 SmlDif=  1.00D-05
 NRisDI= 0 DoIntr=F SqrtH=F CThrHd= 10.0 CDAdj=  3.0
 RMS Error=  0.7946178513D-03 NUsed= 3 OKEnD=F EnDIS=F
 Total RFO-DIIS matrix:
                 1             2             3             4 
      1   0.000000D+00 -0.100000D+01 -0.100000D+01 -0.100000D+01
      2  -0.100000D+01  0.145226D-04  0.442263D-04  0.135373D-03
      3  -0.100000D+01  0.442263D-04  0.164389D-03  0.294093D-03
      4  -0.100000D+01  0.135373D-03  0.294093D-03  0.227469D-02
 InvSVX:  RCond= 1.37D-05 Info=           0 Equed=N FErr=  2.28D-15 BErr=  4.39D-17
 DidBck=F Rises=F RFO-DIIS coefs:    1.31013   -0.26735   -0.04278
 Iteration  1 RMS(Cart)=  0.00035960 RMS(Int)=  0.00000288
 Iteration  2 RMS(Cart)=  0.00000021 RMS(Int)=  0.00000287
 ITry= 1 IFail=0 DXMaxC= 9.99D-04 DCOld= 1.00D+10 DXMaxT= 9.67D-01 DXLimC= 3.00D+00 Rises=F
 ClnCor:  largest displacement from symmetrization is 7.82D-06 for atom     4.
 Variable       Old X    -DE/DX   Delta X   Delta X   Delta X     New X
                                 (Linear)    (Quad)   (Total)
    R1        2.81548   0.00040  -0.00008   0.00114   0.00106   2.81654
    R2        2.06841   0.00003  -0.00028   0.00018  -0.00010   2.06831
    R3        2.06841   0.00002  -0.00028   0.00018  -0.00010   2.06831
    R4        2.06841   0.00003  -0.00028   0.00018  -0.00010   2.06831
    R5        4.49051  -0.00001  -0.00031  -0.00001  -0.00031   4.49019
    R6        4.25104   0.00003   0.00129   0.00001   0.00130   4.25234
    R7        4.25104   0.00003   0.00129   0.00001   0.00130   4.25234
    R8        4.25104   0.00003   0.00129   0.00002   0.00130   4.25234
    A1        1.92090  -0.00002  -0.00078   0.00000  -0.00077   1.92013
    A2        1.92090  -0.00002  -0.00078   0.00000  -0.00077   1.92013
    A3        1.92090  -0.00002  -0.00078   0.00000  -0.00077   1.92013
    A4        1.90026   0.00001   0.00080  -0.00001   0.00079   1.90105
    A5        1.90026   0.00002   0.00080   0.00000   0.00079   1.90105
    A6        1.90026   0.00002   0.00080   0.00000   0.00079   1.90105
    A7        0.81391   0.00001  -0.00013   0.00007  -0.00006   0.81385
    A8        0.81391   0.00001  -0.00013   0.00007  -0.00006   0.81385
    A9        0.81391   0.00001  -0.00013   0.00007  -0.00006   0.81385
   A10        3.14159  -0.00000   0.00000  -0.00000   0.00000   3.14159
   A11        3.14159  -0.00000   0.00000  -0.00000   0.00000   3.14159
    D1        2.06948   0.00003   0.00185  -0.00001   0.00186   2.07134
    D2        0.57575   0.00001  -0.00002   0.00001  -0.00001   0.57574
    D3       -0.57575   0.00000   0.00002  -0.00001   0.00001  -0.57574
    D4        0.57575  -0.00000  -0.00002   0.00001  -0.00001   0.57574
         Item               Value     Threshold  Converged?
 Maximum Force            0.000399     0.000450     YES
 RMS     Force            0.000085     0.000300     YES
 Maximum Displacement     0.000999     0.001800     YES
 RMS     Displacement     0.000359     0.001200     YES
 Predicted change in Energy=-3.597745D-07
 Optimization completed.
    -- Stationary point found.
                           ----------------------------
                           !   Optimized Parameters   !
                           ! (Angstroms and Degrees)  !
 --------------------------                            --------------------------
 ! Name  Definition              Value          Derivative Info.                !
 --------------------------------------------------------------------------------
 ! R1    R(1,2)                  1.4899         -DE/DX =    0.0004              !
 ! R2    R(2,3)                  1.0946         -DE/DX =    0.0                 !
 ! R3    R(2,4)                  1.0946         -DE/DX =    0.0                 !
 ! R4    R(2,5)                  1.0946         -DE/DX =    0.0                 !
 ! R5    R(2,6)                  2.3763         -DE/DX =    0.0                 !
 ! R6    R(3,6)                  2.2496         -DE/DX =    0.0                 !
 ! R7    R(4,6)                  2.2496         -DE/DX =    0.0                 !
 ! R8    R(5,6)                  2.2496         -DE/DX =    0.0                 !
 ! A1    A(1,2,3)              110.0594         -DE/DX =    0.0                 !
 ! A2    A(1,2,4)              110.0594         -DE/DX =    0.0                 !
 ! A3    A(1,2,5)              110.0594         -DE/DX =    0.0                 !
 ! A4    A(3,2,4)              108.8767         -DE/DX =    0.0                 !
 ! A5    A(3,2,5)              108.8767         -DE/DX =    0.0                 !
 ! A6    A(4,2,5)              108.8767         -DE/DX =    0.0                 !
 ! A7    A(3,6,4)               46.6338         -DE/DX =    0.0                 !
 ! A8    A(3,6,5)               46.6338         -DE/DX =    0.0                 !
 ! A9    A(4,6,5)               46.6338         -DE/DX =    0.0                 !
 ! A10   L(1,2,6,3,-1)         180.0            -DE/DX =    0.0                 !
 ! A11   L(1,2,6,3,-2)         180.0            -DE/DX =    0.0                 !
 ! D1    D(3,2,5,4)            118.5723         -DE/DX =    0.0                 !
 ! D2    D(4,3,6,2)             32.9882         -DE/DX =    0.0                 !
 ! D3    D(5,3,6,2)            -32.9882         -DE/DX =    0.0                 !
 ! D4    D(5,4,6,2)             32.9882         -DE/DX =    0.0                 !
 --------------------------------------------------------------------------------
 Lowest energy point so far.  Saving SCF results.
 Largest change from initial coordinates is atom    6       0.114 Angstoms.
 GradGradGradGradGradGradGradGradGradGradGradGradGradGradGradGradGradGrad

 Leave Link  103 at Wed Oct  7 14:47:52 2020, MaxMem=  2684354560 cpu:               2.4 elap:               0.7
 (Enter /udrive/faculty/rpeverati/g16/g16/l202.exe)
                          Input orientation:                          
 ---------------------------------------------------------------------
 Center     Atomic      Atomic             Coordinates (Angstroms)
 Number     Number       Type             X           Y           Z
 ---------------------------------------------------------------------
      1          9           0        0.000000   -0.000000   -1.825300
      2          6           0        0.000000   -0.000000   -0.335412
      3          1           0       -0.514079    0.890411    0.040015
      4          1           0       -0.514079   -0.890411    0.040015
      5          1           0        1.028158   -0.000000    0.040015
      6          9           0        0.000000   -0.000000    2.040861
 ---------------------------------------------------------------------
                    Distance matrix (angstroms):
                    1          2          3          4          5
     1  F    0.000000
     2  C    1.489887   0.000000
     3  H    2.129908   1.094557   0.000000
     4  H    2.129908   1.094557   1.780822   0.000000
     5  H    2.129908   1.094557   1.780822   1.780822   0.000000
     6  F    3.866161   2.376274   2.249555   2.249555   2.249555
                    6
     6  F    0.000000
 Stoichiometry    CH3F2(1-)
 Framework group  C3V[C3(FCF),3SGV(H)]
 Deg. of freedom     4
 Full point group                 C3V     NOp   6
 RotChk:  IX=0 Diff= 0.00D+00
 Largest Abelian subgroup         CS      NOp   2
 Largest concise Abelian subgroup CS      NOp   2
                         Standard orientation:                         
 ---------------------------------------------------------------------
 Center     Atomic      Atomic             Coordinates (Angstroms)
 Number     Number       Type             X           Y           Z
 ---------------------------------------------------------------------
      1          9           0        0.000000    0.000000   -1.827063
      2          6           0        0.000000    0.000000   -0.337176
      3          1           0       -0.000000    1.028158    0.038251
      4          1           0       -0.890411   -0.514079    0.038251
      5          1           0        0.890411   -0.514079    0.038251
      6          9           0        0.000000    0.000000    2.039097
 ---------------------------------------------------------------------
 Rotational constants (GHZ):         158.1215066           3.4762599           3.4762599
 Leave Link  202 at Wed Oct  7 14:47:53 2020, MaxMem=  2684354560 cpu:               1.0 elap:               0.5
 (Enter /udrive/faculty/rpeverati/g16/g16/l601.exe)
 Copying SCF densities to generalized density rwf, IOpCl= 0 IROHF=0.

 **********************************************************************

            Population analysis using the SCF density.

 **********************************************************************

 Orbital symmetries:
       Occupied  (A1) (A1) (A1) (A1) (A1) (A1) (A1) (E) (E) (E)
                 (E) (A1) (E) (E)
       Virtual   (A1) (A1) (E) (E) (E) (E) (A1) (E) (E) (A1) (A1)
                 (E) (E) (A1) (E) (E) (A1) (E) (E) (A1) (E) (E)
                 (A1) (A1) (E) (E) (E) (E) (E) (E) (A1) (E) (E)
                 (A1)
 The electronic state is 1-A1.
 Alpha  occ. eigenvalues --  -24.03535 -23.79942  -9.74740  -0.80933  -0.54528
 Alpha  occ. eigenvalues --   -0.38410  -0.17208  -0.16802  -0.16802  -0.05395
 Alpha  occ. eigenvalues --   -0.05395   0.12299   0.13349   0.13349
 Alpha virt. eigenvalues --    0.29144   0.31186   0.35906   0.35906   0.72524
 Alpha virt. eigenvalues --    0.72524   0.73673   1.01807   1.01807   1.05628
 Alpha virt. eigenvalues --    1.20161   1.39207   1.39207   1.39876   1.53332
 Alpha virt. eigenvalues --    1.53332   1.58272   1.69855   1.69855   1.92484
 Alpha virt. eigenvalues --    2.00212   2.00212   2.03072   2.14567   2.20940
 Alpha virt. eigenvalues --    2.20940   2.22059   2.22059   2.31201   2.31201
 Alpha virt. eigenvalues --    2.39855   2.50852   2.50852   3.09453
          Condensed to atoms (all electrons):
               1          2          3          4          5          6
     1  F    9.372230   0.128144  -0.028395  -0.028395  -0.028395   0.000199
     2  C    0.128144   4.933000   0.346004   0.346004   0.346004   0.029001
     3  H   -0.028395   0.346004   0.664428  -0.049223  -0.049223   0.018138
     4  H   -0.028395   0.346004  -0.049223   0.664428  -0.049223   0.018138
     5  H   -0.028395   0.346004  -0.049223  -0.049223   0.664428   0.018138
     6  F    0.000199   0.029001   0.018138   0.018138   0.018138   9.667658
 Mulliken charges:
               1
     1  F   -0.415387
     2  C   -0.128156
     3  H    0.098271
     4  H    0.098271
     5  H    0.098271
     6  F   -0.751270
 Sum of Mulliken charges =  -1.00000
 Mulliken charges with hydrogens summed into heavy atoms:
               1
     1  F   -0.415387
     2  C    0.166657
     6  F   -0.751270
 Electronic spatial extent (au):  <R**2>=            310.7278
 Charge=             -1.0000 electrons
 Dipole moment (field-independent basis, Debye):
    X=             -0.0000    Y=             -0.0000    Z=             -4.5167  Tot=              4.5167
 Quadrupole moment (field-independent basis, Debye-Ang):
   XX=            -17.9881   YY=            -17.9881   ZZ=            -39.3866
   XY=             -0.0000   XZ=             -0.0000   YZ=             -0.0000
 Traceless Quadrupole moment (field-independent basis, Debye-Ang):
   XX=              7.1329   YY=              7.1329   ZZ=            -14.2657
   XY=             -0.0000   XZ=             -0.0000   YZ=             -0.0000
 Octapole moment (field-independent basis, Debye-Ang**2):
  XXX=              0.0000  YYY=              0.2937  ZZZ=            -21.9728  XYY=              0.0000
  XXY=             -0.2937  XXZ=             -0.4290  XZZ=              0.0000  YZZ=              0.0000
  YYZ=             -0.4290  XYZ=             -0.0000
 Hexadecapole moment (field-independent basis, Debye-Ang**3):
 XXXX=            -20.9943 YYYY=            -20.9943 ZZZZ=           -329.7384 XXXY=              0.0000
 XXXZ=              0.0000 YYYX=              0.0000 YYYZ=              0.0466 ZZZX=              0.0000
 ZZZY=              0.0000 XXYY=             -6.9981 XXZZ=            -45.7590 YYZZ=            -45.7590
 XXYZ=             -0.0466 YYXZ=              0.0000 ZZXY=              0.0000
 N-N= 6.494519766152D+01 E-N=-7.083430957881D+02  KE= 2.385215672524D+02
 No NMR shielding tensors so no spin-rotation constants.
 Leave Link  601 at Wed Oct  7 14:47:54 2020, MaxMem=  2684354560 cpu:               7.4 elap:               1.0
 (Enter /udrive/faculty/rpeverati/g16/g16/l9999.exe)

 Test job not archived.
 1\1\GINC-NODE56\FOpt\RBLYP\6-31G(d)\C1H3F2(1-)\RPEVERATI\07-Oct-2020\0
 \\#P Opt(MaxCyc=100) BLYP/6-31G* 5D 7F Integral=UltraFineGrid SCF=(NoS
 ymm,XQC,MaxCyc=120) IOp(1/33=1)\\TS search on BH76.\\-1,1\F,0.,0.,-1.8
 252995464\C,0.,0.,-0.3354124483\H,-0.5140790828,0.8904110905,0.0400146
 574\H,-0.5140790828,-0.8904110905,0.0400146574\H,1.0281581656,0.,0.040
 0146574\F,0.,0.,2.0408612785\\Version=ES64L-G16RevA.03\State=1-A1\HF=-
 239.4776984\RMSD=2.875e-09\RMSF=1.462e-04\Dipole=0.,0.,-1.7770218\Quad
 rupole=5.3031034,5.3031034,-10.6062068,0.,0.,0.\PG=C03V [C3(F1C1F1),3S
 GV(H1)]\\@


 TRUTH, IN SCIENCE, CAN BE DEFINED AS THE WORKING HYPOTHESIS 
 BEST FITTED TO OPEN THE WAY TO THE NEXT BETTER ONE.

                              -- KONRAD LORENZ
 Job cpu time:       0 days  0 hours  7 minutes 18.6 seconds.
 Elapsed time:       0 days  0 hours  1 minutes 15.0 seconds.
 File lengths (MBytes):  RWF=      5 Int=      0 D2E=      0 Chk=      1 Scr=      1
 Normal termination of Gaussian 16 at Wed Oct  7 14:47:55 2020.
