 Entering Gaussian System, Link 0=g16
 Input=MN_53_hfch3ts_BH76_BLYP_631Gs.in
 Output=MN_53_hfch3ts_BH76_BLYP_631Gs.log
 Initial command:
 /udrive/faculty/rpeverati/g16/g16/l1.exe "/udrive/scratch-directories/gaussian09/rpeverati/Gau-4045.inp" -scrdir="/udrive/scratch-directories/gaussian09/rpeverati/"
 Entering Link 1 = /udrive/faculty/rpeverati/g16/g16/l1.exe PID=      4066.
  
 Copyright (c) 1988,1990,1992,1993,1995,1998,2003,2009,2016,
            Gaussian, Inc.  All Rights Reserved.
  
 This is part of the Gaussian(R) 16 program.  It is based on
 the Gaussian(R) 09 system (copyright 2009, Gaussian, Inc.),
 the Gaussian(R) 03 system (copyright 2003, Gaussian, Inc.),
 the Gaussian(R) 98 system (copyright 1998, Gaussian, Inc.),
 the Gaussian(R) 94 system (copyright 1995, Gaussian, Inc.),
 the Gaussian 92(TM) system (copyright 1992, Gaussian, Inc.),
 the Gaussian 90(TM) system (copyright 1990, Gaussian, Inc.),
 the Gaussian 88(TM) system (copyright 1988, Gaussian, Inc.),
 the Gaussian 86(TM) system (copyright 1986, Carnegie Mellon
 University), and the Gaussian 82(TM) system (copyright 1983,
 Carnegie Mellon University). Gaussian is a federally registered
 trademark of Gaussian, Inc.
  
 This software contains proprietary and confidential information,
 including trade secrets, belonging to Gaussian, Inc.
  
 This software is provided under written license and may be
 used, copied, transmitted, or stored only in accord with that
 written license.
  
 The following legend is applicable only to US Government
 contracts under FAR:
  
                    RESTRICTED RIGHTS LEGEND
  
 Use, reproduction and disclosure by the US Government is
 subject to restrictions as set forth in subparagraphs (a)
 and (c) of the Commercial Computer Software - Restricted
 Rights clause in FAR 52.227-19.
  
 Gaussian, Inc.
 340 Quinnipiac St., Bldg. 40, Wallingford CT 06492
  
  
 ---------------------------------------------------------------
 Warning -- This program may not be used in any manner that
 competes with the business of Gaussian, Inc. or will provide
 assistance to any competitor of Gaussian, Inc.  The licensee
 of this program is prohibited from giving any competitor of
 Gaussian, Inc. access to this program.  By using this program,
 the user acknowledges that Gaussian, Inc. is engaged in the
 business of creating and licensing software in the field of
 computational chemistry and represents and warrants to the
 licensee that it is not a competitor of Gaussian, Inc. and that
 it will not use this program in any manner prohibited above.
 ---------------------------------------------------------------
  

 Cite this work as:
 Gaussian 16, Revision A.03,
 M. J. Frisch, G. W. Trucks, H. B. Schlegel, G. E. Scuseria, 
 M. A. Robb, J. R. Cheeseman, G. Scalmani, V. Barone, 
 G. A. Petersson, H. Nakatsuji, X. Li, M. Caricato, A. V. Marenich, 
 J. Bloino, B. G. Janesko, R. Gomperts, B. Mennucci, H. P. Hratchian, 
 J. V. Ortiz, A. F. Izmaylov, J. L. Sonnenberg, D. Williams-Young, 
 F. Ding, F. Lipparini, F. Egidi, J. Goings, B. Peng, A. Petrone, 
 T. Henderson, D. Ranasinghe, V. G. Zakrzewski, J. Gao, N. Rega, 
 G. Zheng, W. Liang, M. Hada, M. Ehara, K. Toyota, R. Fukuda, 
 J. Hasegawa, M. Ishida, T. Nakajima, Y. Honda, O. Kitao, H. Nakai, 
 T. Vreven, K. Throssell, J. A. Montgomery, Jr., J. E. Peralta, 
 F. Ogliaro, M. J. Bearpark, J. J. Heyd, E. N. Brothers, K. N. Kudin, 
 V. N. Staroverov, T. A. Keith, R. Kobayashi, J. Normand, 
 K. Raghavachari, A. P. Rendell, J. C. Burant, S. S. Iyengar, 
 J. Tomasi, M. Cossi, J. M. Millam, M. Klene, C. Adamo, R. Cammi, 
 J. W. Ochterski, R. L. Martin, K. Morokuma, O. Farkas, 
 J. B. Foresman, and D. J. Fox, Gaussian, Inc., Wallingford CT, 2016.
 
 ******************************************
 Gaussian 16:  ES64L-G16RevA.03 25-Dec-2016
                 7-Oct-2020 
 ******************************************
 %NoSave
 %nproc=12
 Will use up to   12 processors via shared memory.
 %mem=20GB
 %chk=MN_53_hfch3ts_BH76_BLYP_631Gs
 ----------------------------------------------------------------------
 #P Opt(TS,MaxCyc=50,NoEigenTest,MaxStep=10,AddRedundant) BLYP/6-31G* 5
 D 7F Integral=UltraFineGrid SCF=(NoSymm,XQC,MaxCyc=120) IOp(1/33=1)
 ----------------------------------------------------------------------
 1/5=1,6=50,8=10,11=1,18=120,26=4,33=1,38=1/1,3;
 2/9=110,12=2,17=6,18=5,40=1/2;
 3/5=1,6=6,7=1,8=11,11=2,25=1,30=1,71=1,74=402,75=-5/1,2,3;
 4/9=2/1;
 5/5=2,7=120,8=3,13=1,38=5/2,8;
 6/7=2,8=2,9=2,10=2,28=1/1;
 7//1,2,3,16;
 1/5=1,6=50,8=10,11=1,18=20,26=4,33=1/3(2);
 2/9=110/2;
 99//99;
 2/9=110/2;
 3/5=1,6=6,7=1,8=11,11=2,25=1,30=1,71=1,74=402,75=-5/1,2,3;
 4/5=5,9=2,16=3,69=1/1;
 5/5=2,7=120,8=3,13=1,38=5/2,8;
 7//1,2,3,16;
 1/5=1,6=50,8=10,11=1,18=20,26=4,33=1/3(-5);
 2/9=110/2;
 6/7=2,8=2,9=2,10=2,19=2,28=1/1;
 99/9=1/99;
 Leave Link    1 at Wed Oct  7 14:47:42 2020, MaxMem=  2684354560 cpu:               6.9 elap:               0.8
 (Enter /udrive/faculty/rpeverati/g16/g16/l101.exe)
 ONIOM data not found on unit 2.
 ------------------
 TS search on BH76.
 ------------------
 TstMul:  ICh=     0
 TstMul:  Mul=     2
 TstMul:  ICh=     0
 TstMul:  Mul=     2
 Symbolic Z-matrix:
 Charge =  0 Multiplicity = 2
 H                     0.00045   2.00097   0. 
 F                    -0.00004   0.76248   0. 
 C                    -0.00004  -0.90617   0. 
 H                     1.05376  -1.14157   0. 
 H                    -0.52685  -1.14236   0.91235 
 H                    -0.52685  -1.14236  -0.91235 
 
 RdStrC is calling ZToCFu for IStruc=1 NZ=     6.
 PrtBox:  NBox=     1 Levels=  1 BoxLen=    8.00 SMaxX=        5.94
          Shift=            0.995593            2.158740            1.724100
 Box      1 Number                   0 centers from      1 to      6:
 After GenITR:
 ITRead=  0  0  0  0  0  0
 MicOpt= -1 -1 -1 -1 -1 -1
 Add virtual bond connecting atoms F2         and H1         Dist= 2.34D+00.
 Add virtual bond connecting atoms C3         and F2         Dist= 3.15D+00.
 The following ModRedundant input section has been read:
 
 ITRead=  0  0  0  0  0  0
 MicOpt= -1 -1 -1 -1 -1 -1
 NAtoms=      6 NQM=        6 NQMF=       0 NMMI=      0 NMMIF=      0
                NMic=       0 NMicF=      0.
                    Isotopes and Nuclear Properties:
 (Nuclear quadrupole moments (NQMom) in fm**2, nuclear magnetic moments (NMagM)
  in nuclear magnetons)

  Atom         1           2           3           4           5           6
 IAtWgt=           1          19          12           1           1           1
 AtmWgt=   1.0078250  18.9984033  12.0000000   1.0078250   1.0078250   1.0078250
 NucSpn=           1           1           0           1           1           1
 AtZEff=   0.0000000   0.0000000   0.0000000   0.0000000   0.0000000   0.0000000
 NQMom=    0.0000000   0.0000000   0.0000000   0.0000000   0.0000000   0.0000000
 NMagM=    2.7928460   2.6288670   0.0000000   2.7928460   2.7928460   2.7928460
 AtZNuc=   1.0000000   9.0000000   6.0000000   1.0000000   1.0000000   1.0000000
 No MM parameters found.
 Leave Link  101 at Wed Oct  7 14:47:44 2020, MaxMem=  2684354560 cpu:              13.6 elap:               1.3
 (Enter /udrive/faculty/rpeverati/g16/g16/l103.exe)

 GradGradGradGradGradGradGradGradGradGradGradGradGradGradGradGradGradGrad
 Berny optimization.
 Optmz: redundant internal coordinate code flag= 1
 Initialization pass.
                           ----------------------------
                           !    Initial Parameters    !
                           ! (Angstroms and Degrees)  !
 --------------------------                            --------------------------
 ! Name  Definition              Value          Derivative Info.                !
 --------------------------------------------------------------------------------
 ! R1    R(1,2)                  1.2385         estimate D2E/DX2                !
 ! R2    R(2,3)                  1.6686         estimate D2E/DX2                !
 ! R3    R(3,4)                  1.0798         estimate D2E/DX2                !
 ! R4    R(3,5)                  1.0797         estimate D2E/DX2                !
 ! R5    R(3,6)                  1.0797         estimate D2E/DX2                !
 ! A1    A(2,3,4)              102.5924         estimate D2E/DX2                !
 ! A2    A(2,3,5)              102.6361         estimate D2E/DX2                !
 ! A3    A(2,3,6)              102.6361         estimate D2E/DX2                !
 ! A4    A(4,3,5)              115.3726         estimate D2E/DX2                !
 ! A5    A(4,3,6)              115.3726         estimate D2E/DX2                !
 ! A6    A(5,3,6)              115.3492         estimate D2E/DX2                !
 ! A7    L(1,2,3,4,-1)         179.9776         estimate D2E/DX2                !
 ! A8    L(1,2,3,4,-2)         180.0            estimate D2E/DX2                !
 ! D1    D(4,3,6,5)            138.543          estimate D2E/DX2                !
 --------------------------------------------------------------------------------
 Maximum allowed force set to 1.00D+20.
 Trust Radius=1.00D-01 FncErr=1.00D-07 GrdErr=1.00D-06 EigMax=2.50D+02 EigMin=1.00D-04
 Number of steps in this run=     50 maximum allowed number of steps=    100.
 Search for a saddle point of order  1.
 GradGradGradGradGradGradGradGradGradGradGradGradGradGradGradGradGradGrad

 Leave Link  103 at Wed Oct  7 14:47:45 2020, MaxMem=  2684354560 cpu:               1.2 elap:               0.6
 (Enter /udrive/faculty/rpeverati/g16/g16/l202.exe)
                          Input orientation:                          
 ---------------------------------------------------------------------
 Center     Atomic      Atomic             Coordinates (Angstroms)
 Number     Number       Type             X           Y           Z
 ---------------------------------------------------------------------
      1          1           0        0.000450    2.000967    0.000000
      2          9           0       -0.000035    0.762481    0.000000
      3          6           0       -0.000035   -0.906168    0.000000
      4          1           0        1.053761   -1.141573    0.000000
      5          1           0       -0.526845   -1.142356    0.912354
      6          1           0       -0.526845   -1.142356   -0.912354
 ---------------------------------------------------------------------
                    Distance matrix (angstroms):
                    1          2          3          4          5
     1  H    0.000000
     2  F    1.238486   0.000000
     3  C    2.907136   1.668649   0.000000
     4  H    3.314366   2.176214   1.079769   0.000000
     5  H    3.315254   2.176769   1.079678   1.825023   0.000000
     6  H    3.315254   2.176769   1.079678   1.825023   1.824709
                    6
     6  H    0.000000
 Stoichiometry    CH4F(2)
 Framework group  CS[SG(CH2F),X(H2)]
 Deg. of freedom     8
 Full point group                 CS      NOp   2
 Largest Abelian subgroup         CS      NOp   2
 Largest concise Abelian subgroup CS      NOp   2
                         Standard orientation:                         
 ---------------------------------------------------------------------
 Center     Atomic      Atomic             Coordinates (Angstroms)
 Number     Number       Type             X           Y           Z
 ---------------------------------------------------------------------
      1          1           0        0.000450    2.000967    0.000000
      2          9           0       -0.000035    0.762481    0.000000
      3          6           0       -0.000035   -0.906168    0.000000
      4          1           0        1.053761   -1.141573    0.000000
      5          1           0       -0.526845   -1.142356    0.912354
      6          1           0       -0.526845   -1.142356   -0.912354
 ---------------------------------------------------------------------
 Rotational constants (GHZ):         150.5723997          16.6130512          16.6126312
 Leave Link  202 at Wed Oct  7 14:47:46 2020, MaxMem=  2684354560 cpu:               1.5 elap:               0.4
 (Enter /udrive/faculty/rpeverati/g16/g16/l301.exe)
 Standard basis: 6-31G(d) (5D, 7F)
 Ernie: Thresh=  0.10000D-02 Tol=  0.10000D-05 Strict=F.
 There are    28 symmetry adapted cartesian basis functions of A'  symmetry.
 There are    10 symmetry adapted cartesian basis functions of A"  symmetry.
 There are    26 symmetry adapted basis functions of A'  symmetry.
 There are    10 symmetry adapted basis functions of A"  symmetry.
    36 basis functions,    72 primitive gaussians,    38 cartesian basis functions
    10 alpha electrons        9 beta electrons
       nuclear repulsion energy        38.7977675131 Hartrees.
 IExCor=  402 DFT=T Ex=B Corr=LYP ExCW=0 ScaHFX=  0.000000
 ScaDFX=  1.000000  1.000000  1.000000  1.000000 ScalE2=  1.000000  1.000000
 IRadAn=      5 IRanWt=     -1 IRanGd=            0 ICorTp=0 IEmpDi=  4
 NAtoms=    6 NActive=    6 NUniq=    5 SFac= 1.44D+00 NAtFMM=   60 NAOKFM=F Big=F
 Integral buffers will be    131072 words long.
 Raffenetti 2 integral format.
 Two-electron integral symmetry is turned on.
 Leave Link  301 at Wed Oct  7 14:47:46 2020, MaxMem=  2684354560 cpu:               1.8 elap:               0.6
 (Enter /udrive/faculty/rpeverati/g16/g16/l302.exe)
 NPDir=0 NMtPBC=     1 NCelOv=     1 NCel=       1 NClECP=     1 NCelD=      1
         NCelK=      1 NCelE2=     1 NClLst=     1 CellRange=     0.0.
 One-electron integrals computed using PRISM.
 One-electron integral symmetry used in STVInt
 NBasis=    36 RedAO= T EigKep=  2.08D-02  NBF=    26    10
 NBsUse=    36 1.00D-06 EigRej= -1.00D+00 NBFU=    26    10
 Precomputing XC quadrature grid using
 IXCGrd= 4 IRadAn=           5 IRanWt=          -1 IRanGd=           0 AccXCQ= 0.00D+00.
 Generated NRdTot=       0 NPtTot=           0 NUsed=           0 NTot=          32
 NSgBfM=    38    38    38    38    38 MxSgAt=     6 MxSgA2=     6.
 Leave Link  302 at Wed Oct  7 14:47:47 2020, MaxMem=  2684354560 cpu:               4.2 elap:               0.8
 (Enter /udrive/faculty/rpeverati/g16/g16/l303.exe)
 DipDrv:  MaxL=1.
 Leave Link  303 at Wed Oct  7 14:47:48 2020, MaxMem=  2684354560 cpu:               1.7 elap:               0.6
 (Enter /udrive/faculty/rpeverati/g16/g16/l401.exe)
 SCF N**3 symmetry information disabled.
 ExpMin= 1.61D-01 ExpMax= 7.00D+03 ExpMxC= 1.05D+03 IAcc=3 IRadAn=         5 AccDes= 0.00D+00
 Harris functional with IExCor=  402 and IRadAn=       5 diagonalized for initial guess.
 HarFok:  IExCor=  402 AccDes= 0.00D+00 IRadAn=         5 IDoV= 1 UseB2=F ITyADJ=14
 ICtDFT=  3500011 ScaDFX=  1.000000  1.000000  1.000000  1.000000
 FoFCou: FMM=F IPFlag=           0 FMFlag=      100000 FMFlg1=           0
         NFxFlg=           0 DoJE=T BraDBF=F KetDBF=T FulRan=T
         wScrn=  0.000000 ICntrl=       500 IOpCl=  0 I1Cent=   200000004 NGrid=           0
         NMat0=    1 NMatS0=      1 NMatT0=    0 NMatD0=    1 NMtDS0=    0 NMtDT0=    0
 Petite list used in FoFCou.
 Harris En= -140.188862924199    
 JPrj=0 DoOrth=F DoCkMO=F.
 Initial guess orbital symmetries:
 Alpha Orbitals:
       Occupied  (A') (A') (A') (A') (A') (A') (A") (A") (A') (A')
       Virtual   (A') (A') (A') (A") (A') (A") (A') (A') (A') (A")
                 (A') (A') (A') (A") (A') (A") (A') (A') (A") (A')
                 (A') (A") (A') (A') (A") (A')
 Beta  Orbitals:
       Occupied  (A') (A') (A') (A') (A') (A') (A") (A") (A')
       Virtual   (A') (A') (A') (A') (A") (A') (A") (A') (A') (A')
                 (A") (A') (A') (A') (A") (A') (A") (A') (A') (A")
                 (A') (A') (A") (A') (A') (A") (A')
 The electronic state of the initial guess is 2-A'.
 Initial guess <Sx>= 0.0000 <Sy>= 0.0000 <Sz>= 0.5000 <S**2>= 0.7500 S= 0.5000
 Leave Link  401 at Wed Oct  7 14:47:49 2020, MaxMem=  2684354560 cpu:               5.8 elap:               0.8
 (Enter /udrive/faculty/rpeverati/g16/g16/l502.exe)
 Keep J ints in memory in symmetry-blocked form, NReq=10578875.
 FoFCou: FMM=F IPFlag=           0 FMFlag=           0 FMFlg1=           0
         NFxFlg=           0 DoJE=F BraDBF=F KetDBF=F FulRan=T
         wScrn=  0.000000 ICntrl=       600 IOpCl=  0 I1Cent=           0 NGrid=           0
         NMat0=    1 NMatS0=    666 NMatT0=    0 NMatD0=    1 NMtDS0=    0 NMtDT0=    0
 Petite list used in FoFCou.
 UHF open shell SCF:
 Using DIIS extrapolation, IDIIS=  1040.
 NGot=  2684354560 LenX=  2684232161 LenY=  2684230276
 Requested convergence on RMS density matrix=1.00D-08 within 120 cycles.
 Requested convergence on MAX density matrix=1.00D-06.
 Requested convergence on             energy=1.00D-06.
 No special actions if energy rises.
 Integral accuracy reduced to 1.0D-05 until final iterations.

 Cycle   1  Pass 0  IDiag  1:
 E= -140.066522356858    
 DIIS: error= 5.47D-02 at cycle   1 NSaved=   1.
 NSaved= 1 IEnMin= 1 EnMin= -140.066522356858     IErMin= 1 ErrMin= 5.47D-02
 ErrMax= 5.47D-02  0.00D+00 EMaxC= 1.00D-01 BMatC= 2.79D-01 BMatP= 2.79D-01
 IDIUse=3 WtCom= 4.53D-01 WtEn= 5.47D-01
 Coeff-Com:  0.100D+01
 Coeff-En:   0.100D+01
 Coeff:      0.100D+01
 Gap=     0.072 Goal=   None    Shift=    0.000
 Gap=     0.205 Goal=   None    Shift=    0.000
 GapD=    0.072 DampG=0.500 DampE=0.500 DampFc=0.2500 IDamp=-1.
 Damping current iteration by 2.50D-01
 RMSDP=2.49D-02 MaxDP=4.37D-01              OVMax= 5.58D-01

 Cycle   2  Pass 0  IDiag  1:
 E= -140.100607492736     Delta-E=       -0.034085135878 Rises=F Damp=T
 DIIS: error= 1.72D-02 at cycle   2 NSaved=   2.
 NSaved= 2 IEnMin= 2 EnMin= -140.100607492736     IErMin= 2 ErrMin= 1.72D-02
 ErrMax= 1.72D-02  0.00D+00 EMaxC= 1.00D-01 BMatC= 3.07D-02 BMatP= 2.79D-01
 IDIUse=3 WtCom= 8.28D-01 WtEn= 1.72D-01
 Coeff-Com: -0.390D+00 0.139D+01
 Coeff-En:   0.000D+00 0.100D+01
 Coeff:     -0.322D+00 0.132D+01
 Gap=     0.134 Goal=   None    Shift=    0.000
 Gap=     0.204 Goal=   None    Shift=    0.000
 RMSDP=6.16D-03 MaxDP=1.14D-01 DE=-3.41D-02 OVMax= 3.40D-01

 Cycle   3  Pass 0  IDiag  1:
 E= -140.148174605417     Delta-E=       -0.047567112681 Rises=F Damp=F
 DIIS: error= 1.24D-02 at cycle   3 NSaved=   3.
 NSaved= 3 IEnMin= 3 EnMin= -140.148174605417     IErMin= 3 ErrMin= 1.24D-02
 ErrMax= 1.24D-02  0.00D+00 EMaxC= 1.00D-01 BMatC= 1.45D-02 BMatP= 3.07D-02
 IDIUse=3 WtCom= 8.76D-01 WtEn= 1.24D-01
 Coeff-Com: -0.243D-01 0.449D+00 0.576D+00
 Coeff-En:   0.000D+00 0.000D+00 0.100D+01
 Coeff:     -0.213D-01 0.393D+00 0.628D+00
 Gap=     0.139 Goal=   None    Shift=    0.000
 Gap=     0.217 Goal=   None    Shift=    0.000
 RMSDP=1.52D-03 MaxDP=2.31D-02 DE=-4.76D-02 OVMax= 3.53D-02

 Cycle   4  Pass 0  IDiag  1:
 E= -140.150602921998     Delta-E=       -0.002428316581 Rises=F Damp=F
 DIIS: error= 6.28D-03 at cycle   4 NSaved=   4.
 NSaved= 4 IEnMin= 4 EnMin= -140.150602921998     IErMin= 4 ErrMin= 6.28D-03
 ErrMax= 6.28D-03  0.00D+00 EMaxC= 1.00D-01 BMatC= 4.18D-03 BMatP= 1.45D-02
 IDIUse=3 WtCom= 9.37D-01 WtEn= 6.28D-02
 Coeff-Com:  0.781D-01-0.205D-01 0.438D+00 0.505D+00
 Coeff-En:   0.000D+00 0.000D+00 0.105D+00 0.895D+00
 Coeff:      0.732D-01-0.192D-01 0.417D+00 0.529D+00
 Gap=     0.143 Goal=   None    Shift=    0.000
 Gap=     0.211 Goal=   None    Shift=    0.000
 RMSDP=7.53D-04 MaxDP=1.17D-02 DE=-2.43D-03 OVMax= 1.61D-02

 Cycle   5  Pass 0  IDiag  1:
 E= -140.151325342552     Delta-E=       -0.000722420554 Rises=F Damp=F
 DIIS: error= 1.37D-03 at cycle   5 NSaved=   5.
 NSaved= 5 IEnMin= 5 EnMin= -140.151325342552     IErMin= 5 ErrMin= 1.37D-03
 ErrMax= 1.37D-03  0.00D+00 EMaxC= 1.00D-01 BMatC= 2.26D-04 BMatP= 4.18D-03
 IDIUse=3 WtCom= 9.86D-01 WtEn= 1.37D-02
 Coeff-Com: -0.633D-02-0.187D-01-0.281D-01 0.170D+00 0.883D+00
 Coeff-En:   0.000D+00 0.000D+00 0.000D+00 0.279D-01 0.972D+00
 Coeff:     -0.624D-02-0.185D-01-0.277D-01 0.168D+00 0.884D+00
 Gap=     0.144 Goal=   None    Shift=    0.000
 Gap=     0.214 Goal=   None    Shift=    0.000
 RMSDP=3.48D-04 MaxDP=4.47D-03 DE=-7.22D-04 OVMax= 9.38D-03

 Cycle   6  Pass 0  IDiag  1:
 E= -140.151388342477     Delta-E=       -0.000062999925 Rises=F Damp=F
 DIIS: error= 2.86D-04 at cycle   6 NSaved=   6.
 NSaved= 6 IEnMin= 6 EnMin= -140.151388342477     IErMin= 6 ErrMin= 2.86D-04
 ErrMax= 2.86D-04  0.00D+00 EMaxC= 1.00D-01 BMatC= 1.00D-05 BMatP= 2.26D-04
 IDIUse=3 WtCom= 9.97D-01 WtEn= 2.86D-03
 Coeff-Com: -0.383D-02-0.320D-02-0.266D-01-0.271D-01 0.165D+00 0.895D+00
 Coeff-En:   0.000D+00 0.000D+00 0.000D+00 0.000D+00 0.000D+00 0.100D+01
 Coeff:     -0.382D-02-0.319D-02-0.265D-01-0.270D-01 0.165D+00 0.896D+00
 Gap=     0.144 Goal=   None    Shift=    0.000
 Gap=     0.214 Goal=   None    Shift=    0.000
 RMSDP=1.01D-04 MaxDP=1.59D-03 DE=-6.30D-05 OVMax= 2.65D-03

 Cycle   7  Pass 0  IDiag  1:
 E= -140.151391507345     Delta-E=       -0.000003164868 Rises=F Damp=F
 DIIS: error= 1.25D-04 at cycle   7 NSaved=   7.
 NSaved= 7 IEnMin= 7 EnMin= -140.151391507345     IErMin= 7 ErrMin= 1.25D-04
 ErrMax= 1.25D-04  0.00D+00 EMaxC= 1.00D-01 BMatC= 1.26D-06 BMatP= 1.00D-05
 IDIUse=3 WtCom= 9.99D-01 WtEn= 1.25D-03
 Coeff-Com: -0.352D-02 0.386D-02-0.107D-01-0.175D-01 0.281D-01 0.359D+00
 Coeff-Com:  0.641D+00
 Coeff-En:   0.000D+00 0.000D+00 0.000D+00 0.000D+00 0.000D+00 0.248D-01
 Coeff-En:   0.975D+00
 Coeff:     -0.352D-02 0.386D-02-0.107D-01-0.175D-01 0.281D-01 0.359D+00
 Coeff:      0.641D+00
 Gap=     0.144 Goal=   None    Shift=    0.000
 Gap=     0.214 Goal=   None    Shift=    0.000
 RMSDP=3.49D-05 MaxDP=5.60D-04 DE=-3.16D-06 OVMax= 9.77D-04

 Cycle   8  Pass 0  IDiag  1:
 E= -140.151392017453     Delta-E=       -0.000000510108 Rises=F Damp=F
 DIIS: error= 1.35D-05 at cycle   8 NSaved=   8.
 NSaved= 8 IEnMin= 8 EnMin= -140.151392017453     IErMin= 8 ErrMin= 1.35D-05
 ErrMax= 1.35D-05  0.00D+00 EMaxC= 1.00D-01 BMatC= 1.67D-08 BMatP= 1.26D-06
 IDIUse=1 WtCom= 1.00D+00 WtEn= 0.00D+00
 Coeff-Com:  0.725D-04 0.677D-04-0.435D-04-0.977D-03-0.747D-02 0.459D-02
 Coeff-Com:  0.801D-01 0.924D+00
 Coeff:      0.725D-04 0.677D-04-0.435D-04-0.977D-03-0.747D-02 0.459D-02
 Coeff:      0.801D-01 0.924D+00
 Gap=     0.144 Goal=   None    Shift=    0.000
 Gap=     0.214 Goal=   None    Shift=    0.000
 RMSDP=4.60D-06 MaxDP=8.33D-05 DE=-5.10D-07 OVMax= 1.18D-04

 Initial convergence to 1.0D-05 achieved.  Increase integral accuracy.
 Cycle   9  Pass 1  IDiag  1:
 E= -140.151393704176     Delta-E=       -0.000001686723 Rises=F Damp=F
 DIIS: error= 4.85D-06 at cycle   1 NSaved=   1.
 NSaved= 1 IEnMin= 1 EnMin= -140.151393704176     IErMin= 1 ErrMin= 4.85D-06
 ErrMax= 4.85D-06  0.00D+00 EMaxC= 1.00D-01 BMatC= 1.74D-09 BMatP= 1.74D-09
 IDIUse=1 WtCom= 1.00D+00 WtEn= 0.00D+00
 Coeff-Com:  0.100D+01
 Coeff:      0.100D+01
 Gap=     0.144 Goal=   None    Shift=    0.000
 Gap=     0.214 Goal=   None    Shift=    0.000
 RMSDP=4.60D-06 MaxDP=8.33D-05 DE=-1.69D-06 OVMax= 7.68D-05

 Cycle  10  Pass 1  IDiag  1:
 E= -140.151393702202     Delta-E=        0.000000001974 Rises=F Damp=F
 DIIS: error= 8.29D-06 at cycle   2 NSaved=   2.
 NSaved= 2 IEnMin= 1 EnMin= -140.151393704176     IErMin= 1 ErrMin= 4.85D-06
 ErrMax= 8.29D-06  0.00D+00 EMaxC= 1.00D-01 BMatC= 7.75D-09 BMatP= 1.74D-09
 IDIUse=1 WtCom= 1.00D+00 WtEn= 0.00D+00
 Coeff-Com:  0.687D+00 0.313D+00
 Coeff:      0.687D+00 0.313D+00
 Gap=     0.144 Goal=   None    Shift=    0.000
 Gap=     0.214 Goal=   None    Shift=    0.000
 RMSDP=2.05D-06 MaxDP=3.82D-05 DE= 1.97D-09 OVMax= 5.78D-05

 Cycle  11  Pass 1  IDiag  1:
 E= -140.151393704784     Delta-E=       -0.000000002582 Rises=F Damp=F
 DIIS: error= 1.04D-06 at cycle   3 NSaved=   3.
 NSaved= 3 IEnMin= 3 EnMin= -140.151393704784     IErMin= 3 ErrMin= 1.04D-06
 ErrMax= 1.04D-06  0.00D+00 EMaxC= 1.00D-01 BMatC= 1.44D-10 BMatP= 1.74D-09
 IDIUse=1 WtCom= 1.00D+00 WtEn= 0.00D+00
 Coeff-Com:  0.254D+00 0.159D+00 0.587D+00
 Coeff:      0.254D+00 0.159D+00 0.587D+00
 Gap=     0.144 Goal=   None    Shift=    0.000
 Gap=     0.214 Goal=   None    Shift=    0.000
 RMSDP=1.51D-07 MaxDP=2.01D-06 DE=-2.58D-09 OVMax= 3.14D-06

 Cycle  12  Pass 1  IDiag  1:
 E= -140.151393704809     Delta-E=       -0.000000000025 Rises=F Damp=F
 DIIS: error= 6.93D-07 at cycle   4 NSaved=   4.
 NSaved= 4 IEnMin= 4 EnMin= -140.151393704809     IErMin= 4 ErrMin= 6.93D-07
 ErrMax= 6.93D-07  0.00D+00 EMaxC= 1.00D-01 BMatC= 4.79D-11 BMatP= 1.44D-10
 IDIUse=1 WtCom= 1.00D+00 WtEn= 0.00D+00
 Coeff-Com:  0.447D-01 0.614D-01 0.372D+00 0.522D+00
 Coeff:      0.447D-01 0.614D-01 0.372D+00 0.522D+00
 Gap=     0.144 Goal=   None    Shift=    0.000
 Gap=     0.214 Goal=   None    Shift=    0.000
 RMSDP=6.49D-08 MaxDP=9.85D-07 DE=-2.47D-11 OVMax= 1.37D-06

 Cycle  13  Pass 1  IDiag  1:
 E= -140.151393704817     Delta-E=       -0.000000000008 Rises=F Damp=F
 DIIS: error= 1.82D-07 at cycle   5 NSaved=   5.
 NSaved= 5 IEnMin= 5 EnMin= -140.151393704817     IErMin= 5 ErrMin= 1.82D-07
 ErrMax= 1.82D-07  0.00D+00 EMaxC= 1.00D-01 BMatC= 4.08D-12 BMatP= 4.79D-11
 IDIUse=1 WtCom= 1.00D+00 WtEn= 0.00D+00
 Coeff-Com: -0.371D-01 0.242D-02 0.397D-01 0.208D+00 0.787D+00
 Coeff:     -0.371D-01 0.242D-02 0.397D-01 0.208D+00 0.787D+00
 Gap=     0.144 Goal=   None    Shift=    0.000
 Gap=     0.214 Goal=   None    Shift=    0.000
 RMSDP=3.93D-08 MaxDP=3.63D-07 DE=-8.19D-12 OVMax= 7.55D-07

 Cycle  14  Pass 1  IDiag  1:
 E= -140.151393704819     Delta-E=       -0.000000000001 Rises=F Damp=F
 DIIS: error= 4.36D-08 at cycle   6 NSaved=   6.
 NSaved= 6 IEnMin= 6 EnMin= -140.151393704819     IErMin= 6 ErrMin= 4.36D-08
 ErrMax= 4.36D-08  0.00D+00 EMaxC= 1.00D-01 BMatC= 1.42D-13 BMatP= 4.08D-12
 IDIUse=1 WtCom= 1.00D+00 WtEn= 0.00D+00
 Coeff-Com: -0.117D-01-0.324D-02-0.209D-01-0.637D-02 0.187D+00 0.855D+00
 Coeff:     -0.117D-01-0.324D-02-0.209D-01-0.637D-02 0.187D+00 0.855D+00
 Gap=     0.144 Goal=   None    Shift=    0.000
 Gap=     0.214 Goal=   None    Shift=    0.000
 RMSDP=7.04D-09 MaxDP=9.59D-08 DE=-1.45D-12 OVMax= 1.02D-07

 SCF Done:  E(UB-LYP) =  -140.151393705     A.U. after   14 cycles
            NFock= 14  Conv=0.70D-08     -V/T= 2.0041
 <Sx>= 0.0000 <Sy>= 0.0000 <Sz>= 0.5000 <S**2>= 0.7566 S= 0.5033
 <L.S>= 0.000000000000E+00
 KE= 1.395782068701D+02 PE=-4.097073969019D+02 EE= 9.118002881389D+01
 Annihilation of the first spin contaminant:
 S**2 before annihilation     0.7566,   after     0.7500
 Leave Link  502 at Wed Oct  7 14:47:52 2020, MaxMem=  2684354560 cpu:              20.6 elap:               2.1
 (Enter /udrive/faculty/rpeverati/g16/g16/l508.exe)
 QCSCF skips out because SCF is already converged.
 Leave Link  508 at Wed Oct  7 14:47:52 2020, MaxMem=  2684354560 cpu:               0.3 elap:               0.4
 (Enter /udrive/faculty/rpeverati/g16/g16/l601.exe)
 Copying SCF densities to generalized density rwf, IOpCl= 1 IROHF=0.

 **********************************************************************

            Population analysis using the SCF density.

 **********************************************************************

 Orbital symmetries:
 Alpha Orbitals:
       Occupied  (A') (A') (A') (A') (A') (A') (A") (A") (A') (A')
       Virtual   (A') (A') (A') (A") (A') (A") (A') (A') (A') (A")
                 (A') (A') (A') (A") (A') (A") (A') (A') (A") (A')
                 (A') (A") (A') (A') (A") (A')
 Beta  Orbitals:
       Occupied  (A') (A') (A') (A') (A') (A') (A") (A") (A')
       Virtual   (A') (A') (A') (A') (A") (A') (A") (A') (A') (A')
                 (A") (A') (A') (A') (A") (A') (A") (A') (A') (A")
                 (A') (A') (A") (A') (A') (A") (A')
 The electronic state is 2-A'.
 Alpha  occ. eigenvalues --  -24.26595  -9.95501  -1.01693  -0.62921  -0.43773
 Alpha  occ. eigenvalues --   -0.38708  -0.38705  -0.28256  -0.28256  -0.13358
 Alpha virt. eigenvalues --    0.01029   0.08892   0.14363   0.14364   0.45012
 Alpha virt. eigenvalues --    0.51040   0.51047   0.64257   0.78240   0.82651
 Alpha virt. eigenvalues --    0.82652   0.97254   1.15076   1.15082   1.47928
 Alpha virt. eigenvalues --    1.47932   1.54993   1.69854   1.81666   1.81667
 Alpha virt. eigenvalues --    1.94377   2.04893   2.04897   2.15124   2.15138
 Alpha virt. eigenvalues --    2.71362
  Beta  occ. eigenvalues --  -24.26441  -9.94756  -1.01402  -0.61362  -0.41928
  Beta  occ. eigenvalues --   -0.38175  -0.38171  -0.28001  -0.28000
  Beta virt. eigenvalues --   -0.06594   0.05255   0.09459   0.14765   0.14766
  Beta virt. eigenvalues --    0.48184   0.51412   0.51419   0.72567   0.79441
  Beta virt. eigenvalues --    0.83190   0.83191   0.98678   1.15480   1.15486
  Beta virt. eigenvalues --    1.49608   1.49613   1.56086   1.71672   1.81760
  Beta virt. eigenvalues --    1.81761   1.96230   2.05760   2.05767   2.16201
  Beta virt. eigenvalues --    2.16218   2.74210
          Condensed to atoms (all electrons):
               1          2          3          4          5          6
     1  H    0.934510  -0.080270   0.048067  -0.000341  -0.000345  -0.000345
     2  F   -0.080270   9.403984   0.033549  -0.014755  -0.014725  -0.014725
     3  C    0.048067   0.033549   5.056332   0.373016   0.372951   0.372951
     4  H   -0.000341  -0.014755   0.373016   0.552759  -0.033873  -0.033873
     5  H   -0.000345  -0.014725   0.372951  -0.033873   0.552840  -0.033914
     6  H   -0.000345  -0.014725   0.372951  -0.033873  -0.033914   0.552840
          Atomic-Atomic Spin Densities.
               1          2          3          4          5          6
     1  H    0.788777  -0.222158   0.056111  -0.000865  -0.000867  -0.000867
     2  F   -0.222158   0.272513  -0.131512   0.002399   0.002400   0.002400
     3  C    0.056111  -0.131512   0.606822  -0.006158  -0.006168  -0.006168
     4  H   -0.000865   0.002399  -0.006158  -0.017527   0.001223   0.001223
     5  H   -0.000867   0.002400  -0.006168   0.001223  -0.017511   0.001225
     6  H   -0.000867   0.002400  -0.006168   0.001223   0.001225  -0.017511
 Mulliken charges and spin densities:
               1          2
     1  H    0.098724   0.620131
     2  F   -0.313058  -0.073958
     3  C   -0.256867   0.512927
     4  H    0.157069  -0.019705
     5  H    0.157066  -0.019698
     6  H    0.157066  -0.019698
 Sum of Mulliken charges =  -0.00000   1.00000
 Mulliken charges and spin densities with hydrogens summed into heavy atoms:
               1          2
     2  F   -0.214334   0.546173
     3  C    0.214334   0.453827
 Electronic spatial extent (au):  <R**2>=            104.6013
 Charge=             -0.0000 electrons
 Dipole moment (field-independent basis, Debye):
    X=              0.0002    Y=             -1.2673    Z=              0.0000  Tot=              1.2673
 Quadrupole moment (field-independent basis, Debye-Ang):
   XX=            -12.7883   YY=            -12.2945   ZZ=            -12.7894
   XY=              0.0010   XZ=             -0.0000   YZ=             -0.0000
 Traceless Quadrupole moment (field-independent basis, Debye-Ang):
   XX=             -0.1643   YY=              0.3296   ZZ=             -0.1653
   XY=              0.0010   XZ=             -0.0000   YZ=             -0.0000
 Octapole moment (field-independent basis, Debye-Ang**2):
  XXX=              0.6592  YYY=              5.1329  ZZZ=              0.0000  XYY=             -0.0014
  XXY=              0.3761  XXZ=              0.0000  XZZ=             -0.6597  YZZ=              0.3766
  YYZ=              0.0000  XYZ=              0.0000
 Hexadecapole moment (field-independent basis, Debye-Ang**3):
 XXXX=            -17.2374 YYYY=            -96.4409 ZZZZ=            -17.2368 XXXY=             -0.8101
 XXXZ=              0.0000 YYYX=             -0.0011 YYYZ=              0.0000 ZZZX=             -0.0000
 ZZZY=             -0.0000 XXYY=            -18.7735 XXZZ=             -5.7459 YYZZ=            -18.7726
 XXYZ=             -0.0000 YYXZ=             -0.0000 ZZXY=              0.8041
 N-N= 3.879776751306D+01 E-N=-4.097073953359D+02  KE= 1.395782068701D+02
                          Isotropic Fermi Contact Couplings
        Atom                 a.u.       MegaHertz       Gauss      10(-4) cm-1
     1  H(1)               0.19038     850.97827     303.65021     283.85580
     2  F(19)              1.12179    4719.84118    1684.15670    1574.36955
     3  C(13)              0.15335     172.38926      61.51278      57.50287
     4  H(1)              -0.00643     -28.76058     -10.26249      -9.59350
     5  H(1)              -0.00643     -28.74193     -10.25584      -9.58728
     6  H(1)              -0.00643     -28.74193     -10.25584      -9.58728
 --------------------------------------------------------
       Center         ----  Spin Dipole Couplings  ----
                      3XX-RR        3YY-RR        3ZZ-RR
 --------------------------------------------------------
     1   Atom        0.016203     -0.032405      0.016203
     2   Atom        0.203999     -0.407998      0.203999
     3   Atom       -0.272553      0.545107     -0.272554
     4   Atom        0.035033      0.000651     -0.035684
     5   Atom       -0.018012      0.000672      0.017339
     6   Atom       -0.018012      0.000672      0.017339
 --------------------------------------------------------
                        XY            XZ            YZ
 --------------------------------------------------------
     1   Atom       -0.000018     -0.000000     -0.000000
     2   Atom       -0.000107      0.000000      0.000000
     3   Atom       -0.000382      0.000000      0.000000
     4   Atom       -0.014135     -0.000000      0.000000
     5   Atom        0.007069     -0.030620     -0.012269
     6   Atom        0.007069      0.030620      0.012269
 --------------------------------------------------------


 ---------------------------------------------------------------------------------
              Anisotropic Spin Dipole Couplings in Principal Axis System
 ---------------------------------------------------------------------------------

       Atom             a.u.   MegaHertz   Gauss  10(-4) cm-1        Axes

              Baa    -0.0324   -17.290    -6.169    -5.767  0.0004  1.0000  0.0000
     1 H(1)   Bbb     0.0162     8.645     3.085     2.884  1.0000 -0.0004  0.0000
              Bcc     0.0162     8.645     3.085     2.884  0.0000  0.0000  1.0000
 
              Baa    -0.4080  -204.907   -73.116   -68.350  0.0002  1.0000 -0.0000
     2 F(19)  Bbb     0.2040   102.453    36.558    34.175 -0.0000  0.0000  1.0000
              Bcc     0.2040   102.454    36.558    34.175  1.0000 -0.0002  0.0000
 
              Baa    -0.2726   -36.574   -13.051   -12.200 -0.0000 -0.0000  1.0000
     3 C(13)  Bbb    -0.2726   -36.574   -13.051   -12.200  1.0000  0.0005  0.0000
              Bcc     0.5451    73.148    26.101    24.400 -0.0005  1.0000  0.0000
 
              Baa    -0.0357   -19.039    -6.794    -6.351  0.0000  0.0000  1.0000
     4 H(1)   Bbb    -0.0044    -2.355    -0.840    -0.786  0.3373  0.9414  0.0000
              Bcc     0.0401    21.394     7.634     7.136  0.9414 -0.3373  0.0000
 
              Baa    -0.0357   -19.043    -6.795    -6.352  0.8660  0.0004  0.5001
     5 H(1)   Bbb    -0.0044    -2.354    -0.840    -0.785 -0.1693  0.9412  0.2925
              Bcc     0.0401    21.398     7.635     7.138 -0.4706 -0.3380  0.8151
 
              Baa    -0.0357   -19.043    -6.795    -6.352  0.8660  0.0004 -0.5001
     6 H(1)   Bbb    -0.0044    -2.354    -0.840    -0.785 -0.1693  0.9412 -0.2925
              Bcc     0.0401    21.398     7.635     7.138  0.4706  0.3380  0.8151
 

 ---------------------------------------------------------------------------------

 No NMR shielding tensors so no spin-rotation constants.
 Leave Link  601 at Wed Oct  7 14:47:54 2020, MaxMem=  2684354560 cpu:               6.5 elap:               0.9
 (Enter /udrive/faculty/rpeverati/g16/g16/l701.exe)
 ... and contract with generalized density number  0.
 Compute integral first derivatives.
 Leave Link  701 at Wed Oct  7 14:47:54 2020, MaxMem=  2684354560 cpu:               4.0 elap:               0.6
 (Enter /udrive/faculty/rpeverati/g16/g16/l702.exe)
 L702 exits ... SP integral derivatives will be done elsewhere.
 Leave Link  702 at Wed Oct  7 14:47:55 2020, MaxMem=  2684354560 cpu:               1.3 elap:               0.4
 (Enter /udrive/faculty/rpeverati/g16/g16/l703.exe)
 Integral derivatives from FoFJK, PRISM(SPDF).
 Compute integral first derivatives, UseDBF=F ICtDFT=           0.
 Calling FoFJK, ICntrl=      2527 FMM=F ISym2X=1 I1Cent= 0 IOpClX= 0 NMat=1 NMatS=1 NMatT=0.
 FoFJK:  IHMeth= 1 ICntrl=    2527 DoSepK=F KAlg= 0 I1Cent=           0 FoldK=F
 IRaf=         0 NMat=       1 IRICut=       1 DoRegI=T DoRafI=F ISym2E= 1 IDoP0=0 IntGTp=1.
 FoFCou: FMM=F IPFlag=           0 FMFlag=      100000 FMFlg1=         800
         NFxFlg=           0 DoJE=F BraDBF=F KetDBF=F FulRan=T
         wScrn=  0.000000 ICntrl=      2527 IOpCl=  0 I1Cent=           0 NGrid=           0
         NMat0=    1 NMatS0=      1 NMatT0=    0 NMatD0=    1 NMtDS0=    0 NMtDT0=    0
 Petite list used in FoFCou.
 Leave Link  703 at Wed Oct  7 14:47:56 2020, MaxMem=  2684354560 cpu:               7.0 elap:               0.9
 (Enter /udrive/faculty/rpeverati/g16/g16/l716.exe)
 Dipole        = 6.60249286D-05-4.98595981D-01 2.22044605D-16
 ***** Axes restored to original set *****
 -------------------------------------------------------------------
 Center     Atomic                   Forces (Hartrees/Bohr)
 Number     Number              X              Y              Z
 -------------------------------------------------------------------
      1        1           0.000002013    0.008830104   -0.000000000
      2        9          -0.000024516    0.008016682   -0.000000000
      3        6           0.000066128   -0.005083925    0.000000000
      4        1           0.007994728   -0.003935111    0.000000000
      5        1          -0.004019176   -0.003913875    0.007003819
      6        1          -0.004019176   -0.003913875   -0.007003819
 -------------------------------------------------------------------
 Cartesian Forces:  Max     0.008830104 RMS     0.004764110
 Leave Link  716 at Wed Oct  7 14:47:57 2020, MaxMem=  2684354560 cpu:               1.5 elap:               0.5
 (Enter /udrive/faculty/rpeverati/g16/g16/l103.exe)

 GradGradGradGradGradGradGradGradGradGradGradGradGradGradGradGradGradGrad
 Berny optimization.
 Optmz: redundant internal coordinate code flag= 1
 FormGI is forming the generalized inverse of G from B-inverse, IUseBI=4.
 Internal  Forces:  Max     0.016846786 RMS     0.006559458
 Search for a saddle point.
 Step number   1 out of a maximum of   50
 All quantities printed in internal units (Hartrees-Bohrs-Radians)
 Swapping is turned off.
 Second derivative matrix not updated -- first step.
 The second derivative matrix:
                          R1        R2        R3        R4        R5
           R1           0.22057
           R2           0.00000   0.19598
           R3           0.00000   0.00000   0.36022
           R4           0.00000   0.00000   0.00000   0.36033
           R5           0.00000   0.00000   0.00000   0.00000   0.36033
           A1           0.00000   0.00000   0.00000   0.00000   0.00000
           A2           0.00000   0.00000   0.00000   0.00000   0.00000
           A3           0.00000   0.00000   0.00000   0.00000   0.00000
           A4           0.00000   0.00000   0.00000   0.00000   0.00000
           A5           0.00000   0.00000   0.00000   0.00000   0.00000
           A6           0.00000   0.00000   0.00000   0.00000   0.00000
           A7           0.00000   0.00000   0.00000   0.00000   0.00000
           A8           0.00000   0.00000   0.00000   0.00000   0.00000
           D1           0.00000   0.00000   0.00000   0.00000   0.00000
                          A1        A2        A3        A4        A5
           A1           0.16000
           A2           0.00000   0.16000
           A3           0.00000   0.00000   0.16000
           A4           0.00000   0.00000   0.00000   0.16000
           A5           0.00000   0.00000   0.00000   0.00000   0.16000
           A6           0.00000   0.00000   0.00000   0.00000   0.00000
           A7           0.00000   0.00000   0.00000   0.00000   0.00000
           A8           0.00000   0.00000   0.00000   0.00000   0.00000
           D1           0.00000   0.00000   0.00000   0.00000   0.00000
                          A6        A7        A8        D1
           A6           0.16000
           A7           0.00000   0.00230
           A8           0.00000   0.00000   0.00230
           D1           0.00000   0.00000   0.00000   0.00371
 ITU=  0
 Eigenvectors of the second derivative matrix:
                           1         2         3         4         5
     Eigenvalues --     0.00230   0.00230   0.05482   0.16000   0.16000
   1         R1        -0.00000   0.00000   0.00000  -0.00000  -0.00000
   2         R2         0.00000  -0.00000   0.00000   0.00000  -0.00000
   3         R3        -0.00000   0.00000   0.00000  -0.00000  -0.00000
   4         R4         0.00000   0.00000  -0.00000   0.00000  -0.00000
   5         R5        -0.00000  -0.00000  -0.00000   0.00000   0.00000
   6         A1         0.00000   0.00000  -0.26170   0.06551  -0.66896
   7         A2         0.00000   0.00000  -0.26168   0.03907   0.68006
   8         A3        -0.00000  -0.00000  -0.26168  -0.01980   0.08608
   9         A4        -0.00000   0.00000   0.29660   0.17965   0.20549
  10         A5         0.00000   0.00000   0.12961  -0.80283  -0.09988
  11         A6        -0.00000   0.00000   0.12958   0.56301  -0.17432
  12         A7         0.49200   0.87060  -0.00000   0.00000   0.00000
  13         A8         0.87060  -0.49200   0.00000   0.00000  -0.00000
  14         D1        -0.00000   0.00000   0.82036  -0.00000  -0.00000
                           6         7         8         9        10
     Eigenvalues --     0.16000   0.16000   0.19598   0.22057   0.36022
   1         R1         0.00000   0.00000   0.00000  -1.00000  -0.00000
   2         R2        -0.00000   0.00000   1.00000   0.00000  -0.00000
   3         R3         0.00000   0.00000   0.00000   0.00000  -1.00000
   4         R4         0.00000   0.00000   0.00000   0.00000   0.00000
   5         R5        -0.00000   0.00000   0.00000  -0.00000   0.00000
   6         A1        -0.31225  -0.36049  -0.00000   0.00000  -0.00000
   7         A2         0.10115  -0.45285   0.00000  -0.00000  -0.00000
   8         A3        -0.10041   0.81328   0.00000   0.00000   0.00000
   9         A4        -0.65914  -0.00017  -0.00000  -0.00000  -0.00000
  10         A5         0.26523  -0.04196   0.00000   0.00000   0.00000
  11         A6         0.61431   0.04219  -0.00000  -0.00000  -0.00000
  12         A7        -0.00000   0.00000   0.00000  -0.00000   0.00000
  13         A8        -0.00000  -0.00000  -0.00000  -0.00000  -0.00000
  14         D1         0.00000  -0.00000  -0.00000   0.00000   0.00000
                          11        12
     Eigenvalues --     0.36033   0.36033
   1         R1         0.00000  -0.00000
   2         R2         0.00000   0.00000
   3         R3        -0.00000  -0.00000
   4         R4        -0.70685  -0.70736
   5         R5        -0.70736   0.70685
   6         A1         0.00000  -0.00000
   7         A2        -0.00000  -0.00000
   8         A3         0.00000   0.00000
   9         A4        -0.00000  -0.00000
  10         A5        -0.00000  -0.00000
  11         A6         0.00000   0.00000
  12         A7        -0.00000   0.00000
  13         A8        -0.00000   0.00000
  14         D1        -0.00000  -0.00000
 Eigenvalue     1 is   2.30D-03 should be less than     0.000000 Eigenvector:
                          A8        A7        R1        A3        D1
   1                    0.87060   0.49200  -0.00000  -0.00000  -0.00000
                          A2        A5        A4        R5        A1
   1                    0.00000   0.00000  -0.00000  -0.00000   0.00000
 RLam0= 2.30D-03.
 Iter=   1 RLamda= 0.00000000D+00 Sum=-2.64618974D-03.
 Iter=   2 RLamda=-2.64618974D-03 Sum=-2.60866876D-03.
 Iter=   3 RLamda=-2.60866876D-03 Sum=-2.60919001D-03.
 Iter=   4 RLamda=-2.60919001D-03 Sum=-2.60918277D-03.
 RFO step:  Lambda0=2.300011310D-03 Lambda=-2.60919001D-03.
 Linear search not attempted -- option 19 set.
 Maximum step size (   0.100) exceeded in Quadratic search.
    -- Step size scaled by   0.625
 Iteration  1 RMS(Cart)=  0.03216833 RMS(Int)=  0.00114594
 Iteration  2 RMS(Cart)=  0.00085694 RMS(Int)=  0.00008078
 Iteration  3 RMS(Cart)=  0.00000175 RMS(Int)=  0.00008077
 Iteration  4 RMS(Cart)=  0.00000000 RMS(Int)=  0.00008077
 ITry= 1 IFail=0 DXMaxC= 6.63D-02 DCOld= 1.00D+10 DXMaxT= 1.00D-01 DXLimC= 3.00D+00 Rises=F
 ClnCor:  largest displacement from symmetrization is 3.03D-02 for atom     6.
 Variable       Old X    -DE/DX   Delta X   Delta X   Delta X     New X
                                 (Linear)    (Quad)   (Total)
    R1        2.34040   0.00883   0.00000   0.02474   0.02405   2.36445
    R2        3.15329   0.01685   0.00000   0.05305   0.05293   3.20622
    R3        2.04047   0.00866   0.00000   0.01493   0.01492   2.05539
    R4        2.04030   0.00874   0.00000   0.01505   0.01319   2.05349
    R5        2.04030   0.00874   0.00000   0.01505   0.01319   2.05349
    A1        1.79058   0.00107   0.00000   0.01024   0.01026   1.80083
    A2        1.79134   0.00100   0.00000   0.00995   0.00267   1.79401
    A3        1.79134   0.00100   0.00000   0.00995   0.00267   1.79401
    A4        2.01363   0.00002   0.00000  -0.00685  -0.00497   2.00867
    A5        2.01363  -0.00112   0.00000  -0.00734  -0.00497   2.00867
    A6        2.01322  -0.00107   0.00000  -0.00716  -0.00121   2.01201
    A7        3.14120   0.00000   0.00000  -0.03593  -0.03502   3.10618
    A8        3.14159  -0.00000   0.00000  -0.06437   0.00000   3.14159
    D1        2.41803  -0.00272   0.00000  -0.02961  -0.01584   2.40219
         Item               Value     Threshold  Converged?
 Maximum Force            0.016847     0.000450     NO 
 RMS     Force            0.006559     0.000300     NO 
 Maximum Displacement     0.066273     0.001800     NO 
 RMS     Displacement     0.027113     0.001200     NO 
 Predicted change in Energy=-1.073251D-03
 Lowest energy point so far.  Saving SCF results.
 Largest change from initial coordinates is atom    1       0.016 Angstoms.
 GradGradGradGradGradGradGradGradGradGradGradGradGradGradGradGradGradGrad

 Leave Link  103 at Wed Oct  7 14:47:58 2020, MaxMem=  2684354560 cpu:               2.7 elap:               0.6
 (Enter /udrive/faculty/rpeverati/g16/g16/l202.exe)
                          Input orientation:                          
 ---------------------------------------------------------------------
 Center     Atomic      Atomic             Coordinates (Angstroms)
 Number     Number       Type             X           Y           Z
 ---------------------------------------------------------------------
      1          1           0        0.015677    2.036037    0.000000
      2          9           0       -0.017013    0.785250    0.000000
      3          6           0       -0.001271   -0.911334    0.000000
      4          1           0        1.059999   -1.149497    0.000000
      5          1           0       -0.528568   -1.156781    0.917901
      6          1           0       -0.528568   -1.156781   -0.917901
 ---------------------------------------------------------------------
                    Distance matrix (angstroms):
                    1          2          3          4          5
     1  H    0.000000
     2  F    1.251215   0.000000
     3  C    2.947420   1.696657   0.000000
     4  H    3.352349   2.214318   1.087666   0.000000
     5  H    3.366427   2.208102   1.086659   1.834704   0.000000
     6  H    3.366427   2.208102   1.086659   1.834704   1.835802
                    6
     6  H    0.000000
 Stoichiometry    CH4F(2)
 Framework group  CS[SG(CH2F),X(H2)]
 Deg. of freedom     8
 Full point group                 CS      NOp   2
 RotChk:  IX=0 Diff= 1.31D-02
 Largest Abelian subgroup         CS      NOp   2
 Largest concise Abelian subgroup CS      NOp   2
                         Standard orientation:                         
 ---------------------------------------------------------------------
 Center     Atomic      Atomic             Coordinates (Angstroms)
 Number     Number       Type             X           Y           Z
 ---------------------------------------------------------------------
      1          1           0        0.041967    2.026671   -0.000000
      2          9           0       -0.002327    0.776240   -0.000000
      3          6           0       -0.002327   -0.920417    0.000000
      4          1           0        1.056689   -1.168416    0.000000
      5          1           0       -0.531878   -1.160960    0.917901
      6          1           0       -0.531878   -1.160960   -0.917901
 ---------------------------------------------------------------------
 Rotational constants (GHZ):         148.8383128          16.0941154          16.0935770
 Leave Link  202 at Wed Oct  7 14:47:58 2020, MaxMem=  2684354560 cpu:               0.8 elap:               0.3
 (Enter /udrive/faculty/rpeverati/g16/g16/l301.exe)
 Standard basis: 6-31G(d) (5D, 7F)
 Ernie: Thresh=  0.10000D-02 Tol=  0.10000D-05 Strict=F.
 There are    28 symmetry adapted cartesian basis functions of A'  symmetry.
 There are    10 symmetry adapted cartesian basis functions of A"  symmetry.
 There are    26 symmetry adapted basis functions of A'  symmetry.
 There are    10 symmetry adapted basis functions of A"  symmetry.
    36 basis functions,    72 primitive gaussians,    38 cartesian basis functions
    10 alpha electrons        9 beta electrons
       nuclear repulsion energy        38.2906676428 Hartrees.
 IExCor=  402 DFT=T Ex=B Corr=LYP ExCW=0 ScaHFX=  0.000000
 ScaDFX=  1.000000  1.000000  1.000000  1.000000 ScalE2=  1.000000  1.000000
 IRadAn=      5 IRanWt=     -1 IRanGd=            0 ICorTp=0 IEmpDi=  4
 NAtoms=    6 NActive=    6 NUniq=    5 SFac= 1.44D+00 NAtFMM=   60 NAOKFM=F Big=F
 Integral buffers will be    131072 words long.
 Raffenetti 2 integral format.
 Two-electron integral symmetry is turned on.
 Leave Link  301 at Wed Oct  7 14:47:59 2020, MaxMem=  2684354560 cpu:               1.5 elap:               0.4
 (Enter /udrive/faculty/rpeverati/g16/g16/l302.exe)
 NPDir=0 NMtPBC=     1 NCelOv=     1 NCel=       1 NClECP=     1 NCelD=      1
         NCelK=      1 NCelE2=     1 NClLst=     1 CellRange=     0.0.
 One-electron integrals computed using PRISM.
 One-electron integral symmetry used in STVInt
 NBasis=    36 RedAO= T EigKep=  2.16D-02  NBF=    26    10
 NBsUse=    36 1.00D-06 EigRej= -1.00D+00 NBFU=    26    10
 Precomputing XC quadrature grid using
 IXCGrd= 4 IRadAn=           5 IRanWt=          -1 IRanGd=           0 AccXCQ= 0.00D+00.
 Generated NRdTot=       0 NPtTot=           0 NUsed=           0 NTot=          32
 NSgBfM=    38    38    38    38    38 MxSgAt=     6 MxSgA2=     6.
 Leave Link  302 at Wed Oct  7 14:47:59 2020, MaxMem=  2684354560 cpu:               3.3 elap:               0.5
 (Enter /udrive/faculty/rpeverati/g16/g16/l303.exe)
 DipDrv:  MaxL=1.
 Leave Link  303 at Wed Oct  7 14:48:00 2020, MaxMem=  2684354560 cpu:               1.8 elap:               0.6
 (Enter /udrive/faculty/rpeverati/g16/g16/l401.exe)
 Initial guess from the checkpoint file:  "MN_53_hfch3ts_BH76_BLYP_631Gs.chk"
 SCF N**3 symmetry information disabled.
 B after Tr=    -0.000000    0.000000    0.000000
         Rot=    0.999997    0.000000    0.000000    0.002410 Ang=   0.28 deg.
 Guess basis will be translated and rotated to current coordinates.
 JPrj=2 DoOrth=T DoCkMO=T.
 Initial guess orbital symmetries:
 Alpha Orbitals:
       Occupied  (A') (A') (A') (A') (A') (A') (A") (A") (A') (A')
       Virtual   (A') (A') (A') (A") (A') (A") (A') (A') (A') (A")
                 (A') (A') (A') (A") (A') (A") (A') (A') (A") (A')
                 (A') (A") (A') (A') (A") (A')
 Beta  Orbitals:
       Occupied  (A') (A') (A') (A') (A') (A') (A") (A") (A')
       Virtual   (A') (A') (A') (A') (A") (A') (A") (A') (A') (A')
                 (A") (A') (A') (A') (A") (A') (A") (A') (A') (A")
                 (A') (A') (A") (A') (A') (A") (A')
 The electronic state of the initial guess is 2-A'.
 Initial guess <Sx>= 0.0000 <Sy>= 0.0000 <Sz>= 0.5000 <S**2>= 0.7567 S= 0.5033
 Generating alternative initial guess.
 ExpMin= 1.61D-01 ExpMax= 7.00D+03 ExpMxC= 1.05D+03 IAcc=2 IRadAn=         4 AccDes= 0.00D+00
 Harris functional with IExCor=  402 and IRadAn=       4 diagonalized for initial guess.
 HarFok:  IExCor=  402 AccDes= 0.00D+00 IRadAn=         4 IDoV= 1 UseB2=F ITyADJ=14
 ICtDFT=  3500011 ScaDFX=  1.000000  1.000000  1.000000  1.000000
 FoFCou: FMM=F IPFlag=           0 FMFlag=      100000 FMFlg1=           0
         NFxFlg=           0 DoJE=T BraDBF=F KetDBF=T FulRan=T
         wScrn=  0.000000 ICntrl=       500 IOpCl=  0 I1Cent=   200000004 NGrid=           0
         NMat0=    1 NMatS0=      1 NMatT0=    0 NMatD0=    1 NMtDS0=    0 NMtDT0=    0
 Petite list used in FoFCou.
 Harris En= -140.190293078554    
 Leave Link  401 at Wed Oct  7 14:48:01 2020, MaxMem=  2684354560 cpu:               7.9 elap:               1.1
 (Enter /udrive/faculty/rpeverati/g16/g16/l502.exe)
 Keep J ints in memory in symmetry-blocked form, NReq=10578875.
 FoFCou: FMM=F IPFlag=           0 FMFlag=           0 FMFlg1=           0
         NFxFlg=           0 DoJE=F BraDBF=F KetDBF=F FulRan=T
         wScrn=  0.000000 ICntrl=       600 IOpCl=  0 I1Cent=           0 NGrid=           0
         NMat0=    1 NMatS0=    666 NMatT0=    0 NMatD0=    1 NMtDS0=    0 NMtDT0=    0
 Petite list used in FoFCou.
 UHF open shell SCF:
 Using DIIS extrapolation, IDIIS=  1040.
 NGot=  2684354560 LenX=  2684232161 LenY=  2684230276
 Requested convergence on RMS density matrix=1.00D-08 within 120 cycles.
 Requested convergence on MAX density matrix=1.00D-06.
 Requested convergence on             energy=1.00D-06.
 No special actions if energy rises.
 Integral accuracy reduced to 1.0D-05 until final iterations.

 Cycle   1  Pass 0  IDiag  1:
 E= -140.152334249929    
 DIIS: error= 2.00D-03 at cycle   1 NSaved=   1.
 NSaved= 1 IEnMin= 1 EnMin= -140.152334249929     IErMin= 1 ErrMin= 2.00D-03
 ErrMax= 2.00D-03  0.00D+00 EMaxC= 1.00D-01 BMatC= 5.38D-04 BMatP= 5.38D-04
 IDIUse=3 WtCom= 9.80D-01 WtEn= 2.00D-02
 Coeff-Com:  0.100D+01
 Coeff-En:   0.100D+01
 Coeff:      0.100D+01
 Gap=     0.142 Goal=   None    Shift=    0.000
 Gap=     0.208 Goal=   None    Shift=    0.000
 GapD=    0.142 DampG=1.000 DampE=1.000 DampFc=1.0000 IDamp=-1.
 RMSDP=7.55D-04 MaxDP=1.13D-02              OVMax= 1.35D-02

 Cycle   2  Pass 0  IDiag  1:
 E= -140.152545145931     Delta-E=       -0.000210896002 Rises=F Damp=F
 DIIS: error= 8.86D-04 at cycle   2 NSaved=   2.
 NSaved= 2 IEnMin= 2 EnMin= -140.152545145931     IErMin= 2 ErrMin= 8.86D-04
 ErrMax= 8.86D-04  0.00D+00 EMaxC= 1.00D-01 BMatC= 7.91D-05 BMatP= 5.38D-04
 IDIUse=3 WtCom= 9.91D-01 WtEn= 8.86D-03
 Coeff-Com:  0.179D+00 0.821D+00
 Coeff-En:   0.000D+00 0.100D+01
 Coeff:      0.178D+00 0.822D+00
 Gap=     0.141 Goal=   None    Shift=    0.000
 Gap=     0.208 Goal=   None    Shift=    0.000
 RMSDP=1.94D-04 MaxDP=2.08D-03 DE=-2.11D-04 OVMax= 3.19D-03

 Cycle   3  Pass 0  IDiag  1:
 E= -140.152544141289     Delta-E=        0.000001004642 Rises=F Damp=F
 DIIS: error= 1.09D-03 at cycle   3 NSaved=   3.
 NSaved= 3 IEnMin= 2 EnMin= -140.152545145931     IErMin= 2 ErrMin= 8.86D-04
 ErrMax= 1.09D-03  0.00D+00 EMaxC= 1.00D-01 BMatC= 1.05D-04 BMatP= 7.91D-05
 IDIUse=3 WtCom= 2.33D-01 WtEn= 7.67D-01
 Coeff-Com:  0.146D-01 0.534D+00 0.452D+00
 Coeff-En:   0.000D+00 0.514D+00 0.486D+00
 Coeff:      0.339D-02 0.518D+00 0.478D+00
 Gap=     0.141 Goal=   None    Shift=    0.000
 Gap=     0.207 Goal=   None    Shift=    0.000
 RMSDP=1.02D-04 MaxDP=1.55D-03 DE= 1.00D-06 OVMax= 2.19D-03

 Cycle   4  Pass 0  IDiag  1:
 E= -140.152560431522     Delta-E=       -0.000016290233 Rises=F Damp=F
 DIIS: error= 2.23D-04 at cycle   4 NSaved=   4.
 NSaved= 4 IEnMin= 4 EnMin= -140.152560431522     IErMin= 4 ErrMin= 2.23D-04
 ErrMax= 2.23D-04  0.00D+00 EMaxC= 1.00D-01 BMatC= 7.99D-06 BMatP= 7.91D-05
 IDIUse=3 WtCom= 9.98D-01 WtEn= 2.23D-03
 Coeff-Com: -0.467D-02 0.220D+00 0.284D+00 0.501D+00
 Coeff-En:   0.000D+00 0.000D+00 0.225D-01 0.977D+00
 Coeff:     -0.465D-02 0.220D+00 0.283D+00 0.502D+00
 Gap=     0.141 Goal=   None    Shift=    0.000
 Gap=     0.207 Goal=   None    Shift=    0.000
 RMSDP=2.77D-05 MaxDP=3.43D-04 DE=-1.63D-05 OVMax= 5.22D-04

 Cycle   5  Pass 0  IDiag  1:
 E= -140.152561852081     Delta-E=       -0.000001420559 Rises=F Damp=F
 DIIS: error= 7.18D-05 at cycle   5 NSaved=   5.
 NSaved= 5 IEnMin= 5 EnMin= -140.152561852081     IErMin= 5 ErrMin= 7.18D-05
 ErrMax= 7.18D-05  0.00D+00 EMaxC= 1.00D-01 BMatC= 4.53D-07 BMatP= 7.99D-06
 IDIUse=1 WtCom= 1.00D+00 WtEn= 0.00D+00
 Coeff-Com: -0.316D-03 0.555D-01 0.100D+00 0.256D+00 0.589D+00
 Coeff:     -0.316D-03 0.555D-01 0.100D+00 0.256D+00 0.589D+00
 Gap=     0.141 Goal=   None    Shift=    0.000
 Gap=     0.207 Goal=   None    Shift=    0.000
 RMSDP=2.75D-05 MaxDP=5.13D-04 DE=-1.42D-06 OVMax= 8.11D-04

 Cycle   6  Pass 0  IDiag  1:
 E= -140.152561903470     Delta-E=       -0.000000051389 Rises=F Damp=F
 DIIS: error= 6.29D-05 at cycle   6 NSaved=   6.
 NSaved= 6 IEnMin= 6 EnMin= -140.152561903470     IErMin= 6 ErrMin= 6.29D-05
 ErrMax= 6.29D-05  0.00D+00 EMaxC= 1.00D-01 BMatC= 3.15D-07 BMatP= 4.53D-07
 IDIUse=1 WtCom= 1.00D+00 WtEn= 0.00D+00
 Coeff-Com: -0.671D-03-0.301D-01-0.172D-01 0.136D-01 0.496D+00 0.538D+00
 Coeff:     -0.671D-03-0.301D-01-0.172D-01 0.136D-01 0.496D+00 0.538D+00
 Gap=     0.141 Goal=   None    Shift=    0.000
 Gap=     0.207 Goal=   None    Shift=    0.000
 RMSDP=1.19D-05 MaxDP=2.09D-04 DE=-5.14D-08 OVMax= 3.29D-04

 Cycle   7  Pass 0  IDiag  1:
 E= -140.152562014079     Delta-E=       -0.000000110609 Rises=F Damp=F
 DIIS: error= 3.16D-06 at cycle   7 NSaved=   7.
 NSaved= 7 IEnMin= 7 EnMin= -140.152562014079     IErMin= 7 ErrMin= 3.16D-06
 ErrMax= 3.16D-06  0.00D+00 EMaxC= 1.00D-01 BMatC= 1.28D-09 BMatP= 3.15D-07
 IDIUse=1 WtCom= 1.00D+00 WtEn= 0.00D+00
 Coeff-Com: -0.751D-05-0.945D-02-0.116D-01-0.142D-01 0.437D-01 0.457D-01
 Coeff-Com:  0.946D+00
 Coeff:     -0.751D-05-0.945D-02-0.116D-01-0.142D-01 0.437D-01 0.457D-01
 Coeff:      0.946D+00
 Gap=     0.141 Goal=   None    Shift=    0.000
 Gap=     0.207 Goal=   None    Shift=    0.000
 RMSDP=7.32D-07 MaxDP=8.37D-06 DE=-1.11D-07 OVMax= 1.86D-05

 Initial convergence to 1.0D-05 achieved.  Increase integral accuracy.
 Cycle   8  Pass 1  IDiag  1:
 E= -140.152563125752     Delta-E=       -0.000001111673 Rises=F Damp=F
 DIIS: error= 8.35D-07 at cycle   1 NSaved=   1.
 NSaved= 1 IEnMin= 1 EnMin= -140.152563125752     IErMin= 1 ErrMin= 8.35D-07
 ErrMax= 8.35D-07  0.00D+00 EMaxC= 1.00D-01 BMatC= 1.08D-10 BMatP= 1.08D-10
 IDIUse=1 WtCom= 1.00D+00 WtEn= 0.00D+00
 Coeff-Com:  0.100D+01
 Coeff:      0.100D+01
 Gap=     0.141 Goal=   None    Shift=    0.000
 Gap=     0.207 Goal=   None    Shift=    0.000
 RMSDP=7.32D-07 MaxDP=8.37D-06 DE=-1.11D-06 OVMax= 1.59D-05

 Cycle   9  Pass 1  IDiag  1:
 E= -140.152563125764     Delta-E=       -0.000000000012 Rises=F Damp=F
 DIIS: error= 1.13D-06 at cycle   2 NSaved=   2.
 NSaved= 2 IEnMin= 2 EnMin= -140.152563125764     IErMin= 1 ErrMin= 8.35D-07
 ErrMax= 1.13D-06  0.00D+00 EMaxC= 1.00D-01 BMatC= 1.42D-10 BMatP= 1.08D-10
 IDIUse=1 WtCom= 1.00D+00 WtEn= 0.00D+00
 Coeff-Com:  0.559D+00 0.441D+00
 Coeff:      0.559D+00 0.441D+00
 Gap=     0.141 Goal=   None    Shift=    0.000
 Gap=     0.207 Goal=   None    Shift=    0.000
 RMSDP=3.96D-07 MaxDP=7.23D-06 DE=-1.20D-11 OVMax= 1.15D-05

 Cycle  10  Pass 1  IDiag  1:
 E= -140.152563125800     Delta-E=       -0.000000000036 Rises=F Damp=F
 DIIS: error= 7.12D-07 at cycle   3 NSaved=   3.
 NSaved= 3 IEnMin= 3 EnMin= -140.152563125800     IErMin= 3 ErrMin= 7.12D-07
 ErrMax= 7.12D-07  0.00D+00 EMaxC= 1.00D-01 BMatC= 5.21D-11 BMatP= 1.08D-10
 IDIUse=1 WtCom= 1.00D+00 WtEn= 0.00D+00
 Coeff-Com:  0.148D-01 0.367D+00 0.618D+00
 Coeff:      0.148D-01 0.367D+00 0.618D+00
 Gap=     0.141 Goal=   None    Shift=    0.000
 Gap=     0.207 Goal=   None    Shift=    0.000
 RMSDP=1.13D-07 MaxDP=1.91D-06 DE=-3.60D-11 OVMax= 2.97D-06

 Cycle  11  Pass 1  IDiag  1:
 E= -140.152563125815     Delta-E=       -0.000000000015 Rises=F Damp=F
 DIIS: error= 1.35D-07 at cycle   4 NSaved=   4.
 NSaved= 4 IEnMin= 4 EnMin= -140.152563125815     IErMin= 4 ErrMin= 1.35D-07
 ErrMax= 1.35D-07  0.00D+00 EMaxC= 1.00D-01 BMatC= 2.20D-12 BMatP= 5.21D-11
 IDIUse=1 WtCom= 1.00D+00 WtEn= 0.00D+00
 Coeff-Com: -0.236D-01 0.155D+00 0.252D+00 0.616D+00
 Coeff:     -0.236D-01 0.155D+00 0.252D+00 0.616D+00
 Gap=     0.141 Goal=   None    Shift=    0.000
 Gap=     0.207 Goal=   None    Shift=    0.000
 RMSDP=3.81D-08 MaxDP=6.69D-07 DE=-1.51D-11 OVMax= 1.01D-06

 Cycle  12  Pass 1  IDiag  1:
 E= -140.152563125816     Delta-E=       -0.000000000001 Rises=F Damp=F
 DIIS: error= 9.49D-08 at cycle   5 NSaved=   5.
 NSaved= 5 IEnMin= 5 EnMin= -140.152563125816     IErMin= 5 ErrMin= 9.49D-08
 ErrMax= 9.49D-08  0.00D+00 EMaxC= 1.00D-01 BMatC= 9.66D-13 BMatP= 2.20D-12
 IDIUse=1 WtCom= 1.00D+00 WtEn= 0.00D+00
 Coeff-Com: -0.204D-01 0.144D-01 0.170D-01 0.403D+00 0.586D+00
 Coeff:     -0.204D-01 0.144D-01 0.170D-01 0.403D+00 0.586D+00
 Gap=     0.141 Goal=   None    Shift=    0.000
 Gap=     0.207 Goal=   None    Shift=    0.000
 RMSDP=1.14D-08 MaxDP=1.48D-07 DE=-7.96D-13 OVMax= 2.20D-07

 Cycle  13  Pass 1  IDiag  1:
 E= -140.152563125816     Delta-E=        0.000000000000 Rises=F Damp=F
 DIIS: error= 2.06D-08 at cycle   6 NSaved=   6.
 NSaved= 6 IEnMin= 5 EnMin= -140.152563125816     IErMin= 6 ErrMin= 2.06D-08
 ErrMax= 2.06D-08  0.00D+00 EMaxC= 1.00D-01 BMatC= 6.24D-14 BMatP= 9.66D-13
 IDIUse=1 WtCom= 1.00D+00 WtEn= 0.00D+00
 Coeff-Com: -0.480D-02-0.275D-01-0.369D-01 0.429D-01 0.224D+00 0.802D+00
 Coeff:     -0.480D-02-0.275D-01-0.369D-01 0.429D-01 0.224D+00 0.802D+00
 Gap=     0.141 Goal=   None    Shift=    0.000
 Gap=     0.207 Goal=   None    Shift=    0.000
 RMSDP=5.74D-09 MaxDP=6.40D-08 DE= 5.68D-14 OVMax= 1.06D-07

 SCF Done:  E(UB-LYP) =  -140.152563126     A.U. after   13 cycles
            NFock= 13  Conv=0.57D-08     -V/T= 2.0046
 <Sx>= 0.0000 <Sy>= 0.0000 <Sz>= 0.5000 <S**2>= 0.7573 S= 0.5036
 <L.S>= 0.000000000000E+00
 KE= 1.395157147085D+02 PE=-4.086934280198D+02 EE= 9.073448254270D+01
 Annihilation of the first spin contaminant:
 S**2 before annihilation     0.7573,   after     0.7500
 Leave Link  502 at Wed Oct  7 14:48:04 2020, MaxMem=  2684354560 cpu:              18.3 elap:               1.9
 (Enter /udrive/faculty/rpeverati/g16/g16/l508.exe)
 QCSCF skips out because SCF is already converged.
 Leave Link  508 at Wed Oct  7 14:48:04 2020, MaxMem=  2684354560 cpu:               0.3 elap:               0.4
 (Enter /udrive/faculty/rpeverati/g16/g16/l701.exe)
 ... and contract with generalized density number  0.
 Compute integral first derivatives.
 Leave Link  701 at Wed Oct  7 14:48:05 2020, MaxMem=  2684354560 cpu:               3.9 elap:               0.7
 (Enter /udrive/faculty/rpeverati/g16/g16/l702.exe)
 L702 exits ... SP integral derivatives will be done elsewhere.
 Leave Link  702 at Wed Oct  7 14:48:06 2020, MaxMem=  2684354560 cpu:               1.0 elap:               0.5
 (Enter /udrive/faculty/rpeverati/g16/g16/l703.exe)
 Integral derivatives from FoFJK, PRISM(SPDF).
 Compute integral first derivatives, UseDBF=F ICtDFT=           0.
 Calling FoFJK, ICntrl=      2527 FMM=F ISym2X=1 I1Cent= 0 IOpClX= 0 NMat=1 NMatS=1 NMatT=0.
 FoFJK:  IHMeth= 1 ICntrl=    2527 DoSepK=F KAlg= 0 I1Cent=           0 FoldK=F
 IRaf=         0 NMat=       1 IRICut=       1 DoRegI=T DoRafI=F ISym2E= 1 IDoP0=0 IntGTp=1.
 FoFCou: FMM=F IPFlag=           0 FMFlag=      100000 FMFlg1=         800
         NFxFlg=           0 DoJE=F BraDBF=F KetDBF=F FulRan=T
         wScrn=  0.000000 ICntrl=      2527 IOpCl=  0 I1Cent=           0 NGrid=           0
         NMat0=    1 NMatS0=      1 NMatT0=    0 NMatD0=    1 NMtDS0=    0 NMtDT0=    0
 Petite list used in FoFCou.
 Leave Link  703 at Wed Oct  7 14:48:07 2020, MaxMem=  2684354560 cpu:               7.4 elap:               1.0
 (Enter /udrive/faculty/rpeverati/g16/g16/l716.exe)
 Dipole        = 5.49988160D-03-4.79579764D-01-4.44089210D-16
 ***** Axes restored to original set *****
 -------------------------------------------------------------------
 Center     Atomic                   Forces (Hartrees/Bohr)
 Number     Number              X              Y              Z
 -------------------------------------------------------------------
      1        1          -0.000032981    0.001862306   -0.000000000
      2        9           0.000144005    0.009561607    0.000000000
      3        6           0.000609321   -0.006324455    0.000000000
      4        1           0.003045118   -0.001400098    0.000000000
      5        1          -0.001882731   -0.001849680    0.003010377
      6        1          -0.001882731   -0.001849680   -0.003010377
 -------------------------------------------------------------------
 Cartesian Forces:  Max     0.009561607 RMS     0.003149727
 Leave Link  716 at Wed Oct  7 14:48:08 2020, MaxMem=  2684354560 cpu:               1.5 elap:               0.4
 (Enter /udrive/faculty/rpeverati/g16/g16/l103.exe)

 GradGradGradGradGradGradGradGradGradGradGradGradGradGradGradGradGradGrad
 Berny optimization.
 Optmz: redundant internal coordinate code flag= 1
 Red2BG:  D1=  2.50D-01 OD1=  1.18D-01 B2RMS=  0.00D+00 IAprox=0
 FormGI is forming the generalized inverse of G from B-inverse, IUseBI=4.
 Internal  Forces:  Max     0.011422392 RMS     0.003561454
 Search for a saddle point.
 Step number   2 out of a maximum of   50
 All quantities printed in internal units (Hartrees-Bohrs-Radians)
 Swapping is turned off.
 Update second derivatives using D2CorX and points    1    2
 The second derivative matrix:
                          R1        R2        R3        R4        R5
           R1           0.23099
           R2           0.01181   0.10962
           R3           0.00514  -0.00605   0.36134
           R4           0.00468  -0.00403   0.00120   0.36156
           R5           0.00468  -0.00403   0.00120   0.00123   0.36156
           A1           0.00263  -0.01325  -0.00063  -0.00034  -0.00034
           A2           0.00085  -0.00182   0.00009   0.00012   0.00012
           A3           0.00085  -0.00182   0.00009   0.00012   0.00012
           A4          -0.00079   0.01132   0.00107   0.00079   0.00079
           A5          -0.00162   0.00297  -0.00023  -0.00028  -0.00028
           A6          -0.00064  -0.00179  -0.00044  -0.00039  -0.00039
           A7          -0.01219   0.01300  -0.00282  -0.00296  -0.00296
           A8          -0.00000  -0.00000  -0.00000  -0.00000  -0.00000
           D1          -0.00738  -0.01292  -0.00418  -0.00374  -0.00374
                          A1        A2        A3        A4        A5
           A1           0.15802
           A2          -0.00024   0.15999
           A3          -0.00024  -0.00001   0.15999
           A4           0.00179   0.00028   0.00028   0.15856
           A5           0.00037   0.00000   0.00000  -0.00047   0.16002
           A6          -0.00033  -0.00008  -0.00008   0.00018   0.00015
           A7           0.00128  -0.00024  -0.00024  -0.00236   0.00060
           A8          -0.00000  -0.00000  -0.00000   0.00000   0.00000
           D1          -0.00261  -0.00073  -0.00073   0.00112   0.00136
                          A6        A7        A8        D1
           A6           0.16003
           A7           0.00104   0.00935
           A8          -0.00000   0.00000   0.00230
           D1           0.00041   0.00985   0.00000   0.00873
 ITU=  0  0
 Eigenvectors of the second derivative matrix:
                           1         2         3         4         5
     Eigenvalues --     0.00230   0.00581   0.06131   0.10770   0.16000
   1         R1        -0.00000   0.05551   0.05259   0.08392   0.00000
   2         R2         0.00000  -0.13435   0.00728  -0.96286   0.00000
   3         R3         0.00000   0.00347   0.01043  -0.02664   0.00000
   4         R4        -0.00000   0.00479   0.00991  -0.01860   0.00000
   5         R5        -0.00000   0.00479   0.00991  -0.01860   0.00000
   6         A1        -0.00000   0.02170  -0.25545  -0.13813  -0.31788
   7         A2        -0.00000   0.04263  -0.25852   0.07775   0.09585
   8         A3        -0.00000   0.04263  -0.25852   0.07775   0.19588
   9         A4         0.00000  -0.02583   0.30986   0.07536  -0.05580
  10         A5         0.00000  -0.02186   0.12238   0.00130  -0.61199
  11         A6         0.00000  -0.02958   0.12553  -0.08948   0.68830
  12         A7        -0.00000   0.98066   0.12718  -0.13899   0.00000
  13         A8         1.00000   0.00000   0.00000   0.00000  -0.00000
  14         D1         0.00000  -0.10480   0.80934   0.01675   0.00000
                           6         7         8         9        10
     Eigenvalues --     0.16000   0.16021   0.16102   0.23261   0.36024
   1         R1         0.00000   0.02313  -0.02434  -0.99100  -0.00292
   2         R2        -0.00000   0.01949   0.21079  -0.09527   0.00670
   3         R3         0.00000   0.00292   0.00180   0.03678  -0.82132
   4         R4        -0.00000   0.00272   0.00096   0.03459   0.40334
   5         R5        -0.00000   0.00272   0.00096   0.03459   0.40334
   6         A1         0.02254  -0.48352  -0.57251  -0.02100   0.00023
   7         A2        -0.71568   0.09313   0.37838  -0.01146  -0.00047
   8         A3         0.69499   0.09313   0.37838  -0.01146  -0.00047
   9         A4         0.00396  -0.59247   0.37112  -0.00158  -0.00018
  10         A5         0.04339   0.59190  -0.05865   0.02026   0.00021
  11         A6        -0.04881   0.21547  -0.44683   0.01304   0.00048
  12         A7         0.00000   0.00883   0.00458   0.04888   0.00016
  13         A8        -0.00000   0.00000  -0.00000   0.00000   0.00000
  14         D1         0.00000   0.00762  -0.00397   0.03782   0.00055
                          11        12
     Eigenvalues --     0.36033   0.36487
   1         R1         0.00000  -0.06247
   2         R2        -0.00000   0.02935
   3         R3        -0.00000  -0.56853
   4         R4        -0.70711  -0.57935
   5         R5         0.70711  -0.57935
   6         A1        -0.00000  -0.00407
   7         A2         0.00000  -0.00651
   8         A3         0.00000  -0.00651
   9         A4         0.00000   0.00029
  10         A5         0.00000   0.00591
  11         A6        -0.00000   0.00616
  12         A7         0.00000   0.01782
  13         A8        -0.00000   0.00000
  14         D1        -0.00000   0.01511
 Eigenvalue     1 is   2.30D-03 should be less than     0.000000 Eigenvector:
                          A8        A7        R2        D1        R1
   1                    1.00000  -0.00000   0.00000   0.00000  -0.00000
                          A2        A3        A6        A4        A5
   1                   -0.00000  -0.00000   0.00000   0.00000   0.00000
 RLam0= 2.30D-03.
 Iter=   1 RLamda= 0.00000000D+00 Sum=-1.50096073D-03.
 Iter=   2 RLamda=-1.50096073D-03 Sum=-1.44946782D-03.
 Iter=   3 RLamda=-1.44946782D-03 Sum=-1.45099051D-03.
 Iter=   4 RLamda=-1.45099051D-03 Sum=-1.45094528D-03.
 Iter=   5 RLamda=-1.45094528D-03 Sum=-1.45094663D-03.
 RFO step:  Lambda0=2.300010000D-03 Lambda=-1.45094528D-03.
 Linear search not attempted -- option 19 set.
 Maximum step size (   0.100) exceeded in Quadratic search.
    -- Step size scaled by   0.410
 Iteration  1 RMS(Cart)=  0.02704569 RMS(Int)=  0.00157413
 Iteration  2 RMS(Cart)=  0.00131161 RMS(Int)=  0.00000317
 Iteration  3 RMS(Cart)=  0.00000353 RMS(Int)=  0.00000005
 Iteration  4 RMS(Cart)=  0.00000000 RMS(Int)=  0.00000005
 ITry= 1 IFail=0 DXMaxC= 4.56D-02 DCOld= 1.00D+10 DXMaxT= 1.00D-01 DXLimC= 3.00D+00 Rises=F
 ClnCor:  largest displacement from symmetrization is 3.56D-02 for atom     2.
 Variable       Old X    -DE/DX   Delta X   Delta X   Delta X     New X
                                 (Linear)    (Quad)   (Total)
    R1        2.36445   0.00186   0.00000  -0.00217  -0.00313   2.36132
    R2        3.20622   0.01142   0.00000   0.04907   0.04890   3.25512
    R3        2.05539   0.00328   0.00000   0.00413   0.00413   2.05952
    R4        2.05349   0.00387   0.00000   0.00451   0.00222   2.05571
    R5        2.05349   0.00387   0.00000   0.00451   0.00222   2.05571
    A1        1.80083   0.00013   0.00000   0.00207   0.00206   1.80289
    A2        1.79401   0.00063   0.00000  -0.00068  -0.00919   1.78481
    A3        1.79401   0.00063   0.00000  -0.00068  -0.00919   1.78481
    A4        2.00867   0.00010   0.00000  -0.00074   0.00179   2.01046
    A5        2.00867  -0.00040   0.00000  -0.00030   0.00179   2.01046
    A6        2.01201  -0.00071   0.00000   0.00053   0.00811   2.02012
    A7        3.10618   0.00019   0.00000  -0.05023  -0.04907   3.05712
    A8        3.14159   0.00000   0.00000  -0.07071   0.00000   3.14159
    D1        2.40219  -0.00117   0.00000  -0.00094   0.01519   2.41738
         Item               Value     Threshold  Converged?
 Maximum Force            0.011422     0.000450     NO 
 RMS     Force            0.003561     0.000300     NO 
 Maximum Displacement     0.045623     0.001800     NO 
 RMS     Displacement     0.020806     0.001200     NO 
 Predicted change in Energy=-4.221536D-04
 Lowest energy point so far.  Saving SCF results.
 Largest change from initial coordinates is atom    1       0.026 Angstoms.
 GradGradGradGradGradGradGradGradGradGradGradGradGradGradGradGradGradGrad

 Leave Link  103 at Wed Oct  7 14:48:08 2020, MaxMem=  2684354560 cpu:               1.5 elap:               0.5
 (Enter /udrive/faculty/rpeverati/g16/g16/l202.exe)
                          Input orientation:                          
 ---------------------------------------------------------------------
 Center     Atomic      Atomic             Coordinates (Angstroms)
 Number     Number       Type             X           Y           Z
 ---------------------------------------------------------------------
      1          1           0        0.036382    2.050374   -0.000000
      2          9           0       -0.041156    0.803224   -0.000000
      3          6           0       -0.002605   -0.918879    0.000000
      4          1           0        1.063366   -1.145767    0.000000
      5          1           0       -0.527683   -1.161732    0.921246
      6          1           0       -0.527683   -1.161732   -0.921246
 ---------------------------------------------------------------------
                    Distance matrix (angstroms):
                    1          2          3          4          5
     1  H    0.000000
     2  F    1.249558   0.000000
     3  C    2.969509   1.722535   0.000000
     4  H    3.357084   2.240209   1.089850   0.000000
     5  H    3.388878   2.224063   1.087833   1.838583   0.000000
     6  H    3.388878   2.224063   1.087833   1.838583   1.842493
                    6
     6  H    0.000000
 Stoichiometry    CH4F(2)
 Framework group  CS[SG(CH2F),X(H2)]
 Deg. of freedom     8
 Full point group                 CS      NOp   2
 RotChk:  IX=0 Diff= 1.85D-02
 Largest Abelian subgroup         CS      NOp   2
 Largest concise Abelian subgroup CS      NOp   2
                         Standard orientation:                         
 ---------------------------------------------------------------------
 Center     Atomic      Atomic             Coordinates (Angstroms)
 Number     Number       Type             X           Y           Z
 ---------------------------------------------------------------------
      1          1           0        0.099888    2.033022   -0.000000
      2          9           0       -0.005542    0.787920   -0.000000
      3          6           0       -0.005542   -0.934615    0.000000
      4          1           0        1.055085   -1.185302    0.000000
      5          1           0       -0.535923   -1.165656    0.921246
      6          1           0       -0.535923   -1.165656   -0.921246
 ---------------------------------------------------------------------
 Rotational constants (GHZ):         147.7257743          15.7131422          15.7130042
 Leave Link  202 at Wed Oct  7 14:48:09 2020, MaxMem=  2684354560 cpu:               0.9 elap:               0.3
 (Enter /udrive/faculty/rpeverati/g16/g16/l301.exe)
 Standard basis: 6-31G(d) (5D, 7F)
 Ernie: Thresh=  0.10000D-02 Tol=  0.10000D-05 Strict=F.
 There are    28 symmetry adapted cartesian basis functions of A'  symmetry.
 There are    10 symmetry adapted cartesian basis functions of A"  symmetry.
 There are    26 symmetry adapted basis functions of A'  symmetry.
 There are    10 symmetry adapted basis functions of A"  symmetry.
    36 basis functions,    72 primitive gaussians,    38 cartesian basis functions
    10 alpha electrons        9 beta electrons
       nuclear repulsion energy        37.9621398604 Hartrees.
 IExCor=  402 DFT=T Ex=B Corr=LYP ExCW=0 ScaHFX=  0.000000
 ScaDFX=  1.000000  1.000000  1.000000  1.000000 ScalE2=  1.000000  1.000000
 IRadAn=      5 IRanWt=     -1 IRanGd=            0 ICorTp=0 IEmpDi=  4
 NAtoms=    6 NActive=    6 NUniq=    5 SFac= 1.44D+00 NAtFMM=   60 NAOKFM=F Big=F
 Integral buffers will be    131072 words long.
 Raffenetti 2 integral format.
 Two-electron integral symmetry is turned on.
 Leave Link  301 at Wed Oct  7 14:48:09 2020, MaxMem=  2684354560 cpu:               1.8 elap:               0.4
 (Enter /udrive/faculty/rpeverati/g16/g16/l302.exe)
 NPDir=0 NMtPBC=     1 NCelOv=     1 NCel=       1 NClECP=     1 NCelD=      1
         NCelK=      1 NCelE2=     1 NClLst=     1 CellRange=     0.0.
 One-electron integrals computed using PRISM.
 One-electron integral symmetry used in STVInt
 NBasis=    36 RedAO= T EigKep=  2.20D-02  NBF=    26    10
 NBsUse=    36 1.00D-06 EigRej= -1.00D+00 NBFU=    26    10
 Precomputing XC quadrature grid using
 IXCGrd= 4 IRadAn=           5 IRanWt=          -1 IRanGd=           0 AccXCQ= 0.00D+00.
 Generated NRdTot=       0 NPtTot=           0 NUsed=           0 NTot=          32
 NSgBfM=    38    38    38    38    38 MxSgAt=     6 MxSgA2=     6.
 Leave Link  302 at Wed Oct  7 14:48:10 2020, MaxMem=  2684354560 cpu:               3.4 elap:               0.5
 (Enter /udrive/faculty/rpeverati/g16/g16/l303.exe)
 DipDrv:  MaxL=1.
 Leave Link  303 at Wed Oct  7 14:48:11 2020, MaxMem=  2684354560 cpu:               0.8 elap:               0.4
 (Enter /udrive/faculty/rpeverati/g16/g16/l401.exe)
 Initial guess from the checkpoint file:  "MN_53_hfch3ts_BH76_BLYP_631Gs.chk"
 SCF N**3 symmetry information disabled.
 B after Tr=     0.000000   -0.000000    0.000000
         Rot=    0.999994   -0.000000    0.000000    0.003320 Ang=   0.38 deg.
 Guess basis will be translated and rotated to current coordinates.
 JPrj=2 DoOrth=T DoCkMO=T.
 Initial guess orbital symmetries:
 Alpha Orbitals:
       Occupied  (A') (A') (A') (A') (A') (A") (A') (A') (A") (A')
       Virtual   (A') (A') (A') (A") (A') (A') (A") (A') (A') (A')
                 (A") (A') (A") (A') (A') (A") (A') (A') (A') (A")
                 (A') (A") (A') (A') (A") (A')
 Beta  Orbitals:
       Occupied  (A') (A') (A') (A') (A') (A") (A') (A') (A")
       Virtual   (A') (A') (A') (A') (A") (A') (A') (A") (A') (A')
                 (A') (A") (A') (A") (A') (A') (A") (A') (A') (A')
                 (A") (A') (A") (A') (A') (A") (A')
 The electronic state of the initial guess is 2-A'.
 Initial guess <Sx>= 0.0000 <Sy>= 0.0000 <Sz>= 0.5000 <S**2>= 0.7574 S= 0.5037
 Generating alternative initial guess.
[...]
     17 -0.137881D-03  0.109457D-02 -0.238544D-03 -0.608913D-02 -0.164649D-01
     18  0.100957D-03  0.823917D-04  0.115673D-03  0.144181D-02  0.165380D-02
                6             7             8             9            10 
      6  0.145110D-01
      7  0.000000D+00  0.580664D+00
      8  0.000000D+00 -0.827425D-03  0.922397D-01
      9 -0.216142D-01  0.000000D+00  0.000000D+00  0.580459D+00
     10  0.000000D+00 -0.319437D+00  0.606168D-01  0.000000D+00  0.333714D+00
     11  0.000000D+00  0.667933D-01 -0.402343D-01  0.000000D+00 -0.650468D-01
     12  0.107556D-02  0.000000D+00  0.000000D+00 -0.531651D-01  0.000000D+00
     13 -0.142156D-02 -0.119883D+00 -0.299571D-01  0.115444D+00 -0.943375D-02
     14  0.104915D-01 -0.330458D-01 -0.400015D-01  0.572736D-01  0.324092D-02
     15  0.356605D-02  0.115432D+00  0.519162D-01 -0.252912D+00 -0.255174D-02
     16  0.142156D-02 -0.119883D+00 -0.299571D-01 -0.115444D+00 -0.943375D-02
     17 -0.104915D-01 -0.330458D-01 -0.400015D-01 -0.572736D-01  0.324092D-02
     18  0.356605D-02 -0.115432D+00 -0.519162D-01 -0.252912D+00  0.255174D-02
               11            12            13            14            15 
     11  0.447269D-01
     12  0.000000D+00  0.456672D-01
     13 -0.704789D-02  0.244853D-01  0.117834D+00
     14  0.547982D-02 -0.634969D-02  0.321873D-01  0.444246D-01
     15 -0.363731D-03  0.324023D-02 -0.124872D+00 -0.557351D-01  0.261769D+00
     16 -0.704789D-02 -0.244853D-01  0.958765D-02  0.384462D-02  0.135351D-01
     17  0.547982D-02  0.634969D-02  0.384462D-02  0.546737D-02  0.591881D-02
     18  0.363731D-03  0.324023D-02 -0.135351D-01 -0.591881D-02 -0.157790D-01
               16            17            18 
     16  0.117834D+00
     17  0.321873D-01  0.444246D-01
     18  0.124872D+00  0.557351D-01  0.261769D+00
 FormGI is forming the generalized inverse of G from B-inverse, IUseBI=4.
 Force constants in internal coordinates: 
                1             2             3             4             5 
      1 -0.685800D-02
      2  0.118463D+00  0.181952D-01
      3 -0.347721D-03  0.162581D-02  0.347486D+00
      4 -0.347261D-03  0.162709D-02  0.121027D-02  0.347396D+00
      5 -0.347261D-03  0.162709D-02  0.121027D-02  0.121672D-02  0.347396D+00
      6 -0.560212D-03  0.797321D-02 -0.509235D-02  0.210162D-03 -0.140440D-02
      7 -0.524802D-03  0.787313D-02  0.212884D-03 -0.508937D-02 -0.140437D-02
      8 -0.524802D-03  0.787313D-02  0.212884D-03  0.210102D-03 -0.670385D-02
      9 -0.550596D-05  0.830483D-04  0.504482D-02  0.504505D-02 -0.101603D-01
     10  0.604636D-03 -0.890657D-02  0.781121D-02 -0.937186D-02  0.863275D-02
     11  0.604137D-03 -0.890573D-02 -0.936471D-02  0.781499D-02  0.863637D-02
     12 -0.219095D-04  0.195104D-04 -0.253541D-03  0.131250D-03  0.131250D-03
     13  0.000000D+00  0.000000D+00  0.000000D+00 -0.106555D-03  0.106555D-03
     14  0.137472D-02 -0.202546D-01  0.623298D-02  0.623250D-02  0.362752D-02
                6             7             8             9            10 
      6  0.650498D-01
      7 -0.253150D-01  0.650282D-01
      8 -0.256911D-01 -0.256770D-01  0.642760D-01
      9  0.750757D-02  0.749119D-02  0.394913D-02  0.591006D-01
     10 -0.697919D-02 -0.109964D-01 -0.680229D-02 -0.366202D-01  0.841903D-01
     11 -0.110263D-01 -0.698441D-02 -0.679307D-02 -0.366349D-01 -0.290391D-01
     12  0.150130D-02 -0.761394D-03 -0.761394D-03 -0.795932D-04 -0.871554D-04
     13 -0.709988D-05  0.604105D-03 -0.618304D-03 -0.668642D-04  0.791734D-04
     14 -0.868400D-02 -0.868106D-02 -0.928788D-02  0.100254D-01  0.494924D-02
               11            12            13            14 
     11  0.841929D-01
     12  0.182700D-03  0.473290D-02
     13  0.361190D-05  0.000000D+00  0.107388D-02
     14  0.494863D-02 -0.170385D-04 -0.114551D-04  0.272513D-01
 Leave Link  716 at Wed Oct  7 14:50:08 2020, MaxMem=  2684354560 cpu:               1.9 elap:               0.6
 (Enter /udrive/faculty/rpeverati/g16/g16/l103.exe)

 GradGradGradGradGradGradGradGradGradGradGradGradGradGradGradGradGradGrad
 Berny optimization.
 Optmz: redundant internal coordinate code flag= 1
 Red2BG:  D1=  2.44D-01 OD1=  3.21D-15 B2RMS=  0.00D+00 IAprox=1
 Red2BG is reusing G-inverse.
 Internal  Forces:  Max     0.000074950 RMS     0.000027289
 Search for a local minimum.
 Step number   1 out of a maximum of    2
 All quantities printed in internal units (Hartrees-Bohrs-Radians)
 Second derivative matrix not updated -- analytic derivatives used.
 The second derivative matrix:
                          R1        R2        R3        R4        R5
           R1          -0.00686
           R2           0.11846   0.01820
           R3          -0.00035   0.00163   0.34749
           R4          -0.00035   0.00163   0.00121   0.34740
           R5          -0.00035   0.00163   0.00121   0.00122   0.34740
           A1          -0.00056   0.00797  -0.00509   0.00021  -0.00140
           A2          -0.00052   0.00787   0.00021  -0.00509  -0.00140
           A3          -0.00052   0.00787   0.00021   0.00021  -0.00670
           A4          -0.00001   0.00008   0.00504   0.00505  -0.01016
           A5           0.00060  -0.00891   0.00781  -0.00937   0.00863
           A6           0.00060  -0.00891  -0.00936   0.00781   0.00864
           A7          -0.00002   0.00002  -0.00025   0.00013   0.00013
           A8           0.00000   0.00000   0.00000  -0.00011   0.00011
           D1           0.00137  -0.02025   0.00623   0.00623   0.00363
                          A1        A2        A3        A4        A5
           A1           0.06505
           A2          -0.02532   0.06503
           A3          -0.02569  -0.02568   0.06428
           A4           0.00751   0.00749   0.00395   0.05910
           A5          -0.00698  -0.01100  -0.00680  -0.03662   0.08419
           A6          -0.01103  -0.00698  -0.00679  -0.03663  -0.02904
           A7           0.00150  -0.00076  -0.00076  -0.00008  -0.00009
           A8          -0.00001   0.00060  -0.00062  -0.00007   0.00008
           D1          -0.00868  -0.00868  -0.00929   0.01003   0.00495
                          A6        A7        A8        D1
           A6           0.08419
           A7           0.00018   0.00473
           A8           0.00000   0.00000   0.00107
           D1           0.00495  -0.00002  -0.00001   0.02725
 ITU=  0
 Eigenvectors of the second derivative matrix:
                           1         2         3         4         5
     Eigenvalues --    -0.11585   0.00107   0.00469   0.03948   0.08941
   1         R1        -0.73151   0.00000  -0.00010   0.21782  -0.02695
   2         R2         0.67110  -0.00000   0.00016   0.07115  -0.02087
   3         R3        -0.00450  -0.00000   0.00035  -0.02442   0.00817
   4         R4        -0.00449   0.00016  -0.00020  -0.02443  -0.02383
   5         R5        -0.00528  -0.00016  -0.00020  -0.01346   0.02106
   6         A1        -0.03441  -0.00000  -0.01777  -0.25813   0.20396
   7         A2        -0.03397  -0.00688   0.00877  -0.25822  -0.75001
   8         A3        -0.03440   0.00688   0.00877  -0.24207   0.59869
   9         A4         0.01163   0.00090   0.00120   0.31620   0.09546
  10         A5         0.03260  -0.00089   0.00118   0.12537  -0.15929
  11         A6         0.03259   0.00000  -0.00220   0.12536   0.02447
  12         A7        -0.00025   0.00000   0.99976  -0.00102   0.00508
  13         A8        -0.00002   0.99995  -0.00000  -0.00060  -0.00950
  14         D1         0.09309   0.00040   0.00073   0.78917  -0.00268
                           6         7         8         9        10
     Eigenvalues --     0.08945   0.10999   0.11283   0.13197   0.34746
   1         R1         0.02451  -0.28398   0.00172  -0.57920  -0.00057
   2         R2         0.01923  -0.27522   0.00168  -0.68409  -0.00243
   3         R3         0.02438  -0.01327   0.04791   0.00440  -0.26500
   4         R4        -0.00954  -0.01374  -0.04786   0.00439  -0.62016
   5         R5        -0.02000   0.05897  -0.00025  -0.02974   0.73483
   6         A1         0.76189   0.16569  -0.13648  -0.11251  -0.00089
   7         A2        -0.24558   0.16666   0.13449  -0.11102   0.00603
   8         A3        -0.56664  -0.07143   0.00090  -0.06439  -0.02045
   9         A4        -0.09084   0.64804  -0.00279  -0.22176  -0.04959
  10         A5        -0.03357  -0.42473  -0.69063   0.21813   0.04348
  11         A6         0.16196  -0.41825   0.69405   0.21881   0.01755
  12         A7         0.02115   0.00090  -0.00129  -0.00003   0.00028
  13         A8         0.00226   0.00066   0.00031   0.00001   0.00048
  14         D1         0.00268   0.06445  -0.00040   0.14787  -0.00891
                          11        12
     Eigenvalues --     0.34760   0.35043
   1         R1        -0.00014  -0.00015
   2         R2        -0.00057  -0.00482
   3         R3        -0.79142  -0.54741
   4         R4         0.57323  -0.53201
   5         R5         0.19852  -0.64436
   6         A1         0.01382   0.01235
   7         A2        -0.01276   0.01204
   8         A3        -0.00549   0.01391
   9         A4        -0.01299   0.00823
  10         A5        -0.04165  -0.01896
  11         A6         0.05794  -0.01789
  12         A7         0.00103  -0.00005
  13         A8        -0.00013  -0.00004
  14         D1        -0.00199  -0.02911
 Eigenvalue     1 is  -1.16D-01 should be greater than     0.000000 Eigenvector:
                          R1        R2        D1        A1        A3
   1                   -0.73151   0.67110   0.09309  -0.03441  -0.03440
                          A2        A5        A6        A4        R5
   1                   -0.03397   0.03260   0.03259   0.01163  -0.00528
 Angle between quadratic step and forces=  49.91 degrees.
 Linear search not attempted -- first point.
 Iteration  1 RMS(Cart)=  0.00049175 RMS(Int)=  0.00000032
 Iteration  2 RMS(Cart)=  0.00000036 RMS(Int)=  0.00000004
 ITry= 1 IFail=0 DXMaxC= 1.47D-03 DCOld= 1.00D+10 DXMaxT= 3.00D-01 DXLimC= 3.00D+00 Rises=F
 ClnCor:  largest displacement from symmetrization is 1.56D-05 for atom     6.
 Variable       Old X    -DE/DX   Delta X   Delta X   Delta X     New X
                                 (Linear)    (Quad)   (Total)
    R1        2.44674   0.00001   0.00000  -0.00000  -0.00000   2.44674
    R2        3.22390  -0.00007   0.00000  -0.00067  -0.00067   3.22323
    R3        2.06507   0.00002   0.00000   0.00009   0.00009   2.06516
    R4        2.06514   0.00000   0.00000   0.00001   0.00002   2.06516
    R5        2.06514   0.00000   0.00000   0.00001   0.00002   2.06516
    A1        1.80511   0.00005   0.00000   0.00072   0.00072   1.80583
    A2        1.80583  -0.00001   0.00000  -0.00001  -0.00001   1.80582
    A3        1.80583  -0.00001   0.00000  -0.00001  -0.00001   1.80582
    A4        2.00306  -0.00001   0.00000  -0.00028  -0.00029   2.00277
    A5        2.00306  -0.00002   0.00000  -0.00030  -0.00029   2.00277
    A6        2.00270   0.00001   0.00000   0.00005   0.00005   2.00275
    A7        3.14298  -0.00001   0.00000  -0.00142  -0.00142   3.14156
    A8        3.14159  -0.00000   0.00000   0.00000   0.00000   3.14159
    D1        2.37556  -0.00003   0.00000  -0.00073  -0.00073   2.37482
         Item               Value     Threshold  Converged?
 Maximum Force            0.000075     0.000450     YES
 RMS     Force            0.000027     0.000300     YES
 Maximum Displacement     0.001473     0.001800     YES
 RMS     Displacement     0.000491     0.001200     YES
 Predicted change in Energy=-9.833801D-08
 Optimization completed.
    -- Stationary point found.
                           ----------------------------
                           !   Optimized Parameters   !
                           ! (Angstroms and Degrees)  !
 --------------------------                            --------------------------
 ! Name  Definition              Value          Derivative Info.                !
 --------------------------------------------------------------------------------
 ! R1    R(1,2)                  1.2948         -DE/DX =    0.0                 !
 ! R2    R(2,3)                  1.706          -DE/DX =   -0.0001              !
 ! R3    R(3,4)                  1.0928         -DE/DX =    0.0                 !
 ! R4    R(3,5)                  1.0928         -DE/DX =    0.0                 !
 ! R5    R(3,6)                  1.0928         -DE/DX =    0.0                 !
 ! A1    A(2,3,4)              103.4252         -DE/DX =    0.0                 !
 ! A2    A(2,3,5)              103.4663         -DE/DX =    0.0                 !
 ! A3    A(2,3,6)              103.4663         -DE/DX =    0.0                 !
 ! A4    A(4,3,5)              114.7667         -DE/DX =    0.0                 !
 ! A5    A(4,3,6)              114.7667         -DE/DX =    0.0                 !
 ! A6    A(5,3,6)              114.7463         -DE/DX =    0.0                 !
 ! A7    L(1,2,3,4,-1)         180.0797         -DE/DX =    0.0                 !
 ! A8    L(1,2,3,4,-2)         180.0            -DE/DX =    0.0                 !
 ! D1    D(4,3,6,5)            136.1094         -DE/DX =    0.0                 !
 --------------------------------------------------------------------------------
 GradGradGradGradGradGradGradGradGradGradGradGradGradGradGradGradGradGrad

 Leave Link  103 at Wed Oct  7 14:50:09 2020, MaxMem=  2684354560 cpu:               1.8 elap:               0.5
 (Enter /udrive/faculty/rpeverati/g16/g16/l9999.exe)

 ----------------------------------------------------------------------

 Electric dipole moment (input orientation):
 (Debye = 10**-18 statcoulomb cm , SI units = C m)
                  (au)            (Debye)         (10**-30 SI)
   Tot        0.553480D+00      0.140680D+01      0.469260D+01
   x         -0.126261D-02     -0.320922D-02     -0.107048D-01
   y         -0.553478D+00     -0.140680D+01     -0.469258D+01
   z          0.000000D+00      0.000000D+00      0.000000D+00

 Dipole polarizability, Alpha (input orientation).
 (esu units = cm**3 , SI units = C**2 m**2 J**-1)
 Alpha(0;0):
               (au)            (10**-24 esu)      (10**-40 SI)
   iso        0.249573D+02      0.369829D+01      0.411490D+01
   aniso      0.355544D+02      0.526862D+01      0.586213D+01
   xx         0.131063D+02      0.194215D+01      0.216093D+01
   yx         0.493111D-01      0.730715D-02      0.813030D-02
   yy         0.486602D+02      0.721069D+01      0.802298D+01
   zx         0.000000D+00      0.000000D+00      0.000000D+00
   zy         0.000000D+00      0.000000D+00      0.000000D+00
   zz         0.131054D+02      0.194202D+01      0.216078D+01

 ----------------------------------------------------------------------

 Dipole orientation:
     1         -0.00276214          0.00000630         -3.94508057
     9          0.00138672         -0.00000316         -1.49834060
     6          0.00236912         -0.00000540          1.72555487
     1          2.01114895         -0.00458788          2.20440293
     1         -0.99775387          1.74154333          2.20677848
     1         -1.00568914         -1.73697303          2.20677848

 Electric dipole moment (dipole orientation):
 (Debye = 10**-18 statcoulomb cm , SI units = C m)
                  (au)            (Debye)         (10**-30 SI)
   Tot        0.553480D+00      0.140680D+01      0.469260D+01
   x          0.000000D+00      0.000000D+00      0.000000D+00
   y          0.000000D+00      0.000000D+00      0.000000D+00
   z          0.553480D+00      0.140680D+01      0.469260D+01

 Dipole polarizability, Alpha (dipole orientation).
 (esu units = cm**3 , SI units = C**2 m**2 J**-1)
 Alpha(0;0):
               (au)            (10**-24 esu)      (10**-40 SI)
   iso        0.249573D+02      0.369829D+01      0.411490D+01
   aniso      0.355544D+02      0.526862D+01      0.586213D+01
   xx         0.131062D+02      0.194215D+01      0.216093D+01
   yx         0.000000D+00      0.000000D+00      0.000000D+00
   yy         0.131054D+02      0.194202D+01      0.216078D+01
   zx         0.317952D-01      0.471156D-02      0.524232D-02
   zy        -0.725318D-04     -0.107481D-04     -0.119589D-04
   zz         0.486602D+02      0.721070D+01      0.802298D+01

 ----------------------------------------------------------------------

 Test job not archived.
 1\1\GINC-NODE20\Freq\UBLYP\6-31G(d)\C1H4F1(2)\RPEVERATI\07-Oct-2020\0\
 \#P Freq BLYP/6-31G* 5D 7F Integral=UltraFineGrid SCF=(NoSymm,XQC,MaxC
 yc=120) IOp(1/33=1) Geom=Check Guess=Read\\TS search on BH76.\\0,2\H,0
 .0033007095,2.0876446372,0.\F,0.0025425688,0.7928839621,0.\C,-0.000829
 3465,-0.9131247967,0.\H,1.0615931087,-1.1689445581,0.\H,-0.5327521431,
 -1.1665645958,0.920378186\H,-0.5327521431,-1.1665645958,-0.920378186\\
 Version=ES64L-G16RevA.03\State=2-A'\HF=-140.1528256\S2=0.757741\S2-1=0
 .\S2A=0.750012\RMSD=9.863e-10\RMSF=4.110e-05\ZeroPoint=0.0370418\Therm
 al=0.0413888\Dipole=-0.0012626,-0.5534781,0.\DipoleDeriv=0.0615776,-0.
 0004101,0.,-0.0015974,-1.041945,0.,0.,0.,0.0616033,-0.239976,0.0022312
 ,0.,0.0026471,1.819775,0.,0.,0.,-0.2400427,0.2129047,-0.001777,0.,-0.0
 010123,-0.7287711,0.,0.,0.,0.2130551,-0.0826556,0.0275973,0.,0.0484134
 ,-0.0163506,0.,0.,0.,0.0598266,0.0240747,-0.0138207,0.0618801,-0.02422
 54,-0.0163542,0.0417534,0.0618275,0.023688,-0.0472212,0.0240747,-0.013
 8207,-0.0618801,-0.0242254,-0.0163542,-0.0417534,-0.0618275,-0.023688,
 -0.0472212\Polar=13.106286,0.0493111,48.6601566,0.,0.,13.1053677\Quadr
 upole=-0.2077929,0.4162791,-0.2084862,0.0006582,0.,0.\PG=CS [SG(C1H2F1
 ),X(H2)]\NImag=1\\0.00078595,0.00000559,-0.00685801,0.,0.,0.00078663,-
 0.00109931,0.00023318,0.,0.01449475,0.00005717,0.12532111,0.,-0.000316
 01,-0.22558894,0.,0.,-0.00110447,0.,0.,0.01451101,0.00013750,-0.000247
 11,0.,-0.02159910,0.00037293,0.,0.58066352,-0.00006790,-0.12176367,0.,
 0.00019275,0.14976125,0.,-0.00082743,0.09223969,0.,0.,0.00014456,0.,0.
 ,-0.02161420,0.,0.,0.58045854,0.00017479,-0.00009016,0.,0.00441529,-0.
 00196168,0.,-0.31943652,0.06061675,0.,0.33371394,0.00028090,0.00111142
 ,0.,0.01206834,-0.01656358,0.,0.06679330,-0.04023434,0.,-0.06504676,0.
 04472685,0.,0.,-0.00005807,0.,0.,0.00107556,0.,0.,-0.05316513,0.,0.,0.
 04566717,0.00000053,0.00004925,-0.00010008,0.00189418,0.00092379,-0.00
 142156,-0.11988270,-0.02995709,0.11544369,-0.00943375,-0.00704789,0.02
 448533,0.11783409,-0.00013788,0.00109457,0.00023854,-0.00608913,-0.016
 46492,0.01049148,-0.03304585,-0.04000147,0.05727360,0.00324092,0.00547
 982,-0.00634969,0.03218732,0.04442462,-0.00010096,-0.00008239,0.000115
 67,-0.00144181,-0.00165380,0.00356605,0.11543174,0.05191623,-0.2529118
 9,-0.00255174,-0.00036373,0.00324023,-0.12487231,-0.05573512,0.2617689
 2,0.00000053,0.00004925,0.00010008,0.00189418,0.00092379,0.00142156,-0
 .11988270,-0.02995709,-0.11544369,-0.00943375,-0.00704789,-0.02448533,
 0.00958765,0.00384462,0.01353507,0.11783409,-0.00013788,0.00109457,-0.
 00023854,-0.00608913,-0.01646492,-0.01049148,-0.03304585,-0.04000147,-
 0.05727360,0.00324092,0.00547982,0.00634969,0.00384462,0.00546737,0.00
 591881,0.03218732,0.04442462,0.00010096,0.00008239,0.00011567,0.001441
 81,0.00165380,0.00356605,-0.11543174,-0.05191623,-0.25291189,0.0025517
 4,0.00036373,0.00324023,-0.01353507,-0.00591881,-0.01577899,0.12487231
 ,0.05573512,0.26176892\\-0.00000229,-0.00001293,0.,0.00002307,0.000087
 84,0.,0.00001427,-0.00013750,0.,-0.00000647,0.00004673,0.,-0.00001429,
 0.00000793,-0.00000756,-0.00001429,0.00000793,0.00000756\\\@


 Experience is what you get when you don't get what you want.
 -- Dan Stanford
 Job cpu time:       0 days  0 hours  2 minutes 27.3 seconds.
 Elapsed time:       0 days  0 hours  0 minutes 20.9 seconds.
 File lengths (MBytes):  RWF=      7 Int=      0 D2E=      0 Chk=      1 Scr=      1
 Normal termination of Gaussian 16 at Wed Oct  7 14:50:10 2020.
