 Entering Gaussian System, Link 0=g16
 Input=MN_51_hcots_BH76_BLYP_631Gs.in
 Output=MN_51_hcots_BH76_BLYP_631Gs.log
 Initial command:
 /udrive/faculty/rpeverati/g16/g16/l1.exe "/udrive/scratch-directories/gaussian09/rpeverati/Gau-5372.inp" -scrdir="/udrive/scratch-directories/gaussian09/rpeverati/"
 Entering Link 1 = /udrive/faculty/rpeverati/g16/g16/l1.exe PID=      5391.
  
 Copyright (c) 1988,1990,1992,1993,1995,1998,2003,2009,2016,
            Gaussian, Inc.  All Rights Reserved.
  
 This is part of the Gaussian(R) 16 program.  It is based on
 the Gaussian(R) 09 system (copyright 2009, Gaussian, Inc.),
 the Gaussian(R) 03 system (copyright 2003, Gaussian, Inc.),
 the Gaussian(R) 98 system (copyright 1998, Gaussian, Inc.),
 the Gaussian(R) 94 system (copyright 1995, Gaussian, Inc.),
 the Gaussian 92(TM) system (copyright 1992, Gaussian, Inc.),
 the Gaussian 90(TM) system (copyright 1990, Gaussian, Inc.),
 the Gaussian 88(TM) system (copyright 1988, Gaussian, Inc.),
 the Gaussian 86(TM) system (copyright 1986, Carnegie Mellon
 University), and the Gaussian 82(TM) system (copyright 1983,
 Carnegie Mellon University). Gaussian is a federally registered
 trademark of Gaussian, Inc.
  
 This software contains proprietary and confidential information,
 including trade secrets, belonging to Gaussian, Inc.
  
 This software is provided under written license and may be
 used, copied, transmitted, or stored only in accord with that
 written license.
  
 The following legend is applicable only to US Government
 contracts under FAR:
  
                    RESTRICTED RIGHTS LEGEND
  
 Use, reproduction and disclosure by the US Government is
 subject to restrictions as set forth in subparagraphs (a)
 and (c) of the Commercial Computer Software - Restricted
 Rights clause in FAR 52.227-19.
  
 Gaussian, Inc.
 340 Quinnipiac St., Bldg. 40, Wallingford CT 06492
  
  
 ---------------------------------------------------------------
 Warning -- This program may not be used in any manner that
 competes with the business of Gaussian, Inc. or will provide
 assistance to any competitor of Gaussian, Inc.  The licensee
 of this program is prohibited from giving any competitor of
 Gaussian, Inc. access to this program.  By using this program,
 the user acknowledges that Gaussian, Inc. is engaged in the
 business of creating and licensing software in the field of
 computational chemistry and represents and warrants to the
 licensee that it is not a competitor of Gaussian, Inc. and that
 it will not use this program in any manner prohibited above.
 ---------------------------------------------------------------
  

 Cite this work as:
 Gaussian 16, Revision A.03,
 M. J. Frisch, G. W. Trucks, H. B. Schlegel, G. E. Scuseria, 
 M. A. Robb, J. R. Cheeseman, G. Scalmani, V. Barone, 
 G. A. Petersson, H. Nakatsuji, X. Li, M. Caricato, A. V. Marenich, 
 J. Bloino, B. G. Janesko, R. Gomperts, B. Mennucci, H. P. Hratchian, 
 J. V. Ortiz, A. F. Izmaylov, J. L. Sonnenberg, D. Williams-Young, 
 F. Ding, F. Lipparini, F. Egidi, J. Goings, B. Peng, A. Petrone, 
 T. Henderson, D. Ranasinghe, V. G. Zakrzewski, J. Gao, N. Rega, 
 G. Zheng, W. Liang, M. Hada, M. Ehara, K. Toyota, R. Fukuda, 
 J. Hasegawa, M. Ishida, T. Nakajima, Y. Honda, O. Kitao, H. Nakai, 
 T. Vreven, K. Throssell, J. A. Montgomery, Jr., J. E. Peralta, 
 F. Ogliaro, M. J. Bearpark, J. J. Heyd, E. N. Brothers, K. N. Kudin, 
 V. N. Staroverov, T. A. Keith, R. Kobayashi, J. Normand, 
 K. Raghavachari, A. P. Rendell, J. C. Burant, S. S. Iyengar, 
 J. Tomasi, M. Cossi, J. M. Millam, M. Klene, C. Adamo, R. Cammi, 
 J. W. Ochterski, R. L. Martin, K. Morokuma, O. Farkas, 
 J. B. Foresman, and D. J. Fox, Gaussian, Inc., Wallingford CT, 2016.
 
 ******************************************
 Gaussian 16:  ES64L-G16RevA.03 25-Dec-2016
                10-Oct-2020 
 ******************************************
 %NoSave
 %nproc=12
 Will use up to   12 processors via shared memory.
 %mem=20GB
 %chk=MN_51_hcots_BH76_BLYP_631Gs
 ----------------------------------------------------------------------
 #P Opt(TS,MaxCyc=150,NoEigenTest,MaxStep=10,AddRedundant) BLYP/6-31G* 
 5D 7F Integral=UltraFineGrid SCF=(NoSymm,XQC,MaxCyc=120) IOp(1/33=1)
 ----------------------------------------------------------------------
 1/5=1,6=150,8=10,11=1,18=120,26=4,33=1,38=1/1,3;
 2/9=110,12=2,17=6,18=5,40=1/2;
 3/5=1,6=6,7=1,8=11,11=2,25=1,30=1,71=1,74=402,75=-5/1,2,3;
 4/9=2/1;
 5/5=2,7=120,8=3,13=1,38=5/2,8;
 6/7=2,8=2,9=2,10=2,28=1/1;
 7//1,2,3,16;
 1/5=1,6=150,8=10,11=1,18=20,26=4,33=1/3(2);
 2/9=110/2;
 99//99;
 2/9=110/2;
 3/5=1,6=6,7=1,8=11,11=2,25=1,30=1,71=1,74=402,75=-5/1,2,3;
 4/5=5,9=2,16=3,69=1/1;
 5/5=2,7=120,8=3,13=1,38=5/2,8;
 7//1,2,3,16;
 1/5=1,6=150,8=10,11=1,18=20,26=4,33=1/3(-5);
 2/9=110/2;
 6/7=2,8=2,9=2,10=2,19=2,28=1/1;
 99/9=1/99;
 Leave Link    1 at Sat Oct 10 18:11:43 2020, MaxMem=  2684354560 cpu:               2.3 elap:               0.2
 (Enter /udrive/faculty/rpeverati/g16/g16/l101.exe)
 ONIOM results not found on unit 2.
 ------------------
 TS search on BH76.
 ------------------
 TstMul:  ICh=     0
 TstMul:  Mul=     2
 TstMul:  ICh=     0
 TstMul:  Mul=     2
 Symbolic Z-matrix:
 Charge =  0 Multiplicity = 2
 H                    -1.52087   1.38883   0. 
 C                     0.10863   0.54933   0. 
 O                     0.10863  -0.5856    0. 
 
 RdStrC is calling ZToCFu for IStruc=1 NZ=     3.
 PrtBox:  NBox=     1 Levels=  1 BoxLen=    8.00 SMaxX=        3.73
          Shift=            2.874020            1.106630            0.000000
 Box      1 Number                   0 centers from      1 to      3:
 After GenITR:
 ITRead=  0  0  0
 MicOpt= -1 -1 -1
 Add virtual bond connecting atoms C2         and H1         Dist= 3.46D+00.
 The following ModRedundant input section has been read:
 B       1       2 D                                                           
 
 ITRead=  0  0  0
 MicOpt= -1 -1 -1
 NAtoms=      3 NQM=        3 NQMF=       0 NMMI=      0 NMMIF=      0
                NMic=       0 NMicF=      0.
                    Isotopes and Nuclear Properties:
 (Nuclear quadrupole moments (NQMom) in fm**2, nuclear magnetic moments (NMagM)
  in nuclear magnetons)

  Atom         1           2           3
 IAtWgt=           1          12          16
 AtmWgt=   1.0078250  12.0000000  15.9949146
 NucSpn=           1           0           0
 AtZEff=   0.0000000   0.0000000   0.0000000
 NQMom=    0.0000000   0.0000000   0.0000000
 NMagM=    2.7928460   0.0000000   0.0000000
 AtZNuc=   1.0000000   6.0000000   8.0000000
 No MM parameters found.
 Leave Link  101 at Sat Oct 10 18:11:43 2020, MaxMem=  2684354560 cpu:               4.1 elap:               0.4
 (Enter /udrive/faculty/rpeverati/g16/g16/l103.exe)

 GradGradGradGradGradGradGradGradGradGradGradGradGradGradGradGradGradGrad
 Berny optimization.
 Optmz: redundant internal coordinate code flag= 1
 Initialization pass.
                           ----------------------------
                           !    Initial Parameters    !
                           ! (Angstroms and Degrees)  !
 --------------------------                            --------------------------
 ! Name  Definition              Value          Derivative Info.                !
 --------------------------------------------------------------------------------
 ! R1    R(1,2)                  1.833          calc D2E/DXDY, step=    0.0026  !
 ! R2    R(2,3)                  1.1349         estimate D2E/DX2                !
 ! A1    A(1,2,3)              117.2571         estimate D2E/DX2                !
 --------------------------------------------------------------------------------
 Maximum allowed force set to 1.00D+20.
 Trust Radius=1.00D-01 FncErr=1.00D-07 GrdErr=1.00D-06 EigMax=2.50D+02 EigMin=1.00D-04
 Number of steps in this run=    100 maximum allowed number of steps=    100.
 Search for a saddle point of order  1.
 GradGradGradGradGradGradGradGradGradGradGradGradGradGradGradGradGradGrad

 Leave Link  103 at Sat Oct 10 18:11:43 2020, MaxMem=  2684354560 cpu:               0.2 elap:               0.1
 (Enter /udrive/faculty/rpeverati/g16/g16/l202.exe)
                          Input orientation:                          
 ---------------------------------------------------------------------
 Center     Atomic      Atomic             Coordinates (Angstroms)
 Number     Number       Type             X           Y           Z
 ---------------------------------------------------------------------
      1          1           0       -1.520866    1.388831    0.000000
      2          6           0        0.108633    0.549328    0.000000
      3          8           0        0.108633   -0.585603    0.000000
 ---------------------------------------------------------------------
                    Distance matrix (angstroms):
                    1          2          3
     1  H    0.000000
     2  C    1.833039   0.000000
     3  O    2.560011   1.134932   0.000000
 Stoichiometry    CHO(2)
 Framework group  CS[SG(CHO)]
 Deg. of freedom     3
 Full point group                 CS      NOp   2
 Largest Abelian subgroup         CS      NOp   2
 Largest concise Abelian subgroup C1      NOp   1
                         Standard orientation:                         
 ---------------------------------------------------------------------
 Center     Atomic      Atomic             Coordinates (Angstroms)
 Number     Number       Type             X           Y           Z
 ---------------------------------------------------------------------
      1          1           0       -1.520866    1.388833    0.000000
      2          6           0        0.108633    0.549330    0.000000
      3          8           0        0.108633   -0.585602    0.000000
 ---------------------------------------------------------------------
 Rotational constants (GHZ):         257.0333471          43.5600102          37.2475803
 Leave Link  202 at Sat Oct 10 18:11:43 2020, MaxMem=  2684354560 cpu:               0.2 elap:               0.1
 (Enter /udrive/faculty/rpeverati/g16/g16/l301.exe)
 Standard basis: 6-31G(d) (5D, 7F)
 Ernie: Thresh=  0.10000D-02 Tol=  0.10000D-05 Strict=F.
 There are    24 symmetry adapted cartesian basis functions of A'  symmetry.
 There are     8 symmetry adapted cartesian basis functions of A"  symmetry.
 There are    22 symmetry adapted basis functions of A'  symmetry.
 There are     8 symmetry adapted basis functions of A"  symmetry.
    30 basis functions,    60 primitive gaussians,    32 cartesian basis functions
     8 alpha electrons        7 beta electrons
       nuclear repulsion energy        25.7664504753 Hartrees.
 IExCor=  402 DFT=T Ex=B Corr=LYP ExCW=0 ScaHFX=  0.000000
 ScaDFX=  1.000000  1.000000  1.000000  1.000000 ScalE2=  1.000000  1.000000
 IRadAn=      5 IRanWt=     -1 IRanGd=            0 ICorTp=0 IEmpDi=  4
 NAtoms=    3 NActive=    3 NUniq=    3 SFac= 1.00D+00 NAtFMM=   60 NAOKFM=F Big=F
 Integral buffers will be    131072 words long.
 Raffenetti 2 integral format.
 Two-electron integral symmetry is turned on.
 Leave Link  301 at Sat Oct 10 18:11:43 2020, MaxMem=  2684354560 cpu:               0.8 elap:               0.1
 (Enter /udrive/faculty/rpeverati/g16/g16/l302.exe)
 NPDir=0 NMtPBC=     1 NCelOv=     1 NCel=       1 NClECP=     1 NCelD=      1
         NCelK=      1 NCelE2=     1 NClLst=     1 CellRange=     0.0.
 One-electron integrals computed using PRISM.
 One-electron integral symmetry used in STVInt
 NBasis=    30 RedAO= T EigKep=  1.52D-02  NBF=    22     8
 NBsUse=    30 1.00D-06 EigRej= -1.00D+00 NBFU=    22     8
 Precomputing XC quadrature grid using
 IXCGrd= 4 IRadAn=           5 IRanWt=          -1 IRanGd=           0 AccXCQ= 0.00D+00.
 Generated NRdTot=       0 NPtTot=           0 NUsed=           0 NTot=          32
 NSgBfM=    32    32    32    32    32 MxSgAt=     3 MxSgA2=     3.
 Leave Link  302 at Sat Oct 10 18:11:44 2020, MaxMem=  2684354560 cpu:               2.4 elap:               0.3
 (Enter /udrive/faculty/rpeverati/g16/g16/l303.exe)
 DipDrv:  MaxL=1.
 Leave Link  303 at Sat Oct 10 18:11:44 2020, MaxMem=  2684354560 cpu:               0.3 elap:               0.1
 (Enter /udrive/faculty/rpeverati/g16/g16/l401.exe)
 SCF N**3 symmetry information disabled.
 ExpMin= 1.61D-01 ExpMax= 5.48D+03 ExpMxC= 8.25D+02 IAcc=3 IRadAn=         5 AccDes= 0.00D+00
 Harris functional with IExCor=  402 and IRadAn=       5 diagonalized for initial guess.
 HarFok:  IExCor=  402 AccDes= 0.00D+00 IRadAn=         5 IDoV= 1 UseB2=F ITyADJ=14
 ICtDFT=  3500011 ScaDFX=  1.000000  1.000000  1.000000  1.000000
 FoFCou: FMM=F IPFlag=           0 FMFlag=      100000 FMFlg1=           0
         NFxFlg=           0 DoJE=T BraDBF=F KetDBF=T FulRan=T
         wScrn=  0.000000 ICntrl=       500 IOpCl=  0 I1Cent=   200000004 NGrid=           0
         NMat0=    1 NMatS0=      1 NMatT0=    0 NMatD0=    1 NMtDS0=    0 NMtDT0=    0
 Petite list used in FoFCou.
 Harris En= -113.770654818709    
 JPrj=0 DoOrth=F DoCkMO=F.
 Initial guess orbital symmetries:
 Alpha Orbitals:
       Occupied  (A') (A') (A') (A') (A') (A") (A') (A')
       Virtual   (A") (A') (A') (A") (A') (A') (A') (A') (A') (A")
                 (A') (A") (A') (A') (A') (A") (A") (A') (A') (A")
                 (A') (A')
 Beta  Orbitals:
       Occupied  (A') (A') (A') (A') (A') (A") (A')
       Virtual   (A') (A") (A') (A') (A") (A') (A') (A') (A') (A')
                 (A") (A') (A") (A') (A') (A') (A") (A") (A') (A')
                 (A") (A') (A')
 The electronic state of the initial guess is 2-A'.
 Initial guess <Sx>= 0.0000 <Sy>= 0.0000 <Sz>= 0.5000 <S**2>= 0.7500 S= 0.5000
 Leave Link  401 at Sat Oct 10 18:11:44 2020, MaxMem=  2684354560 cpu:               4.0 elap:               0.4
 (Enter /udrive/faculty/rpeverati/g16/g16/l502.exe)
 Keep J ints in memory in symmetry-blocked form, NReq=10459184.
 FoFCou: FMM=F IPFlag=           0 FMFlag=           0 FMFlg1=           0
         NFxFlg=           0 DoJE=F BraDBF=F KetDBF=F FulRan=T
         wScrn=  0.000000 ICntrl=       600 IOpCl=  0 I1Cent=           0 NGrid=           0
         NMat0=    1 NMatS0=    465 NMatT0=    0 NMatD0=    1 NMtDS0=    0 NMtDT0=    0
 Petite list used in FoFCou.
 UHF open shell SCF:
 Using DIIS extrapolation, IDIIS=  1040.
 NGot=  2684354560 LenX=  2684292770 LenY=  2684291305
 Requested convergence on RMS density matrix=1.00D-08 within 120 cycles.
 Requested convergence on MAX density matrix=1.00D-06.
 Requested convergence on             energy=1.00D-06.
 No special actions if energy rises.
 Integral accuracy reduced to 1.0D-05 until final iterations.

 Cycle   1  Pass 0  IDiag  1:
 E= -113.759553842020    
 DIIS: error= 3.55D-02 at cycle   1 NSaved=   1.
 NSaved= 1 IEnMin= 1 EnMin= -113.759553842020     IErMin= 1 ErrMin= 3.55D-02
 ErrMax= 3.55D-02  0.00D+00 EMaxC= 1.00D-01 BMatC= 1.42D-01 BMatP= 1.42D-01
 IDIUse=3 WtCom= 6.45D-01 WtEn= 3.55D-01
 Coeff-Com:  0.100D+01
 Coeff-En:   0.100D+01
 Coeff:      0.100D+01
 Gap=     0.185 Goal=   None    Shift=    0.000
 Gap=     0.188 Goal=   None    Shift=    0.000
 GapD=    0.185 DampG=1.000 DampE=0.500 DampFc=0.5000 IDamp=-1.
 Damping current iteration by 5.00D-01
 RMSDP=1.47D-02 MaxDP=1.75D-01              OVMax= 2.64D-01

 Cycle   2  Pass 0  IDiag  1:
 E= -113.723423488926     Delta-E=        0.036130353094 Rises=F Damp=T
 DIIS: error= 4.87D-02 at cycle   2 NSaved=   2.
 NSaved= 2 IEnMin= 1 EnMin= -113.759553842020     IErMin= 1 ErrMin= 3.55D-02
 ErrMax= 4.87D-02  0.00D+00 EMaxC= 1.00D-01 BMatC= 1.77D-01 BMatP= 1.42D-01
 IDIUse=2 WtCom= 0.00D+00 WtEn= 1.00D+00
 Coeff-En:   0.698D+00 0.302D+00
 Coeff:      0.698D+00 0.302D+00
 Gap=     0.170 Goal=   None    Shift=    0.000
 Gap=     0.190 Goal=   None    Shift=    0.000
 RMSDP=2.84D-03 MaxDP=3.66D-02 DE= 3.61D-02 OVMax= 1.44D-01

 Cycle   3  Pass 0  IDiag  1:
 E= -113.763481238363     Delta-E=       -0.040057749438 Rises=F Damp=F
 DIIS: error= 3.79D-02 at cycle   3 NSaved=   3.
 NSaved= 3 IEnMin= 3 EnMin= -113.763481238363     IErMin= 1 ErrMin= 3.55D-02
 ErrMax= 3.79D-02  0.00D+00 EMaxC= 1.00D-01 BMatC= 1.34D-01 BMatP= 1.42D-01
 IDIUse=3 WtCom= 6.21D-01 WtEn= 3.79D-01
 Coeff-Com:  0.483D+00-0.240D+00 0.756D+00
 Coeff-En:   0.474D+00 0.000D+00 0.526D+00
 Coeff:      0.480D+00-0.149D+00 0.669D+00
 Gap=     0.151 Goal=   None    Shift=    0.000
 Gap=     0.200 Goal=   None    Shift=    0.000
 RMSDP=3.98D-03 MaxDP=4.58D-02 DE=-4.01D-02 OVMax= 6.65D-02

 Cycle   4  Pass 0  IDiag  1:
 E= -113.789610548141     Delta-E=       -0.026129309777 Rises=F Damp=F
 DIIS: error= 1.74D-03 at cycle   4 NSaved=   4.
 NSaved= 4 IEnMin= 4 EnMin= -113.789610548141     IErMin= 4 ErrMin= 1.74D-03
 ErrMax= 1.74D-03  0.00D+00 EMaxC= 1.00D-01 BMatC= 3.14D-04 BMatP= 1.34D-01
 IDIUse=3 WtCom= 9.83D-01 WtEn= 1.74D-02
 Coeff-Com:  0.107D-01-0.695D-01 0.120D+00 0.939D+00
 Coeff-En:   0.000D+00 0.000D+00 0.000D+00 0.100D+01
 Coeff:      0.106D-01-0.683D-01 0.118D+00 0.940D+00
 Gap=     0.157 Goal=   None    Shift=    0.000
 Gap=     0.198 Goal=   None    Shift=    0.000
 RMSDP=6.52D-04 MaxDP=6.42D-03 DE=-2.61D-02 OVMax= 1.70D-02

 Cycle   5  Pass 0  IDiag  1:
 E= -113.789728534381     Delta-E=       -0.000117986240 Rises=F Damp=F
 DIIS: error= 9.50D-04 at cycle   5 NSaved=   5.
 NSaved= 5 IEnMin= 5 EnMin= -113.789728534381     IErMin= 5 ErrMin= 9.50D-04
 ErrMax= 9.50D-04  0.00D+00 EMaxC= 1.00D-01 BMatC= 8.28D-05 BMatP= 3.14D-04
 IDIUse=3 WtCom= 9.91D-01 WtEn= 9.50D-03
 Coeff-Com: -0.166D-01-0.162D-01-0.434D-02 0.293D+00 0.745D+00
 Coeff-En:   0.000D+00 0.000D+00 0.000D+00 0.000D+00 0.100D+01
 Coeff:     -0.165D-01-0.160D-01-0.429D-02 0.290D+00 0.747D+00
 Gap=     0.157 Goal=   None    Shift=    0.000
 Gap=     0.200 Goal=   None    Shift=    0.000
 RMSDP=2.27D-04 MaxDP=2.47D-03 DE=-1.18D-04 OVMax= 4.27D-03

 Cycle   6  Pass 0  IDiag  1:
 E= -113.789756328945     Delta-E=       -0.000027794564 Rises=F Damp=F
 DIIS: error= 1.45D-04 at cycle   6 NSaved=   6.
 NSaved= 6 IEnMin= 6 EnMin= -113.789756328945     IErMin= 6 ErrMin= 1.45D-04
 ErrMax= 1.45D-04  0.00D+00 EMaxC= 1.00D-01 BMatC= 2.61D-06 BMatP= 8.28D-05
 IDIUse=3 WtCom= 9.99D-01 WtEn= 1.45D-03
 Coeff-Com: -0.256D-02 0.167D-03-0.807D-02-0.519D-01 0.192D+00 0.871D+00
 Coeff-En:   0.000D+00 0.000D+00 0.000D+00 0.000D+00 0.000D+00 0.100D+01
 Coeff:     -0.255D-02 0.167D-03-0.806D-02-0.519D-01 0.191D+00 0.871D+00
 Gap=     0.157 Goal=   None    Shift=    0.000
 Gap=     0.200 Goal=   None    Shift=    0.000
 RMSDP=4.18D-05 MaxDP=4.48D-04 DE=-2.78D-05 OVMax= 8.18D-04

 Cycle   7  Pass 0  IDiag  1:
 E= -113.789757380674     Delta-E=       -0.000001051729 Rises=F Damp=F
 DIIS: error= 6.96D-05 at cycle   7 NSaved=   7.
 NSaved= 7 IEnMin= 7 EnMin= -113.789757380674     IErMin= 7 ErrMin= 6.96D-05
 ErrMax= 6.96D-05  0.00D+00 EMaxC= 1.00D-01 BMatC= 3.63D-07 BMatP= 2.61D-06
 IDIUse=1 WtCom= 1.00D+00 WtEn= 0.00D+00
 Coeff-Com:  0.445D-04 0.320D-03-0.369D-03-0.256D-01 0.234D-01 0.196D+00
 Coeff-Com:  0.806D+00
 Coeff:      0.445D-04 0.320D-03-0.369D-03-0.256D-01 0.234D-01 0.196D+00
 Coeff:      0.806D+00
 Gap=     0.157 Goal=   None    Shift=    0.000
 Gap=     0.200 Goal=   None    Shift=    0.000
 RMSDP=1.28D-05 MaxDP=1.13D-04 DE=-1.05D-06 OVMax= 2.72D-04

 Cycle   8  Pass 0  IDiag  1:
 E= -113.789757499004     Delta-E=       -0.000000118330 Rises=F Damp=F
 DIIS: error= 5.95D-06 at cycle   8 NSaved=   8.
 NSaved= 8 IEnMin= 8 EnMin= -113.789757499004     IErMin= 8 ErrMin= 5.95D-06
 ErrMax= 5.95D-06  0.00D+00 EMaxC= 1.00D-01 BMatC= 2.68D-09 BMatP= 3.63D-07
 IDIUse=1 WtCom= 1.00D+00 WtEn= 0.00D+00
 Coeff-Com: -0.367D-04 0.188D-03 0.280D-04 0.495D-02-0.975D-02-0.521D-01
 Coeff-Com: -0.589D-01 0.112D+01
 Coeff:     -0.367D-04 0.188D-03 0.280D-04 0.495D-02-0.975D-02-0.521D-01
 Coeff:     -0.589D-01 0.112D+01
 Gap=     0.157 Goal=   None    Shift=    0.000
 Gap=     0.200 Goal=   None    Shift=    0.000
 RMSDP=2.15D-06 MaxDP=2.25D-05 DE=-1.18D-07 OVMax= 4.16D-05

 Initial convergence to 1.0D-05 achieved.  Increase integral accuracy.
 Cycle   9  Pass 1  IDiag  1:
 E= -113.789757501983     Delta-E=       -0.000000002979 Rises=F Damp=F
 DIIS: error= 1.64D-06 at cycle   1 NSaved=   1.
 NSaved= 1 IEnMin= 1 EnMin= -113.789757501983     IErMin= 1 ErrMin= 1.64D-06
 ErrMax= 1.64D-06  0.00D+00 EMaxC= 1.00D-01 BMatC= 2.89D-10 BMatP= 2.89D-10
 IDIUse=1 WtCom= 1.00D+00 WtEn= 0.00D+00
 Coeff-Com:  0.100D+01
 Coeff:      0.100D+01
 Gap=     0.157 Goal=   None    Shift=    0.000
 Gap=     0.200 Goal=   None    Shift=    0.000
 RMSDP=2.15D-06 MaxDP=2.25D-05 DE=-2.98D-09 OVMax= 1.01D-05

 Cycle  10  Pass 1  IDiag  1:
 E= -113.789757502087     Delta-E=       -0.000000000104 Rises=F Damp=F
 DIIS: error= 1.80D-06 at cycle   2 NSaved=   2.
 NSaved= 2 IEnMin= 2 EnMin= -113.789757502087     IErMin= 1 ErrMin= 1.64D-06
 ErrMax= 1.80D-06  0.00D+00 EMaxC= 1.00D-01 BMatC= 2.01D-10 BMatP= 2.89D-10
 IDIUse=1 WtCom= 1.00D+00 WtEn= 0.00D+00
 Coeff-Com:  0.432D+00 0.568D+00
 Coeff:      0.432D+00 0.568D+00
 Gap=     0.157 Goal=   None    Shift=    0.000
 Gap=     0.200 Goal=   None    Shift=    0.000
 RMSDP=3.30D-07 MaxDP=3.93D-06 DE=-1.04D-10 OVMax= 6.04D-06

 Cycle  11  Pass 1  IDiag  1:
 E= -113.789757502083     Delta-E=        0.000000000003 Rises=F Damp=F
 DIIS: error= 2.23D-06 at cycle   3 NSaved=   3.
 NSaved= 3 IEnMin= 2 EnMin= -113.789757502087     IErMin= 1 ErrMin= 1.64D-06
 ErrMax= 2.23D-06  0.00D+00 EMaxC= 1.00D-01 BMatC= 2.95D-10 BMatP= 2.01D-10
 IDIUse=1 WtCom= 1.00D+00 WtEn= 0.00D+00
 Coeff-Com:  0.763D-01 0.525D+00 0.399D+00
 Coeff:      0.763D-01 0.525D+00 0.399D+00
 Gap=     0.157 Goal=   None    Shift=    0.000
 Gap=     0.200 Goal=   None    Shift=    0.000
 RMSDP=1.90D-07 MaxDP=2.73D-06 DE= 3.07D-12 OVMax= 4.28D-06

 Cycle  12  Pass 1  IDiag  1:
 E= -113.789757502141     Delta-E=       -0.000000000058 Rises=F Damp=F
 DIIS: error= 3.85D-07 at cycle   4 NSaved=   4.
 NSaved= 4 IEnMin= 4 EnMin= -113.789757502141     IErMin= 4 ErrMin= 3.85D-07
 ErrMax= 3.85D-07  0.00D+00 EMaxC= 1.00D-01 BMatC= 1.26D-11 BMatP= 2.01D-10
 IDIUse=1 WtCom= 1.00D+00 WtEn= 0.00D+00
 Coeff-Com: -0.669D-01 0.128D+00 0.203D+00 0.736D+00
 Coeff:     -0.669D-01 0.128D+00 0.203D+00 0.736D+00
 Gap=     0.157 Goal=   None    Shift=    0.000
 Gap=     0.200 Goal=   None    Shift=    0.000
 RMSDP=1.07D-07 MaxDP=9.57D-07 DE=-5.80D-11 OVMax= 2.17D-06

 Cycle  13  Pass 1  IDiag  1:
 E= -113.789757502146     Delta-E=       -0.000000000004 Rises=F Damp=F
 DIIS: error= 1.49D-07 at cycle   5 NSaved=   5.
 NSaved= 5 IEnMin= 5 EnMin= -113.789757502146     IErMin= 5 ErrMin= 1.49D-07
 ErrMax= 1.49D-07  0.00D+00 EMaxC= 1.00D-01 BMatC= 2.34D-12 BMatP= 1.26D-11
 IDIUse=1 WtCom= 1.00D+00 WtEn= 0.00D+00
 Coeff-Com: -0.537D-01-0.505D-01 0.266D-01 0.370D+00 0.708D+00
 Coeff:     -0.537D-01-0.505D-01 0.266D-01 0.370D+00 0.708D+00
 Gap=     0.157 Goal=   None    Shift=    0.000
 Gap=     0.200 Goal=   None    Shift=    0.000
 RMSDP=4.53D-08 MaxDP=4.74D-07 DE=-4.41D-12 OVMax= 8.48D-07

 Cycle  14  Pass 1  IDiag  1:
 E= -113.789757502147     Delta-E=       -0.000000000001 Rises=F Damp=F
 DIIS: error= 1.77D-08 at cycle   6 NSaved=   6.
 NSaved= 6 IEnMin= 6 EnMin= -113.789757502147     IErMin= 6 ErrMin= 1.77D-08
 ErrMax= 1.77D-08  0.00D+00 EMaxC= 1.00D-01 BMatC= 3.84D-14 BMatP= 2.34D-12
 IDIUse=1 WtCom= 1.00D+00 WtEn= 0.00D+00
 Coeff-Com: -0.445D-02-0.179D-01-0.104D-01 0.121D-01 0.126D+00 0.895D+00
 Coeff:     -0.445D-02-0.179D-01-0.104D-01 0.121D-01 0.126D+00 0.895D+00
 Gap=     0.157 Goal=   None    Shift=    0.000
 Gap=     0.200 Goal=   None    Shift=    0.000
 RMSDP=6.18D-09 MaxDP=7.10D-08 DE=-1.14D-12 OVMax= 9.61D-08

 SCF Done:  E(UB-LYP) =  -113.789757502     A.U. after   14 cycles
            NFock= 14  Conv=0.62D-08     -V/T= 2.0061
 <Sx>= 0.0000 <Sy>= 0.0000 <Sz>= 0.5000 <S**2>= 0.7575 S= 0.5037
 <L.S>= 0.000000000000E+00
 KE= 1.131035469921D+02 PE=-3.184850695667D+02 EE= 6.582531459716D+01
 Annihilation of the first spin contaminant:
 S**2 before annihilation     0.7575,   after     0.7500
 Leave Link  502 at Sat Oct 10 18:11:45 2020, MaxMem=  2684354560 cpu:               7.8 elap:               0.7
 (Enter /udrive/faculty/rpeverati/g16/g16/l508.exe)
 QCSCF skips out because SCF is already converged.
 Leave Link  508 at Sat Oct 10 18:11:45 2020, MaxMem=  2684354560 cpu:               0.1 elap:               0.0
 (Enter /udrive/faculty/rpeverati/g16/g16/l601.exe)
 Copying SCF densities to generalized density rwf, IOpCl= 1 IROHF=0.

 **********************************************************************

            Population analysis using the SCF density.

 **********************************************************************

 Orbital symmetries:
 Alpha Orbitals:
       Occupied  (A') (A') (A') (A') (A') (A") (A') (A')
       Virtual   (A") (A') (A') (A") (A') (A') (A') (A') (A') (A")
                 (A') (A") (A') (A') (A") (A') (A") (A') (A') (A")
                 (A') (A')
 Beta  Orbitals:
       Occupied  (A') (A') (A') (A') (A") (A') (A')
       Virtual   (A') (A") (A') (A') (A") (A') (A') (A') (A') (A')
                 (A") (A') (A") (A') (A') (A") (A') (A") (A') (A')
                 (A") (A') (A')
 The electronic state is 2-A'.
 Alpha  occ. eigenvalues --  -18.89355 -10.03745  -1.05423  -0.49872  -0.42010
 Alpha  occ. eigenvalues --   -0.41171  -0.35670  -0.21570
 Alpha virt. eigenvalues --   -0.05885  -0.02105   0.22928   0.46503   0.48190
 Alpha virt. eigenvalues --    0.62624   0.68726   0.71096   0.78413   0.86158
 Alpha virt. eigenvalues --    0.90169   1.42197   1.43028   1.45730   1.47999
 Alpha virt. eigenvalues --    1.48008   1.87751   1.88168   2.34222   2.52725
 Alpha virt. eigenvalues --    2.53484   2.87929
  Beta  occ. eigenvalues --  -18.89110 -10.03452  -1.05021  -0.49335  -0.40899
  Beta  occ. eigenvalues --   -0.40876  -0.33118
  Beta virt. eigenvalues --   -0.13141  -0.05239   0.00829   0.23163   0.46811
  Beta virt. eigenvalues --    0.49894   0.63663   0.70579   0.78355   0.80546
  Beta virt. eigenvalues --    0.86298   0.92814   1.42809   1.43722   1.46167
  Beta virt. eigenvalues --    1.48643   1.48842   1.88541   1.89023   2.35304
  Beta virt. eigenvalues --    2.53375   2.54422   2.88272
          Condensed to atoms (all electrons):
               1          2          3
     1  H    0.977238   0.042164  -0.015350
     2  C    0.042164   5.243218   0.595974
     3  O   -0.015350   0.595974   7.533969
          Atomic-Atomic Spin Densities.
               1          2          3
     1  H    0.860078  -0.090639  -0.008359
     2  C   -0.090639   0.275103  -0.031843
     3  O   -0.008359  -0.031843   0.126500
 Mulliken charges and spin densities:
               1          2
     1  H   -0.004052   0.761080
     2  C    0.118645   0.152622
     3  O   -0.114593   0.086298
 Sum of Mulliken charges =  -0.00000   1.00000
 Mulliken charges and spin densities with hydrogens summed into heavy atoms:
               1          2
     2  C    0.114593   0.913702
     3  O   -0.114593   0.086298
 Electronic spatial extent (au):  <R**2>=             58.2678
 Charge=             -0.0000 electrons
 Dipole moment (field-independent basis, Debye):
    X=             -0.0023    Y=             -0.0427    Z=              0.0000  Tot=              0.0427
 Quadrupole moment (field-independent basis, Debye-Ang):
   XX=            -11.3821   YY=            -12.9106   ZZ=            -11.0375
   XY=              0.0015   XZ=              0.0000   YZ=              0.0000
 Traceless Quadrupole moment (field-independent basis, Debye-Ang):
   XX=              0.3946   YY=             -1.1339   ZZ=              0.7392
   XY=              0.0015   XZ=              0.0000   YZ=              0.0000
 Octapole moment (field-independent basis, Debye-Ang**2):
  XXX=              2.6607  YYY=             -7.0178  ZZZ=              0.0000  XYY=              0.6142
  XXY=             -2.0752  XXZ=              0.0000  XZZ=              0.8575  YZZ=             -1.8510
  YYZ=              0.0000  XYZ=              0.0000
 Hexadecapole moment (field-independent basis, Debye-Ang**3):
 XXXX=            -27.9407 YYYY=            -47.5148 ZZZZ=             -9.0316 XXXY=              8.0198
 XXXZ=              0.0000 YYYX=              7.7056 YYYZ=              0.0000 ZZZX=              0.0000
 ZZZY=              0.0000 XXYY=            -12.4277 XXZZ=             -6.1643 YYZZ=             -9.0924
 XXYZ=              0.0000 YYXZ=              0.0000 ZZXY=              2.6600
 N-N= 2.576645047526D+01 E-N=-3.184850688845D+02  KE= 1.131035469921D+02
                          Isotropic Fermi Contact Couplings
        Atom                 a.u.       MegaHertz       Gauss      10(-4) cm-1
     1  H(1)               0.25208    1126.78677     402.06554     375.85561
     2  C(13)              0.25223     283.55541     101.17962      94.58390
     3  O(17)              0.01976     -11.97566      -4.27321      -3.99465
 --------------------------------------------------------
       Center         ----  Spin Dipole Couplings  ----
                      3XX-RR        3YY-RR        3ZZ-RR
 --------------------------------------------------------
     1   Atom       -0.008562      0.004142      0.004420
     2   Atom        0.000609      0.069701     -0.070310
     3   Atom        0.405885     -0.154750     -0.251134
 --------------------------------------------------------
                        XY            XZ            YZ
 --------------------------------------------------------
     1   Atom        0.004295      0.000000      0.000000
     2   Atom        0.188693      0.000000      0.000000
     3   Atom        0.254746      0.000000      0.000000
 --------------------------------------------------------


 ---------------------------------------------------------------------------------
              Anisotropic Spin Dipole Couplings in Principal Axis System
 ---------------------------------------------------------------------------------

       Atom             a.u.   MegaHertz   Gauss  10(-4) cm-1        Axes

              Baa    -0.0099    -5.270    -1.881    -1.758  0.9561 -0.2929  0.0000
     1 H(1)   Bbb     0.0044     2.358     0.842     0.787  0.0000  0.0000  1.0000
              Bcc     0.0055     2.912     1.039     0.971  0.2929  0.9561  0.0000
 
              Baa    -0.1567   -21.024    -7.502    -7.013  0.7681 -0.6403  0.0000
     2 C(13)  Bbb    -0.0703    -9.435    -3.367    -3.147  0.0000  0.0000  1.0000
              Bcc     0.2270    30.459    10.869    10.160  0.6403  0.7681  0.0000
 
              Baa    -0.2532    18.322     6.538     6.112 -0.3605  0.9328  0.0000
     3 O(17)  Bbb    -0.2511    18.172     6.484     6.061  0.0000  0.0000  1.0000
              Bcc     0.5043   -36.494   -13.022   -12.173  0.9328  0.3605  0.0000
 

 ---------------------------------------------------------------------------------

 No NMR shielding tensors so no spin-rotation constants.
 Leave Link  601 at Sat Oct 10 18:11:46 2020, MaxMem=  2684354560 cpu:               4.7 elap:               0.4
 (Enter /udrive/faculty/rpeverati/g16/g16/l701.exe)
 ... and contract with generalized density number  0.
 Compute integral first derivatives.
 Leave Link  701 at Sat Oct 10 18:11:46 2020, MaxMem=  2684354560 cpu:               2.6 elap:               0.3
 (Enter /udrive/faculty/rpeverati/g16/g16/l702.exe)
 L702 exits ... SP integral derivatives will be done elsewhere.
 Leave Link  702 at Sat Oct 10 18:11:46 2020, MaxMem=  2684354560 cpu:               0.3 elap:               0.1
 (Enter /udrive/faculty/rpeverati/g16/g16/l703.exe)
 Integral derivatives from FoFJK, PRISM(SPDF).
 Compute integral first derivatives, UseDBF=F ICtDFT=           0.
 Calling FoFJK, ICntrl=      2527 FMM=F ISym2X=1 I1Cent= 0 IOpClX= 0 NMat=1 NMatS=1 NMatT=0.
 FoFJK:  IHMeth= 1 ICntrl=    2527 DoSepK=F KAlg= 0 I1Cent=           0 FoldK=F
 IRaf=         0 NMat=       1 IRICut=       1 DoRegI=T DoRafI=F ISym2E= 1 IDoP0=0 IntGTp=1.
 FoFCou: FMM=F IPFlag=           0 FMFlag=      100000 FMFlg1=         800
         NFxFlg=           0 DoJE=F BraDBF=F KetDBF=F FulRan=T
         wScrn=  0.000000 ICntrl=      2527 IOpCl=  0 I1Cent=           0 NGrid=           0
         NMat0=    1 NMatS0=      1 NMatT0=    0 NMatD0=    1 NMtDS0=    0 NMtDT0=    0
 Petite list used in FoFCou.
 Leave Link  703 at Sat Oct 10 18:11:46 2020, MaxMem=  2684354560 cpu:               4.5 elap:               0.4
 (Enter /udrive/faculty/rpeverati/g16/g16/l716.exe)
 Dipole        =-9.07885171D-04-1.67938280D-02 0.00000000D+00
 ***** Axes restored to original set *****
 -------------------------------------------------------------------
 Center     Atomic                   Forces (Hartrees/Bohr)
 Number     Number              X              Y              Z
 -------------------------------------------------------------------
      1        1           0.010153419   -0.004353394   -0.000000000
      2        6          -0.011412369    0.057332696   -0.000000000
      3        8           0.001258950   -0.052979301   -0.000000000
 -------------------------------------------------------------------
 Cartesian Forces:  Max     0.057332696 RMS     0.026557517
 Leave Link  716 at Sat Oct 10 18:11:46 2020, MaxMem=  2684354560 cpu:               0.4 elap:               0.1
 (Enter /udrive/faculty/rpeverati/g16/g16/l103.exe)

 GradGradGradGradGradGradGradGradGradGradGradGradGradGradGradGradGradGrad
 Berny optimization.
 Optmz: redundant internal coordinate code flag= 1
 FormGI is forming the generalized inverse of G from B-inverse, IUseBI=4.
 Internal  Forces:  Max     0.052979134 RMS     0.031281070
 Numerically estimating second derivatives.
 Iteration  1 RMS(Cart)=  0.00230285 RMS(Int)=  0.00000021
 Iteration  2 RMS(Cart)=  0.00000024 RMS(Int)=  0.00000000
 Largest change from initial coordinates is atom    1       0.001 Angstoms.
 GradGradGradGradGradGradGradGradGradGradGradGradGradGradGradGradGradGrad

 Leave Link  103 at Sat Oct 10 18:11:47 2020, MaxMem=  2684354560 cpu:               0.2 elap:               0.1
 (Enter /udrive/faculty/rpeverati/g16/g16/l202.exe)
                          Input orientation:                          
 ---------------------------------------------------------------------
 Center     Atomic      Atomic             Coordinates (Angstroms)
 Number     Number       Type             X           Y           Z
 ---------------------------------------------------------------------
      1          1           0       -1.519521    1.387764    0.000000
      2          6           0        0.107826    0.549862    0.000000
      3          8           0        0.108096   -0.585070    0.000000
 ---------------------------------------------------------------------
                    Distance matrix (angstroms):
                    1          2          3
     1  H    0.000000
     2  C    1.830393   0.000000
     3  O    2.557580   1.134932   0.000000
 Stoichiometry    CHO(2)
 Framework group  CS[SG(CHO)]
 Deg. of freedom     3
 Full point group                 CS      NOp   2
 RotChk:  IX=0 Diff= 3.37D-04
 Largest Abelian subgroup         CS      NOp   2
 Largest concise Abelian subgroup C1      NOp   1
                         Standard orientation:                         
 ---------------------------------------------------------------------
 Center     Atomic      Atomic             Coordinates (Angstroms)
 Number     Number       Type             X           Y           Z
 ---------------------------------------------------------------------
      1          1           0       -1.518671    1.387702    0.000000
      2          6           0        0.108476    0.549411    0.000000
      3          8           0        0.108476   -0.585521    0.000000
 ---------------------------------------------------------------------
 Rotational constants (GHZ):         257.6356345          43.5839087          37.2776874
 Leave Link  202 at Sat Oct 10 18:11:47 2020, MaxMem=  2684354560 cpu:               0.2 elap:               0.1
 (Enter /udrive/faculty/rpeverati/g16/g16/l301.exe)
 Standard basis: 6-31G(d) (5D, 7F)
 Ernie: Thresh=  0.10000D-02 Tol=  0.10000D-05 Strict=F.
 There are    24 symmetry adapted cartesian basis functions of A'  symmetry.
 There are     8 symmetry adapted cartesian basis functions of A"  symmetry.
 There are    22 symmetry adapted basis functions of A'  symmetry.
 There are     8 symmetry adapted basis functions of A"  symmetry.
    30 basis functions,    60 primitive gaussians,    32 cartesian basis functions
     8 alpha electrons        7 beta electrons
       nuclear repulsion energy        25.7705264920 Hartrees.
 IExCor=  402 DFT=T Ex=B Corr=LYP ExCW=0 ScaHFX=  0.000000
 ScaDFX=  1.000000  1.000000  1.000000  1.000000 ScalE2=  1.000000  1.000000
 IRadAn=      5 IRanWt=     -1 IRanGd=            0 ICorTp=0 IEmpDi=  4
 NAtoms=    3 NActive=    3 NUniq=    3 SFac= 1.00D+00 NAtFMM=   60 NAOKFM=F Big=F
 Integral buffers will be    131072 words long.
 Raffenetti 2 integral format.
 Two-electron integral symmetry is turned on.
 Leave Link  301 at Sat Oct 10 18:11:47 2020, MaxMem=  2684354560 cpu:               0.8 elap:               0.1
 (Enter /udrive/faculty/rpeverati/g16/g16/l302.exe)
 NPDir=0 NMtPBC=     1 NCelOv=     1 NCel=       1 NClECP=     1 NCelD=      1
         NCelK=      1 NCelE2=     1 NClLst=     1 CellRange=     0.0.
 One-electron integrals computed using PRISM.
 One-electron integral symmetry used in STVInt
 NBasis=    30 RedAO= T EigKep=  1.52D-02  NBF=    22     8
 NBsUse=    30 1.00D-06 EigRej= -1.00D+00 NBFU=    22     8
 Precomputing XC quadrature grid using
 IXCGrd= 4 IRadAn=           5 IRanWt=          -1 IRanGd=           0 AccXCQ= 0.00D+00.
 Generated NRdTot=       0 NPtTot=           0 NUsed=           0 NTot=          32
 NSgBfM=    32    32    32    32    32 MxSgAt=     3 MxSgA2=     3.
 Leave Link  302 at Sat Oct 10 18:11:47 2020, MaxMem=  2684354560 cpu:               2.4 elap:               0.3
 (Enter /udrive/faculty/rpeverati/g16/g16/l303.exe)
 DipDrv:  MaxL=1.
 Leave Link  303 at Sat Oct 10 18:11:47 2020, MaxMem=  2684354560 cpu:               0.3 elap:               0.1
 (Enter /udrive/faculty/rpeverati/g16/g16/l401.exe)
 Initial guess from the checkpoint file:  "MN_51_hcots_BH76_BLYP_631Gs.chk"
 SCF N**3 symmetry information disabled.
 B after Tr=    -0.000000    0.000000    0.000000
         Rot=    1.000000    0.000000    0.000000    0.000079 Ang=   0.01 deg.
 Guess basis will be translated and rotated to current coordinates.
 JPrj=2 DoOrth=T DoCkMO=T.
 Initial guess orbital symmetries:
 Alpha Orbitals:
       Occupied  (A') (A') (A') (A') (A') (A") (A') (A')
       Virtual   (A") (A') (A') (A") (A') (A') (A') (A') (A') (A")
                 (A') (A") (A') (A') (A") (A') (A") (A') (A') (A")
                 (A') (A')
 Beta  Orbitals:
       Occupied  (A') (A') (A') (A') (A") (A') (A')
       Virtual   (A') (A") (A') (A') (A") (A') (A') (A') (A') (A')
                 (A") (A') (A") (A') (A') (A") (A') (A") (A') (A')
                 (A") (A') (A')
 The electronic state of the initial guess is 2-A'.
 Initial guess <Sx>= 0.0000 <Sy>= 0.0000 <Sz>= 0.5000 <S**2>= 0.7574 S= 0.5037
 Generating alternative initial guess.
 ExpMin= 1.61D-01 ExpMax= 5.48D+03 ExpMxC= 8.25D+02 IAcc=2 IRadAn=         4 AccDes= 0.00D+00
 Harris functional with IExCor=  402 and IRadAn=       4 diagonalized for initial guess.
 HarFok:  IExCor=  402 AccDes= 0.00D+00 IRadAn=         4 IDoV= 1 UseB2=F ITyADJ=14
 ICtDFT=  3500011 ScaDFX=  1.000000  1.000000  1.000000  1.000000
 FoFCou: FMM=F IPFlag=           0 FMFlag=      100000 FMFlg1=           0
         NFxFlg=           0 DoJE=T BraDBF=F KetDBF=T FulRan=T
         wScrn=  0.000000 ICntrl=       500 IOpCl=  0 I1Cent=   200000004 NGrid=           0
         NMat0=    1 NMatS0=      1 NMatT0=    0 NMatD0=    1 NMtDS0=    0 NMtDT0=    0
 Petite list used in FoFCou.
 Harris En= -113.770702875337    
 Leave Link  401 at Sat Oct 10 18:11:48 2020, MaxMem=  2684354560 cpu:               4.8 elap:               0.5
 (Enter /udrive/faculty/rpeverati/g16/g16/l502.exe)
 Keep J ints in memory in symmetry-blocked form, NReq=10459184.
 FoFCou: FMM=F IPFlag=           0 FMFlag=           0 FMFlg1=           0
         NFxFlg=           0 DoJE=F BraDBF=F KetDBF=F FulRan=T
         wScrn=  0.000000 ICntrl=       600 IOpCl=  0 I1Cent=           0 NGrid=           0
         NMat0=    1 NMatS0=    465 NMatT0=    0 NMatD0=    1 NMtDS0=    0 NMtDT0=    0
 Petite list used in FoFCou.
 UHF open shell SCF:
 Using DIIS extrapolation, IDIIS=  1040.
 NGot=  2684354560 LenX=  2684292770 LenY=  2684291305
 Requested convergence on RMS density matrix=1.00D-08 within 120 cycles.
 Requested convergence on MAX density matrix=1.00D-06.
 Requested convergence on             energy=1.00D-06.
 No special actions if energy rises.
 Integral accuracy reduced to 1.0D-05 until final iterations.

 Cycle   1  Pass 0  IDiag  1:
 E= -113.789812309342    
 DIIS: error= 6.78D-05 at cycle   1 NSaved=   1.
 NSaved= 1 IEnMin= 1 EnMin= -113.789812309342     IErMin= 1 ErrMin= 6.78D-05
 ErrMax= 6.78D-05  0.00D+00 EMaxC= 1.00D-01 BMatC= 5.55D-07 BMatP= 5.55D-07
 IDIUse=1 WtCom= 1.00D+00 WtEn= 0.00D+00
 Coeff-Com:  0.100D+01
 Coeff:      0.100D+01
 Gap=     0.157 Goal=   None    Shift=    0.000
 Gap=     0.200 Goal=   None    Shift=    0.000
 RMSDP=3.97D-05 MaxDP=4.03D-04              OVMax= 9.50D-04

 Cycle   2  Pass 0  IDiag  1:
 E= -113.789812837153     Delta-E=       -0.000000527811 Rises=F Damp=F
 DIIS: error= 4.15D-05 at cycle   2 NSaved=   2.
 NSaved= 2 IEnMin= 2 EnMin= -113.789812837153     IErMin= 2 ErrMin= 4.15D-05
 ErrMax= 4.15D-05  0.00D+00 EMaxC= 1.00D-01 BMatC= 1.64D-07 BMatP= 5.55D-07
 IDIUse=1 WtCom= 1.00D+00 WtEn= 0.00D+00
 Coeff-Com:  0.248D+00 0.752D+00
 Coeff:      0.248D+00 0.752D+00
 Gap=     0.157 Goal=   None    Shift=    0.000
 Gap=     0.200 Goal=   None    Shift=    0.000
 RMSDP=1.23D-05 MaxDP=1.20D-04 DE=-5.28D-07 OVMax= 2.58D-04

 Cycle   3  Pass 0  IDiag  1:
 E= -113.789812758876     Delta-E=        0.000000078277 Rises=F Damp=F
 DIIS: error= 9.45D-05 at cycle   3 NSaved=   3.
 NSaved= 3 IEnMin= 2 EnMin= -113.789812837153     IErMin= 2 ErrMin= 4.15D-05
 ErrMax= 9.45D-05  0.00D+00 EMaxC= 1.00D-01 BMatC= 6.62D-07 BMatP= 1.64D-07
 IDIUse=1 WtCom= 1.00D+00 WtEn= 0.00D+00
 Coeff-Com: -0.299D-01 0.692D+00 0.338D+00
 Coeff:     -0.299D-01 0.692D+00 0.338D+00
 Gap=     0.157 Goal=   None    Shift=    0.000
 Gap=     0.200 Goal=   None    Shift=    0.000
 RMSDP=8.08D-06 MaxDP=9.31D-05 DE= 7.83D-08 OVMax= 1.53D-04

 Initial convergence to 1.0D-05 achieved.  Increase integral accuracy.
 Cycle   4  Pass 1  IDiag  1:
 E= -113.789812909306     Delta-E=       -0.000000150430 Rises=F Damp=F
 DIIS: error= 6.19D-06 at cycle   1 NSaved=   1.
 NSaved= 1 IEnMin= 1 EnMin= -113.789812909306     IErMin= 1 ErrMin= 6.19D-06
 ErrMax= 6.19D-06  0.00D+00 EMaxC= 1.00D-01 BMatC= 6.00D-09 BMatP= 6.00D-09
 IDIUse=1 WtCom= 1.00D+00 WtEn= 0.00D+00
 Coeff-Com:  0.100D+01
 Coeff:      0.100D+01
 Gap=     0.157 Goal=   None    Shift=    0.000
 Gap=     0.200 Goal=   None    Shift=    0.000
 RMSDP=8.08D-06 MaxDP=9.31D-05 DE=-1.50D-07 OVMax= 8.81D-05

 Cycle   5  Pass 1  IDiag  1:
 E= -113.789812907057     Delta-E=        0.000000002249 Rises=F Damp=F
 DIIS: error= 1.37D-05 at cycle   2 NSaved=   2.
 NSaved= 2 IEnMin= 1 EnMin= -113.789812909306     IErMin= 1 ErrMin= 6.19D-06
 ErrMax= 1.37D-05  0.00D+00 EMaxC= 1.00D-01 BMatC= 2.17D-08 BMatP= 6.00D-09
 IDIUse=1 WtCom= 1.00D+00 WtEn= 0.00D+00
 Coeff-Com:  0.673D+00 0.327D+00
 Coeff:      0.673D+00 0.327D+00
 Gap=     0.157 Goal=   None    Shift=    0.000
 Gap=     0.200 Goal=   None    Shift=    0.000
 RMSDP=1.89D-06 MaxDP=2.19D-05 DE= 2.25D-09 OVMax= 3.28D-05

 Cycle   6  Pass 1  IDiag  1:
 E= -113.789812911192     Delta-E=       -0.000000004135 Rises=F Damp=F
 DIIS: error= 5.75D-06 at cycle   3 NSaved=   3.
 NSaved= 3 IEnMin= 3 EnMin= -113.789812911192     IErMin= 3 ErrMin= 5.75D-06
 ErrMax= 5.75D-06  0.00D+00 EMaxC= 1.00D-01 BMatC= 2.60D-09 BMatP= 6.00D-09
 IDIUse=1 WtCom= 1.00D+00 WtEn= 0.00D+00
 Coeff-Com:  0.319D+00 0.243D+00 0.439D+00
 Coeff:      0.319D+00 0.243D+00 0.439D+00
 Gap=     0.157 Goal=   None    Shift=    0.000
 Gap=     0.200 Goal=   None    Shift=    0.000
 RMSDP=7.65D-07 MaxDP=9.06D-06 DE=-4.14D-09 OVMax= 1.67D-05

 Cycle   7  Pass 1  IDiag  1:
 E= -113.789812911764     Delta-E=       -0.000000000573 Rises=F Damp=F
 DIIS: error= 1.32D-06 at cycle   4 NSaved=   4.
 NSaved= 4 IEnMin= 4 EnMin= -113.789812911764     IErMin= 4 ErrMin= 1.32D-06
 ErrMax= 1.32D-06  0.00D+00 EMaxC= 1.00D-01 BMatC= 1.64D-10 BMatP= 2.60D-09
 IDIUse=1 WtCom= 1.00D+00 WtEn= 0.00D+00
 Coeff-Com: -0.152D-01 0.166D-01 0.208D+00 0.791D+00
 Coeff:     -0.152D-01 0.166D-01 0.208D+00 0.791D+00
 Gap=     0.157 Goal=   None    Shift=    0.000
 Gap=     0.200 Goal=   None    Shift=    0.000
 RMSDP=3.77D-07 MaxDP=6.22D-06 DE=-5.73D-10 OVMax= 8.19D-06

 Cycle   8  Pass 1  IDiag  1:
 E= -113.789812911816     Delta-E=       -0.000000000051 Rises=F Damp=F
 DIIS: error= 3.19D-07 at cycle   5 NSaved=   5.
 NSaved= 5 IEnMin= 5 EnMin= -113.789812911816     IErMin= 5 ErrMin= 3.19D-07
 ErrMax= 3.19D-07  0.00D+00 EMaxC= 1.00D-01 BMatC= 1.23D-11 BMatP= 1.64D-10
 IDIUse=1 WtCom= 1.00D+00 WtEn= 0.00D+00
 Coeff-Com: -0.605D-01-0.303D-01 0.264D-01 0.321D+00 0.744D+00
 Coeff:     -0.605D-01-0.303D-01 0.264D-01 0.321D+00 0.744D+00
 Gap=     0.157 Goal=   None    Shift=    0.000
 Gap=     0.200 Goal=   None    Shift=    0.000
 RMSDP=1.03D-07 MaxDP=1.08D-06 DE=-5.12D-11 OVMax= 3.56D-06

 Cycle   9  Pass 1  IDiag  1:
 E= -113.789812911821     Delta-E=       -0.000000000005 Rises=F Damp=F
 DIIS: error= 6.68D-08 at cycle   6 NSaved=   6.
 NSaved= 6 IEnMin= 6 EnMin= -113.789812911821     IErMin= 6 ErrMin= 6.68D-08
 ErrMax= 6.68D-08  0.00D+00 EMaxC= 1.00D-01 BMatC= 4.15D-13 BMatP= 1.23D-11
 IDIUse=1 WtCom= 1.00D+00 WtEn= 0.00D+00
 Coeff-Com: -0.141D-01-0.628D-02-0.166D-02 0.409D-01 0.203D+00 0.778D+00
 Coeff:     -0.141D-01-0.628D-02-0.166D-02 0.409D-01 0.203D+00 0.778D+00
 Gap=     0.157 Goal=   None    Shift=    0.000
 Gap=     0.200 Goal=   None    Shift=    0.000
 RMSDP=2.24D-08 MaxDP=1.80D-07 DE=-5.40D-12 OVMax= 5.68D-07

 Cycle  10  Pass 1  IDiag  1:
 E= -113.789812911821     Delta-E=       -0.000000000000 Rises=F Damp=F
 DIIS: error= 1.53D-08 at cycle   7 NSaved=   7.
 NSaved= 7 IEnMin= 7 EnMin= -113.789812911821     IErMin= 7 ErrMin= 1.53D-08
 ErrMax= 1.53D-08  0.00D+00 EMaxC= 1.00D-01 BMatC= 2.02D-14 BMatP= 4.15D-13
 IDIUse=1 WtCom= 1.00D+00 WtEn= 0.00D+00
 Coeff-Com:  0.408D-02 0.120D-02-0.940D-03-0.176D-01-0.492D-01-0.285D-01
 Coeff-Com:  0.109D+01
 Coeff:      0.408D-02 0.120D-02-0.940D-03-0.176D-01-0.492D-01-0.285D-01
 Coeff:      0.109D+01
 Gap=     0.157 Goal=   None    Shift=    0.000
 Gap=     0.200 Goal=   None    Shift=    0.000
 RMSDP=3.63D-09 MaxDP=4.32D-08 DE=-2.84D-13 OVMax= 7.62D-08

 SCF Done:  E(UB-LYP) =  -113.789812912     A.U. after   10 cycles
            NFock= 10  Conv=0.36D-08     -V/T= 2.0061
 <Sx>= 0.0000 <Sy>= 0.0000 <Sz>= 0.5000 <S**2>= 0.7575 S= 0.5037
 <L.S>= 0.000000000000E+00
 KE= 1.131035474783D+02 PE=-3.184934412665D+02 EE= 6.582955438445D+01
 Annihilation of the first spin contaminant:
 S**2 before annihilation     0.7575,   after     0.7500
 Leave Link  502 at Sat Oct 10 18:11:48 2020, MaxMem=  2684354560 cpu:               7.4 elap:               0.7
 (Enter /udrive/faculty/rpeverati/g16/g16/l508.exe)
 QCSCF skips out because SCF is already converged.
 Leave Link  508 at Sat Oct 10 18:11:48 2020, MaxMem=  2684354560 cpu:               0.1 elap:               0.0
 (Enter /udrive/faculty/rpeverati/g16/g16/l701.exe)
 ... and contract with generalized density number  0.
 Compute integral first derivatives.
 Leave Link  701 at Sat Oct 10 18:11:49 2020, MaxMem=  2684354560 cpu:               2.5 elap:               0.3
 (Enter /udrive/faculty/rpeverati/g16/g16/l702.exe)
 L702 exits ... SP integral derivatives will be done elsewhere.
 Leave Link  702 at Sat Oct 10 18:11:49 2020, MaxMem=  2684354560 cpu:               0.4 elap:               0.1
 (Enter /udrive/faculty/rpeverati/g16/g16/l703.exe)
 Integral derivatives from FoFJK, PRISM(SPDF).
 Compute integral first derivatives, UseDBF=F ICtDFT=           0.
 Calling FoFJK, ICntrl=      2527 FMM=F ISym2X=1 I1Cent= 0 IOpClX= 0 NMat=1 NMatS=1 NMatT=0.
 FoFJK:  IHMeth= 1 ICntrl=    2527 DoSepK=F KAlg= 0 I1Cent=           0 FoldK=F
 IRaf=         0 NMat=       1 IRICut=       1 DoRegI=T DoRafI=F ISym2E= 1 IDoP0=0 IntGTp=1.
 FoFCou: FMM=F IPFlag=           0 FMFlag=      100000 FMFlg1=         800
         NFxFlg=           0 DoJE=F BraDBF=F KetDBF=F FulRan=T
         wScrn=  0.000000 ICntrl=      2527 IOpCl=  0 I1Cent=           0 NGrid=           0
         NMat0=    1 NMatS0=      1 NMatT0=    0 NMatD0=    1 NMtDS0=    0 NMtDT0=    0
 Petite list used in FoFCou.
 Leave Link  703 at Sat Oct 10 18:11:49 2020, MaxMem=  2684354560 cpu:               4.5 elap:               0.4
 (Enter /udrive/faculty/rpeverati/g16/g16/l716.exe)
 Dipole        =-1.31564752D-03-1.61039349D-02 0.00000000D+00
 ***** Axes restored to original set *****
 -------------------------------------------------------------------
 Center     Atomic                   Forces (Hartrees/Bohr)
 Number     Number              X              Y              Z
 -------------------------------------------------------------------
      1        1           0.010269799   -0.004398878   -0.000000000
      2        6          -0.011556054    0.057542087   -0.000000000
      3        8           0.001286255   -0.053143209   -0.000000000
 -------------------------------------------------------------------
 Cartesian Forces:  Max     0.057542087 RMS     0.026656890
 Leave Link  716 at Sat Oct 10 18:11:49 2020, MaxMem=  2684354560 cpu:               0.3 elap:               0.1
 (Enter /udrive/faculty/rpeverati/g16/g16/l103.exe)

 GradGradGradGradGradGradGradGradGradGradGradGradGradGradGradGradGradGrad
 Berny optimization.
 Optmz: redundant internal coordinate code flag= 1
 Red2BG:  D1=  5.02D-01 OD1=  4.40D-04 B2RMS=  0.00D+00 IAprox=0
 FormGI is forming the generalized inverse of G from B-inverse, IUseBI=4.
 Internal  Forces:  Max     0.053143344 RMS     0.031389338
 Search for a saddle point.
 Step number   1 out of a maximum of  100
 All quantities printed in internal units (Hartrees-Bohrs-Radians)
 Swapping is turned off.
 Second derivative matrix not updated -- first step.
 The second derivative matrix:
                          R1        R2        A1
           R1          -0.02489
           R2           0.03284   1.45710
           A1           0.00628  -0.00000   0.16000
 ITU=  0
 Eigenvectors of the second derivative matrix:
                           1         2         3
     Eigenvalues --    -0.02583   0.16021   1.45782
   1         R1         0.99919  -0.03374   0.02214
   2         R2        -0.02213   0.00085   0.99975
   3         A1        -0.03375  -0.99943   0.00011
 RLam0= 4.90D-03.
 Iter=   1 RLamda= 0.00000000D+00 Sum=-1.93922279D-03.
 Iter=   2 RLamda=-1.93922279D-03 Sum=-1.93630103D-03.
 Iter=   3 RLamda=-1.93630103D-03 Sum=-1.93630542D-03.
 RFO step:  Lambda0=4.901619172D-03 Lambda=-1.93630103D-03.
 Linear search not attempted -- option 19 set.
 Maximum step size (   0.100) exceeded in Quadratic search.
    -- Step size scaled by   0.249
 Iteration  1 RMS(Cart)=  0.04706043 RMS(Int)=  0.00006231
 Iteration  2 RMS(Cart)=  0.00008048 RMS(Int)=  0.00000000
 Iteration  3 RMS(Cart)=  0.00000000 RMS(Int)=  0.00000000
 ITry= 1 IFail=0 DXMaxC= 5.16D-02 DCOld= 1.00D+10 DXMaxT= 1.00D-01 DXLimC= 3.00D+00 Rises=F
 ClnCor:  largest displacement from symmetrization is 4.44D-16 for atom     1.
 Variable       Old X    -DE/DX   Delta X   Delta X   Delta X     New X
                                 (Linear)    (Quad)   (Total)
    R1        3.46394  -0.01102   0.00000   0.09977   0.09977   3.56371
    R2        2.14471   0.05298   0.00000   0.00679   0.00679   2.15150
    A1        2.04652   0.00270   0.00000   0.00015   0.00015   2.04667
         Item               Value     Threshold  Converged?
 Maximum Force            0.052979     0.000450     NO 
 RMS     Force            0.031281     0.000300     NO 
 Maximum Displacement     0.051648     0.001800     NO 
 RMS     Displacement     0.047093     0.001200     NO 
 Predicted change in Energy= 6.711597D-04
 Lowest energy point so far.  Saving SCF results.
 Largest change from initial coordinates is atom    1       0.018 Angstoms.
 GradGradGradGradGradGradGradGradGradGradGradGradGradGradGradGradGradGrad

 Leave Link  103 at Sat Oct 10 18:11:49 2020, MaxMem=  2684354560 cpu:               0.3 elap:               0.1
 (Enter /udrive/faculty/rpeverati/g16/g16/l202.exe)
                          Input orientation:                          
 ---------------------------------------------------------------------
 Center     Atomic      Atomic             Coordinates (Angstroms)
 Number     Number       Type             X           Y           Z
 ---------------------------------------------------------------------
      1          1           0       -1.548197    1.410825    0.000000
      2          6           0        0.124601    0.540124    0.000000
      3          8           0        0.119997   -0.598394    0.000000
 ---------------------------------------------------------------------
                    Distance matrix (angstroms):
                    1          2          3
     1  H    0.000000
     2  C    1.885834   0.000000
     3  O    2.611480   1.138527   0.000000
 Stoichiometry    CHO(2)
 Framework group  CS[SG(CHO)]
 Deg. of freedom     3
 Full point group                 CS      NOp   2
 RotChk:  IX=0 Diff= 6.06D-03
 Largest Abelian subgroup         CS      NOp   2
 Largest concise Abelian subgroup C1      NOp   1
                         Standard orientation:                         
 ---------------------------------------------------------------------
 Center     Atomic      Atomic             Coordinates (Angstroms)
 Number     Number       Type             X           Y           Z
 ---------------------------------------------------------------------
      1          1           0       -1.564551    1.413549    0.000000
      2          6           0        0.111754    0.549619    0.000000
      3          8           0        0.111754   -0.588908    0.000000
 ---------------------------------------------------------------------
 Rotational constants (GHZ):         245.2976293          42.8587269          36.4841652
 Leave Link  202 at Sat Oct 10 18:11:49 2020, MaxMem=  2684354560 cpu:               0.2 elap:               0.1
 (Enter /udrive/faculty/rpeverati/g16/g16/l301.exe)
 Standard basis: 6-31G(d) (5D, 7F)
 Ernie: Thresh=  0.10000D-02 Tol=  0.10000D-05 Strict=F.
 There are    24 symmetry adapted cartesian basis functions of A'  symmetry.
 There are     8 symmetry adapted cartesian basis functions of A"  symmetry.
 There are    22 symmetry adapted basis functions of A'  symmetry.
 There are     8 symmetry adapted basis functions of A"  symmetry.
    30 basis functions,    60 primitive gaussians,    32 cartesian basis functions
     8 alpha electrons        7 beta electrons
       nuclear repulsion energy        25.6146917142 Hartrees.
 IExCor=  402 DFT=T Ex=B Corr=LYP ExCW=0 ScaHFX=  0.000000
 ScaDFX=  1.000000  1.000000  1.000000  1.000000 ScalE2=  1.000000  1.000000
 IRadAn=      5 IRanWt=     -1 IRanGd=            0 ICorTp=0 IEmpDi=  4
 NAtoms=    3 NActive=    3 NUniq=    3 SFac= 1.00D+00 NAtFMM=   60 NAOKFM=F Big=F
 Integral buffers will be    131072 words long.
 Raffenetti 2 integral format.
 Two-electron integral symmetry is turned on.
 Leave Link  301 at Sat Oct 10 18:11:50 2020, MaxMem=  2684354560 cpu:               0.8 elap:               0.1
 (Enter /udrive/faculty/rpeverati/g16/g16/l302.exe)
 NPDir=0 NMtPBC=     1 NCelOv=     1 NCel=       1 NClECP=     1 NCelD=      1
         NCelK=      1 NCelE2=     1 NClLst=     1 CellRange=     0.0.
 One-electron integrals computed using PRISM.
 One-electron integral symmetry used in STVInt
 NBasis=    30 RedAO= T EigKep=  1.54D-02  NBF=    22     8
 NBsUse=    30 1.00D-06 EigRej= -1.00D+00 NBFU=    22     8
 Precomputing XC quadrature grid using
 IXCGrd= 4 IRadAn=           5 IRanWt=          -1 IRanGd=           0 AccXCQ= 0.00D+00.
 Generated NRdTot=       0 NPtTot=           0 NUsed=           0 NTot=          32
 NSgBfM=    32    32    32    32    32 MxSgAt=     3 MxSgA2=     3.
 Leave Link  302 at Sat Oct 10 18:11:50 2020, MaxMem=  2684354560 cpu:               2.5 elap:               0.3
 (Enter /udrive/faculty/rpeverati/g16/g16/l303.exe)
 DipDrv:  MaxL=1.
 Leave Link  303 at Sat Oct 10 18:11:50 2020, MaxMem=  2684354560 cpu:               0.3 elap:               0.1
 (Enter /udrive/faculty/rpeverati/g16/g16/l401.exe)
 Initial guess from the checkpoint file:  "MN_51_hcots_BH76_BLYP_631Gs.chk"
 SCF N**3 symmetry information disabled.
 B after Tr=    -0.000000   -0.000000    0.000000
         Rot=    0.999999    0.000000    0.000000   -0.001441 Ang=  -0.17 deg.
 Guess basis will be translated and rotated to current coordinates.
 JPrj=2 DoOrth=T DoCkMO=T.
 Initial guess orbital symmetries:
 Alpha Orbitals:
       Occupied  (A') (A') (A') (A') (A') (A") (A') (A')
       Virtual   (A") (A') (A') (A") (A') (A') (A') (A') (A') (A")
                 (A') (A") (A') (A') (A") (A') (A") (A') (A') (A")
                 (A') (A')
 Beta  Orbitals:
       Occupied  (A') (A') (A') (A') (A") (A') (A')
       Virtual   (A') (A") (A') (A') (A") (A') (A') (A') (A') (A')
                 (A") (A') (A") (A') (A') (A") (A') (A") (A') (A')
                 (A") (A') (A')
 The electronic state of the initial guess is 2-A'.
 Initial guess <Sx>= 0.0000 <Sy>= 0.0000 <Sz>= 0.5000 <S**2>= 0.7577 S= 0.5038
 Generating alternative initial guess.
 ExpMin= 1.61D-01 ExpMax= 5.48D+03 ExpMxC= 8.25D+02 IAcc=2 IRadAn=         4 AccDes= 0.00D+00
 Harris functional with IExCor=  402 and IRadAn=       4 diagonalized for initial guess.
 HarFok:  IExCor=  402 AccDes= 0.00D+00 IRadAn=         4 IDoV= 1 UseB2=F ITyADJ=14
 ICtDFT=  3500011 ScaDFX=  1.000000  1.000000  1.000000  1.000000
 FoFCou: FMM=F IPFlag=           0 FMFlag=      100000 FMFlg1=           0
         NFxFlg=           0 DoJE=T BraDBF=F KetDBF=T FulRan=T
         wScrn=  0.000000 ICntrl=       500 IOpCl=  0 I1Cent=   200000004 NGrid=           0
         NMat0=    1 NMatS0=      1 NMatT0=    0 NMatD0=    1 NMtDS0=    0 NMtDT0=    0
 Petite list used in FoFCou.
 Harris En= -113.768396406609    
 Leave Link  401 at Sat Oct 10 18:11:50 2020, MaxMem=  2684354560 cpu:               4.7 elap:               0.4
 (Enter /udrive/faculty/rpeverati/g16/g16/l502.exe)
 Keep J ints in memory in symmetry-blocked form, NReq=10459184.
 FoFCou: FMM=F IPFlag=           0 FMFlag=           0 FMFlg1=           0
         NFxFlg=           0 DoJE=F BraDBF=F KetDBF=F FulRan=T
         wScrn=  0.000000 ICntrl=       600 IOpCl=  0 I1Cent=           0 NGrid=           0
         NMat0=    1 NMatS0=    465 NMatT0=    0 NMatD0=    1 NMtDS0=    0 NMtDT0=    0
 Petite list used in FoFCou.
 UHF open shell SCF:
 Using DIIS extrapolation, IDIIS=  1040.
 NGot=  2684354560 LenX=  2684292770 LenY=  2684291305
 Requested convergence on RMS density matrix=1.00D-08 within 120 cycles.
 Requested convergence on MAX density matrix=1.00D-06.
 Requested convergence on             energy=1.00D-06.
 No special actions if energy rises.
 Integral accuracy reduced to 1.0D-05 until final iterations.

 Cycle   1  Pass 0  IDiag  1:
 E= -113.788858025245    
 DIIS: error= 1.35D-03 at cycle   1 NSaved=   1.
 NSaved= 1 IEnMin= 1 EnMin= -113.788858025245     IErMin= 1 ErrMin= 1.35D-03
 ErrMax= 1.35D-03  0.00D+00 EMaxC= 1.00D-01 BMatC= 2.37D-04 BMatP= 2.37D-04
 IDIUse=3 WtCom= 9.86D-01 WtEn= 1.35D-02
 Coeff-Com:  0.100D+01
 Coeff-En:   0.100D+01
 Coeff:      0.100D+01
 Gap=     0.160 Goal=   None    Shift=    0.000
 Gap=     0.196 Goal=   None    Shift=    0.000
 GapD=    0.160 DampG=1.000 DampE=1.000 DampFc=1.0000 IDamp=-1.
 RMSDP=7.83D-04 MaxDP=7.66D-03              OVMax= 1.86D-02

 Cycle   2  Pass 0  IDiag  1:
 E= -113.789069814168     Delta-E=       -0.000211788923 Rises=F Damp=F
 DIIS: error= 5.19D-04 at cycle   2 NSaved=   2.
 NSaved= 2 IEnMin= 2 EnMin= -113.789069814168     IErMin= 2 ErrMin= 5.19D-04
 ErrMax= 5.19D-04  0.00D+00 EMaxC= 1.00D-01 BMatC= 3.44D-05 BMatP= 2.37D-04
 IDIUse=3 WtCom= 9.95D-01 WtEn= 5.19D-03
 Coeff-Com:  0.143D+00 0.857D+00
 Coeff-En:   0.000D+00 0.100D+01
 Coeff:      0.142D+00 0.858D+00
 Gap=     0.160 Goal=   None    Shift=    0.000
 Gap=     0.198 Goal=   None    Shift=    0.000
 RMSDP=2.19D-04 MaxDP=1.99D-03 DE=-2.12D-04 OVMax= 5.75D-03

 Cycle   3  Pass 0  IDiag  1:
 E= -113.789058992118     Delta-E=        0.000010822051 Rises=F Damp=F
 DIIS: error= 1.34D-03 at cycle   3 NSaved=   3.
 NSaved= 3 IEnMin= 2 EnMin= -113.789069814168     IErMin= 2 ErrMin= 5.19D-04
 ErrMax= 1.34D-03  0.00D+00 EMaxC= 1.00D-01 BMatC= 1.29D-04 BMatP= 3.44D-05
 IDIUse=3 WtCom= 2.15D-01 WtEn= 7.85D-01
 Coeff-Com:  0.376D-02 0.679D+00 0.317D+00
 Coeff-En:   0.000D+00 0.632D+00 0.368D+00
 Coeff:      0.807D-03 0.642D+00 0.357D+00
 Gap=     0.160 Goal=   None    Shift=    0.000
 Gap=     0.198 Goal=   None    Shift=    0.000
 RMSDP=1.46D-04 MaxDP=1.82D-03 DE= 1.08D-05 OVMax= 2.56D-03

 Cycle   4  Pass 0  IDiag  1:
 E= -113.789082457740     Delta-E=       -0.000023465623 Rises=F Damp=F
 DIIS: error= 4.35D-04 at cycle   4 NSaved=   4.
 NSaved= 4 IEnMin= 4 EnMin= -113.789082457740     IErMin= 4 ErrMin= 4.35D-04
 ErrMax= 4.35D-04  0.00D+00 EMaxC= 1.00D-01 BMatC= 2.01D-05 BMatP= 3.44D-05
 IDIUse=3 WtCom= 9.96D-01 WtEn= 4.35D-03
 Coeff-Com: -0.301D-01 0.265D+00 0.277D+00 0.489D+00
 Coeff-En:   0.000D+00 0.000D+00 0.160D+00 0.840D+00
 Coeff:     -0.300D-01 0.264D+00 0.276D+00 0.490D+00
 Gap=     0.160 Goal=   None    Shift=    0.000
 Gap=     0.198 Goal=   None    Shift=    0.000
 RMSDP=6.25D-05 MaxDP=7.05D-04 DE=-2.35D-05 OVMax= 1.33D-03

 Cycle   5  Pass 0  IDiag  1:
 E= -113.789086573366     Delta-E=       -0.000004115626 Rises=F Damp=F
 DIIS: error= 5.69D-05 at cycle   5 NSaved=   5.
 NSaved= 5 IEnMin= 5 EnMin= -113.789086573366     IErMin= 5 ErrMin= 5.69D-05
 ErrMax= 5.69D-05  0.00D+00 EMaxC= 1.00D-01 BMatC= 4.11D-07 BMatP= 2.01D-05
 IDIUse=1 WtCom= 1.00D+00 WtEn= 0.00D+00
 Coeff-Com: -0.663D-02-0.415D-01 0.862D-02 0.136D+00 0.904D+00
 Coeff:     -0.663D-02-0.415D-01 0.862D-02 0.136D+00 0.904D+00
 Gap=     0.160 Goal=   None    Shift=    0.000
 Gap=     0.198 Goal=   None    Shift=    0.000
 RMSDP=2.13D-05 MaxDP=1.88D-04 DE=-4.12D-06 OVMax= 7.91D-04

 Cycle   6  Pass 0  IDiag  1:
 E= -113.789086736680     Delta-E=       -0.000000163313 Rises=F Damp=F
 DIIS: error= 2.68D-05 at cycle   6 NSaved=   6.
 NSaved= 6 IEnMin= 6 EnMin= -113.789086736680     IErMin= 6 ErrMin= 2.68D-05
 ErrMax= 2.68D-05  0.00D+00 EMaxC= 1.00D-01 BMatC= 8.88D-08 BMatP= 4.11D-07
 IDIUse=1 WtCom= 1.00D+00 WtEn= 0.00D+00
 Coeff-Com:  0.768D-03-0.448D-01-0.273D-01 0.168D-01 0.429D+00 0.625D+00
 Coeff:      0.768D-03-0.448D-01-0.273D-01 0.168D-01 0.429D+00 0.625D+00
 Gap=     0.160 Goal=   None    Shift=    0.000
 Gap=     0.198 Goal=   None    Shift=    0.000
 RMSDP=9.40D-06 MaxDP=1.07D-04 DE=-1.63D-07 OVMax= 2.28D-04

 Initial convergence to 1.0D-05 achieved.  Increase integral accuracy.
 Cycle   7  Pass 1  IDiag  1:
 E= -113.789086305181     Delta-E=        0.000000431499 Rises=F Damp=F
 DIIS: error= 4.11D-06 at cycle   1 NSaved=   1.
 NSaved= 1 IEnMin= 1 EnMin= -113.789086305181     IErMin= 1 ErrMin= 4.11D-06
 ErrMax= 4.11D-06  0.00D+00 EMaxC= 1.00D-01 BMatC= 2.21D-09 BMatP= 2.21D-09
 IDIUse=1 WtCom= 1.00D+00 WtEn= 0.00D+00
 Coeff-Com:  0.100D+01
 Coeff:      0.100D+01
 Gap=     0.160 Goal=   None    Shift=    0.000
 Gap=     0.198 Goal=   None    Shift=    0.000
 RMSDP=9.40D-06 MaxDP=1.07D-04 DE= 4.31D-07 OVMax= 3.05D-05

 Cycle   8  Pass 1  IDiag  1:
 E= -113.789086303737     Delta-E=        0.000000001444 Rises=F Damp=F
 DIIS: error= 1.13D-05 at cycle   2 NSaved=   2.
 NSaved= 2 IEnMin= 1 EnMin= -113.789086305181     IErMin= 1 ErrMin= 4.11D-06
 ErrMax= 1.13D-05  0.00D+00 EMaxC= 1.00D-01 BMatC= 1.08D-08 BMatP= 2.21D-09
 IDIUse=1 WtCom= 1.00D+00 WtEn= 0.00D+00
 Coeff-Com:  0.711D+00 0.289D+00
 Coeff:      0.711D+00 0.289D+00
 Gap=     0.160 Goal=   None    Shift=    0.000
 Gap=     0.198 Goal=   None    Shift=    0.000
 RMSDP=1.20D-06 MaxDP=1.35D-05 DE= 1.44D-09 OVMax= 2.14D-05

 Cycle   9  Pass 1  IDiag  1:
 E= -113.789086305812     Delta-E=       -0.000000002075 Rises=F Damp=F
 DIIS: error= 2.91D-06 at cycle   3 NSaved=   3.
 NSaved= 3 IEnMin= 3 EnMin= -113.789086305812     IErMin= 3 ErrMin= 2.91D-06
 ErrMax= 2.91D-06  0.00D+00 EMaxC= 1.00D-01 BMatC= 6.75D-10 BMatP= 2.21D-09
 IDIUse=1 WtCom= 1.00D+00 WtEn= 0.00D+00
 Coeff-Com:  0.246D+00 0.198D+00 0.556D+00
 Coeff:      0.246D+00 0.198D+00 0.556D+00
 Gap=     0.160 Goal=   None    Shift=    0.000
 Gap=     0.198 Goal=   None    Shift=    0.000
 RMSDP=4.32D-07 MaxDP=4.29D-06 DE=-2.08D-09 OVMax= 7.70D-06

 Cycle  10  Pass 1  IDiag  1:
 E= -113.789086305953     Delta-E=       -0.000000000141 Rises=F Damp=F
 DIIS: error= 5.02D-07 at cycle   4 NSaved=   4.
 NSaved= 4 IEnMin= 4 EnMin= -113.789086305953     IErMin= 4 ErrMin= 5.02D-07
 ErrMax= 5.02D-07  0.00D+00 EMaxC= 1.00D-01 BMatC= 3.85D-11 BMatP= 6.75D-10
 IDIUse=1 WtCom= 1.00D+00 WtEn= 0.00D+00
 Coeff-Com: -0.410D-01 0.277D-01 0.207D+00 0.806D+00
 Coeff:     -0.410D-01 0.277D-01 0.207D+00 0.806D+00
 Gap=     0.160 Goal=   None    Shift=    0.000
 Gap=     0.198 Goal=   None    Shift=    0.000
 RMSDP=2.01D-07 MaxDP=1.97D-06 DE=-1.41D-10 OVMax= 5.76D-06

 Cycle  11  Pass 1  IDiag  1:
 E= -113.789086305971     Delta-E=       -0.000000000018 Rises=F Damp=F
 DIIS: error= 2.58D-07 at cycle   5 NSaved=   5.
 NSaved= 5 IEnMin= 5 EnMin= -113.789086305971     IErMin= 5 ErrMin= 2.58D-07
 ErrMax= 2.58D-07  0.00D+00 EMaxC= 1.00D-01 BMatC= 7.33D-12 BMatP= 3.85D-11
 IDIUse=1 WtCom= 1.00D+00 WtEn= 0.00D+00
 Coeff-Com: -0.564D-01-0.145D-01-0.192D-01 0.325D+00 0.765D+00
 Coeff:     -0.564D-01-0.145D-01-0.192D-01 0.325D+00 0.765D+00
 Gap=     0.160 Goal=   None    Shift=    0.000
 Gap=     0.198 Goal=   None    Shift=    0.000
 RMSDP=7.90D-08 MaxDP=1.23D-06 DE=-1.78D-11 OVMax= 1.38D-06

 Cycle  12  Pass 1  IDiag  1:
 E= -113.789086305973     Delta-E=       -0.000000000003 Rises=F Damp=F
 DIIS: error= 3.24D-08 at cycle   6 NSaved=   6.
 NSaved= 6 IEnMin= 6 EnMin= -113.789086305973     IErMin= 6 ErrMin= 3.24D-08
 ErrMax= 3.24D-08  0.00D+00 EMaxC= 1.00D-01 BMatC= 1.79D-13 BMatP= 7.33D-12
 IDIUse=1 WtCom= 1.00D+00 WtEn= 0.00D+00
 Coeff-Com: -0.140D-01-0.579D-02-0.182D-01 0.439D-01 0.212D+00 0.782D+00
 Coeff:     -0.140D-01-0.579D-02-0.182D-01 0.439D-01 0.212D+00 0.782D+00
 Gap=     0.160 Goal=   None    Shift=    0.000
 Gap=     0.198 Goal=   None    Shift=    0.000
 RMSDP=1.12D-08 MaxDP=1.06D-07 DE=-2.76D-12 OVMax= 2.50D-07

 Cycle  13  Pass 1  IDiag  1:
 E= -113.789086305973     Delta-E=        0.000000000000 Rises=F Damp=F
 DIIS: error= 7.67D-09 at cycle   7 NSaved=   7.
 NSaved= 7 IEnMin= 6 EnMin= -113.789086305973     IErMin= 7 ErrMin= 7.67D-09
 ErrMax= 7.67D-09  0.00D+00 EMaxC= 1.00D-01 BMatC= 1.05D-14 BMatP= 1.79D-13
 IDIUse=1 WtCom= 1.00D+00 WtEn= 0.00D+00
 Coeff-Com:  0.166D-02 0.909D-04-0.132D-02-0.152D-01-0.240D-01 0.159D+00
 Coeff-Com:  0.880D+00
 Coeff:      0.166D-02 0.909D-04-0.132D-02-0.152D-01-0.240D-01 0.159D+00
 Coeff:      0.880D+00
 Gap=     0.160 Goal=   None    Shift=    0.000
 Gap=     0.198 Goal=   None    Shift=    0.000
 RMSDP=2.76D-09 MaxDP=3.26D-08 DE= 1.42D-13 OVMax= 6.38D-08

 SCF Done:  E(UB-LYP) =  -113.789086306     A.U. after   13 cycles
            NFock= 13  Conv=0.28D-08     -V/T= 2.0062
 <Sx>= 0.0000 <Sy>= 0.0000 <Sz>= 0.5000 <S**2>= 0.7569 S= 0.5035
 <L.S>= 0.000000000000E+00
 KE= 1.130867932505D+02 PE=-3.181714246198D+02 EE= 6.568085334919D+01
 Annihilation of the first spin contaminant:
 S**2 before annihilation     0.7569,   after     0.7500
 Leave Link  502 at Sat Oct 10 18:11:51 2020, MaxMem=  2684354560 cpu:               8.0 elap:               0.7
 (Enter /udrive/faculty/rpeverati/g16/g16/l508.exe)
 QCSCF skips out because SCF is already converged.
 Leave Link  508 at Sat Oct 10 18:11:51 2020, MaxMem=  2684354560 cpu:               0.1 elap:               0.0
 (Enter /udrive/faculty/rpeverati/g16/g16/l701.exe)
 ... and contract with generalized density number  0.
 Compute integral first derivatives.
 Leave Link  701 at Sat Oct 10 18:11:52 2020, MaxMem=  2684354560 cpu:               2.6 elap:               0.3
 (Enter /udrive/faculty/rpeverati/g16/g16/l702.exe)
 L702 exits ... SP integral derivatives will be done elsewhere.
 Leave Link  702 at Sat Oct 10 18:11:52 2020, MaxMem=  2684354560 cpu:               0.3 elap:               0.1
 (Enter /udrive/faculty/rpeverati/g16/g16/l703.exe)
 Integral derivatives from FoFJK, PRISM(SPDF).
 Compute integral first derivatives, UseDBF=F ICtDFT=           0.
 Calling FoFJK, ICntrl=      2527 FMM=F ISym2X=1 I1Cent= 0 IOpClX= 0 NMat=1 NMatS=1 NMatT=0.
 FoFJK:  IHMeth= 1 ICntrl=    2527 DoSepK=F KAlg= 0 I1Cent=           0 FoldK=F
 IRaf=         0 NMat=       1 IRICut=       1 DoRegI=T DoRafI=F ISym2E= 1 IDoP0=0 IntGTp=1.
 FoFCou: FMM=F IPFlag=           0 FMFlag=      100000 FMFlg1=         800
         NFxFlg=           0 DoJE=F BraDBF=F KetDBF=F FulRan=T
         wScrn=  0.000000 ICntrl=      2527 IOpCl=  0 I1Cent=           0 NGrid=           0
         NMat0=    1 NMatS0=      1 NMatT0=    0 NMatD0=    1 NMtDS0=    0 NMtDT0=    0
 Petite list used in FoFCou.
 Leave Link  703 at Sat Oct 10 18:11:52 2020, MaxMem=  2684354560 cpu:               4.5 elap:               0.4
 (Enter /udrive/faculty/rpeverati/g16/g16/l716.exe)
 Dipole        = 3.18097279D-03-2.35602979D-02 0.00000000D+00
 ***** Axes restored to original set *****
 -------------------------------------------------------------------
 Center     Atomic                   Forces (Hartrees/Bohr)
 Number     Number              X              Y              Z
 -------------------------------------------------------------------
      1        1           0.008171873   -0.003599958   -0.000000000
      2        6          -0.008963871    0.045024021   -0.000000000
      3        8           0.000791998   -0.041424063   -0.000000000
 -------------------------------------------------------------------
 Cartesian Forces:  Max     0.045024021 RMS     0.020826887
 Leave Link  716 at Sat Oct 10 18:11:52 2020, MaxMem=  2684354560 cpu:               0.3 elap:               0.1
 (Enter /udrive/faculty/rpeverati/g16/g16/l103.exe)

 GradGradGradGradGradGradGradGradGradGradGradGradGradGradGradGradGradGrad
 Berny optimization.
 Optmz: redundant internal coordinate code flag= 1
 Red2BG:  D1=  4.93D-01 OD1=  1.06D-02 B2RMS=  0.00D+00 IAprox=0
 FormGI is forming the generalized inverse of G from B-inverse, IUseBI=4.
 Internal  Forces:  Max     0.041420401 RMS     0.024490237
 Search for a saddle point.
 Step number   2 out of a maximum of  100
 All quantities printed in internal units (Hartrees-Bohrs-Radians)
 Swapping is turned off.
 Update second derivatives using D2CorX and points    1    2
 The second derivative matrix:
                          R1        R2        A1
           R1          -0.02229
           R2           0.01675   1.45530
           A1           0.00614  -0.00003   0.16000
 ITU=  0  0
 Eigenvectors of the second derivative matrix:
                           1         2         3
     Eigenvalues --    -0.02268   0.16021   1.45549
   1         R1         0.99937  -0.03358   0.01133
   2         R2        -0.01133   0.00041   0.99994
   3         A1        -0.03359  -0.99944   0.00003
 RLam0= 3.42D-03.
 Iter=   1 RLamda= 0.00000000D+00 Sum=-1.19191524D-03.
 Iter=   2 RLamda=-1.19191524D-03 Sum=-1.19081481D-03.
 Iter=   3 RLamda=-1.19081481D-03 Sum=-1.19081582D-03.
 RFO step:  Lambda0=3.416898680D-03 Lambda=-1.19081481D-03.
 Linear search not attempted -- option 19 set.
 Maximum step size (   0.100) exceeded in Quadratic search.
    -- Step size scaled by   0.275
 Iteration  1 RMS(Cart)=  0.04691312 RMS(Int)=  0.00005541
 Iteration  2 RMS(Cart)=  0.00007160 RMS(Int)=  0.00000000
 Iteration  3 RMS(Cart)=  0.00000000 RMS(Int)=  0.00000000
 ITry= 1 IFail=0 DXMaxC= 5.16D-02 DCOld= 1.00D+10 DXMaxT= 1.00D-01 DXLimC= 3.00D+00 Rises=F
 ClnCor:  largest displacement from symmetrization is 2.24D-16 for atom     3.
 Variable       Old X    -DE/DX   Delta X   Delta X   Delta X     New X
                                 (Linear)    (Quad)   (Total)
    R1        3.56371  -0.00891   0.00000   0.09978   0.09978   3.66349
    R2        2.15150   0.04142   0.00000   0.00668   0.00668   2.15819
    A1        2.04667   0.00206   0.00000  -0.00037  -0.00037   2.04630
         Item               Value     Threshold  Converged?
 Maximum Force            0.041420     0.000450     NO 
 RMS     Force            0.024490     0.000300     NO 
 Maximum Displacement     0.051551     0.001800     NO 
 RMS     Displacement     0.046942     0.001200     NO 
 Predicted change in Energy= 5.455914D-04
 Largest change from initial coordinates is atom    1       0.021 Angstoms.
 GradGradGradGradGradGradGradGradGradGradGradGradGradGradGradGradGradGrad

 Leave Link  103 at Sat Oct 10 18:11:52 2020, MaxMem=  2684354560 cpu:               0.2 elap:               0.1
 (Enter /udrive/faculty/rpeverati/g16/g16/l202.exe)
                          Input orientation:                          
 ---------------------------------------------------------------------
 Center     Atomic      Atomic             Coordinates (Angstroms)
 Number     Number       Type             X           Y           Z
 ---------------------------------------------------------------------
      1          1           0       -1.575476    1.432687    0.000000
      2          6           0        0.140671    0.530946    0.000000
      3          8           0        0.131205   -0.611077    0.000000
 ---------------------------------------------------------------------
                    Distance matrix (angstroms):
                    1          2          3
     1  H    0.000000
     2  C    1.938633   0.000000
     3  O    2.662656   1.142063   0.000000
 Stoichiometry    CHO(2)
 Framework group  CS[SG(CHO)]
 Deg. of freedom     3
 Full point group                 CS      NOp   2
 RotChk:  IX=0 Diff= 6.00D-03
 Largest Abelian subgroup         CS      NOp   2
 Largest concise Abelian subgroup C1      NOp   1
                         Standard orientation:                         
 ---------------------------------------------------------------------
 Center     Atomic      Atomic             Coordinates (Angstroms)
 Number     Number       Type             X           Y           Z
 ---------------------------------------------------------------------
      1          1           0       -1.608658    1.437420    0.000000
      2          6           0        0.114904    0.549934    0.000000
      3          8           0        0.114904   -0.592128    0.000000
 ---------------------------------------------------------------------
 Rotational constants (GHZ):         234.3351604          42.1748713          35.7421218
 Leave Link  202 at Sat Oct 10 18:11:52 2020, MaxMem=  2684354560 cpu:               0.2 elap:               0.1
 (Enter /udrive/faculty/rpeverati/g16/g16/l301.exe)
 Standard basis: 6-31G(d) (5D, 7F)
 Ernie: Thresh=  0.10000D-02 Tol=  0.10000D-05 Strict=F.
 There are    24 symmetry adapted cartesian basis functions of A'  symmetry.
 There are     8 symmetry adapted cartesian basis functions of A"  symmetry.
 There are    22 symmetry adapted basis functions of A'  symmetry.
 There are     8 symmetry adapted basis functions of A"  symmetry.
    30 basis functions,    60 primitive gaussians,    32 cartesian basis functions
     8 alpha electrons        7 beta electrons
       nuclear repulsion energy        25.4686139159 Hartrees.
 IExCor=  402 DFT=T Ex=B Corr=LYP ExCW=0 ScaHFX=  0.000000
 ScaDFX=  1.000000  1.000000  1.000000  1.000000 ScalE2=  1.000000  1.000000
 IRadAn=      5 IRanWt=     -1 IRanGd=            0 ICorTp=0 IEmpDi=  4
 NAtoms=    3 NActive=    3 NUniq=    3 SFac= 1.00D+00 NAtFMM=   60 NAOKFM=F Big=F
 Integral buffers will be    131072 words long.
 Raffenetti 2 integral format.
 Two-electron integral symmetry is turned on.
 Leave Link  301 at Sat Oct 10 18:11:52 2020, MaxMem=  2684354560 cpu:               0.8 elap:               0.1
 (Enter /udrive/faculty/rpeverati/g16/g16/l302.exe)
 NPDir=0 NMtPBC=     1 NCelOv=     1 NCel=       1 NClECP=     1 NCelD=      1
         NCelK=      1 NCelE2=     1 NClLst=     1 CellRange=     0.0.
 One-electron integrals computed using PRISM.
 One-electron integral symmetry used in STVInt
 NBasis=    30 RedAO= T EigKep=  1.55D-02  NBF=    22     8
 NBsUse=    30 1.00D-06 EigRej= -1.00D+00 NBFU=    22     8
 Precomputing XC quadrature grid using
 IXCGrd= 4 IRadAn=           5 IRanWt=          -1 IRanGd=           0 AccXCQ= 0.00D+00.
 Generated NRdTot=       0 NPtTot=           0 NUsed=           0 NTot=          32
 NSgBfM=    32    32    32    32    32 MxSgAt=     3 MxSgA2=     3.
 Leave Link  302 at Sat Oct 10 18:11:53 2020, MaxMem=  2684354560 cpu:               2.5 elap:               0.3
 (Enter /udrive/faculty/rpeverati/g16/g16/l303.exe)
 DipDrv:  MaxL=1.
 Leave Link  303 at Sat Oct 10 18:11:53 2020, MaxMem=  2684354560 cpu:               0.4 elap:               0.1
 (Enter /udrive/faculty/rpeverati/g16/g16/l401.exe)
 Initial guess from the checkpoint file:  "MN_51_hcots_BH76_BLYP_631Gs.chk"
 SCF N**3 symmetry information disabled.
 B after Tr=     0.000000   -0.000000    0.000000
         Rot=    0.999999    0.000000    0.000000   -0.001435 Ang=  -0.16 deg.
 Guess basis will be translated and rotated to current coordinates.
 JPrj=2 DoOrth=T DoCkMO=T.
 Initial guess orbital symmetries:
 Alpha Orbitals:
       Occupied  (A') (A') (A') (A') (A') (A") (A') (A')
       Virtual   (A") (A') (A') (A") (A') (A') (A') (A') (A') (A")
                 (A') (A") (A') (A') (A') (A") (A") (A') (A') (A")
                 (A') (A')
 Beta  Orbitals:
       Occupied  (A') (A') (A') (A') (A") (A') (A')
       Virtual   (A') (A") (A') (A') (A") (A') (A') (A') (A') (A')
                 (A") (A') (A") (A') (A') (A") (A') (A") (A') (A')
                 (A") (A') (A')
 The electronic state of the initial guess is 2-A'.
 Initial guess <Sx>= 0.0000 <Sy>= 0.0000 <Sz>= 0.5000 <S**2>= 0.7571 S= 0.5035
 Generating alternative initial guess.
 ExpMin= 1.61D-01 ExpMax= 5.48D+03 ExpMxC= 8.25D+02 IAcc=2 IRadAn=         4 AccDes= 0.00D+00
 Harris functional with IExCor=  402 and IRadAn=       4 diagonalized for initial guess.
 HarFok:  IExCor=  402 AccDes= 0.00D+00 IRadAn=         4 IDoV= 1 UseB2=F ITyADJ=14
 ICtDFT=  3500011 ScaDFX=  1.000000  1.000000  1.000000  1.000000
 FoFCou: FMM=F IPFlag=           0 FMFlag=      100000 FMFlg1=           0
         NFxFlg=           0 DoJE=T BraDBF=F KetDBF=T FulRan=T
         wScrn=  0.000000 ICntrl=       500 IOpCl=  0 I1Cent=   200000004 NGrid=           0
         NMat0=    1 NMatS0=      1 NMatT0=    0 NMatD0=    1 NMtDS0=    0 NMtDT0=    0
 Petite list used in FoFCou.
 Harris En= -113.766391931087    
 Leave Link  401 at Sat Oct 10 18:11:53 2020, MaxMem=  2684354560 cpu:               4.6 elap:               0.4
 (Enter /udrive/faculty/rpeverati/g16/g16/l502.exe)
 Keep J ints in memory in symmetry-blocked form, NReq=10459184.
 FoFCou: FMM=F IPFlag=           0 FMFlag=           0 FMFlg1=           0
         NFxFlg=           0 DoJE=F BraDBF=F KetDBF=F FulRan=T
         wScrn=  0.000000 ICntrl=       600 IOpCl=  0 I1Cent=           0 NGrid=           0
         NMat0=    1 NMatS0=    465 NMatT0=    0 NMatD0=    1 NMtDS0=    0 NMtDT0=    0
 Petite list used in FoFCou.
 UHF open shell SCF:
[...]
 (Enter /udrive/faculty/rpeverati/g16/g16/l701.exe)
 ... and contract with generalized density number  0.
 Compute integral second derivatives.
 Leave Link  701 at Sat Oct 10 18:12:41 2020, MaxMem=  2684354560 cpu:               3.5 elap:               0.3
 (Enter /udrive/faculty/rpeverati/g16/g16/l702.exe)
 L702 exits ... SP integral derivatives will be done elsewhere.
 Leave Link  702 at Sat Oct 10 18:12:41 2020, MaxMem=  2684354560 cpu:               0.3 elap:               0.1
 (Enter /udrive/faculty/rpeverati/g16/g16/l703.exe)
 Integral derivatives from FoFJK, PRISM(SPDF).
 Compute integral second derivatives, UseDBF=F ICtDFT=           0.
 Calling FoFJK, ICntrl=    100527 FMM=F ISym2X=1 I1Cent= 0 IOpClX= 0 NMat=1 NMatS=1 NMatT=0.
 FoFJK:  IHMeth= 1 ICntrl=  100527 DoSepK=F KAlg= 0 I1Cent=           0 FoldK=F
 IRaf=         0 NMat=       1 IRICut=       1 DoRegI=T DoRafI=F ISym2E= 1 IDoP0=0 IntGTp=1.
 FoFCou: FMM=F IPFlag=           0 FMFlag=      100000 FMFlg1=         800
         NFxFlg=           0 DoJE=F BraDBF=F KetDBF=F FulRan=T
         wScrn=  0.000000 ICntrl=    100527 IOpCl=  0 I1Cent=           0 NGrid=           0
         NMat0=    1 NMatS0=      1 NMatT0=    0 NMatD0=    1 NMtDS0=    0 NMtDT0=    0
 Petite list used in FoFCou.
 Leave Link  703 at Sat Oct 10 18:12:42 2020, MaxMem=  2684354560 cpu:              13.0 elap:               1.1
 (Enter /udrive/faculty/rpeverati/g16/g16/l716.exe)
 Dipole        =-9.74223357D-03-4.81631700D-02-5.96364819D-33
 Polarizability= 1.25934321D+01-2.54284261D+00 1.43014646D+01
                -9.36409652D-13 3.85575661D-13 8.01441953D+00
 Full mass-weighted force constant matrix:
 Low frequencies ---  -14.0241   -7.5214    0.0007    0.0009    0.0016   12.7657
 Low frequencies ---   29.0584  104.3206 2101.3677
 Diagonal vibrational polarizability:
        2.7407278       0.9256823       0.0000000
 Harmonic frequencies (cm**-1), IR intensities (KM/Mole), Raman scattering
 activities (A**4/AMU), depolarization ratios for plane and unpolarized
 incident light, reduced masses (AMU), force constants (mDyne/A),
 and normal coordinates:
                      1                      2                      3
                     A'                     A'                     A'
 Frequencies --     29.0573               104.3075              2101.3677
 Red. masses --      1.0554                 1.8711                13.4376
 Frc consts  --      0.0005                 0.0120                34.9605
 IR Inten    --      0.0769                 0.3304                65.5458
  Atom  AN      X      Y      Z        X      Y      Z        X      Y      Z
     1   1     0.86  -0.51   0.00     0.39   0.88  -0.00    -0.01   0.01  -0.00
     2   6    -0.06   0.02  -0.00    -0.22  -0.03  -0.00     0.00   0.80  -0.00
     3   8    -0.01   0.02  -0.00     0.14  -0.03   0.00     0.00  -0.60   0.00

 -------------------
 - Thermochemistry -
 -------------------
 Temperature   298.150 Kelvin.  Pressure   1.00000 Atm.
 Atom     1 has atomic number  1 and mass   1.00783
 Atom     2 has atomic number  6 and mass  12.00000
 Atom     3 has atomic number  8 and mass  15.99491
 Molecular mass:    29.00274 amu.
 Principal axes and moments of inertia in atomic units:
                           1         2         3
     Eigenvalues --    12.42189  51.93084  64.35273
           X           -0.43510   0.90038   0.00000
           Y            0.90038   0.43510   0.00000
           Z            0.00000   0.00000   1.00000
 This molecule is an asymmetric top.
 Rotational symmetry number  1.
 Rotational temperatures (Kelvin)      6.97269     1.66787     1.34592
 Rotational constants (GHZ):         145.28722    34.75278    28.04452
 Zero-point vibrational energy      13366.7 (Joules/Mol)
                                    3.19471 (Kcal/Mol)
 Warning -- explicit consideration of   2 degrees of freedom as
           vibrations may cause significant error
 Vibrational temperatures:     41.81   150.08  3023.40
          (Kelvin)
 
 Zero-point correction=                           0.005091 (Hartree/Particle)
 Thermal correction to Energy=                    0.009530
 Thermal correction to Enthalpy=                  0.010474
 Thermal correction to Gibbs Free Energy=        -0.020429
 Sum of electronic and zero-point Energies=           -113.781395
 Sum of electronic and thermal Energies=              -113.776956
 Sum of electronic and thermal Enthalpies=            -113.776012
 Sum of electronic and thermal Free Energies=         -113.806914
 
                     E (Thermal)             CV                S
                      KCal/Mol        Cal/Mol-Kelvin    Cal/Mol-Kelvin
 Total                    5.980              9.899             65.040
 Electronic               0.000              0.000              1.377
 Translational            0.889              2.981             36.028
 Rotational               0.889              2.981             18.369
 Vibrational              4.203              3.938              9.266
 Vibration     1          0.593              1.984              5.893
 Vibration     2          0.605              1.946              3.372
                       Q            Log10(Q)             Ln(Q)
 Total Bot       0.249165D+10          9.396488         21.636212
 Total V=0       0.547302D+12         11.738227         27.028266
 Vib (Bot)       0.879852D-01         -1.055590         -2.430586
 Vib (Bot)    1  0.712575D+01          0.852830          1.963714
 Vib (Bot)    2  0.196585D+01          0.293551          0.675925
 Vib (V=0)       0.193263D+02          1.286149          2.961467
 Vib (V=0)    1  0.764327D+01          0.883279          2.033825
 Vib (V=0)    2  0.252844D+01          0.402853          0.927603
 Electronic      0.200000D+01          0.301030          0.693147
 Translational   0.613921D+07          6.788112         15.630206
 Rotational      0.230640D+04          3.362936          7.743445
 
                                                          TS search on BH76.
                                                             IR Spectrum
 
     2                                                                                                                               
     1                                                                                                                        1      
     0                                                                                                                        0    2 
     1                                                                                                                        4    9 
 
     X                                                                                                                        X    X 
     X                                                                                                                               
     X                                                                                                                               
     X                                                                                                                               
     X                                                                                                                               
     X                                                                                                                               
     X                                                                                                                               
     X                                                                                                                               
     X                                                                                                                               
     X                                                                                                                               
     X                                                                                                                               
     X                                                                                                                               
     X                                                                                                                               
     X                                                                                                                               
     X                                                                                                                               
     X                                                                                                                               
     X                                                                                                                               
     X                                                                                                                               
     X                                                                                                                               
     X                                                                                                                               
 
 ***** Axes restored to original set *****
 -------------------------------------------------------------------
 Center     Atomic                   Forces (Hartrees/Bohr)
 Number     Number              X              Y              Z
 -------------------------------------------------------------------
      1        1           0.000042441   -0.000028024    0.000000000
      2        6          -0.000029466    0.000130261   -0.000000000
      3        8          -0.000012975   -0.000102237    0.000000000
 -------------------------------------------------------------------
 Cartesian Forces:  Max     0.000130261 RMS     0.000058731
 Force constants in Cartesian coordinates: 
                1             2             3             4             5 
      1  0.690227D-04
      2  0.724768D-04  0.177116D-03
      3  0.000000D+00  0.000000D+00  0.589236D-05
      4 -0.376382D-03 -0.436603D-03  0.000000D+00  0.625550D-02
      5 -0.142425D-02  0.886299D-03  0.000000D+00  0.734634D-01  0.114028D+01
      6  0.000000D+00  0.000000D+00 -0.567233D-05  0.000000D+00  0.000000D+00
      7  0.307360D-03  0.364126D-03  0.000000D+00 -0.587912D-02 -0.720392D-01
      8  0.135178D-02 -0.106341D-02  0.000000D+00 -0.730268D-01 -0.114116D+01
      9  0.000000D+00  0.000000D+00  0.000000D+00  0.000000D+00  0.000000D+00
                6             7             8             9 
      6 -0.464960D-04
      7  0.000000D+00  0.557176D-02
      8  0.000000D+00  0.716751D-01  0.114223D+01
      9  0.521684D-04  0.000000D+00  0.000000D+00 -0.519484D-04
 FormGI is forming the generalized inverse of G from B-inverse, IUseBI=4.
 Force constants in internal coordinates: 
                1             2             3 
      1  0.335246D-04
      2  0.170537D-02  0.114673D+01
      3  0.580259D-04  0.104264D-02  0.529183D-02
 Leave Link  716 at Sat Oct 10 18:12:42 2020, MaxMem=  2684354560 cpu:               0.4 elap:               0.1
 (Enter /udrive/faculty/rpeverati/g16/g16/l103.exe)

 GradGradGradGradGradGradGradGradGradGradGradGradGradGradGradGradGradGrad
 Berny optimization.
 Optmz: redundant internal coordinate code flag= 1
 Red2BG:  D1=  4.17D-01 OD1=  3.19D-16 B2RMS=  0.00D+00 IAprox=1
 Red2BG is reusing G-inverse.
 Internal  Forces:  Max     0.000102843 RMS     0.000066719
 Search for a local minimum.
 Step number   1 out of a maximum of    2
 All quantities printed in internal units (Hartrees-Bohrs-Radians)
 Second derivative matrix not updated -- analytic derivatives used.
 The second derivative matrix:
                          R1        R2        A1
           R1           0.00003
           R2           0.00171   1.14673
           A1           0.00006   0.00104   0.00529
 ITU=  0
 Eigenvectors of the second derivative matrix:
                           1         2         3
     Eigenvalues --     0.00003   0.00529   1.14673
   1         R1         0.99994   0.01073   0.00149
   2         R2        -0.00148  -0.00093   1.00000
   3         A1        -0.01074   0.99994   0.00091
 RedStp:  It= 1 RLamda= 0.000D+00 R=1.671D+00
          Err=1.880D+00 DErr= 1.509D+05 DDErr=1.598D+10
 RedStp:  It= 2 RLamda=-9.439D-06 R=1.275D+00
          Err=9.509D-01 DErr= 6.245D+04 DDErr=5.187D+09
 RedStp:  It= 3 RLamda=-2.148D-05 R=9.791D-01
          Err=4.612D-01 DErr= 2.564D+04 DDErr=1.702D+09
 RedStp:  It= 4 RLamda=-3.655D-05 R=7.587D-01
          Err=2.104D-01 DErr= 1.040D+04 DDErr=5.678D+08
 RedStp:  It= 5 RLamda=-5.486D-05 R=5.957D-01
          Err=8.742D-02 DErr= 4.132D+03 DDErr=1.946D+08
 RedStp:  It= 6 RLamda=-7.610D-05 R=4.769D-01
          Err=3.129D-02 DErr= 1.584D+03 DDErr=6.988D+07
 RedStp:  It= 7 RLamda=-9.877D-05 R=3.932D-01
          Err=8.680D-03 DErr= 5.672D+02 DDErr=2.732D+07
 RedStp:  It= 8 RLamda=-1.195D-04 R=3.387D-01
          Err=1.499D-03 DErr= 1.749D+02 DDErr=1.254D+07
 RedStp:  It= 9 RLamda=-1.335D-04 R=3.099D-01
          Err=9.773D-05 DErr= 3.739D+01 DDErr=7.608D+06
 RedStp:  It=10 RLamda=-1.384D-04 R=3.009D-01
          Err=7.457D-07 DErr= 3.078D+00 DDErr=6.391D+06
 Quadratic step=1.671D+00 exceeds max=3.000D-01 adjusted using Lamda=-1.384D-04.
 Angle between NR and scaled steps=   0.42 degrees.
 Angle between quadratic step and forces=  63.85 degrees.
 Linear search not attempted -- first point.
 Iteration  1 RMS(Cart)=  0.09275042 RMS(Int)=  0.05827807
 Iteration  2 RMS(Cart)=  0.04682506 RMS(Int)=  0.00003807
 Iteration  3 RMS(Cart)=  0.00004744 RMS(Int)=  0.00000000
 Iteration  4 RMS(Cart)=  0.00000000 RMS(Int)=  0.00000000
 ITry= 1 IFail=0 DXMaxC= 1.53D-01 DCOld= 1.00D+10 DXMaxT= 3.00D-01 DXLimC= 3.00D+00 Rises=F
 ClnCor:  largest displacement from symmetrization is 2.22D-15 for atom     1.
 Variable       Old X    -DE/DX   Delta X   Delta X   Delta X     New X
                                 (Linear)    (Quad)   (Total)
    R1        5.06313  -0.00005   0.00000  -0.30086  -0.30086   4.76226
    R2        2.17431   0.00010   0.00000   0.00054   0.00054   2.17485
    A1        2.03690  -0.00001   0.00000   0.00052   0.00052   2.03741
         Item               Value     Threshold  Converged?
 Maximum Force            0.000103     0.000450     YES
 RMS     Force            0.000067     0.000300     YES
 Maximum Displacement     0.152844     0.001800     NO 
 RMS     Displacement     0.139564     0.001200     NO 
 Predicted change in Energy=-1.392657D-05
                           ----------------------------
                           ! Non-Optimized Parameters !
                           ! (Angstroms and Degrees)  !
 --------------------------                            --------------------------
 ! Name  Definition              Value          Derivative Info.                !
 --------------------------------------------------------------------------------
 ! R1    R(1,2)                  2.5201         -DE/DX =   -0.0001              !
 ! R2    R(2,3)                  1.1509         -DE/DX =    0.0001              !
 ! A1    A(1,2,3)              116.7351         -DE/DX =    0.0                 !
 --------------------------------------------------------------------------------
 GradGradGradGradGradGradGradGradGradGradGradGradGradGradGradGradGradGrad

 Leave Link  103 at Sat Oct 10 18:12:42 2020, MaxMem=  2684354560 cpu:               0.3 elap:               0.1
 (Enter /udrive/faculty/rpeverati/g16/g16/l9999.exe)

 ----------------------------------------------------------------------

 Electric dipole moment (input orientation):
 (Debye = 10**-18 statcoulomb cm , SI units = C m)
                  (au)            (Debye)         (10**-30 SI)
   Tot        0.491386D-01      0.124898D+00      0.416614D+00
   x         -0.127620D-01     -0.324377D-01     -0.108200D+00
   y         -0.474524D-01     -0.120612D+00     -0.402319D+00
   z          0.000000D+00      0.000000D+00      0.000000D+00

 Dipole polarizability, Alpha (input orientation).
 (esu units = cm**3 , SI units = C**2 m**2 J**-1)
 Alpha(0;0):
               (au)            (10**-24 esu)      (10**-40 SI)
   iso        0.116364D+02      0.172434D+01      0.191859D+01
   aniso      0.714870D+01      0.105933D+01      0.117866D+01
   xx         0.122800D+02      0.181970D+01      0.202469D+01
   yx        -0.241503D+01     -0.357870D+00     -0.398184D+00
   yy         0.146149D+02      0.216571D+01      0.240968D+01
   zx         0.000000D+00      0.000000D+00      0.000000D+00
   zy         0.000000D+00      0.000000D+00      0.000000D+00
   zz         0.801442D+01      0.118761D+01      0.132140D+01

 ----------------------------------------------------------------------

 Dipole orientation:
     1         -4.26271310          1.14642394         -2.20886395
     6          0.45405120         -0.12211358         -0.87537538
     8          0.87033891         -0.23407096          1.25577621

 Electric dipole moment (dipole orientation):
 (Debye = 10**-18 statcoulomb cm , SI units = C m)
                  (au)            (Debye)         (10**-30 SI)
   Tot        0.491386D-01      0.124898D+00      0.416614D+00
   x          0.000000D+00      0.000000D+00      0.000000D+00
   y          0.000000D+00      0.000000D+00      0.000000D+00
   z          0.491386D-01      0.124898D+00      0.416614D+00

 Dipole polarizability, Alpha (dipole orientation).
 (esu units = cm**3 , SI units = C**2 m**2 J**-1)
 Alpha(0;0):
               (au)            (10**-24 esu)      (10**-40 SI)
   iso        0.116364D+02      0.172434D+01      0.191859D+01
   aniso      0.714870D+01      0.105933D+01      0.117866D+01
   xx         0.132688D+02      0.196623D+01      0.218773D+01
   yx        -0.141312D+01     -0.209403D+00     -0.232993D+00
   yy         0.839447D+01      0.124393D+01      0.138406D+01
   zx         0.258307D+01      0.382771D+00      0.425890D+00
   zy        -0.694696D+00     -0.102943D+00     -0.114540D+00
   zz         0.132461D+02      0.196286D+01      0.218398D+01

 ----------------------------------------------------------------------

 Test job not archived.
 1\1\GINC-NODE13\Freq\UBLYP\6-31G(d)\C1H1O1(2)\RPEVERATI\10-Oct-2020\0\
 \#P Freq BLYP/6-31G* 5D 7F Integral=UltraFineGrid SCF=(NoSymm,XQC,MaxC
 yc=120) IOp(1/33=1) Geom=Check Guess=Read\\TS search on BH76.\\0,2\H,-
 1.952156315,1.735432514,0.\C,0.360580403,0.3827135887,0.\O,0.287976428
 8,-0.765590319,0.\\Version=ES64L-G16RevA.03\State=2-A'\HF=-113.7864858
 \S2=0.750447\S2-1=0.\S2A=0.75\RMSD=2.380e-10\RMSF=5.873e-05\ZeroPoint=
 0.0050911\Thermal=0.00953\Dipole=-0.012762,-0.0474524,0.\DipoleDeriv=0
 .0098369,0.001445,0.,0.0036721,-0.0031424,0.,0.,0.,0.0021554,-0.054258
 9,0.0515863,0.,-0.0603101,0.6755543,0.,0.,0.,-0.0265567,0.044422,-0.05
 30313,0.,0.0566379,-0.6724118,0.,0.,0.,0.0244013\Polar=12.2799601,-2.4
 150287,14.6149366,0.,0.,8.0144195\Quadrupole=0.49737,-0.9645531,0.4671
 831,-0.1598252,0.,0.\PG=CS [SG(C1H1O1)]\NImag=0\\0.00006902,0.00007248
 ,0.00017712,0.,0.,0.00000589,-0.00037638,-0.00043660,0.,0.00625550,-0.
 00142425,0.00088630,0.,0.07346344,1.14027829,0.,0.,-0.00000567,0.,0.,-
 0.00004650,0.00030736,0.00036413,0.,-0.00587912,-0.07203918,0.,0.00557
 176,0.00135178,-0.00106341,0.,-0.07302684,-1.14116459,0.,0.07167506,1.
 14222800,0.,0.,-0.00000022,0.,0.,0.00005217,0.,0.,-0.00005195\\-0.0000
 4244,0.00002802,0.,0.00002947,-0.00013026,0.,0.00001297,0.00010224,0.\
 \\@


 I WANT IT ALL - RICH, THIN, AND CHOCOLATE.
 Job cpu time:       0 days  0 hours  0 minutes 55.8 seconds.
 Elapsed time:       0 days  0 hours  0 minutes  5.7 seconds.
 File lengths (MBytes):  RWF=      5 Int=      0 D2E=      0 Chk=      1 Scr=      1
 Normal termination of Gaussian 16 at Sat Oct 10 18:12:42 2020.
