 Entering Gaussian System, Link 0=g16
 Input=MN_59_hn2ts_BH76_BLYP_631Gs.in
 Output=MN_59_hn2ts_BH76_BLYP_631Gs.log
 Initial command:
 /udrive/faculty/rpeverati/g16/g16/l1.exe "/udrive/scratch-directories/gaussian09/rpeverati/Gau-18884.inp" -scrdir="/udrive/scratch-directories/gaussian09/rpeverati/"
 Entering Link 1 = /udrive/faculty/rpeverati/g16/g16/l1.exe PID=     18901.
  
 Copyright (c) 1988,1990,1992,1993,1995,1998,2003,2009,2016,
            Gaussian, Inc.  All Rights Reserved.
  
 This is part of the Gaussian(R) 16 program.  It is based on
 the Gaussian(R) 09 system (copyright 2009, Gaussian, Inc.),
 the Gaussian(R) 03 system (copyright 2003, Gaussian, Inc.),
 the Gaussian(R) 98 system (copyright 1998, Gaussian, Inc.),
 the Gaussian(R) 94 system (copyright 1995, Gaussian, Inc.),
 the Gaussian 92(TM) system (copyright 1992, Gaussian, Inc.),
 the Gaussian 90(TM) system (copyright 1990, Gaussian, Inc.),
 the Gaussian 88(TM) system (copyright 1988, Gaussian, Inc.),
 the Gaussian 86(TM) system (copyright 1986, Carnegie Mellon
 University), and the Gaussian 82(TM) system (copyright 1983,
 Carnegie Mellon University). Gaussian is a federally registered
 trademark of Gaussian, Inc.
  
 This software contains proprietary and confidential information,
 including trade secrets, belonging to Gaussian, Inc.
  
 This software is provided under written license and may be
 used, copied, transmitted, or stored only in accord with that
 written license.
  
 The following legend is applicable only to US Government
 contracts under FAR:
  
                    RESTRICTED RIGHTS LEGEND
  
 Use, reproduction and disclosure by the US Government is
 subject to restrictions as set forth in subparagraphs (a)
 and (c) of the Commercial Computer Software - Restricted
 Rights clause in FAR 52.227-19.
  
 Gaussian, Inc.
 340 Quinnipiac St., Bldg. 40, Wallingford CT 06492
  
  
 ---------------------------------------------------------------
 Warning -- This program may not be used in any manner that
 competes with the business of Gaussian, Inc. or will provide
 assistance to any competitor of Gaussian, Inc.  The licensee
 of this program is prohibited from giving any competitor of
 Gaussian, Inc. access to this program.  By using this program,
 the user acknowledges that Gaussian, Inc. is engaged in the
 business of creating and licensing software in the field of
 computational chemistry and represents and warrants to the
 licensee that it is not a competitor of Gaussian, Inc. and that
 it will not use this program in any manner prohibited above.
 ---------------------------------------------------------------
  

 Cite this work as:
 Gaussian 16, Revision A.03,
 M. J. Frisch, G. W. Trucks, H. B. Schlegel, G. E. Scuseria, 
 M. A. Robb, J. R. Cheeseman, G. Scalmani, V. Barone, 
 G. A. Petersson, H. Nakatsuji, X. Li, M. Caricato, A. V. Marenich, 
 J. Bloino, B. G. Janesko, R. Gomperts, B. Mennucci, H. P. Hratchian, 
 J. V. Ortiz, A. F. Izmaylov, J. L. Sonnenberg, D. Williams-Young, 
 F. Ding, F. Lipparini, F. Egidi, J. Goings, B. Peng, A. Petrone, 
 T. Henderson, D. Ranasinghe, V. G. Zakrzewski, J. Gao, N. Rega, 
 G. Zheng, W. Liang, M. Hada, M. Ehara, K. Toyota, R. Fukuda, 
 J. Hasegawa, M. Ishida, T. Nakajima, Y. Honda, O. Kitao, H. Nakai, 
 T. Vreven, K. Throssell, J. A. Montgomery, Jr., J. E. Peralta, 
 F. Ogliaro, M. J. Bearpark, J. J. Heyd, E. N. Brothers, K. N. Kudin, 
 V. N. Staroverov, T. A. Keith, R. Kobayashi, J. Normand, 
 K. Raghavachari, A. P. Rendell, J. C. Burant, S. S. Iyengar, 
 J. Tomasi, M. Cossi, J. M. Millam, M. Klene, C. Adamo, R. Cammi, 
 J. W. Ochterski, R. L. Martin, K. Morokuma, O. Farkas, 
 J. B. Foresman, and D. J. Fox, Gaussian, Inc., Wallingford CT, 2016.
 
 ******************************************
 Gaussian 16:  ES64L-G16RevA.03 25-Dec-2016
                 7-Oct-2020 
 ******************************************
 %NoSave
 %nproc=12
 Will use up to   12 processors via shared memory.
 %mem=20GB
 %chk=MN_59_hn2ts_BH76_BLYP_631Gs
 ----------------------------------------------------------------------
 #P Opt(TS,MaxCyc=50,NoEigenTest,MaxStep=10,AddRedundant) BLYP/6-31G* 5
 D 7F Integral=UltraFineGrid SCF=(NoSymm,XQC,MaxCyc=120) IOp(1/33=1)
 ----------------------------------------------------------------------
 1/5=1,6=50,8=10,11=1,18=120,26=4,33=1,38=1/1,3;
 2/9=110,12=2,17=6,18=5,40=1/2;
 3/5=1,6=6,7=1,8=11,11=2,25=1,30=1,71=1,74=402,75=-5/1,2,3;
 4/9=2/1;
 5/5=2,7=120,8=3,13=1,38=5/2,8;
 6/7=2,8=2,9=2,10=2,28=1/1;
 7//1,2,3,16;
 1/5=1,6=50,8=10,11=1,18=20,26=4,33=1/3(2);
 2/9=110/2;
 99//99;
 2/9=110/2;
 3/5=1,6=6,7=1,8=11,11=2,25=1,30=1,71=1,74=402,75=-5/1,2,3;
 4/5=5,9=2,16=3,69=1/1;
 5/5=2,7=120,8=3,13=1,38=5/2,8;
 7//1,2,3,16;
 1/5=1,6=50,8=10,11=1,18=20,26=4,33=1/3(-5);
 2/9=110/2;
 6/7=2,8=2,9=2,10=2,19=2,28=1/1;
 99/9=1/99;
 Leave Link    1 at Wed Oct  7 14:48:12 2020, MaxMem=  2684354560 cpu:               5.8 elap:               0.6
 (Enter /udrive/faculty/rpeverati/g16/g16/l101.exe)
 ONIOM data not found on unit 2.
 ------------------
 TS search on BH76.
 ------------------
 TstMul:  ICh=     0
 TstMul:  Mul=     2
 TstMul:  ICh=     0
 TstMul:  Mul=     2
 Symbolic Z-matrix:
 Charge =  0 Multiplicity = 2
 N                     0.08456  -0.64293   0. 
 N                     0.08456   0.47988   0. 
 H                    -1.18389   1.1414    0. 
 
 RdStrC is calling ZToCFu for IStruc=1 NZ=     3.
 PrtBox:  NBox=     1 Levels=  1 BoxLen=    8.00 SMaxX=        3.37
          Shift=            2.237220            1.214970            0.000000
 Box      1 Number                   0 centers from      1 to      3:
 After GenITR:
 ITRead=  0  0  0
 MicOpt= -1 -1 -1
 Add virtual bond connecting atoms H3         and N2         Dist= 2.70D+00.
 The following ModRedundant input section has been read:
 
 ITRead=  0  0  0
 MicOpt= -1 -1 -1
 NAtoms=      3 NQM=        3 NQMF=       0 NMMI=      0 NMMIF=      0
                NMic=       0 NMicF=      0.
                    Isotopes and Nuclear Properties:
 (Nuclear quadrupole moments (NQMom) in fm**2, nuclear magnetic moments (NMagM)
  in nuclear magnetons)

  Atom         1           2           3
 IAtWgt=          14          14           1
 AtmWgt=  14.0030740  14.0030740   1.0078250
 NucSpn=           2           2           1
 AtZEff=   0.0000000   0.0000000   0.0000000
 NQMom=    2.0440000   2.0440000   0.0000000
 NMagM=    0.4037610   0.4037610   2.7928460
 AtZNuc=   7.0000000   7.0000000   1.0000000
 No MM parameters found.
 Leave Link  101 at Wed Oct  7 14:48:13 2020, MaxMem=  2684354560 cpu:               4.1 elap:               0.4
 (Enter /udrive/faculty/rpeverati/g16/g16/l103.exe)

 GradGradGradGradGradGradGradGradGradGradGradGradGradGradGradGradGradGrad
 Berny optimization.
 Optmz: redundant internal coordinate code flag= 1
 Initialization pass.
                           ----------------------------
                           !    Initial Parameters    !
                           ! (Angstroms and Degrees)  !
 --------------------------                            --------------------------
 ! Name  Definition              Value          Derivative Info.                !
 --------------------------------------------------------------------------------
 ! R1    R(1,2)                  1.1228         estimate D2E/DX2                !
 ! R2    R(2,3)                  1.4306         estimate D2E/DX2                !
 ! A1    A(1,2,3)              117.5429         estimate D2E/DX2                !
 --------------------------------------------------------------------------------
 Maximum allowed force set to 1.00D+20.
 Trust Radius=1.00D-01 FncErr=1.00D-07 GrdErr=1.00D-06 EigMax=2.50D+02 EigMin=1.00D-04
 Number of steps in this run=     50 maximum allowed number of steps=    100.
 Search for a saddle point of order  1.
 GradGradGradGradGradGradGradGradGradGradGradGradGradGradGradGradGradGrad

 Leave Link  103 at Wed Oct  7 14:48:13 2020, MaxMem=  2684354560 cpu:               0.8 elap:               0.3
 (Enter /udrive/faculty/rpeverati/g16/g16/l202.exe)
                          Input orientation:                          
 ---------------------------------------------------------------------
 Center     Atomic      Atomic             Coordinates (Angstroms)
 Number     Number       Type             X           Y           Z
 ---------------------------------------------------------------------
      1          7           0        0.084563   -0.642934    0.000000
      2          7           0        0.084563    0.479877    0.000000
      3          1           0       -1.183886    1.141398    0.000000
 ---------------------------------------------------------------------
                    Distance matrix (angstroms):
                    1          2          3
     1  N    0.000000
     2  N    1.122811   0.000000
     3  H    2.189248   1.430585   0.000000
 Stoichiometry    HN2(2)
 Framework group  CS[SG(HN2)]
 Deg. of freedom     3
 Full point group                 CS      NOp   2
 Largest Abelian subgroup         CS      NOp   2
 Largest concise Abelian subgroup C1      NOp   1
                         Standard orientation:                         
 ---------------------------------------------------------------------
 Center     Atomic      Atomic             Coordinates (Angstroms)
 Number     Number       Type             X           Y           Z
 ---------------------------------------------------------------------
      1          7           0        0.084563   -0.642934    0.000000
      2          7           0        0.084563    0.479877    0.000000
      3          1           0       -1.183886    1.141398    0.000000
 ---------------------------------------------------------------------
 Rotational constants (GHZ):         385.3839632          47.9685397          42.6588189
 Leave Link  202 at Wed Oct  7 14:48:14 2020, MaxMem=  2684354560 cpu:               1.5 elap:               0.5
 (Enter /udrive/faculty/rpeverati/g16/g16/l301.exe)
 Standard basis: 6-31G(d) (5D, 7F)
 Ernie: Thresh=  0.10000D-02 Tol=  0.10000D-05 Strict=F.
 There are    24 symmetry adapted cartesian basis functions of A'  symmetry.
 There are     8 symmetry adapted cartesian basis functions of A"  symmetry.
 There are    22 symmetry adapted basis functions of A'  symmetry.
 There are     8 symmetry adapted basis functions of A"  symmetry.
    30 basis functions,    60 primitive gaussians,    32 cartesian basis functions
     8 alpha electrons        7 beta electrons
       nuclear repulsion energy        27.3748687091 Hartrees.
 IExCor=  402 DFT=T Ex=B Corr=LYP ExCW=0 ScaHFX=  0.000000
 ScaDFX=  1.000000  1.000000  1.000000  1.000000 ScalE2=  1.000000  1.000000
 IRadAn=      5 IRanWt=     -1 IRanGd=            0 ICorTp=0 IEmpDi=  4
 NAtoms=    3 NActive=    3 NUniq=    3 SFac= 1.00D+00 NAtFMM=   60 NAOKFM=F Big=F
 Integral buffers will be    131072 words long.
 Raffenetti 2 integral format.
 Two-electron integral symmetry is turned on.
 Leave Link  301 at Wed Oct  7 14:48:15 2020, MaxMem=  2684354560 cpu:               2.3 elap:               0.6
 (Enter /udrive/faculty/rpeverati/g16/g16/l302.exe)
 NPDir=0 NMtPBC=     1 NCelOv=     1 NCel=       1 NClECP=     1 NCelD=      1
         NCelK=      1 NCelE2=     1 NClLst=     1 CellRange=     0.0.
 One-electron integrals computed using PRISM.
 One-electron integral symmetry used in STVInt
 NBasis=    30 RedAO= T EigKep=  5.97D-03  NBF=    22     8
 NBsUse=    30 1.00D-06 EigRej= -1.00D+00 NBFU=    22     8
 Precomputing XC quadrature grid using
 IXCGrd= 4 IRadAn=           5 IRanWt=          -1 IRanGd=           0 AccXCQ= 0.00D+00.
 Generated NRdTot=       0 NPtTot=           0 NUsed=           0 NTot=          32
 NSgBfM=    32    32    32    32    32 MxSgAt=     3 MxSgA2=     3.
 Leave Link  302 at Wed Oct  7 14:48:16 2020, MaxMem=  2684354560 cpu:               3.4 elap:               0.7
 (Enter /udrive/faculty/rpeverati/g16/g16/l303.exe)
 DipDrv:  MaxL=1.
 Leave Link  303 at Wed Oct  7 14:48:17 2020, MaxMem=  2684354560 cpu:               1.7 elap:               0.5
 (Enter /udrive/faculty/rpeverati/g16/g16/l401.exe)
 SCF N**3 symmetry information disabled.
 ExpMin= 1.61D-01 ExpMax= 4.17D+03 ExpMxC= 6.27D+02 IAcc=3 IRadAn=         5 AccDes= 0.00D+00
 Harris functional with IExCor=  402 and IRadAn=       5 diagonalized for initial guess.
 HarFok:  IExCor=  402 AccDes= 0.00D+00 IRadAn=         5 IDoV= 1 UseB2=F ITyADJ=14
 ICtDFT=  3500011 ScaDFX=  1.000000  1.000000  1.000000  1.000000
 FoFCou: FMM=F IPFlag=           0 FMFlag=      100000 FMFlg1=           0
         NFxFlg=           0 DoJE=T BraDBF=F KetDBF=T FulRan=T
         wScrn=  0.000000 ICntrl=       500 IOpCl=  0 I1Cent=   200000004 NGrid=           0
         NMat0=    1 NMatS0=      1 NMatT0=    0 NMatD0=    1 NMtDS0=    0 NMtDT0=    0
 Petite list used in FoFCou.
 Harris En= -109.957837070306    
 JPrj=0 DoOrth=F DoCkMO=F.
 Initial guess orbital symmetries:
 Alpha Orbitals:
       Occupied  (A') (A') (A') (A') (A') (A") (A') (A')
       Virtual   (A") (A') (A') (A') (A") (A') (A') (A") (A') (A')
                 (A') (A') (A") (A') (A") (A') (A") (A') (A') (A')
                 (A") (A')
 Beta  Orbitals:
       Occupied  (A') (A') (A') (A') (A') (A") (A')
       Virtual   (A') (A") (A') (A') (A') (A") (A') (A') (A") (A')
                 (A') (A') (A') (A") (A') (A") (A') (A") (A') (A')
                 (A') (A") (A')
 The electronic state of the initial guess is 2-A'.
 Initial guess <Sx>= 0.0000 <Sy>= 0.0000 <Sz>= 0.5000 <S**2>= 0.7500 S= 0.5000
 Leave Link  401 at Wed Oct  7 14:48:18 2020, MaxMem=  2684354560 cpu:               5.1 elap:               0.9
 (Enter /udrive/faculty/rpeverati/g16/g16/l502.exe)
 Keep J ints in memory in symmetry-blocked form, NReq=10459184.
 FoFCou: FMM=F IPFlag=           0 FMFlag=           0 FMFlg1=           0
         NFxFlg=           0 DoJE=F BraDBF=F KetDBF=F FulRan=T
         wScrn=  0.000000 ICntrl=       600 IOpCl=  0 I1Cent=           0 NGrid=           0
         NMat0=    1 NMatS0=    465 NMatT0=    0 NMatD0=    1 NMtDS0=    0 NMtDT0=    0
 Petite list used in FoFCou.
 UHF open shell SCF:
 Using DIIS extrapolation, IDIIS=  1040.
 NGot=  2684354560 LenX=  2684292770 LenY=  2684291305
 Requested convergence on RMS density matrix=1.00D-08 within 120 cycles.
 Requested convergence on MAX density matrix=1.00D-06.
 Requested convergence on             energy=1.00D-06.
 No special actions if energy rises.
 Integral accuracy reduced to 1.0D-05 until final iterations.

 Cycle   1  Pass 0  IDiag  1:
 E= -109.980396693498    
 DIIS: error= 1.40D-02 at cycle   1 NSaved=   1.
 NSaved= 1 IEnMin= 1 EnMin= -109.980396693498     IErMin= 1 ErrMin= 1.40D-02
 ErrMax= 1.40D-02  0.00D+00 EMaxC= 1.00D-01 BMatC= 3.59D-02 BMatP= 3.59D-02
 IDIUse=3 WtCom= 8.60D-01 WtEn= 1.40D-01
 Coeff-Com:  0.100D+01
 Coeff-En:   0.100D+01
 Coeff:      0.100D+01
 Gap=     0.144 Goal=   None    Shift=    0.000
 Gap=     0.198 Goal=   None    Shift=    0.000
 GapD=    0.144 DampG=1.000 DampE=0.500 DampFc=0.5000 IDamp=-1.
 Damping current iteration by 5.00D-01
 RMSDP=1.34D-02 MaxDP=2.09D-01              OVMax= 2.72D-01

 Cycle   2  Pass 0  IDiag  1:
 E= -109.977395404428     Delta-E=        0.003001289071 Rises=F Damp=T
 DIIS: error= 1.99D-02 at cycle   2 NSaved=   2.
 NSaved= 2 IEnMin= 1 EnMin= -109.980396693498     IErMin= 1 ErrMin= 1.40D-02
 ErrMax= 1.99D-02  0.00D+00 EMaxC= 1.00D-01 BMatC= 3.01D-02 BMatP= 3.59D-02
 IDIUse=3 WtCom= 8.01D-01 WtEn= 1.99D-01
 Coeff-Com:  0.472D+00 0.528D+00
 Coeff-En:   0.575D+00 0.425D+00
 Coeff:      0.493D+00 0.507D+00
 Gap=     0.127 Goal=   None    Shift=    0.000
 Gap=     0.231 Goal=   None    Shift=    0.000
 RMSDP=2.92D-03 MaxDP=3.49D-02 DE= 3.00D-03 OVMax= 1.32D-01

 Cycle   3  Pass 0  IDiag  1:
 E= -109.989805203515     Delta-E=       -0.012409799087 Rises=F Damp=F
 DIIS: error= 9.89D-03 at cycle   3 NSaved=   3.
 NSaved= 3 IEnMin= 3 EnMin= -109.989805203515     IErMin= 3 ErrMin= 9.89D-03
 ErrMax= 9.89D-03  0.00D+00 EMaxC= 1.00D-01 BMatC= 1.27D-02 BMatP= 3.01D-02
 IDIUse=3 WtCom= 9.01D-01 WtEn= 9.89D-02
 Coeff-Com:  0.231D+00 0.350D+00 0.419D+00
 Coeff-En:   0.000D+00 0.000D+00 0.100D+01
 Coeff:      0.208D+00 0.316D+00 0.476D+00
 Gap=     0.118 Goal=   None    Shift=    0.000
 Gap=     0.237 Goal=   None    Shift=    0.000
 RMSDP=2.47D-03 MaxDP=3.45D-02 DE=-1.24D-02 OVMax= 3.85D-02

 Cycle   4  Pass 0  IDiag  1:
 E= -109.992472183060     Delta-E=       -0.002666979545 Rises=F Damp=F
 DIIS: error= 4.81D-03 at cycle   4 NSaved=   4.
 NSaved= 4 IEnMin= 4 EnMin= -109.992472183060     IErMin= 4 ErrMin= 4.81D-03
 ErrMax= 4.81D-03  0.00D+00 EMaxC= 1.00D-01 BMatC= 2.24D-03 BMatP= 1.27D-02
 IDIUse=3 WtCom= 9.52D-01 WtEn= 4.81D-02
 Coeff-Com: -0.125D-01-0.382D-01 0.283D+00 0.768D+00
 Coeff-En:   0.000D+00 0.000D+00 0.173D+00 0.827D+00
 Coeff:     -0.119D-01-0.363D-01 0.278D+00 0.771D+00
 Gap=     0.123 Goal=   None    Shift=    0.000
 Gap=     0.237 Goal=   None    Shift=    0.000
 RMSDP=7.79D-04 MaxDP=9.48D-03 DE=-2.67D-03 OVMax= 1.28D-02

 Cycle   5  Pass 0  IDiag  1:
 E= -109.993022296565     Delta-E=       -0.000550113505 Rises=F Damp=F
 DIIS: error= 3.93D-04 at cycle   5 NSaved=   5.
 NSaved= 5 IEnMin= 5 EnMin= -109.993022296565     IErMin= 5 ErrMin= 3.93D-04
 ErrMax= 3.93D-04  0.00D+00 EMaxC= 1.00D-01 BMatC= 1.61D-05 BMatP= 2.24D-03
 IDIUse=3 WtCom= 9.96D-01 WtEn= 3.93D-03
 Coeff-Com: -0.141D-01-0.153D-01 0.724D-02 0.952D-01 0.927D+00
 Coeff-En:   0.000D+00 0.000D+00 0.000D+00 0.000D+00 0.100D+01
 Coeff:     -0.141D-01-0.152D-01 0.721D-02 0.948D-01 0.927D+00
 Gap=     0.124 Goal=   None    Shift=    0.000
 Gap=     0.238 Goal=   None    Shift=    0.000
 RMSDP=9.91D-05 MaxDP=1.03D-03 DE=-5.50D-04 OVMax= 1.52D-03

 Cycle   6  Pass 0  IDiag  1:
 E= -109.993028506351     Delta-E=       -0.000006209786 Rises=F Damp=F
 DIIS: error= 9.04D-05 at cycle   6 NSaved=   6.
 NSaved= 6 IEnMin= 6 EnMin= -109.993028506351     IErMin= 6 ErrMin= 9.04D-05
 ErrMax= 9.04D-05  0.00D+00 EMaxC= 1.00D-01 BMatC= 1.09D-06 BMatP= 1.61D-05
 IDIUse=1 WtCom= 1.00D+00 WtEn= 0.00D+00
 Coeff-Com: -0.146D-02-0.286D-03-0.175D-01-0.384D-01 0.170D+00 0.887D+00
 Coeff:     -0.146D-02-0.286D-03-0.175D-01-0.384D-01 0.170D+00 0.887D+00
 Gap=     0.124 Goal=   None    Shift=    0.000
 Gap=     0.238 Goal=   None    Shift=    0.000
 RMSDP=2.90D-05 MaxDP=3.23D-04 DE=-6.21D-06 OVMax= 4.86D-04

 Cycle   7  Pass 0  IDiag  1:
 E= -109.993029031373     Delta-E=       -0.000000525022 Rises=F Damp=F
 DIIS: error= 2.75D-05 at cycle   7 NSaved=   7.
 NSaved= 7 IEnMin= 7 EnMin= -109.993029031373     IErMin= 7 ErrMin= 2.75D-05
 ErrMax= 2.75D-05  0.00D+00 EMaxC= 1.00D-01 BMatC= 1.10D-07 BMatP= 1.09D-06
 IDIUse=1 WtCom= 1.00D+00 WtEn= 0.00D+00
 Coeff-Com:  0.236D-03 0.996D-03-0.266D-02-0.117D-01-0.208D-01 0.161D+00
 Coeff-Com:  0.873D+00
 Coeff:      0.236D-03 0.996D-03-0.266D-02-0.117D-01-0.208D-01 0.161D+00
 Coeff:      0.873D+00
 Gap=     0.124 Goal=   None    Shift=    0.000
 Gap=     0.238 Goal=   None    Shift=    0.000
 RMSDP=1.01D-05 MaxDP=1.11D-04 DE=-5.25D-07 OVMax= 1.78D-04

 Cycle   8  Pass 0  IDiag  1:
 E= -109.993029095928     Delta-E=       -0.000000064555 Rises=F Damp=F
 DIIS: error= 1.23D-05 at cycle   8 NSaved=   8.
 NSaved= 8 IEnMin= 8 EnMin= -109.993029095928     IErMin= 8 ErrMin= 1.23D-05
 ErrMax= 1.23D-05  0.00D+00 EMaxC= 1.00D-01 BMatC= 1.48D-08 BMatP= 1.10D-07
 IDIUse=1 WtCom= 1.00D+00 WtEn= 0.00D+00
 Coeff-Com:  0.275D-03 0.179D-03 0.255D-02 0.440D-02-0.341D-01-0.125D+00
 Coeff-Com:  0.139D+00 0.101D+01
 Coeff:      0.275D-03 0.179D-03 0.255D-02 0.440D-02-0.341D-01-0.125D+00
 Coeff:      0.139D+00 0.101D+01
 Gap=     0.124 Goal=   None    Shift=    0.000
 Gap=     0.238 Goal=   None    Shift=    0.000
 RMSDP=4.75D-06 MaxDP=6.83D-05 DE=-6.46D-08 OVMax= 1.11D-04

 Initial convergence to 1.0D-05 achieved.  Increase integral accuracy.
 Cycle   9  Pass 1  IDiag  1:
 E= -109.993029019331     Delta-E=        0.000000076597 Rises=F Damp=F
 DIIS: error= 2.59D-06 at cycle   1 NSaved=   1.
 NSaved= 1 IEnMin= 1 EnMin= -109.993029019331     IErMin= 1 ErrMin= 2.59D-06
 ErrMax= 2.59D-06  0.00D+00 EMaxC= 1.00D-01 BMatC= 8.11D-10 BMatP= 8.11D-10
 IDIUse=1 WtCom= 1.00D+00 WtEn= 0.00D+00
 Coeff-Com:  0.100D+01
 Coeff:      0.100D+01
 Gap=     0.124 Goal=   None    Shift=    0.000
 Gap=     0.238 Goal=   None    Shift=    0.000
 RMSDP=4.75D-06 MaxDP=6.83D-05 DE= 7.66D-08 OVMax= 3.54D-05

 Cycle  10  Pass 1  IDiag  1:
 E= -109.993029019423     Delta-E=       -0.000000000092 Rises=F Damp=F
 DIIS: error= 3.99D-06 at cycle   2 NSaved=   2.
 NSaved= 2 IEnMin= 2 EnMin= -109.993029019423     IErMin= 1 ErrMin= 2.59D-06
 ErrMax= 3.99D-06  0.00D+00 EMaxC= 1.00D-01 BMatC= 1.31D-09 BMatP= 8.11D-10
 IDIUse=1 WtCom= 1.00D+00 WtEn= 0.00D+00
 Coeff-Com:  0.581D+00 0.419D+00
 Coeff:      0.581D+00 0.419D+00
 Gap=     0.124 Goal=   None    Shift=    0.000
 Gap=     0.238 Goal=   None    Shift=    0.000
 RMSDP=1.06D-06 MaxDP=1.53D-05 DE=-9.21D-11 OVMax= 2.10D-05

 Cycle  11  Pass 1  IDiag  1:
 E= -109.993029019703     Delta-E=       -0.000000000280 Rises=F Damp=F
 DIIS: error= 3.83D-06 at cycle   3 NSaved=   3.
 NSaved= 3 IEnMin= 3 EnMin= -109.993029019703     IErMin= 1 ErrMin= 2.59D-06
 ErrMax= 3.83D-06  0.00D+00 EMaxC= 1.00D-01 BMatC= 7.44D-10 BMatP= 8.11D-10
 IDIUse=1 WtCom= 1.00D+00 WtEn= 0.00D+00
 Coeff-Com:  0.244D+00 0.361D+00 0.395D+00
 Coeff:      0.244D+00 0.361D+00 0.395D+00
 Gap=     0.124 Goal=   None    Shift=    0.000
 Gap=     0.238 Goal=   None    Shift=    0.000
 RMSDP=3.37D-07 MaxDP=4.78D-06 DE=-2.80D-10 OVMax= 8.20D-06

 Cycle  12  Pass 1  IDiag  1:
 E= -109.993029019842     Delta-E=       -0.000000000139 Rises=F Damp=F
 DIIS: error= 1.31D-06 at cycle   4 NSaved=   4.
 NSaved= 4 IEnMin= 4 EnMin= -109.993029019842     IErMin= 4 ErrMin= 1.31D-06
 ErrMax= 1.31D-06  0.00D+00 EMaxC= 1.00D-01 BMatC= 1.11D-10 BMatP= 7.44D-10
 IDIUse=1 WtCom= 1.00D+00 WtEn= 0.00D+00
 Coeff-Com: -0.466D-01 0.120D+00 0.294D+00 0.633D+00
 Coeff:     -0.466D-01 0.120D+00 0.294D+00 0.633D+00
 Gap=     0.124 Goal=   None    Shift=    0.000
 Gap=     0.238 Goal=   None    Shift=    0.000
 RMSDP=2.24D-07 MaxDP=2.91D-06 DE=-1.39D-10 OVMax= 4.39D-06

 Cycle  13  Pass 1  IDiag  1:
 E= -109.993029019876     Delta-E=       -0.000000000034 Rises=F Damp=F
 DIIS: error= 3.94D-07 at cycle   5 NSaved=   5.
 NSaved= 5 IEnMin= 5 EnMin= -109.993029019876     IErMin= 5 ErrMin= 3.94D-07
 ErrMax= 3.94D-07  0.00D+00 EMaxC= 1.00D-01 BMatC= 9.59D-12 BMatP= 1.11D-10
 IDIUse=1 WtCom= 1.00D+00 WtEn= 0.00D+00
 Coeff-Com: -0.871D-01-0.313D-01 0.643D-02 0.247D+00 0.865D+00
 Coeff:     -0.871D-01-0.313D-01 0.643D-02 0.247D+00 0.865D+00
 Gap=     0.124 Goal=   None    Shift=    0.000
 Gap=     0.238 Goal=   None    Shift=    0.000
 RMSDP=9.12D-08 MaxDP=1.34D-06 DE=-3.43D-11 OVMax= 2.22D-06

 Cycle  14  Pass 1  IDiag  1:
 E= -109.993029019881     Delta-E=       -0.000000000005 Rises=F Damp=F
 DIIS: error= 4.78D-08 at cycle   6 NSaved=   6.
 NSaved= 6 IEnMin= 6 EnMin= -109.993029019881     IErMin= 6 ErrMin= 4.78D-08
 ErrMax= 4.78D-08  0.00D+00 EMaxC= 1.00D-01 BMatC= 3.14D-13 BMatP= 9.59D-12
 IDIUse=1 WtCom= 1.00D+00 WtEn= 0.00D+00
 Coeff-Com: -0.106D-01-0.144D-01-0.264D-01-0.593D-02 0.159D+00 0.898D+00
 Coeff:     -0.106D-01-0.144D-01-0.264D-01-0.593D-02 0.159D+00 0.898D+00
 Gap=     0.124 Goal=   None    Shift=    0.000
 Gap=     0.238 Goal=   None    Shift=    0.000
 RMSDP=2.41D-08 MaxDP=2.48D-07 DE=-4.69D-12 OVMax= 3.96D-07

 Cycle  15  Pass 1  IDiag  1:
 E= -109.993029019881     Delta-E=       -0.000000000000 Rises=F Damp=F
 DIIS: error= 1.62D-08 at cycle   7 NSaved=   7.
 NSaved= 7 IEnMin= 7 EnMin= -109.993029019881     IErMin= 7 ErrMin= 1.62D-08
 ErrMax= 1.62D-08  0.00D+00 EMaxC= 1.00D-01 BMatC= 4.62D-14 BMatP= 3.14D-13
 IDIUse=1 WtCom= 1.00D+00 WtEn= 0.00D+00
 Coeff-Com:  0.387D-02-0.349D-02-0.575D-02-0.174D-01-0.322D-01 0.245D+00
 Coeff-Com:  0.810D+00
 Coeff:      0.387D-02-0.349D-02-0.575D-02-0.174D-01-0.322D-01 0.245D+00
 Coeff:      0.810D+00
 Gap=     0.124 Goal=   None    Shift=    0.000
 Gap=     0.238 Goal=   None    Shift=    0.000
 RMSDP=7.63D-09 MaxDP=7.96D-08 DE=-1.42D-13 OVMax= 1.55D-07

 SCF Done:  E(UB-LYP) =  -109.993029020     A.U. after   15 cycles
            NFock= 15  Conv=0.76D-08     -V/T= 2.0064
 <Sx>= 0.0000 <Sy>= 0.0000 <Sz>= 0.5000 <S**2>= 0.7566 S= 0.5033
 <L.S>= 0.000000000000E+00
 KE= 1.092891970368D+02 PE=-3.118621000591D+02 EE= 6.520500529333D+01
 Annihilation of the first spin contaminant:
 S**2 before annihilation     0.7566,   after     0.7500
 Leave Link  502 at Wed Oct  7 14:48:20 2020, MaxMem=  2684354560 cpu:              16.8 elap:               1.9
 (Enter /udrive/faculty/rpeverati/g16/g16/l508.exe)
 QCSCF skips out because SCF is already converged.
 Leave Link  508 at Wed Oct  7 14:48:21 2020, MaxMem=  2684354560 cpu:               0.5 elap:               0.5
 (Enter /udrive/faculty/rpeverati/g16/g16/l601.exe)
 Copying SCF densities to generalized density rwf, IOpCl= 1 IROHF=0.

 **********************************************************************

            Population analysis using the SCF density.

 **********************************************************************

 Orbital symmetries:
 Alpha Orbitals:
       Occupied  (A') (A') (A') (A') (A') (A") (A') (A')
       Virtual   (A") (A') (A') (A') (A") (A') (A') (A") (A') (A')
                 (A') (A') (A") (A') (A") (A') (A") (A') (A') (A')
                 (A") (A')
 Beta  Orbitals:
       Occupied  (A') (A') (A') (A') (A') (A") (A')
       Virtual   (A') (A") (A') (A') (A') (A") (A') (A') (A") (A')
                 (A') (A') (A') (A") (A') (A") (A') (A") (A') (A')
                 (A") (A') (A')
 The electronic state is 2-A'.
 Alpha  occ. eigenvalues --  -14.12972 -14.11101  -1.01092  -0.52703  -0.42863
 Alpha  occ. eigenvalues --   -0.40219  -0.37109  -0.18919
 Alpha virt. eigenvalues --   -0.06543  -0.02048   0.37500   0.55194   0.56549
 Alpha virt. eigenvalues --    0.57028   0.60429   0.69733   0.72773   0.73965
 Alpha virt. eigenvalues --    0.88279   1.24954   1.40071   1.42824   1.47590
 Alpha virt. eigenvalues --    1.51794   1.85985   1.90807   2.38525   2.50076
 Alpha virt. eigenvalues --    2.50563   2.71526
  Beta  occ. eigenvalues --  -14.12819 -14.10378  -1.00349  -0.50677  -0.40551
  Beta  occ. eigenvalues --   -0.39724  -0.35598
  Beta virt. eigenvalues --   -0.11823  -0.05807   0.01454   0.38131   0.56375
  Beta virt. eigenvalues --    0.56769   0.60260   0.64653   0.70189   0.73566
  Beta virt. eigenvalues --    0.77786   0.90273   1.25919   1.41147   1.44301
  Beta virt. eigenvalues --    1.48143   1.54143   1.87517   1.92612   2.39572
  Beta virt. eigenvalues --    2.51220   2.51847   2.72394
          Condensed to atoms (all electrons):
               1          2          3
     1  N    6.501766   0.561758  -0.056999
     2  N    0.561758   6.518122   0.009296
     3  H   -0.056999   0.009296   0.952001
          Atomic-Atomic Spin Densities.
               1          2          3
     1  N    0.459268  -0.043801  -0.050675
     2  N   -0.043801   0.220567  -0.155305
     3  H   -0.050675  -0.155305   0.819726
 Mulliken charges and spin densities:
               1          2
     1  N   -0.006525   0.364792
     2  N   -0.089176   0.021462
     3  H    0.095702   0.613746
 Sum of Mulliken charges =   0.00000   1.00000
 Mulliken charges and spin densities with hydrogens summed into heavy atoms:
               1          2
     1  N   -0.006525   0.364792
     2  N    0.006525   0.635208
 Electronic spatial extent (au):  <R**2>=             52.0891
 Charge=              0.0000 electrons
 Dipole moment (field-independent basis, Debye):
    X=             -0.4374    Y=              0.4504    Z=              0.0000  Tot=              0.6278
 Quadrupole moment (field-independent basis, Debye-Ang):
   XX=            -11.2387   YY=            -12.5902   ZZ=            -11.1212
   XY=             -0.3168   XZ=              0.0000   YZ=              0.0000
 Traceless Quadrupole moment (field-independent basis, Debye-Ang):
   XX=              0.4114   YY=             -0.9402   ZZ=              0.5288
   XY=             -0.3168   XZ=              0.0000   YZ=              0.0000
 Octapole moment (field-independent basis, Debye-Ang**2):
  XXX=              1.1770  YYY=             -0.2433  ZZZ=              0.0000  XYY=             -0.0090
  XXY=             -0.3193  XXZ=              0.0000  XZZ=              0.4544  YZZ=             -0.4790
  YYZ=              0.0000  XYZ=              0.0000
 Hexadecapole moment (field-independent basis, Debye-Ang**3):
 XXXX=            -19.6721 YYYY=            -41.2614 ZZZZ=             -9.0389 XXXY=              4.8450
 XXXZ=              0.0000 YYYX=              4.5841 YYYZ=              0.0000 ZZZX=              0.0000
 ZZZY=              0.0000 XXYY=             -9.9799 XXZZ=             -4.8172 YYZZ=             -8.0483
 XXYZ=              0.0000 YYXZ=              0.0000 ZZXY=              1.6278
 N-N= 2.737486870907D+01 E-N=-3.118620997234D+02  KE= 1.092891970368D+02
                          Isotropic Fermi Contact Couplings
        Atom                 a.u.       MegaHertz       Gauss      10(-4) cm-1
     1  N(14)              0.04194      13.55185       4.83564       4.52041
     2  N(14)              0.31009     100.19074      35.75055      33.42003
     3  H(1)               0.21707     970.27200     346.21718     323.64790
 --------------------------------------------------------
       Center         ----  Spin Dipole Couplings  ----
                      3XX-RR        3YY-RR        3ZZ-RR
 --------------------------------------------------------
     1   Atom        0.878492     -0.431200     -0.447292
     2   Atom       -0.148535      0.229245     -0.080710
     3   Atom       -0.013360      0.006829      0.006531
 --------------------------------------------------------
                        XY            XZ            YZ
 --------------------------------------------------------
     1   Atom        0.279140      0.000000      0.000000
     2   Atom        0.238507      0.000000      0.000000
     3   Atom        0.005140      0.000000      0.000000
 --------------------------------------------------------


 ---------------------------------------------------------------------------------
              Anisotropic Spin Dipole Couplings in Principal Axis System
 ---------------------------------------------------------------------------------

       Atom             a.u.   MegaHertz   Gauss  10(-4) cm-1        Axes

              Baa    -0.4882   -18.829    -6.719    -6.281 -0.2001  0.9798  0.0000
     1 N(14)  Bbb    -0.4473   -17.251    -6.156    -5.754  0.0000  0.0000  1.0000
              Bcc     0.9355    36.080    12.874    12.035  0.9798  0.2001  0.0000
 
              Baa    -0.2639   -10.178    -3.632    -3.395  0.9002 -0.4354  0.0000
     2 N(14)  Bbb    -0.0807    -3.113    -1.111    -1.038  0.0000  0.0000  1.0000
              Bcc     0.3446    13.290     4.742     4.433  0.4354  0.9002  0.0000
 
              Baa    -0.0146    -7.786    -2.778    -2.597  0.9724 -0.2333  0.0000
     3 H(1)   Bbb     0.0065     3.484     1.243     1.162  0.0000  0.0000  1.0000
              Bcc     0.0081     4.302     1.535     1.435  0.2333  0.9724  0.0000
 

 ---------------------------------------------------------------------------------

 No NMR shielding tensors so no spin-rotation constants.
 Leave Link  601 at Wed Oct  7 14:48:22 2020, MaxMem=  2684354560 cpu:               5.8 elap:               0.9
 (Enter /udrive/faculty/rpeverati/g16/g16/l701.exe)
 ... and contract with generalized density number  0.
 Compute integral first derivatives.
 Leave Link  701 at Wed Oct  7 14:48:23 2020, MaxMem=  2684354560 cpu:               3.8 elap:               0.6
 (Enter /udrive/faculty/rpeverati/g16/g16/l702.exe)
 L702 exits ... SP integral derivatives will be done elsewhere.
 Leave Link  702 at Wed Oct  7 14:48:23 2020, MaxMem=  2684354560 cpu:               1.1 elap:               0.5
 (Enter /udrive/faculty/rpeverati/g16/g16/l703.exe)
 Integral derivatives from FoFJK, PRISM(SPDF).
 Compute integral first derivatives, UseDBF=F ICtDFT=           0.
 Calling FoFJK, ICntrl=      2527 FMM=F ISym2X=1 I1Cent= 0 IOpClX= 0 NMat=1 NMatS=1 NMatT=0.
 FoFJK:  IHMeth= 1 ICntrl=    2527 DoSepK=F KAlg= 0 I1Cent=           0 FoldK=F
 IRaf=         0 NMat=       1 IRICut=       1 DoRegI=T DoRafI=F ISym2E= 1 IDoP0=0 IntGTp=1.
 FoFCou: FMM=F IPFlag=           0 FMFlag=      100000 FMFlg1=         800
         NFxFlg=           0 DoJE=F BraDBF=F KetDBF=F FulRan=T
         wScrn=  0.000000 ICntrl=      2527 IOpCl=  0 I1Cent=           0 NGrid=           0
         NMat0=    1 NMatS0=      1 NMatT0=    0 NMatD0=    1 NMtDS0=    0 NMtDT0=    0
 Petite list used in FoFCou.
 Leave Link  703 at Wed Oct  7 14:48:25 2020, MaxMem=  2684354560 cpu:               5.6 elap:               0.9
 (Enter /udrive/faculty/rpeverati/g16/g16/l716.exe)
 Dipole        =-1.72078222D-01 1.77201395D-01 0.00000000D+00
 ***** Axes restored to original set *****
 -------------------------------------------------------------------
 Center     Atomic                   Forces (Hartrees/Bohr)
 Number     Number              X              Y              Z
 -------------------------------------------------------------------
      1        7           0.002473096   -0.058626205   -0.000000000
      2        7          -0.008453531    0.059555538   -0.000000000
      3        1           0.005980435   -0.000929333   -0.000000000
 -------------------------------------------------------------------
 Cartesian Forces:  Max     0.059555538 RMS     0.028083411
 Leave Link  716 at Wed Oct  7 14:48:25 2020, MaxMem=  2684354560 cpu:               1.8 elap:               0.6
 (Enter /udrive/faculty/rpeverati/g16/g16/l103.exe)

 GradGradGradGradGradGradGradGradGradGradGradGradGradGradGradGradGradGrad
 Berny optimization.
 Optmz: redundant internal coordinate code flag= 1
 FormGI is forming the generalized inverse of G from B-inverse, IUseBI=4.
 Internal  Forces:  Max     0.058626119 RMS     0.034143916
 Search for a saddle point.
 Step number   1 out of a maximum of   50
 All quantities printed in internal units (Hartrees-Bohrs-Radians)
 Swapping is turned off.
 Second derivative matrix not updated -- first step.
 The second derivative matrix:
                          R1        R2        A1
           R1           1.55581
           R2           0.00000   0.13337
           A1           0.00000   0.00000   0.16000
 ITU=  0
 Eigenvectors of the second derivative matrix:
                           1         2         3
     Eigenvalues --     0.13337   0.16000   1.55581
   1         R1        -0.00000   0.00000  -1.00000
   2         R2         1.00000  -0.00000  -0.00000
   3         A1         0.00000   1.00000  -0.00000
 Eigenvalue     1 is   1.33D-01 should be less than     0.000000 Eigenvector:
                          R2        A1        R1
   1                    1.00000   0.00000  -0.00000
 RLam0= 1.34D-01.
 Iter=   1 RLamda= 0.00000000D+00 Sum=-2.38127714D-03.
 Iter=   2 RLamda=-2.38127714D-03 Sum=-2.37537688D-03.
 Iter=   3 RLamda=-2.37537688D-03 Sum=-2.37539140D-03.
 Iter=   4 RLamda=-2.37539140D-03 Sum=-2.37539136D-03.
 RFO step:  Lambda0=1.336171215D-01 Lambda=-2.37539140D-03.
 Linear search not attempted -- option 19 set.
 Iteration  1 RMS(Cart)=  0.04697884 RMS(Int)=  0.00041437
 Iteration  2 RMS(Cart)=  0.00039369 RMS(Int)=  0.00000010
 Iteration  3 RMS(Cart)=  0.00000012 RMS(Int)=  0.00000000
 ITry= 1 IFail=0 DXMaxC= 4.90D-02 DCOld= 1.00D+10 DXMaxT= 1.00D-01 DXLimC= 3.00D+00 Rises=F
 ClnCor:  largest displacement from symmetrization is 0.00D+00 for atom     0.
 Variable       Old X    -DE/DX   Delta X   Delta X   Delta X     New X
                                 (Linear)    (Quad)   (Total)
    R1        2.12181   0.05863   0.00000   0.03762   0.03762   2.15943
    R2        2.70341  -0.00573   0.00000   0.04960   0.04960   2.75301
    A1        2.05151   0.00525   0.00000   0.03232   0.03232   2.08383
         Item               Value     Threshold  Converged?
 Maximum Force            0.058626     0.000450     NO 
 RMS     Force            0.034144     0.000300     NO 
 Maximum Displacement     0.049013     0.001800     NO 
 RMS     Displacement     0.047163     0.001200     NO 
 Predicted change in Energy=-7.422397D-04
 Lowest energy point so far.  Saving SCF results.
 Largest change from initial coordinates is atom    3       0.031 Angstoms.
 GradGradGradGradGradGradGradGradGradGradGradGradGradGradGradGradGradGrad

 Leave Link  103 at Wed Oct  7 14:48:26 2020, MaxMem=  2684354560 cpu:               2.3 elap:               0.6
 (Enter /udrive/faculty/rpeverati/g16/g16/l202.exe)
                          Input orientation:                          
 ---------------------------------------------------------------------
 Center     Atomic      Atomic             Coordinates (Angstroms)
 Number     Number       Type             X           Y           Z
 ---------------------------------------------------------------------
      1          7           0        0.103940   -0.665753    0.000000
      2          7           0        0.082028    0.476759    0.000000
      3          1           0       -1.200728    1.167335    0.000000
 ---------------------------------------------------------------------
                    Distance matrix (angstroms):
                    1          2          3
     1  N    0.000000
     2  N    1.142721   0.000000
     3  H    2.249971   1.456832   0.000000
 Stoichiometry    HN2(2)
 Framework group  CS[SG(HN2)]
 Deg. of freedom     3
 Full point group                 CS      NOp   2
 RotChk:  IX=0 Diff= 2.71D-02
 Largest Abelian subgroup         CS      NOp   2
 Largest concise Abelian subgroup C1      NOp   1
                         Standard orientation:                         
 ---------------------------------------------------------------------
 Center     Atomic      Atomic             Coordinates (Angstroms)
 Number     Number       Type             X           Y           Z
 ---------------------------------------------------------------------
      1          7           0        0.084619   -0.657121    0.000000
      2          7           0        0.084619    0.485600    0.000000
      3          1           0       -1.184660    1.200647    0.000000
 ---------------------------------------------------------------------
 Rotational constants (GHZ):         388.6505680          45.8623029          41.0215929
 Leave Link  202 at Wed Oct  7 14:48:27 2020, MaxMem=  2684354560 cpu:               1.2 elap:               0.4
 (Enter /udrive/faculty/rpeverati/g16/g16/l301.exe)
 Standard basis: 6-31G(d) (5D, 7F)
 Ernie: Thresh=  0.10000D-02 Tol=  0.10000D-05 Strict=F.
 There are    24 symmetry adapted cartesian basis functions of A'  symmetry.
 There are     8 symmetry adapted cartesian basis functions of A"  symmetry.
 There are    22 symmetry adapted basis functions of A'  symmetry.
 There are     8 symmetry adapted basis functions of A"  symmetry.
    30 basis functions,    60 primitive gaussians,    32 cartesian basis functions
     8 alpha electrons        7 beta electrons
       nuclear repulsion energy        26.8801853498 Hartrees.
 IExCor=  402 DFT=T Ex=B Corr=LYP ExCW=0 ScaHFX=  0.000000
 ScaDFX=  1.000000  1.000000  1.000000  1.000000 ScalE2=  1.000000  1.000000
 IRadAn=      5 IRanWt=     -1 IRanGd=            0 ICorTp=0 IEmpDi=  4
 NAtoms=    3 NActive=    3 NUniq=    3 SFac= 1.00D+00 NAtFMM=   60 NAOKFM=F Big=F
 Integral buffers will be    131072 words long.
 Raffenetti 2 integral format.
 Two-electron integral symmetry is turned on.
 Leave Link  301 at Wed Oct  7 14:48:28 2020, MaxMem=  2684354560 cpu:               1.8 elap:               0.6
 (Enter /udrive/faculty/rpeverati/g16/g16/l302.exe)
 NPDir=0 NMtPBC=     1 NCelOv=     1 NCel=       1 NClECP=     1 NCelD=      1
         NCelK=      1 NCelE2=     1 NClLst=     1 CellRange=     0.0.
 One-electron integrals computed using PRISM.
 One-electron integral symmetry used in STVInt
 NBasis=    30 RedAO= T EigKep=  6.48D-03  NBF=    22     8
 NBsUse=    30 1.00D-06 EigRej= -1.00D+00 NBFU=    22     8
 Precomputing XC quadrature grid using
 IXCGrd= 4 IRadAn=           5 IRanWt=          -1 IRanGd=           0 AccXCQ= 0.00D+00.
 Generated NRdTot=       0 NPtTot=           0 NUsed=           0 NTot=          32
 NSgBfM=    32    32    32    32    32 MxSgAt=     3 MxSgA2=     3.
 Leave Link  302 at Wed Oct  7 14:48:29 2020, MaxMem=  2684354560 cpu:               3.3 elap:               0.7
 (Enter /udrive/faculty/rpeverati/g16/g16/l303.exe)
 DipDrv:  MaxL=1.
 Leave Link  303 at Wed Oct  7 14:48:29 2020, MaxMem=  2684354560 cpu:               0.9 elap:               0.4
 (Enter /udrive/faculty/rpeverati/g16/g16/l401.exe)
 Initial guess from the checkpoint file:  "MN_59_hn2ts_BH76_BLYP_631Gs.chk"
 SCF N**3 symmetry information disabled.
 B after Tr=     0.000000    0.000000    0.000000
         Rot=    0.999988    0.000000    0.000000    0.004972 Ang=   0.57 deg.
 Guess basis will be translated and rotated to current coordinates.
 JPrj=2 DoOrth=T DoCkMO=T.
 Initial guess orbital symmetries:
 Alpha Orbitals:
       Occupied  (A') (A') (A') (A') (A') (A") (A') (A')
       Virtual   (A") (A') (A') (A') (A") (A') (A') (A") (A') (A')
                 (A') (A') (A") (A') (A") (A') (A") (A') (A') (A')
                 (A") (A')
 Beta  Orbitals:
       Occupied  (A') (A') (A') (A') (A') (A") (A')
       Virtual   (A') (A") (A') (A') (A') (A") (A') (A') (A") (A')
                 (A') (A') (A') (A") (A') (A") (A') (A") (A') (A')
                 (A") (A') (A')
 The electronic state of the initial guess is 2-A'.
 Initial guess <Sx>= 0.0000 <Sy>= 0.0000 <Sz>= 0.5000 <S**2>= 0.7568 S= 0.5034
 Generating alternative initial guess.
 ExpMin= 1.61D-01 ExpMax= 4.17D+03 ExpMxC= 6.27D+02 IAcc=2 IRadAn=         4 AccDes= 0.00D+00
 Harris functional with IExCor=  402 and IRadAn=       4 diagonalized for initial guess.
 HarFok:  IExCor=  402 AccDes= 0.00D+00 IRadAn=         4 IDoV= 1 UseB2=F ITyADJ=14
 ICtDFT=  3500011 ScaDFX=  1.000000  1.000000  1.000000  1.000000
 FoFCou: FMM=F IPFlag=           0 FMFlag=      100000 FMFlg1=           0
         NFxFlg=           0 DoJE=T BraDBF=F KetDBF=T FulRan=T
         wScrn=  0.000000 ICntrl=       500 IOpCl=  0 I1Cent=   200000004 NGrid=           0
         NMat0=    1 NMatS0=      1 NMatT0=    0 NMatD0=    1 NMtDS0=    0 NMtDT0=    0
 Petite list used in FoFCou.
 Harris En= -109.957310582614    
 Leave Link  401 at Wed Oct  7 14:48:30 2020, MaxMem=  2684354560 cpu:               6.7 elap:               0.9
 (Enter /udrive/faculty/rpeverati/g16/g16/l502.exe)
 Keep J ints in memory in symmetry-blocked form, NReq=10459184.
 FoFCou: FMM=F IPFlag=           0 FMFlag=           0 FMFlg1=           0
         NFxFlg=           0 DoJE=F BraDBF=F KetDBF=F FulRan=T
         wScrn=  0.000000 ICntrl=       600 IOpCl=  0 I1Cent=           0 NGrid=           0
         NMat0=    1 NMatS0=    465 NMatT0=    0 NMatD0=    1 NMtDS0=    0 NMtDT0=    0
 Petite list used in FoFCou.
 UHF open shell SCF:
 Using DIIS extrapolation, IDIIS=  1040.
 NGot=  2684354560 LenX=  2684292770 LenY=  2684291305
 Requested convergence on RMS density matrix=1.00D-08 within 120 cycles.
 Requested convergence on MAX density matrix=1.00D-06.
 Requested convergence on             energy=1.00D-06.
 No special actions if energy rises.
 Integral accuracy reduced to 1.0D-05 until final iterations.

 Cycle   1  Pass 0  IDiag  1:
 E= -109.993549566349    
 DIIS: error= 2.41D-03 at cycle   1 NSaved=   1.
 NSaved= 1 IEnMin= 1 EnMin= -109.993549566349     IErMin= 1 ErrMin= 2.41D-03
 ErrMax= 2.41D-03  0.00D+00 EMaxC= 1.00D-01 BMatC= 1.16D-03 BMatP= 1.16D-03
 IDIUse=3 WtCom= 9.76D-01 WtEn= 2.41D-02
 Coeff-Com:  0.100D+01
 Coeff-En:   0.100D+01
 Coeff:      0.100D+01
 Gap=     0.122 Goal=   None    Shift=    0.000
 Gap=     0.232 Goal=   None    Shift=    0.000
 GapD=    0.122 DampG=1.000 DampE=1.000 DampFc=1.0000 IDamp=-1.
 RMSDP=9.75D-04 MaxDP=6.84D-03              OVMax= 1.08D-02

 Cycle   2  Pass 0  IDiag  1:
 E= -109.993789558936     Delta-E=       -0.000239992587 Rises=F Damp=F
 DIIS: error= 2.10D-03 at cycle   2 NSaved=   2.
 NSaved= 2 IEnMin= 2 EnMin= -109.993789558936     IErMin= 2 ErrMin= 2.10D-03
 ErrMax= 2.10D-03  0.00D+00 EMaxC= 1.00D-01 BMatC= 6.02D-04 BMatP= 1.16D-03
 IDIUse=3 WtCom= 9.79D-01 WtEn= 2.10D-02
 Coeff-Com:  0.387D+00 0.613D+00
 Coeff-En:   0.000D+00 0.100D+01
 Coeff:      0.379D+00 0.621D+00
 Gap=     0.120 Goal=   None    Shift=    0.000
 Gap=     0.233 Goal=   None    Shift=    0.000
 RMSDP=5.71D-04 MaxDP=6.26D-03 DE=-2.40D-04 OVMax= 8.97D-03

 Cycle   3  Pass 0  IDiag  1:
 E= -109.993705452031     Delta-E=        0.000084106906 Rises=F Damp=F
 DIIS: error= 3.91D-03 at cycle   3 NSaved=   3.
 NSaved= 3 IEnMin= 2 EnMin= -109.993789558936     IErMin= 2 ErrMin= 2.10D-03
 ErrMax= 3.91D-03  0.00D+00 EMaxC= 1.00D-01 BMatC= 1.08D-03 BMatP= 6.02D-04
 IDIUse=3 WtCom= 1.38D-01 WtEn= 8.62D-01
 Coeff-Com:  0.127D+00 0.530D+00 0.343D+00
 Coeff-En:   0.000D+00 0.590D+00 0.410D+00
 Coeff:      0.175D-01 0.582D+00 0.400D+00
 Gap=     0.120 Goal=   None    Shift=    0.000
 Gap=     0.233 Goal=   None    Shift=    0.000
 RMSDP=4.21D-04 MaxDP=4.22D-03 DE= 8.41D-05 OVMax= 7.46D-03

 Cycle   4  Pass 0  IDiag  1:
 E= -109.993876239727     Delta-E=       -0.000170787697 Rises=F Damp=F
 DIIS: error= 1.35D-03 at cycle   4 NSaved=   4.
 NSaved= 4 IEnMin= 4 EnMin= -109.993876239727     IErMin= 4 ErrMin= 1.35D-03
 ErrMax= 1.35D-03  0.00D+00 EMaxC= 1.00D-01 BMatC= 1.94D-04 BMatP= 6.02D-04
 IDIUse=3 WtCom= 9.86D-01 WtEn= 1.35D-02
 EnCoef did     6 forward-backward iterations
 Coeff-Com:  0.141D-01 0.313D+00 0.297D+00 0.377D+00
 Coeff-En:   0.000D+00 0.159D+00 0.231D+00 0.610D+00
 Coeff:      0.139D-01 0.311D+00 0.296D+00 0.380D+00
 Gap=     0.121 Goal=   None    Shift=    0.000
 Gap=     0.232 Goal=   None    Shift=    0.000
 RMSDP=2.90D-04 MaxDP=4.46D-03 DE=-1.71D-04 OVMax= 5.94D-03

 Cycle   5  Pass 0  IDiag  1:
 E= -109.993924829107     Delta-E=       -0.000048589380 Rises=F Damp=F
 DIIS: error= 1.42D-04 at cycle   5 NSaved=   5.
 NSaved= 5 IEnMin= 5 EnMin= -109.993924829107     IErMin= 5 ErrMin= 1.42D-04
 ErrMax= 1.42D-04  0.00D+00 EMaxC= 1.00D-01 BMatC= 2.79D-06 BMatP= 1.94D-04
 IDIUse=3 WtCom= 9.99D-01 WtEn= 1.42D-03
 Coeff-Com:  0.119D-03 0.120D+00 0.124D+00 0.207D+00 0.549D+00
 Coeff-En:   0.000D+00 0.000D+00 0.000D+00 0.000D+00 0.100D+01
 Coeff:      0.119D-03 0.120D+00 0.124D+00 0.207D+00 0.549D+00
 Gap=     0.121 Goal=   None    Shift=    0.000
 Gap=     0.232 Goal=   None    Shift=    0.000
 RMSDP=4.82D-05 MaxDP=6.99D-04 DE=-4.86D-05 OVMax= 1.04D-03

 Cycle   6  Pass 0  IDiag  1:
 E= -109.993925906350     Delta-E=       -0.000001077243 Rises=F Damp=F
 DIIS: error= 1.48D-05 at cycle   6 NSaved=   6.
 NSaved= 6 IEnMin= 6 EnMin= -109.993925906350     IErMin= 6 ErrMin= 1.48D-05
 ErrMax= 1.48D-05  0.00D+00 EMaxC= 1.00D-01 BMatC= 2.24D-08 BMatP= 2.79D-06
 IDIUse=1 WtCom= 1.00D+00 WtEn= 0.00D+00
 Coeff-Com: -0.994D-03 0.168D-02 0.522D-02 0.173D-01 0.905D-01 0.886D+00
 Coeff:     -0.994D-03 0.168D-02 0.522D-02 0.173D-01 0.905D-01 0.886D+00
 Gap=     0.121 Goal=   None    Shift=    0.000
 Gap=     0.232 Goal=   None    Shift=    0.000
 RMSDP=3.83D-06 MaxDP=2.88D-05 DE=-1.08D-06 OVMax= 7.57D-05

 Initial convergence to 1.0D-05 achieved.  Increase integral accuracy.
 Cycle   7  Pass 1  IDiag  1:
 E= -109.993926016916     Delta-E=       -0.000000110567 Rises=F Damp=F
 DIIS: error= 4.31D-06 at cycle   1 NSaved=   1.
 NSaved= 1 IEnMin= 1 EnMin= -109.993926016916     IErMin= 1 ErrMin= 4.31D-06
 ErrMax= 4.31D-06  0.00D+00 EMaxC= 1.00D-01 BMatC= 2.85D-09 BMatP= 2.85D-09
 IDIUse=1 WtCom= 1.00D+00 WtEn= 0.00D+00
 Coeff-Com:  0.100D+01
 Coeff:      0.100D+01
 Gap=     0.121 Goal=   None    Shift=    0.000
 Gap=     0.232 Goal=   None    Shift=    0.000
 RMSDP=3.83D-06 MaxDP=2.88D-05 DE=-1.11D-07 OVMax= 9.86D-05

 Cycle   8  Pass 1  IDiag  1:
 E= -109.993926013305     Delta-E=        0.000000003612 Rises=F Damp=F
 DIIS: error= 1.57D-05 at cycle   2 NSaved=   2.
 NSaved= 2 IEnMin= 1 EnMin= -109.993926016916     IErMin= 1 ErrMin= 4.31D-06
 ErrMax= 1.57D-05  0.00D+00 EMaxC= 1.00D-01 BMatC= 1.92D-08 BMatP= 2.85D-09
 IDIUse=1 WtCom= 1.00D+00 WtEn= 0.00D+00
 Coeff-Com:  0.746D+00 0.254D+00
 Coeff:      0.746D+00 0.254D+00
 Gap=     0.121 Goal=   None    Shift=    0.000
 Gap=     0.232 Goal=   None    Shift=    0.000
 RMSDP=2.23D-06 MaxDP=2.83D-05 DE= 3.61D-09 OVMax= 4.21D-05

 Cycle   9  Pass 1  IDiag  1:
 E= -109.993926017983     Delta-E=       -0.000000004678 Rises=F Damp=F
 DIIS: error= 3.72D-06 at cycle   3 NSaved=   3.
 NSaved= 3 IEnMin= 3 EnMin= -109.993926017983     IErMin= 3 ErrMin= 3.72D-06
 ErrMax= 3.72D-06  0.00D+00 EMaxC= 1.00D-01 BMatC= 1.41D-09 BMatP= 2.85D-09
 IDIUse=1 WtCom= 1.00D+00 WtEn= 0.00D+00
 Coeff-Com:  0.396D+00 0.180D+00 0.424D+00
 Coeff:      0.396D+00 0.180D+00 0.424D+00
 Gap=     0.121 Goal=   None    Shift=    0.000
 Gap=     0.232 Goal=   None    Shift=    0.000
 RMSDP=6.94D-07 MaxDP=8.77D-06 DE=-4.68D-09 OVMax= 1.11D-05

 Cycle  10  Pass 1  IDiag  1:
 E= -109.993926018304     Delta-E=       -0.000000000321 Rises=F Damp=F
 DIIS: error= 8.98D-07 at cycle   4 NSaved=   4.
 NSaved= 4 IEnMin= 4 EnMin= -109.993926018304     IErMin= 4 ErrMin= 8.98D-07
 ErrMax= 8.98D-07  0.00D+00 EMaxC= 1.00D-01 BMatC= 1.03D-10 BMatP= 1.41D-09
 IDIUse=1 WtCom= 1.00D+00 WtEn= 0.00D+00
 Coeff-Com:  0.872D-01 0.426D-01 0.219D+00 0.651D+00
 Coeff:      0.872D-01 0.426D-01 0.219D+00 0.651D+00
 Gap=     0.121 Goal=   None    Shift=    0.000
 Gap=     0.232 Goal=   None    Shift=    0.000
 RMSDP=2.01D-07 MaxDP=2.62D-06 DE=-3.21D-10 OVMax= 3.26D-06

 Cycle  11  Pass 1  IDiag  1:
 E= -109.993926018331     Delta-E=       -0.000000000027 Rises=F Damp=F
 DIIS: error= 1.96D-07 at cycle   5 NSaved=   5.
 NSaved= 5 IEnMin= 5 EnMin= -109.993926018331     IErMin= 5 ErrMin= 1.96D-07
 ErrMax= 1.96D-07  0.00D+00 EMaxC= 1.00D-01 BMatC= 5.01D-12 BMatP= 1.03D-10
 IDIUse=1 WtCom= 1.00D+00 WtEn= 0.00D+00
 Coeff-Com: -0.492D-01-0.171D-01-0.281D-01 0.126D+00 0.968D+00
 Coeff:     -0.492D-01-0.171D-01-0.281D-01 0.126D+00 0.968D+00
 Gap=     0.121 Goal=   None    Shift=    0.000
 Gap=     0.232 Goal=   None    Shift=    0.000
 RMSDP=5.97D-08 MaxDP=4.61D-07 DE=-2.71D-11 OVMax= 1.23D-06

 Cycle  12  Pass 1  IDiag  1:
 E= -109.993926018333     Delta-E=       -0.000000000002 Rises=F Damp=F
 DIIS: error= 6.17D-08 at cycle   6 NSaved=   6.
 NSaved= 6 IEnMin= 6 EnMin= -109.993926018333     IErMin= 6 ErrMin= 6.17D-08
 ErrMax= 6.17D-08  0.00D+00 EMaxC= 1.00D-01 BMatC= 4.85D-13 BMatP= 5.01D-12
 IDIUse=1 WtCom= 1.00D+00 WtEn= 0.00D+00
 Coeff-Com: -0.177D-01-0.411D-02-0.154D-01 0.587D-02 0.319D+00 0.712D+00
 Coeff:     -0.177D-01-0.411D-02-0.154D-01 0.587D-02 0.319D+00 0.712D+00
 Gap=     0.121 Goal=   None    Shift=    0.000
 Gap=     0.232 Goal=   None    Shift=    0.000
 RMSDP=2.36D-08 MaxDP=3.04D-07 DE=-1.93D-12 OVMax= 5.21D-07

 Cycle  13  Pass 1  IDiag  1:
 E= -109.993926018333     Delta-E=       -0.000000000000 Rises=F Damp=F
 DIIS: error= 1.59D-08 at cycle   7 NSaved=   7.
 NSaved= 7 IEnMin= 7 EnMin= -109.993926018333     IErMin= 7 ErrMin= 1.59D-08
 ErrMax= 1.59D-08  0.00D+00 EMaxC= 1.00D-01 BMatC= 1.21D-14 BMatP= 4.85D-13
 IDIUse=1 WtCom= 1.00D+00 WtEn= 0.00D+00
 Coeff-Com:  0.128D-02 0.495D-03 0.107D-02-0.850D-02-0.371D-01 0.702D-01
 Coeff-Com:  0.973D+00
 Coeff:      0.128D-02 0.495D-03 0.107D-02-0.850D-02-0.371D-01 0.702D-01
 Coeff:      0.973D+00
 Gap=     0.121 Goal=   None    Shift=    0.000
 Gap=     0.232 Goal=   None    Shift=    0.000
 RMSDP=3.36D-09 MaxDP=5.11D-08 DE=-1.71D-13 OVMax= 8.45D-08

 SCF Done:  E(UB-LYP) =  -109.993926018     A.U. after   13 cycles
            NFock= 13  Conv=0.34D-08     -V/T= 2.0075
 <Sx>= 0.0000 <Sy>= 0.0000 <Sz>= 0.5000 <S**2>= 0.7572 S= 0.5036
 <L.S>= 0.000000000000E+00
 KE= 1.091785509677D+02 PE=-3.108105350310D+02 EE= 6.475787269511D+01
 Annihilation of the first spin contaminant:
 S**2 before annihilation     0.7572,   after     0.7500
 Leave Link  502 at Wed Oct  7 14:48:32 2020, MaxMem=  2684354560 cpu:              16.7 elap:               1.8
 (Enter /udrive/faculty/rpeverati/g16/g16/l508.exe)
 QCSCF skips out because SCF is already converged.
 Leave Link  508 at Wed Oct  7 14:48:33 2020, MaxMem=  2684354560 cpu:               0.3 elap:               0.3
 (Enter /udrive/faculty/rpeverati/g16/g16/l701.exe)
 ... and contract with generalized density number  0.
 Compute integral first derivatives.
 Leave Link  701 at Wed Oct  7 14:48:33 2020, MaxMem=  2684354560 cpu:               3.3 elap:               0.6
 (Enter /udrive/faculty/rpeverati/g16/g16/l702.exe)
 L702 exits ... SP integral derivatives will be done elsewhere.
 Leave Link  702 at Wed Oct  7 14:48:34 2020, MaxMem=  2684354560 cpu:               1.1 elap:               0.4
 (Enter /udrive/faculty/rpeverati/g16/g16/l703.exe)
 Integral derivatives from FoFJK, PRISM(SPDF).
 Compute integral first derivatives, UseDBF=F ICtDFT=           0.
 Calling FoFJK, ICntrl=      2527 FMM=F ISym2X=1 I1Cent= 0 IOpClX= 0 NMat=1 NMatS=1 NMatT=0.
 FoFJK:  IHMeth= 1 ICntrl=    2527 DoSepK=F KAlg= 0 I1Cent=           0 FoldK=F
 IRaf=         0 NMat=       1 IRICut=       1 DoRegI=T DoRafI=F ISym2E= 1 IDoP0=0 IntGTp=1.
 FoFCou: FMM=F IPFlag=           0 FMFlag=      100000 FMFlg1=         800
         NFxFlg=           0 DoJE=F BraDBF=F KetDBF=F FulRan=T
         wScrn=  0.000000 ICntrl=      2527 IOpCl=  0 I1Cent=           0 NGrid=           0
         NMat0=    1 NMatS0=      1 NMatT0=    0 NMatD0=    1 NMtDS0=    0 NMtDT0=    0
 Petite list used in FoFCou.
 Leave Link  703 at Wed Oct  7 14:48:35 2020, MaxMem=  2684354560 cpu:               5.3 elap:               0.8
 (Enter /udrive/faculty/rpeverati/g16/g16/l716.exe)
 Dipole        =-1.75960877D-01 1.82895655D-01 0.00000000D+00
 ***** Axes restored to original set *****
 -------------------------------------------------------------------
 Center     Atomic                   Forces (Hartrees/Bohr)
 Number     Number              X              Y              Z
 -------------------------------------------------------------------
      1        7          -0.000139873   -0.004832941   -0.000000000
      2        7          -0.006965038    0.008864555   -0.000000000
      3        1           0.007104911   -0.004031614   -0.000000000
 -------------------------------------------------------------------
 Cartesian Forces:  Max     0.008864555 RMS     0.004912599
 Leave Link  716 at Wed Oct  7 14:48:36 2020, MaxMem=  2684354560 cpu:               1.5 elap:               0.6
 (Enter /udrive/faculty/rpeverati/g16/g16/l103.exe)

 GradGradGradGradGradGradGradGradGradGradGradGradGradGradGradGradGradGrad
 Berny optimization.
 Optmz: redundant internal coordinate code flag= 1
 Red2BG:  D1=  5.78D-01 OD1=  6.50D-03 B2RMS=  0.00D+00 IAprox=0
 FormGI is forming the generalized inverse of G from B-inverse, IUseBI=4.
 Internal  Forces:  Max     0.008166969 RMS     0.005485525
 Search for a saddle point.
 Step number   2 out of a maximum of   50
 All quantities printed in internal units (Hartrees-Bohrs-Radians)
 Swapping is turned off.
 Update second derivatives using D2CorX and points    1    2
 The second derivative matrix:
                          R1        R2        A1
           R1           1.49786
           R2          -0.05318   0.08595
           A1           0.00243   0.00533   0.16689
 ITU=  0  0
 Eigenvectors of the second derivative matrix:
                           1         2         3
     Eigenvalues --     0.08360   0.16724   1.49986
   1         R1         0.03761  -0.00078  -0.99929
   2         R2         0.99718  -0.06497   0.03758
   3         A1        -0.06495  -0.99789  -0.00167
 Eigenvalue     1 is   8.36D-02 should be less than     0.000000 Eigenvector:
                          R2        A1        R1
   1                    0.99718  -0.06495   0.03761
 RLam0= 8.43D-02.
 Iter=   1 RLamda= 0.00000000D+00 Sum=-2.38717769D-05.
 Iter=   2 RLamda=-2.38717769D-05 Sum=-2.38705965D-05.
 RFO step:  Lambda0=8.434425394D-02 Lambda=-2.38717769D-05.
 Linear search not attempted -- option 19 set.
 Iteration  1 RMS(Cart)=  0.00448688 RMS(Int)=  0.00001339
 Iteration  2 RMS(Cart)=  0.00001643 RMS(Int)=  0.00000000
 Iteration  3 RMS(Cart)=  0.00000000 RMS(Int)=  0.00000000
 ITry= 1 IFail=0 DXMaxC= 5.90D-03 DCOld= 1.00D+10 DXMaxT= 1.00D-01 DXLimC= 3.00D+00 Rises=F
 ClnCor:  largest displacement from symmetrization is 6.28D-16 for atom     3.
 Variable       Old X    -DE/DX   Delta X   Delta X   Delta X     New X
                                 (Linear)    (Quad)   (Total)
    R1        2.15943   0.00483   0.00000   0.00368   0.00368   2.16311
    R2        2.75301  -0.00817   0.00000   0.00648   0.00648   2.75950
    A1        2.08383  -0.00050   0.00000  -0.00658  -0.00658   2.07725
         Item               Value     Threshold  Converged?
 Maximum Force            0.008167     0.000450     NO 
 RMS     Force            0.005486     0.000300     NO 
 Maximum Displacement     0.005896     0.001800     NO 
 RMS     Displacement     0.004491     0.001200     NO 
 Predicted change in Energy= 4.588782D-05
 Lowest energy point so far.  Saving SCF results.
 Largest change from initial coordinates is atom    3       0.059 Angstoms.
 GradGradGradGradGradGradGradGradGradGradGradGradGradGradGradGradGradGrad

 Leave Link  103 at Wed Oct  7 14:48:37 2020, MaxMem=  2684354560 cpu:               1.5 elap:               0.4
 (Enter /udrive/faculty/rpeverati/g16/g16/l202.exe)
                          Input orientation:                          
 ---------------------------------------------------------------------
 Center     Atomic      Atomic             Coordinates (Angstroms)
 Number     Number       Type             X           Y           Z
 ---------------------------------------------------------------------
      1          7           0        0.102478   -0.666554    0.000000
      2          7           0        0.085148    0.477983    0.000000
      3          1           0       -1.202386    1.166912    0.000000
 ---------------------------------------------------------------------
                    Distance matrix (angstroms):
                    1          2          3
     1  N    0.000000
     2  N    1.144668   0.000000
     3  H    2.250393   1.460263   0.000000
 Stoichiometry    HN2(2)
 Framework group  CS[SG(HN2)]
 Deg. of freedom     3
 Full point group                 CS      NOp   2
 RotChk:  IX=0 Diff= 5.71D-03
 Largest Abelian subgroup         CS      NOp   2
 Largest concise Abelian subgroup C1      NOp   1
                         Standard orientation:                         
 ---------------------------------------------------------------------
 Center     Atomic      Atomic             Coordinates (Angstroms)
 Number     Number       Type             X           Y           Z
 ---------------------------------------------------------------------
      1          7           0        0.085130   -0.657713    0.000000
      2          7           0        0.085130    0.486956    0.000000
      3          1           0       -1.191826    1.195298    0.000000
 ---------------------------------------------------------------------
 Rotational constants (GHZ):         383.3017186          45.7885872          40.9024486
 Leave Link  202 at Wed Oct  7 14:48:37 2020, MaxMem=  2684354560 cpu:               1.7 elap:               0.6
 (Enter /udrive/faculty/rpeverati/g16/g16/l301.exe)
 Standard basis: 6-31G(d) (5D, 7F)
 Ernie: Thresh=  0.10000D-02 Tol=  0.10000D-05 Strict=F.
 There are    24 symmetry adapted cartesian basis functions of A'  symmetry.
 There are     8 symmetry adapted cartesian basis functions of A"  symmetry.
 There are    22 symmetry adapted basis functions of A'  symmetry.
 There are     8 symmetry adapted basis functions of A"  symmetry.
    30 basis functions,    60 primitive gaussians,    32 cartesian basis functions
     8 alpha electrons        7 beta electrons
       nuclear repulsion energy        26.8353114655 Hartrees.
 IExCor=  402 DFT=T Ex=B Corr=LYP ExCW=0 ScaHFX=  0.000000
 ScaDFX=  1.000000  1.000000  1.000000  1.000000 ScalE2=  1.000000  1.000000
 IRadAn=      5 IRanWt=     -1 IRanGd=            0 ICorTp=0 IEmpDi=  4
 NAtoms=    3 NActive=    3 NUniq=    3 SFac= 1.00D+00 NAtFMM=   60 NAOKFM=F Big=F
 Integral buffers will be    131072 words long.
 Raffenetti 2 integral format.
 Two-electron integral symmetry is turned on.
 Leave Link  301 at Wed Oct  7 14:48:38 2020, MaxMem=  2684354560 cpu:               1.7 elap:               0.5
 (Enter /udrive/faculty/rpeverati/g16/g16/l302.exe)
 NPDir=0 NMtPBC=     1 NCelOv=     1 NCel=       1 NClECP=     1 NCelD=      1
         NCelK=      1 NCelE2=     1 NClLst=     1 CellRange=     0.0.
 One-electron integrals computed using PRISM.
 One-electron integral symmetry used in STVInt
 NBasis=    30 RedAO= T EigKep=  6.53D-03  NBF=    22     8
 NBsUse=    30 1.00D-06 EigRej= -1.00D+00 NBFU=    22     8
 Precomputing XC quadrature grid using
 IXCGrd= 4 IRadAn=           5 IRanWt=          -1 IRanGd=           0 AccXCQ= 0.00D+00.
 Generated NRdTot=       0 NPtTot=           0 NUsed=           0 NTot=          32
 NSgBfM=    32    32    32    32    32 MxSgAt=     3 MxSgA2=     3.
 Leave Link  302 at Wed Oct  7 14:48:39 2020, MaxMem=  2684354560 cpu:               3.5 elap:               0.6
 (Enter /udrive/faculty/rpeverati/g16/g16/l303.exe)
 DipDrv:  MaxL=1.
 Leave Link  303 at Wed Oct  7 14:48:40 2020, MaxMem=  2684354560 cpu:               1.6 elap:               0.5
 (Enter /udrive/faculty/rpeverati/g16/g16/l401.exe)
 Initial guess from the checkpoint file:  "MN_59_hn2ts_BH76_BLYP_631Gs.chk"
 SCF N**3 symmetry information disabled.
 B after Tr=    -0.000000    0.000000    0.000000
         Rot=    0.999999    0.000000    0.000000   -0.001049 Ang=  -0.12 deg.
 Guess basis will be translated and rotated to current coordinates.
 JPrj=2 DoOrth=T DoCkMO=T.
 Initial guess orbital symmetries:
 Alpha Orbitals:
       Occupied  (A') (A') (A') (A') (A') (A") (A') (A')
       Virtual   (A") (A') (A') (A') (A") (A') (A') (A") (A') (A')
                 (A') (A') (A") (A') (A") (A') (A") (A') (A') (A')
                 (A") (A')
 Beta  Orbitals:
       Occupied  (A') (A') (A') (A') (A') (A") (A')
       Virtual   (A') (A") (A') (A') (A') (A") (A') (A') (A") (A')
                 (A') (A') (A') (A") (A') (A") (A') (A") (A') (A')
                 (A") (A') (A')
 The electronic state of the initial guess is 2-A'.
 Initial guess <Sx>= 0.0000 <Sy>= 0.0000 <Sz>= 0.5000 <S**2>= 0.7572 S= 0.5036
 Leave Link  401 at Wed Oct  7 14:48:40 2020, MaxMem=  2684354560 cpu:               2.4 elap:               0.5
 (Enter /udrive/faculty/rpeverati/g16/g16/l502.exe)
 Keep J ints in memory in symmetry-blocked form, NReq=10459184.
 FoFCou: FMM=F IPFlag=           0 FMFlag=           0 FMFlg1=           0
         NFxFlg=           0 DoJE=F BraDBF=F KetDBF=F FulRan=T
         wScrn=  0.000000 ICntrl=       600 IOpCl=  0 I1Cent=           0 NGrid=           0
         NMat0=    1 NMatS0=    465 NMatT0=    0 NMatD0=    1 NMtDS0=    0 NMtDT0=    0
 Petite list used in FoFCou.
 UHF open shell SCF:
 Using DIIS extrapolation, IDIIS=  1040.
 NGot=  2684354560 LenX=  2684292770 LenY=  2684291305
 Requested convergence on RMS density matrix=1.00D-08 within 120 cycles.
 Requested convergence on MAX density matrix=1.00D-06.
 Requested convergence on             energy=1.00D-06.
 No special actions if energy rises.

 Cycle   1  Pass 1  IDiag  1:
 E= -109.993874707765    
 DIIS: error= 3.27D-04 at cycle   1 NSaved=   1.
 NSaved= 1 IEnMin= 1 EnMin= -109.993874707765     IErMin= 1 ErrMin= 3.27D-04
 ErrMax= 3.27D-04  0.00D+00 EMaxC= 1.00D-01 BMatC= 1.88D-05 BMatP= 1.88D-05
 IDIUse=3 WtCom= 9.97D-01 WtEn= 3.27D-03
 Coeff-Com:  0.100D+01
 Coeff-En:   0.100D+01
 Coeff:      0.100D+01
 Gap=     0.121 Goal=   None    Shift=    0.000
 Gap=     0.231 Goal=   None    Shift=    0.000
 RMSDP=1.43D-04 MaxDP=1.04D-03              OVMax= 2.18D-03

 Cycle   2  Pass 1  IDiag  1:
 E= -109.993881919077     Delta-E=       -0.000007211311 Rises=F Damp=F
 DIIS: error= 1.62D-04 at cycle   2 NSaved=   2.
 NSaved= 2 IEnMin= 2 EnMin= -109.993881919077     IErMin= 2 ErrMin= 1.62D-04
 ErrMax= 1.62D-04  0.00D+00 EMaxC= 1.00D-01 BMatC= 3.87D-06 BMatP= 1.88D-05
 IDIUse=3 WtCom= 9.98D-01 WtEn= 1.62D-03
 Coeff-Com:  0.236D+00 0.764D+00
 Coeff-En:   0.000D+00 0.100D+01
 Coeff:      0.236D+00 0.764D+00
 Gap=     0.121 Goal=   None    Shift=    0.000
 Gap=     0.232 Goal=   None    Shift=    0.000
 RMSDP=5.78D-05 MaxDP=8.72D-04 DE=-7.21D-06 OVMax= 7.56D-04

 Cycle   3  Pass 1  IDiag  1:
 E= -109.993881745951     Delta-E=        0.000000173125 Rises=F Damp=F
 DIIS: error= 2.32D-04 at cycle   3 NSaved=   3.
 NSaved= 3 IEnMin= 2 EnMin= -109.993881919077     IErMin= 2 ErrMin= 1.62D-04
 ErrMax= 2.32D-04  0.00D+00 EMaxC= 1.00D-01 BMatC= 5.20D-06 BMatP= 3.87D-06
 IDIUse=3 WtCom= 3.96D-01 WtEn= 6.04D-01
 Coeff-Com:  0.458D-01 0.531D+00 0.423D+00
 Coeff-En:   0.000D+00 0.535D+00 0.465D+00
 Coeff:      0.182D-01 0.533D+00 0.449D+00
 Gap=     0.121 Goal=   None    Shift=    0.000
 Gap=     0.232 Goal=   None    Shift=    0.000
 RMSDP=3.50D-05 MaxDP=3.98D-04 DE= 1.73D-07 OVMax= 6.34D-04

 Cycle   4  Pass 1  IDiag  1:
 E= -109.993882402054     Delta-E=       -0.000000656103 Rises=F Damp=F
 DIIS: error= 1.89D-04 at cycle   4 NSaved=   4.
 NSaved= 4 IEnMin= 4 EnMin= -109.993882402054     IErMin= 2 ErrMin= 1.62D-04
 ErrMax= 1.89D-04  0.00D+00 EMaxC= 1.00D-01 BMatC= 2.51D-06 BMatP= 3.87D-06
 IDIUse=3 WtCom= 9.98D-01 WtEn= 1.89D-03
 EnCoef did     5 forward-backward iterations
 Coeff-Com:  0.371D-03 0.313D+00 0.374D+00 0.312D+00
 Coeff-En:   0.000D+00 0.139D+00 0.325D+00 0.536D+00
 Coeff:      0.371D-03 0.313D+00 0.374D+00 0.313D+00
 Gap=     0.121 Goal=   None    Shift=    0.000
 Gap=     0.232 Goal=   None    Shift=    0.000
 RMSDP=2.32D-05 MaxDP=2.92D-04 DE=-6.56D-07 OVMax= 4.14D-04

 Cycle   5  Pass 1  IDiag  1:
 E= -109.993882913046     Delta-E=       -0.000000510992 Rises=F Damp=F
 DIIS: error= 2.81D-05 at cycle   5 NSaved=   5.
 NSaved= 5 IEnMin= 5 EnMin= -109.993882913046     IErMin= 5 ErrMin= 2.81D-05
 ErrMax= 2.81D-05  0.00D+00 EMaxC= 1.00D-01 BMatC= 7.61D-08 BMatP= 2.51D-06
 IDIUse=1 WtCom= 1.00D+00 WtEn= 0.00D+00
 Coeff-Com: -0.253D-02 0.924D-01 0.140D+00 0.196D+00 0.574D+00
 Coeff:     -0.253D-02 0.924D-01 0.140D+00 0.196D+00 0.574D+00
 Gap=     0.121 Goal=   None    Shift=    0.000
 Gap=     0.232 Goal=   None    Shift=    0.000
 RMSDP=7.69D-06 MaxDP=1.09D-04 DE=-5.11D-07 OVMax= 1.68D-04

 Cycle   6  Pass 1  IDiag  1:
 E= -109.993882938521     Delta-E=       -0.000000025474 Rises=F Damp=F
 DIIS: error= 2.54D-06 at cycle   6 NSaved=   6.
 NSaved= 6 IEnMin= 6 EnMin= -109.993882938521     IErMin= 6 ErrMin= 2.54D-06
 ErrMax= 2.54D-06  0.00D+00 EMaxC= 1.00D-01 BMatC= 1.24D-09 BMatP= 7.61D-08
 IDIUse=1 WtCom= 1.00D+00 WtEn= 0.00D+00
 Coeff-Com: -0.246D-03-0.309D-01-0.390D-01-0.241D-01 0.487D-01 0.105D+01
 Coeff:     -0.246D-03-0.309D-01-0.390D-01-0.241D-01 0.487D-01 0.105D+01
 Gap=     0.121 Goal=   None    Shift=    0.000
 Gap=     0.232 Goal=   None    Shift=    0.000
 RMSDP=1.28D-06 MaxDP=1.36D-05 DE=-2.55D-08 OVMax= 1.80D-05

 Cycle   7  Pass 1  IDiag  1:
 E= -109.993882939326     Delta-E=       -0.000000000806 Rises=F Damp=F
 DIIS: error= 1.08D-06 at cycle   7 NSaved=   7.
 NSaved= 7 IEnMin= 7 EnMin= -109.993882939326     IErMin= 7 ErrMin= 1.08D-06
 ErrMax= 1.08D-06  0.00D+00 EMaxC= 1.00D-01 BMatC= 1.45D-10 BMatP= 1.24D-09
 IDIUse=1 WtCom= 1.00D+00 WtEn= 0.00D+00
 Coeff-Com: -0.579D-04-0.167D-01-0.237D-01-0.229D-01-0.288D-01 0.291D+00
 Coeff-Com:  0.801D+00
 Coeff:     -0.579D-04-0.167D-01-0.237D-01-0.229D-01-0.288D-01 0.291D+00
 Coeff:      0.801D+00
 Gap=     0.121 Goal=   None    Shift=    0.000
 Gap=     0.232 Goal=   None    Shift=    0.000
 RMSDP=3.52D-07 MaxDP=3.79D-06 DE=-8.06D-10 OVMax= 6.20D-06

 Cycle   8  Pass 1  IDiag  1:
 E= -109.993882939405     Delta-E=       -0.000000000079 Rises=F Damp=F
 DIIS: error= 4.09D-07 at cycle   8 NSaved=   8.
 NSaved= 8 IEnMin= 8 EnMin= -109.993882939405     IErMin= 8 ErrMin= 4.09D-07
 ErrMax= 4.09D-07  0.00D+00 EMaxC= 1.00D-01 BMatC= 1.20D-11 BMatP= 1.45D-10
 IDIUse=1 WtCom= 1.00D+00 WtEn= 0.00D+00
 Coeff-Com:  0.105D-03 0.506D-02 0.627D-02 0.442D-02-0.688D-02-0.155D+00
 Coeff-Com:  0.179D-01 0.113D+01
 Coeff:      0.105D-03 0.506D-02 0.627D-02 0.442D-02-0.688D-02-0.155D+00
 Coeff:      0.179D-01 0.113D+01
 Gap=     0.121 Goal=   None    Shift=    0.000
 Gap=     0.232 Goal=   None    Shift=    0.000
 RMSDP=1.60D-07 MaxDP=2.08D-06 DE=-7.91D-11 OVMax= 3.68D-06

 Cycle   9  Pass 1  IDiag  1:
 E= -109.993882939416     Delta-E=       -0.000000000011 Rises=F Damp=F
 DIIS: error= 1.31D-07 at cycle   9 NSaved=   9.
 NSaved= 9 IEnMin= 9 EnMin= -109.993882939416     IErMin= 9 ErrMin= 1.31D-07
 ErrMax= 1.31D-07  0.00D+00 EMaxC= 1.00D-01 BMatC= 5.33D-13 BMatP= 1.20D-11
 IDIUse=1 WtCom= 1.00D+00 WtEn= 0.00D+00
 Coeff-Com: -0.870D-05 0.519D-03 0.993D-03 0.842D-03 0.257D-02-0.758D-02
 Coeff-Com: -0.464D-01-0.683D-01 0.112D+01
 Coeff:     -0.870D-05 0.519D-03 0.993D-03 0.842D-03 0.257D-02-0.758D-02
 Coeff:     -0.464D-01-0.683D-01 0.112D+01
 Gap=     0.121 Goal=   None    Shift=    0.000
 Gap=     0.232 Goal=   None    Shift=    0.000
 RMSDP=3.05D-08 MaxDP=4.65D-07 DE=-1.09D-11 OVMax= 8.34D-07

 Cycle  10  Pass 1  IDiag  1:
 E= -109.993882939417     Delta-E=       -0.000000000000 Rises=F Damp=F
 DIIS: error= 1.51D-08 at cycle  10 NSaved=  10.
 NSaved=10 IEnMin=10 EnMin= -109.993882939417     IErMin=10 ErrMin= 1.51D-08
 ErrMax= 1.51D-08  0.00D+00 EMaxC= 1.00D-01 BMatC= 1.48D-14 BMatP= 5.33D-13
 IDIUse=1 WtCom= 1.00D+00 WtEn= 0.00D+00
 Coeff-Com: -0.217D-05-0.904D-04-0.138D-03-0.511D-04 0.406D-03 0.293D-02
 Coeff-Com: -0.132D-02-0.306D-01 0.234D-01 0.101D+01
 Coeff:     -0.217D-05-0.904D-04-0.138D-03-0.511D-04 0.406D-03 0.293D-02
 Coeff:     -0.132D-02-0.306D-01 0.234D-01 0.101D+01
 Gap=     0.121 Goal=   None    Shift=    0.000
 Gap=     0.232 Goal=   None    Shift=    0.000
 RMSDP=4.28D-09 MaxDP=5.03D-08 DE=-3.69D-13 OVMax= 8.98D-08

 SCF Done:  E(UB-LYP) =  -109.993882939     A.U. after   10 cycles
            NFock= 10  Conv=0.43D-08     -V/T= 2.0076
 <Sx>= 0.0000 <Sy>= 0.0000 <Sz>= 0.5000 <S**2>= 0.7573 S= 0.5036
 <L.S>= 0.000000000000E+00
 KE= 1.091688415069D+02 PE=-3.107151360999D+02 EE= 6.471710018817D+01
 Annihilation of the first spin contaminant:
 S**2 before annihilation     0.7573,   after     0.7500
 Leave Link  502 at Wed Oct  7 14:48:42 2020, MaxMem=  2684354560 cpu:              12.1 elap:               1.3
 (Enter /udrive/faculty/rpeverati/g16/g16/l508.exe)
 QCSCF skips out because SCF is already converged.
 Leave Link  508 at Wed Oct  7 14:48:42 2020, MaxMem=  2684354560 cpu:               0.2 elap:               0.3
 (Enter /udrive/faculty/rpeverati/g16/g16/l701.exe)
 ... and contract with generalized density number  0.
 Compute integral first derivatives.
 Leave Link  701 at Wed Oct  7 14:48:43 2020, MaxMem=  2684354560 cpu:               3.5 elap:               0.7
 (Enter /udrive/faculty/rpeverati/g16/g16/l702.exe)
 L702 exits ... SP integral derivatives will be done elsewhere.
 Leave Link  702 at Wed Oct  7 14:48:44 2020, MaxMem=  2684354560 cpu:               0.8 elap:               0.5
 (Enter /udrive/faculty/rpeverati/g16/g16/l703.exe)
 Integral derivatives from FoFJK, PRISM(SPDF).
 Compute integral first derivatives, UseDBF=F ICtDFT=           0.
 Calling FoFJK, ICntrl=      2527 FMM=F ISym2X=1 I1Cent= 0 IOpClX= 0 NMat=1 NMatS=1 NMatT=0.
 FoFJK:  IHMeth= 1 ICntrl=    2527 DoSepK=F KAlg= 0 I1Cent=           0 FoldK=F
 IRaf=         0 NMat=       1 IRICut=       1 DoRegI=T DoRafI=F ISym2E= 1 IDoP0=0 IntGTp=1.
 FoFCou: FMM=F IPFlag=           0 FMFlag=      100000 FMFlg1=         800
         NFxFlg=           0 DoJE=F BraDBF=F KetDBF=F FulRan=T
         wScrn=  0.000000 ICntrl=      2527 IOpCl=  0 I1Cent=           0 NGrid=           0
         NMat0=    1 NMatS0=      1 NMatT0=    0 NMatD0=    1 NMtDS0=    0 NMtDT0=    0
 Petite list used in FoFCou.
 Leave Link  703 at Wed Oct  7 14:48:45 2020, MaxMem=  2684354560 cpu:               5.3 elap:               0.8
 (Enter /udrive/faculty/rpeverati/g16/g16/l716.exe)
 Dipole        =-1.77083180D-01 1.81070608D-01 0.00000000D+00
 ***** Axes restored to original set *****
 -------------------------------------------------------------------
 Center     Atomic                   Forces (Hartrees/Bohr)
 Number     Number              X              Y              Z
 -------------------------------------------------------------------
      1        7           0.000070176   -0.000203426   -0.000000000
      2        7          -0.007438781    0.004086052   -0.000000000
      3        1           0.007368605   -0.003882626   -0.000000000
 -------------------------------------------------------------------
 Cartesian Forces:  Max     0.007438781 RMS     0.003964407
 Leave Link  716 at Wed Oct  7 14:48:46 2020, MaxMem=  2684354560 cpu:               1.2 elap:               0.6
 (Enter /udrive/faculty/rpeverati/g16/g16/l103.exe)

 GradGradGradGradGradGradGradGradGradGradGradGradGradGradGradGradGradGrad
 Berny optimization.
 Optmz: redundant internal coordinate code flag= 1
 Red2BG:  D1=  5.74D-01 OD1=  4.19D-03 B2RMS=  0.00D+00 IAprox=0
 FormGI is forming the generalized inverse of G from B-inverse, IUseBI=4.
 Internal  Forces:  Max     0.008328690 RMS     0.004810753
 Search for a saddle point.
 Step number   3 out of a maximum of   50
 All quantities printed in internal units (Hartrees-Bohrs-Radians)
 Swapping is turned off.
 Update second derivatives using D2CorX and points    1    2    3
 The second derivative matrix:
                          R1        R2        A1
           R1           1.45407
           R2          -0.07188   0.08510
           A1           0.03924   0.01908   0.13910
 ITU=  0  0  0
 Eigenvectors of the second derivative matrix:
                           1         2         3
     Eigenvalues --     0.07434   0.14498   1.45894
   1         R1        -0.05831   0.01111  -0.99824
   2         R2        -0.94745  -0.31567   0.05183
   3         A1         0.31454  -0.94880  -0.02893
 Eigenvalue     1 is   7.43D-02 should be less than     0.000000 Eigenvector:
                          R2        A1        R1
   1                   -0.94745   0.31454  -0.05831
 RLam0= 7.52D-02.
 Iter=   1 RLamda= 0.00000000D+00 Sum=-4.31561680D-05.
 Iter=   2 RLamda=-4.31561680D-05 Sum=-4.31434012D-05.
 Iter=   3 RLamda=-4.31434012D-05 Sum=-4.31434049D-05.
 RFO step:  Lambda0=7.517147188D-02 Lambda=-4.31434012D-05.
 Linear search not attempted -- option 19 set.
 Iteration  1 RMS(Cart)=  0.01385046 RMS(Int)=  0.00012758
 Iteration  2 RMS(Cart)=  0.00013025 RMS(Int)=  0.00000000
 Iteration  3 RMS(Cart)=  0.00000000 RMS(Int)=  0.00000000
 ITry= 1 IFail=0 DXMaxC= 1.65D-02 DCOld= 1.00D+10 DXMaxT= 1.00D-01 DXLimC= 3.00D+00 Rises=F
 ClnCor:  largest displacement from symmetrization is 4.44D-16 for atom     3.
 Variable       Old X    -DE/DX   Delta X   Delta X   Delta X     New X
                                 (Linear)    (Quad)   (Total)
    R1        2.16311   0.00020   0.00000   0.00163   0.00163   2.16474
    R2        2.75950  -0.00833   0.00000   0.01084   0.01084   2.77034
    A1        2.07725   0.00015   0.00000  -0.02171  -0.02171   2.05554
         Item               Value     Threshold  Converged?
 Maximum Force            0.008329     0.000450     NO 
 RMS     Force            0.004811     0.000300     NO 
 Maximum Displacement     0.016475     0.001800     NO 
 RMS     Displacement     0.013909     0.001200     NO 
 Predicted change in Energy= 1.256997D-04
 Largest change from initial coordinates is atom    3       0.050 Angstoms.
 GradGradGradGradGradGradGradGradGradGradGradGradGradGradGradGradGradGrad

 Leave Link  103 at Wed Oct  7 14:48:47 2020, MaxMem=  2684354560 cpu:               1.1 elap:               0.5
 (Enter /udrive/faculty/rpeverati/g16/g16/l202.exe)
                          Input orientation:                          
 ---------------------------------------------------------------------
 Center     Atomic      Atomic             Coordinates (Angstroms)
 Number     Number       Type             X           Y           Z
 ---------------------------------------------------------------------
      1          7           0        0.095720   -0.664584    0.000000
      2          7           0        0.093866    0.480946    0.000000
      3          1           0       -1.204346    1.161979    0.000000
 ---------------------------------------------------------------------
                    Distance matrix (angstroms):
                    1          2          3
     1  N    0.000000
     2  N    1.145532   0.000000
     3  H    2.241986   1.466001   0.000000
 Stoichiometry    HN2(2)
 Framework group  CS[SG(HN2)]
 Deg. of freedom     3
 Full point group                 CS      NOp   2
 RotChk:  IX=0 Diff= 1.91D-02
 Largest Abelian subgroup         CS      NOp   2
 Largest concise Abelian subgroup C1      NOp   1
                         Standard orientation:                         
 ---------------------------------------------------------------------
 Center     Atomic      Atomic             Coordinates (Angstroms)
 Number     Number       Type             X           Y           Z
 ---------------------------------------------------------------------
      1          7           0        0.086474   -0.656492    0.000000
      2          7           0        0.086474    0.489039    0.000000
      3          1           0       -1.210635    1.172171    0.000000
 ---------------------------------------------------------------------
 Rotational constants (GHZ):         369.3580728          45.9827876          40.8919888
 Leave Link  202 at Wed Oct  7 14:48:47 2020, MaxMem=  2684354560 cpu:               1.4 elap:               0.5
 (Enter /udrive/faculty/rpeverati/g16/g16/l301.exe)
 Standard basis: 6-31G(d) (5D, 7F)
 Ernie: Thresh=  0.10000D-02 Tol=  0.10000D-05 Strict=F.
 There are    24 symmetry adapted cartesian basis functions of A'  symmetry.
 There are     8 symmetry adapted cartesian basis functions of A"  symmetry.
 There are    22 symmetry adapted basis functions of A'  symmetry.
 There are     8 symmetry adapted basis functions of A"  symmetry.
    30 basis functions,    60 primitive gaussians,    32 cartesian basis functions
     8 alpha electrons        7 beta electrons
       nuclear repulsion energy        26.8144817062 Hartrees.
 IExCor=  402 DFT=T Ex=B Corr=LYP ExCW=0 ScaHFX=  0.000000
 ScaDFX=  1.000000  1.000000  1.000000  1.000000 ScalE2=  1.000000  1.000000
 IRadAn=      5 IRanWt=     -1 IRanGd=            0 ICorTp=0 IEmpDi=  4
 NAtoms=    3 NActive=    3 NUniq=    3 SFac= 1.00D+00 NAtFMM=   60 NAOKFM=F Big=F
 Integral buffers will be    131072 words long.
 Raffenetti 2 integral format.
 Two-electron integral symmetry is turned on.
 Leave Link  301 at Wed Oct  7 14:48:48 2020, MaxMem=  2684354560 cpu:               1.8 elap:               0.5
 (Enter /udrive/faculty/rpeverati/g16/g16/l302.exe)
 NPDir=0 NMtPBC=     1 NCelOv=     1 NCel=       1 NClECP=     1 NCelD=      1
         NCelK=      1 NCelE2=     1 NClLst=     1 CellRange=     0.0.
 One-electron integrals computed using PRISM.
 One-electron integral symmetry used in STVInt
 NBasis=    30 RedAO= T EigKep=  6.55D-03  NBF=    22     8
 NBsUse=    30 1.00D-06 EigRej= -1.00D+00 NBFU=    22     8
 Precomputing XC quadrature grid using
 IXCGrd= 4 IRadAn=           5 IRanWt=          -1 IRanGd=           0 AccXCQ= 0.00D+00.
[...]
              Anisotropic Spin Dipole Couplings in Principal Axis System
 ---------------------------------------------------------------------------------

       Atom             a.u.   MegaHertz   Gauss  10(-4) cm-1        Axes

              Baa    -0.3701   -14.273    -5.093    -4.761 -0.2350  0.9720  0.0000
     1 N(14)  Bbb    -0.3359   -12.956    -4.623    -4.322  0.0000  0.0000  1.0000
              Bcc     0.7060    27.229     9.716     9.083  0.9720  0.2350  0.0000
 
              Baa    -0.2352    -9.070    -3.236    -3.025  0.9209 -0.3897  0.0000
     2 N(14)  Bbb    -0.0525    -2.026    -0.723    -0.676  0.0000  0.0000  1.0000
              Bcc     0.2877    11.096     3.959     3.701  0.3897  0.9209  0.0000
 
              Baa    -0.0160    -8.537    -3.046    -2.848  0.9387 -0.3448  0.0000
     3 H(1)   Bbb     0.0077     4.126     1.472     1.376  0.0000  0.0000  1.0000
              Bcc     0.0083     4.411     1.574     1.471  0.3448  0.9387  0.0000
 

 ---------------------------------------------------------------------------------

 No NMR shielding tensors so no spin-rotation constants.
 Leave Link  601 at Wed Oct  7 14:49:59 2020, MaxMem=  2684354560 cpu:               5.8 elap:               1.0
 (Enter /udrive/faculty/rpeverati/g16/g16/l701.exe)
 ... and contract with generalized density number  0.
 Compute integral second derivatives.
 Leave Link  701 at Wed Oct  7 14:50:01 2020, MaxMem=  2684354560 cpu:               5.3 elap:               1.0
 (Enter /udrive/faculty/rpeverati/g16/g16/l702.exe)
 L702 exits ... SP integral derivatives will be done elsewhere.
 Leave Link  702 at Wed Oct  7 14:50:01 2020, MaxMem=  2684354560 cpu:               1.6 elap:               0.6
 (Enter /udrive/faculty/rpeverati/g16/g16/l703.exe)
 Integral derivatives from FoFJK, PRISM(SPDF).
 Compute integral second derivatives, UseDBF=F ICtDFT=           0.
 Calling FoFJK, ICntrl=    100527 FMM=F ISym2X=1 I1Cent= 0 IOpClX= 0 NMat=1 NMatS=1 NMatT=0.
 FoFJK:  IHMeth= 1 ICntrl=  100527 DoSepK=F KAlg= 0 I1Cent=           0 FoldK=F
 IRaf=         0 NMat=       1 IRICut=       1 DoRegI=T DoRafI=F ISym2E= 1 IDoP0=0 IntGTp=1.
 FoFCou: FMM=F IPFlag=           0 FMFlag=      100000 FMFlg1=         800
         NFxFlg=           0 DoJE=F BraDBF=F KetDBF=F FulRan=T
         wScrn=  0.000000 ICntrl=    100527 IOpCl=  0 I1Cent=           0 NGrid=           0
         NMat0=    1 NMatS0=      1 NMatT0=    0 NMatD0=    1 NMtDS0=    0 NMtDT0=    0
 Petite list used in FoFCou.
 Leave Link  703 at Wed Oct  7 14:50:03 2020, MaxMem=  2684354560 cpu:              14.3 elap:               1.7
 (Enter /udrive/faculty/rpeverati/g16/g16/l716.exe)
 Dipole        =-1.00873978D-01 1.10915143D-01 0.00000000D+00
 Polarizability= 1.53723180D+01-7.41194000D+00 2.01781837D+01
                -2.90089991D-16 6.77716558D-16 6.12301318D+00
 Full mass-weighted force constant matrix:
 Low frequencies --- -939.7375  -12.1901   -7.7066   -0.0016   -0.0012    0.0009
 Low frequencies ---   23.8136  632.7858 2138.0651
 ******    1 imaginary frequencies (negative Signs) ****** 
 Diagonal vibrational polarizability:
        3.1796269       2.9001251       0.0000000
 Harmonic frequencies (cm**-1), IR intensities (KM/Mole), Raman scattering
 activities (A**4/AMU), depolarization ratios for plane and unpolarized
 incident light, reduced masses (AMU), force constants (mDyne/A),
 and normal coordinates:
                      1                      2                      3
                     A'                     A'                     A'
 Frequencies --   -939.7375               632.7857              2138.0651
 Red. masses --      1.0879                 1.3796                10.3614
 Frc consts  --      0.5660                 0.3255                27.9069
 IR Inten    --    182.5014                 2.3853                60.8151
  Atom  AN      X      Y      Z        X      Y      Z        X      Y      Z
     1   7    -0.00  -0.01  -0.00     0.10  -0.03   0.00    -0.00   0.61   0.00
     2   7    -0.06   0.05  -0.00    -0.13  -0.03   0.00    -0.03  -0.59   0.00
     3   1     0.84  -0.53  -0.00     0.45   0.87   0.00     0.44  -0.29   0.00

 -------------------
 - Thermochemistry -
 -------------------
 Temperature   298.150 Kelvin.  Pressure   1.00000 Atm.
 Atom     1 has atomic number  7 and mass  14.00307
 Atom     2 has atomic number  7 and mass  14.00307
 Atom     3 has atomic number  1 and mass   1.00783
 Molecular mass:    29.01397 amu.
 Principal axes and moments of inertia in atomic units:
                           1         2         3
     Eigenvalues --     5.24441  39.72844  44.97285
           X           -0.18768   0.98223   0.00000
           Y            0.98223   0.18768   0.00000
           Z            0.00000   0.00000   1.00000
 This molecule is an asymmetric top.
 Rotational symmetry number  1.
 Rotational temperatures (Kelvin)     16.51547     2.18015     1.92592
 Rotational constants (GHZ):         344.12649    45.42693    40.12957
    1 imaginary frequencies ignored.
 Zero-point vibrational energy      16573.4 (Joules/Mol)
                                    3.96113 (Kcal/Mol)
 Vibrational temperatures:    910.44  3076.20
          (Kelvin)
 
 Zero-point correction=                           0.006312 (Hartree/Particle)
 Thermal correction to Energy=                    0.009288
 Thermal correction to Enthalpy=                  0.010232
 Thermal correction to Gibbs Free Energy=        -0.015755
 Sum of electronic and zero-point Energies=           -109.986776
 Sum of electronic and thermal Energies=              -109.983800
 Sum of electronic and thermal Enthalpies=            -109.982856
 Sum of electronic and thermal Free Energies=         -110.008843
 
                     E (Thermal)             CV                S
                      KCal/Mol        Cal/Mol-Kelvin    Cal/Mol-Kelvin
 Total                    5.828              6.932             54.694
 Electronic               0.000              0.000              1.377
 Translational            0.889              2.981             36.030
 Rotational               0.889              2.981             16.890
 Vibrational              4.051              0.970              0.397
                       Q            Log10(Q)             Ln(Q)
 Total Bot       0.176438D+08          7.246593         16.685897
 Total V=0       0.141293D+11         10.150122         23.371519
 Vib (Bot)       0.131062D-02         -2.882522         -6.637251
 Vib (V=0)       0.104956D+01          0.021007          0.048370
 Electronic      0.200000D+01          0.301030          0.693147
 Translational   0.614278D+07          6.788365         15.630787
 Rotational      0.109577D+04          3.039720          6.999214
 
                                                          TS search on BH76.
                                                             IR Spectrum
 
     2                                                                                                                               
     1                                                                                         6                                     
     3                                                                                         3                                     
     8                                                                                         3                                     
 
     X                                                                                         X                                     
     X                                                                                                                               
     X                                                                                                                               
     X                                                                                                                               
     X                                                                                                                               
     X                                                                                                                               
     X                                                                                                                               
     X                                                                                                                               
     X                                                                                                                               
     X                                                                                                                               
     X                                                                                                                               
     X                                                                                                                               
     X                                                                                                                               
     X                                                                                                                               
     X                                                                                                                               
     X                                                                                                                               
     X                                                                                                                               
     X                                                                                                                               
     X                                                                                                                               
     X                                                                                                                               
 
 ***** Axes restored to original set *****
 -------------------------------------------------------------------
 Center     Atomic                   Forces (Hartrees/Bohr)
 Number     Number              X              Y              Z
 -------------------------------------------------------------------
      1        7           0.000033701   -0.000112185   -0.000000000
      2        7          -0.000087720    0.000115220   -0.000000000
      3        1           0.000054019   -0.000003036   -0.000000000
 -------------------------------------------------------------------
 Cartesian Forces:  Max     0.000115220 RMS     0.000064652
 Force constants in Cartesian coordinates: 
                1             2             3             4             5 
      1  0.207993D-01
      2 -0.238116D-01  0.121876D+01
      3  0.000000D+00  0.000000D+00 -0.350826D-04
      4 -0.282537D-01 -0.431050D-01  0.000000D+00  0.187804D-01
      5  0.108356D-01 -0.116987D+01  0.000000D+00  0.721346D-01  0.112250D+01
      6  0.000000D+00  0.000000D+00  0.208983D-04  0.000000D+00  0.000000D+00
      7  0.745445D-02  0.669166D-01  0.000000D+00  0.947335D-02 -0.829701D-01
      8  0.129760D-01 -0.488825D-01  0.000000D+00 -0.290296D-01  0.473708D-01
      9  0.000000D+00  0.000000D+00  0.141843D-04  0.000000D+00  0.000000D+00
                6             7             8             9 
      6  0.109816D-04
      7  0.000000D+00 -0.169278D-01
      8  0.000000D+00  0.160536D-01  0.151167D-02
      9 -0.318798D-04  0.000000D+00  0.000000D+00  0.176955D-04
 FormGI is forming the generalized inverse of G from B-inverse, IUseBI=4.
 Force constants in internal coordinates: 
                1             2             3 
      1  0.121906D+01
      2  0.822416D-01 -0.262094D-01
      3  0.303954D-01 -0.183930D-02  0.946473D-01
 Leave Link  716 at Wed Oct  7 14:50:04 2020, MaxMem=  2684354560 cpu:               1.9 elap:               0.7
 (Enter /udrive/faculty/rpeverati/g16/g16/l103.exe)

 GradGradGradGradGradGradGradGradGradGradGradGradGradGradGradGradGradGrad
 Berny optimization.
 Optmz: redundant internal coordinate code flag= 1
 Red2BG:  D1=  5.57D-01 OD1=  1.26D-15 B2RMS=  0.00D+00 IAprox=1
 Red2BG is reusing G-inverse.
 Internal  Forces:  Max     0.000112481 RMS     0.000081567
 Search for a local minimum.
 Step number   1 out of a maximum of    2
 All quantities printed in internal units (Hartrees-Bohrs-Radians)
 Second derivative matrix not updated -- analytic derivatives used.
 The second derivative matrix:
                          R1        R2        A1
           R1           1.21906
           R2           0.08224  -0.02621
           A1           0.03040  -0.00184   0.09465
 ITU=  0
 Eigenvectors of the second derivative matrix:
                           1         2         3
     Eigenvalues --    -0.03173   0.09396   1.22528
   1         R1        -0.06632   0.02464  -0.99749
   2         R2         0.99733   0.03216  -0.06551
   3         A1         0.03046  -0.99918  -0.02671
 Eigenvalue     1 is  -3.17D-02 should be greater than     0.000000 Eigenvector:
                          R2        R1        A1
   1                    0.99733  -0.06632   0.03046
 Angle between quadratic step and forces=  54.44 degrees.
 Linear search not attempted -- first point.
 Iteration  1 RMS(Cart)=  0.00073504 RMS(Int)=  0.00000018
 Iteration  2 RMS(Cart)=  0.00000016 RMS(Int)=  0.00000000
 ITry= 1 IFail=0 DXMaxC= 9.54D-04 DCOld= 1.00D+10 DXMaxT= 3.00D-01 DXLimC= 3.00D+00 Rises=F
 ClnCor:  largest displacement from symmetrization is 6.28D-16 for atom     3.
 Variable       Old X    -DE/DX   Delta X   Delta X   Delta X     New X
                                 (Linear)    (Quad)   (Total)
    R1        2.14644   0.00011   0.00000   0.00018   0.00018   2.14663
    R2        2.96295  -0.00005   0.00000  -0.00171  -0.00171   2.96124
    A1        2.08710   0.00007   0.00000   0.00068   0.00068   2.08779
         Item               Value     Threshold  Converged?
 Maximum Force            0.000112     0.000450     YES
 RMS     Force            0.000082     0.000300     YES
 Maximum Displacement     0.000954     0.001800     YES
 RMS     Displacement     0.000735     0.001200     YES
 Predicted change in Energy=-1.675596D-07
 Optimization completed.
    -- Stationary point found.
                           ----------------------------
                           !   Optimized Parameters   !
                           ! (Angstroms and Degrees)  !
 --------------------------                            --------------------------
 ! Name  Definition              Value          Derivative Info.                !
 --------------------------------------------------------------------------------
 ! R1    R(1,2)                  1.1358         -DE/DX =    0.0001              !
 ! R2    R(2,3)                  1.5679         -DE/DX =    0.0                 !
 ! A1    A(1,2,3)              119.5823         -DE/DX =    0.0001              !
 --------------------------------------------------------------------------------
 GradGradGradGradGradGradGradGradGradGradGradGradGradGradGradGradGradGrad

 Leave Link  103 at Wed Oct  7 14:50:05 2020, MaxMem=  2684354560 cpu:               2.6 elap:               0.7
 (Enter /udrive/faculty/rpeverati/g16/g16/l9999.exe)

 ----------------------------------------------------------------------

 Electric dipole moment (input orientation):
 (Debye = 10**-18 statcoulomb cm , SI units = C m)
                  (au)            (Debye)         (10**-30 SI)
   Tot        0.149926D+00      0.381073D+00      0.127112D+01
   x         -0.101763D+00     -0.258655D+00     -0.862779D+00
   y          0.110100D+00      0.279847D+00      0.933470D+00
   z          0.000000D+00      0.000000D+00      0.000000D+00

 Dipole polarizability, Alpha (input orientation).
 (esu units = cm**3 , SI units = C**2 m**2 J**-1)
 Alpha(0;0):
               (au)            (10**-24 esu)      (10**-40 SI)
   iso        0.138912D+02      0.205846D+01      0.229034D+01
   aniso      0.178300D+02      0.264213D+01      0.293976D+01
   xx         0.154918D+02      0.229565D+01      0.255426D+01
   yx        -0.744962D+01     -0.110392D+01     -0.122828D+01
   yy         0.200587D+02      0.297239D+01      0.330723D+01
   zx         0.000000D+00      0.000000D+00      0.000000D+00
   zy         0.000000D+00      0.000000D+00      0.000000D+00
   zz         0.612301D+01      0.907337D+00      0.100955D+01

 ----------------------------------------------------------------------

 Dipole orientation:
     7         -0.51886067         -0.47956775         -1.11080254
     7          0.54169920          0.50067674          0.47713759
     1         -0.13545921         -0.12520099          3.29294810

 Electric dipole moment (dipole orientation):
 (Debye = 10**-18 statcoulomb cm , SI units = C m)
                  (au)            (Debye)         (10**-30 SI)
   Tot        0.149926D+00      0.381073D+00      0.127112D+01
   x          0.000000D+00      0.000000D+00      0.000000D+00
   y          0.000000D+00      0.000000D+00      0.000000D+00
   z          0.149926D+00      0.381073D+00      0.127112D+01

 Dipole polarizability, Alpha (dipole orientation).
 (esu units = cm**3 , SI units = C**2 m**2 J**-1)
 Alpha(0;0):
               (au)            (10**-24 esu)      (10**-40 SI)
   iso        0.138912D+02      0.205846D+01      0.229034D+01
   aniso      0.178300D+02      0.264213D+01      0.293976D+01
   xx         0.830511D+01      0.123069D+01      0.136933D+01
   yx         0.201684D+01      0.298866D+00      0.332533D+00
   yy         0.798712D+01      0.118357D+01      0.131690D+01
   zx         0.124175D+01      0.184008D+00      0.204737D+00
   zy         0.114771D+01      0.170074D+00      0.189232D+00
   zz         0.253813D+02      0.376112D+01      0.418481D+01

 ----------------------------------------------------------------------

 Test job not archived.
 1\1\GINC-NODE26\Freq\UBLYP\6-31G(d)\H1N2(2)\RPEVERATI\07-Oct-2020\0\\#
 P Freq BLYP/6-31G* 5D 7F Integral=UltraFineGrid SCF=(NoSymm,XQC,MaxCyc
 =120) IOp(1/33=1) Geom=Check Guess=Read\\TS search on BH76.\\0,2\N,0.1
 244097056,-0.6854452192,0.\N,0.1152762083,0.4503671259,0.\H,-1.2544456
 585,1.2134188039,0.\\Version=ES64L-G16RevA.03\State=2-A'\HF=-109.99308
 82\S2=0.756199\S2-1=0.\S2A=0.750005\RMSD=5.068e-10\RMSF=6.465e-05\Zero
 Point=0.0063125\Thermal=0.0092881\Dipole=-0.1017626,0.1101004,0.\Dipol
 eDeriv=-0.0055493,0.0038554,0.,0.6127398,-0.4256829,0.,0.,0.,-0.024995
 8,0.2200982,-0.2520664,0.,-0.7742732,0.5242737,0.,0.,0.,-0.0141518,-0.
 214549,0.248211,0.,0.1615333,-0.0985909,0.,0.,0.,0.0391476\Polar=15.49
 18255,-7.4496248,20.0586763,0.,0.,6.1230132\Quadrupole=0.2910134,-0.69
 81055,0.4070921,-0.1142494,0.,0.\PG=CS [SG(H1N2)]\NImag=1\\0.02079927,
 -0.02381159,1.21875532,0.,0.,-0.00003508,-0.02825371,-0.04310498,0.,0.
 01878036,0.01083559,-1.16987282,0.,0.07213456,1.12250199,0.,0.,0.00002
 090,0.,0.,0.00001098,0.00745445,0.06691657,0.,0.00947335,-0.08297015,0
 .,-0.01692779,0.01297600,-0.04888250,0.,-0.02902958,0.04737083,0.,0.01
 605357,0.00151167,0.,0.,0.00001418,0.,0.,-0.00003188,0.,0.,0.00001770\
 \-0.00003370,0.00011218,0.,0.00008772,-0.00011522,0.,-0.00005402,0.000
 00304,0.\\\@


 TO DETECT ERRORS, THE PROGRAMMER MUST HAVE A CONNIVING MIND,
 ONE THAT DELIGHTS IN UNCOVERING FLAWS WHERE BEAUTY AND
 PERFECTION WERE ONCE THOUGHT TO LIE.

             -- THE PSYCHOLOGY OF COMPUTER PROGRAMMING
                GERALD M. WEINBERG
 Job cpu time:       0 days  0 hours  1 minutes 39.6 seconds.
 Elapsed time:       0 days  0 hours  0 minutes 17.2 seconds.
 File lengths (MBytes):  RWF=      5 Int=      0 D2E=      0 Chk=      1 Scr=      1
 Normal termination of Gaussian 16 at Wed Oct  7 14:50:06 2020.
