 Entering Gaussian System, Link 0=g16
 Input=MN_50_hco_BH76_BLYP_631Gs.in
 Output=MN_50_hco_BH76_BLYP_631Gs.log
 Initial command:
 /udrive/faculty/rpeverati/g16/g16/l1.exe "/udrive/scratch-directories/gaussian09/rpeverati/Gau-26387.inp" -scrdir="/udrive/scratch-directories/gaussian09/rpeverati/"
 Entering Link 1 = /udrive/faculty/rpeverati/g16/g16/l1.exe PID=     26388.
  
 Copyright (c) 1988,1990,1992,1993,1995,1998,2003,2009,2016,
            Gaussian, Inc.  All Rights Reserved.
  
 This is part of the Gaussian(R) 16 program.  It is based on
 the Gaussian(R) 09 system (copyright 2009, Gaussian, Inc.),
 the Gaussian(R) 03 system (copyright 2003, Gaussian, Inc.),
 the Gaussian(R) 98 system (copyright 1998, Gaussian, Inc.),
 the Gaussian(R) 94 system (copyright 1995, Gaussian, Inc.),
 the Gaussian 92(TM) system (copyright 1992, Gaussian, Inc.),
 the Gaussian 90(TM) system (copyright 1990, Gaussian, Inc.),
 the Gaussian 88(TM) system (copyright 1988, Gaussian, Inc.),
 the Gaussian 86(TM) system (copyright 1986, Carnegie Mellon
 University), and the Gaussian 82(TM) system (copyright 1983,
 Carnegie Mellon University). Gaussian is a federally registered
 trademark of Gaussian, Inc.
  
 This software contains proprietary and confidential information,
 including trade secrets, belonging to Gaussian, Inc.
  
 This software is provided under written license and may be
 used, copied, transmitted, or stored only in accord with that
 written license.
  
 The following legend is applicable only to US Government
 contracts under FAR:
  
                    RESTRICTED RIGHTS LEGEND
  
 Use, reproduction and disclosure by the US Government is
 subject to restrictions as set forth in subparagraphs (a)
 and (c) of the Commercial Computer Software - Restricted
 Rights clause in FAR 52.227-19.
  
 Gaussian, Inc.
 340 Quinnipiac St., Bldg. 40, Wallingford CT 06492
  
  
 ---------------------------------------------------------------
 Warning -- This program may not be used in any manner that
 competes with the business of Gaussian, Inc. or will provide
 assistance to any competitor of Gaussian, Inc.  The licensee
 of this program is prohibited from giving any competitor of
 Gaussian, Inc. access to this program.  By using this program,
 the user acknowledges that Gaussian, Inc. is engaged in the
 business of creating and licensing software in the field of
 computational chemistry and represents and warrants to the
 licensee that it is not a competitor of Gaussian, Inc. and that
 it will not use this program in any manner prohibited above.
 ---------------------------------------------------------------
  

 Cite this work as:
 Gaussian 16, Revision A.03,
 M. J. Frisch, G. W. Trucks, H. B. Schlegel, G. E. Scuseria, 
 M. A. Robb, J. R. Cheeseman, G. Scalmani, V. Barone, 
 G. A. Petersson, H. Nakatsuji, X. Li, M. Caricato, A. V. Marenich, 
 J. Bloino, B. G. Janesko, R. Gomperts, B. Mennucci, H. P. Hratchian, 
 J. V. Ortiz, A. F. Izmaylov, J. L. Sonnenberg, D. Williams-Young, 
 F. Ding, F. Lipparini, F. Egidi, J. Goings, B. Peng, A. Petrone, 
 T. Henderson, D. Ranasinghe, V. G. Zakrzewski, J. Gao, N. Rega, 
 G. Zheng, W. Liang, M. Hada, M. Ehara, K. Toyota, R. Fukuda, 
 J. Hasegawa, M. Ishida, T. Nakajima, Y. Honda, O. Kitao, H. Nakai, 
 T. Vreven, K. Throssell, J. A. Montgomery, Jr., J. E. Peralta, 
 F. Ogliaro, M. J. Bearpark, J. J. Heyd, E. N. Brothers, K. N. Kudin, 
 V. N. Staroverov, T. A. Keith, R. Kobayashi, J. Normand, 
 K. Raghavachari, A. P. Rendell, J. C. Burant, S. S. Iyengar, 
 J. Tomasi, M. Cossi, J. M. Millam, M. Klene, C. Adamo, R. Cammi, 
 J. W. Ochterski, R. L. Martin, K. Morokuma, O. Farkas, 
 J. B. Foresman, and D. J. Fox, Gaussian, Inc., Wallingford CT, 2016.
 
 ******************************************
 Gaussian 16:  ES64L-G16RevA.03 25-Dec-2016
                 7-Oct-2020 
 ******************************************
 %NoSave
 %nproc=12
 Will use up to   12 processors via shared memory.
 %mem=20GB
 %chk=MN_50_hco_BH76_BLYP_631Gs
 ----------------------------------------------------------------------
 #P Opt(MaxCyc=100) BLYP/6-31G* 5D 7F Integral=UltraFineGrid SCF=(NoSym
 m,XQC,MaxCyc=120) IOp(1/33=1)
 ----------------------------------------------------------------------
 1/6=100,18=20,19=15,26=4,33=1,38=1/1,3;
 2/9=110,12=2,17=6,18=5,40=1/2;
 3/5=1,6=6,7=1,8=11,11=2,25=1,30=1,71=1,74=402,75=-5/1,2,3;
 4/9=2/1;
 5/5=2,7=120,8=3,13=1,38=5/2,8;
 6/7=2,8=2,9=2,10=2,28=1/1;
 7//1,2,3,16;
 1/6=100,18=20,19=15,26=4,33=1/3(2);
 2/9=110/2;
 99//99;
 2/9=110/2;
 3/5=1,6=6,7=1,8=11,11=2,25=1,30=1,71=1,74=402,75=-5/1,2,3;
 4/5=5,9=2,16=3,69=1/1;
 5/5=2,7=120,8=3,13=1,38=5/2,8;
 7//1,2,3,16;
 1/6=100,18=20,19=15,26=4,33=1/3(-5);
 2/9=110/2;
 6/7=2,8=2,9=2,10=2,19=2,28=1/1;
 99/9=1/99;
 Leave Link    1 at Wed Oct  7 14:47:12 2020, MaxMem=  2684354560 cpu:               6.1 elap:               0.7
 (Enter /udrive/faculty/rpeverati/g16/g16/l101.exe)
 ONIOM data not found on unit 2.
 ------------------
 TS search on BH76.
 ------------------
 TstMul:  ICh=     0
 TstMul:  Mul=     2
 TstMul:  ICh=     0
 TstMul:  Mul=     2
 Symbolic Z-matrix:
 Charge =  0 Multiplicity = 2
 H                    -0.85205   1.22789   0. 
 C                     0.06086   0.58466   0. 
 O                     0.06086  -0.59197   0. 
 
 RdStrC is calling ZToCFu for IStruc=1 NZ=     3.
 PrtBox:  NBox=     1 Levels=  1 BoxLen=    8.00 SMaxX=        3.44
          Shift=            1.610150            1.118670            0.000000
 Box      1 Number                   0 centers from      1 to      3:
 After GenITR:
 ITRead=  0  0  0
 MicOpt= -1 -1 -1
 ITRead=  0  0  0
 MicOpt= -1 -1 -1
 NAtoms=      3 NQM=        3 NQMF=       0 NMMI=      0 NMMIF=      0
                NMic=       0 NMicF=      0.
                    Isotopes and Nuclear Properties:
 (Nuclear quadrupole moments (NQMom) in fm**2, nuclear magnetic moments (NMagM)
  in nuclear magnetons)

  Atom         1           2           3
 IAtWgt=           1          12          16
 AtmWgt=   1.0078250  12.0000000  15.9949146
 NucSpn=           1           0           0
 AtZEff=   0.0000000   0.0000000   0.0000000
 NQMom=    0.0000000   0.0000000   0.0000000
 NMagM=    2.7928460   0.0000000   0.0000000
 AtZNuc=   1.0000000   6.0000000   8.0000000
 No MM parameters found.
 Leave Link  101 at Wed Oct  7 14:47:13 2020, MaxMem=  2684354560 cpu:               4.5 elap:               0.5
 (Enter /udrive/faculty/rpeverati/g16/g16/l103.exe)

 GradGradGradGradGradGradGradGradGradGradGradGradGradGradGradGradGradGrad
 Berny optimization.
 Optmz: redundant internal coordinate code flag= 1
 Initialization pass.
                           ----------------------------
                           !    Initial Parameters    !
                           ! (Angstroms and Degrees)  !
 --------------------------                            --------------------------
 ! Name  Definition              Value          Derivative Info.                !
 --------------------------------------------------------------------------------
 ! R1    R(1,2)                  1.1168         estimate D2E/DX2                !
 ! R2    R(2,3)                  1.1766         estimate D2E/DX2                !
 ! A1    A(1,2,3)              125.1683         estimate D2E/DX2                !
 --------------------------------------------------------------------------------
 Maximum allowed force set to 1.00D+20.
 Trust Radius=3.00D-01 FncErr=1.00D-07 GrdErr=1.00D-06 EigMax=2.50D+02 EigMin=1.00D-04
 Number of steps in this run=    100 maximum allowed number of steps=    100.
 GradGradGradGradGradGradGradGradGradGradGradGradGradGradGradGradGradGrad

 Leave Link  103 at Wed Oct  7 14:47:14 2020, MaxMem=  2684354560 cpu:               0.8 elap:               0.4
 (Enter /udrive/faculty/rpeverati/g16/g16/l202.exe)
                          Input orientation:                          
 ---------------------------------------------------------------------
 Center     Atomic      Atomic             Coordinates (Angstroms)
 Number     Number       Type             X           Y           Z
 ---------------------------------------------------------------------
      1          1           0       -0.852055    1.227892    0.000000
      2          6           0        0.060861    0.584656    0.000000
      3          8           0        0.060861   -0.591975    0.000000
 ---------------------------------------------------------------------
                    Distance matrix (angstroms):
                    1          2          3
     1  H    0.000000
     2  C    1.116767   0.000000
     3  O    2.036009   1.176631   0.000000
 Stoichiometry    CHO(2)
 Framework group  CS[SG(CHO)]
 Deg. of freedom     3
 Full point group                 CS      NOp   2
 Largest Abelian subgroup         CS      NOp   2
 Largest concise Abelian subgroup C1      NOp   1
                         Standard orientation:                         
 ---------------------------------------------------------------------
 Center     Atomic      Atomic             Coordinates (Angstroms)
 Number     Number       Type             X           Y           Z
 ---------------------------------------------------------------------
      1          1           0       -0.852055    1.227890    0.000000
      2          6           0        0.060861    0.584654    0.000000
      3          8           0        0.060861   -0.591977    0.000000
 ---------------------------------------------------------------------
 Rotational constants (GHZ):         742.4426916          44.7013050          42.1627521
 Leave Link  202 at Wed Oct  7 14:47:14 2020, MaxMem=  2684354560 cpu:               1.8 elap:               0.6
 (Enter /udrive/faculty/rpeverati/g16/g16/l301.exe)
 Standard basis: 6-31G(d) (5D, 7F)
 Ernie: Thresh=  0.10000D-02 Tol=  0.10000D-05 Strict=F.
 There are    24 symmetry adapted cartesian basis functions of A'  symmetry.
 There are     8 symmetry adapted cartesian basis functions of A"  symmetry.
 There are    22 symmetry adapted basis functions of A'  symmetry.
 There are     8 symmetry adapted basis functions of A"  symmetry.
    30 basis functions,    60 primitive gaussians,    32 cartesian basis functions
     8 alpha electrons        7 beta electrons
       nuclear repulsion energy        26.5098484037 Hartrees.
 IExCor=  402 DFT=T Ex=B Corr=LYP ExCW=0 ScaHFX=  0.000000
 ScaDFX=  1.000000  1.000000  1.000000  1.000000 ScalE2=  1.000000  1.000000
 IRadAn=      5 IRanWt=     -1 IRanGd=            0 ICorTp=0 IEmpDi=  4
 NAtoms=    3 NActive=    3 NUniq=    3 SFac= 1.00D+00 NAtFMM=   60 NAOKFM=F Big=F
 Integral buffers will be    131072 words long.
 Raffenetti 2 integral format.
 Two-electron integral symmetry is turned on.
 Leave Link  301 at Wed Oct  7 14:47:16 2020, MaxMem=  2684354560 cpu:               1.8 elap:               0.7
 (Enter /udrive/faculty/rpeverati/g16/g16/l302.exe)
 NPDir=0 NMtPBC=     1 NCelOv=     1 NCel=       1 NClECP=     1 NCelD=      1
         NCelK=      1 NCelE2=     1 NClLst=     1 CellRange=     0.0.
 One-electron integrals computed using PRISM.
 One-electron integral symmetry used in STVInt
 NBasis=    30 RedAO= T EigKep=  1.66D-02  NBF=    22     8
 NBsUse=    30 1.00D-06 EigRej= -1.00D+00 NBFU=    22     8
 Precomputing XC quadrature grid using
 IXCGrd= 4 IRadAn=           5 IRanWt=          -1 IRanGd=           0 AccXCQ= 0.00D+00.
 Generated NRdTot=       0 NPtTot=           0 NUsed=           0 NTot=          32
 NSgBfM=    32    32    32    32    32 MxSgAt=     3 MxSgA2=     3.
 Leave Link  302 at Wed Oct  7 14:47:17 2020, MaxMem=  2684354560 cpu:               3.4 elap:               0.7
 (Enter /udrive/faculty/rpeverati/g16/g16/l303.exe)
 DipDrv:  MaxL=1.
 Leave Link  303 at Wed Oct  7 14:47:18 2020, MaxMem=  2684354560 cpu:               1.2 elap:               0.5
 (Enter /udrive/faculty/rpeverati/g16/g16/l401.exe)
 SCF N**3 symmetry information disabled.
 ExpMin= 1.61D-01 ExpMax= 5.48D+03 ExpMxC= 8.25D+02 IAcc=3 IRadAn=         5 AccDes= 0.00D+00
 Harris functional with IExCor=  402 and IRadAn=       5 diagonalized for initial guess.
 HarFok:  IExCor=  402 AccDes= 0.00D+00 IRadAn=         5 IDoV= 1 UseB2=F ITyADJ=14
 ICtDFT=  3500011 ScaDFX=  1.000000  1.000000  1.000000  1.000000
 FoFCou: FMM=F IPFlag=           0 FMFlag=      100000 FMFlg1=           0
         NFxFlg=           0 DoJE=T BraDBF=F KetDBF=T FulRan=T
         wScrn=  0.000000 ICntrl=       500 IOpCl=  0 I1Cent=   200000004 NGrid=           0
         NMat0=    1 NMatS0=      1 NMatT0=    0 NMatD0=    1 NMtDS0=    0 NMtDT0=    0
 Petite list used in FoFCou.
 Harris En= -113.822466674062    
 JPrj=0 DoOrth=F DoCkMO=F.
 Initial guess orbital symmetries:
 Alpha Orbitals:
       Occupied  (A') (A') (A') (A') (A') (A") (A') (A')
       Virtual   (A") (A') (A') (A") (A') (A') (A') (A') (A') (A")
                 (A') (A") (A') (A') (A") (A') (A") (A') (A') (A")
                 (A') (A')
 Beta  Orbitals:
       Occupied  (A') (A') (A') (A') (A') (A") (A')
       Virtual   (A') (A") (A') (A') (A") (A') (A') (A') (A') (A')
                 (A") (A') (A") (A') (A') (A") (A') (A") (A') (A')
                 (A") (A') (A')
 The electronic state of the initial guess is 2-A'.
 Initial guess <Sx>= 0.0000 <Sy>= 0.0000 <Sz>= 0.5000 <S**2>= 0.7500 S= 0.5000
 Leave Link  401 at Wed Oct  7 14:47:19 2020, MaxMem=  2684354560 cpu:               3.5 elap:               0.6
 (Enter /udrive/faculty/rpeverati/g16/g16/l502.exe)
 Keep J ints in memory in symmetry-blocked form, NReq=10459184.
 FoFCou: FMM=F IPFlag=           0 FMFlag=           0 FMFlg1=           0
         NFxFlg=           0 DoJE=F BraDBF=F KetDBF=F FulRan=T
         wScrn=  0.000000 ICntrl=       600 IOpCl=  0 I1Cent=           0 NGrid=           0
         NMat0=    1 NMatS0=    465 NMatT0=    0 NMatD0=    1 NMtDS0=    0 NMtDT0=    0
 Petite list used in FoFCou.
 UHF open shell SCF:
 Using DIIS extrapolation, IDIIS=  1040.
 NGot=  2684354560 LenX=  2684292770 LenY=  2684291305
 Requested convergence on RMS density matrix=1.00D-08 within 120 cycles.
 Requested convergence on MAX density matrix=1.00D-06.
 Requested convergence on             energy=1.00D-06.
 No special actions if energy rises.
 Integral accuracy reduced to 1.0D-05 until final iterations.

 Cycle   1  Pass 0  IDiag  1:
 E= -113.796029332812    
 DIIS: error= 3.71D-02 at cycle   1 NSaved=   1.
 NSaved= 1 IEnMin= 1 EnMin= -113.796029332812     IErMin= 1 ErrMin= 3.71D-02
 ErrMax= 3.71D-02  0.00D+00 EMaxC= 1.00D-01 BMatC= 1.44D-01 BMatP= 1.44D-01
 IDIUse=3 WtCom= 6.29D-01 WtEn= 3.71D-01
 Coeff-Com:  0.100D+01
 Coeff-En:   0.100D+01
 Coeff:      0.100D+01
 Gap=     0.092 Goal=   None    Shift=    0.000
 Gap=     0.185 Goal=   None    Shift=    0.000
 GapD=    0.092 DampG=0.500 DampE=0.500 DampFc=0.2500 IDamp=-1.
 Damping current iteration by 2.50D-01
 RMSDP=2.07D-02 MaxDP=2.85D-01              OVMax= 2.78D-01

 Cycle   2  Pass 0  IDiag  1:
 E= -113.801173649041     Delta-E=       -0.005144316229 Rises=F Damp=T
 DIIS: error= 9.05D-03 at cycle   2 NSaved=   2.
 NSaved= 2 IEnMin= 2 EnMin= -113.801173649041     IErMin= 2 ErrMin= 9.05D-03
 ErrMax= 9.05D-03  0.00D+00 EMaxC= 1.00D-01 BMatC= 1.20D-02 BMatP= 1.44D-01
 IDIUse=3 WtCom= 9.10D-01 WtEn= 9.05D-02
 Coeff-Com:  0.421D-01 0.958D+00
 Coeff-En:   0.385D+00 0.615D+00
 Coeff:      0.732D-01 0.927D+00
 Gap=     0.088 Goal=   None    Shift=    0.000
 Gap=     0.219 Goal=   None    Shift=    0.000
 RMSDP=4.28D-03 MaxDP=5.37D-02 DE=-5.14D-03 OVMax= 2.47D-01

 Cycle   3  Pass 0  IDiag  1:
 E= -113.822797780660     Delta-E=       -0.021624131619 Rises=F Damp=F
 DIIS: error= 1.13D-02 at cycle   3 NSaved=   3.
 NSaved= 3 IEnMin= 3 EnMin= -113.822797780660     IErMin= 2 ErrMin= 9.05D-03
 ErrMax= 1.13D-02  0.00D+00 EMaxC= 1.00D-01 BMatC= 1.33D-02 BMatP= 1.20D-02
 IDIUse=2 WtCom= 0.00D+00 WtEn= 1.00D+00
 Coeff-En:   0.000D+00 0.000D+00 0.100D+01
 Coeff:      0.000D+00 0.000D+00 0.100D+01
 Gap=     0.086 Goal=   None    Shift=    0.000
 Gap=     0.226 Goal=   None    Shift=    0.000
 RMSDP=5.20D-03 MaxDP=6.87D-02 DE=-2.16D-02 OVMax= 8.90D-02

 Cycle   4  Pass 0  IDiag  1:
 E= -113.806356464705     Delta-E=        0.016441315955 Rises=F Damp=F
 DIIS: error= 3.77D-02 at cycle   4 NSaved=   4.
 NSaved= 4 IEnMin= 3 EnMin= -113.822797780660     IErMin= 2 ErrMin= 9.05D-03
 ErrMax= 3.77D-02  0.00D+00 EMaxC= 1.00D-01 BMatC= 9.37D-02 BMatP= 1.20D-02
 IDIUse=2 WtCom= 0.00D+00 WtEn= 1.00D+00
 Coeff-En:   0.000D+00 0.000D+00 0.802D+00 0.198D+00
 Coeff:      0.000D+00 0.000D+00 0.802D+00 0.198D+00
 Gap=     0.086 Goal=   None    Shift=    0.000
 Gap=     0.235 Goal=   None    Shift=    0.000
 RMSDP=2.56D-03 MaxDP=2.99D-02 DE= 1.64D-02 OVMax= 5.60D-02

 Cycle   5  Pass 0  IDiag  1:
 E= -113.825480367468     Delta-E=       -0.019123902763 Rises=F Damp=F
 DIIS: error= 4.88D-03 at cycle   5 NSaved=   5.
 NSaved= 5 IEnMin= 5 EnMin= -113.825480367468     IErMin= 5 ErrMin= 4.88D-03
 ErrMax= 4.88D-03  0.00D+00 EMaxC= 1.00D-01 BMatC= 3.35D-03 BMatP= 1.20D-02
 IDIUse=3 WtCom= 9.51D-01 WtEn= 4.88D-02
 Coeff-Com: -0.165D+00 0.226D+00 0.216D+00-0.247D+00 0.971D+00
 Coeff-En:   0.000D+00 0.000D+00 0.217D+00 0.000D+00 0.783D+00
 Coeff:     -0.157D+00 0.214D+00 0.216D+00-0.235D+00 0.962D+00
 Gap=     0.086 Goal=   None    Shift=    0.000
 Gap=     0.236 Goal=   None    Shift=    0.000
 RMSDP=1.31D-03 MaxDP=2.05D-02 DE=-1.91D-02 OVMax= 1.29D-02

 Cycle   6  Pass 0  IDiag  1:
 E= -113.826405072594     Delta-E=       -0.000924705126 Rises=F Damp=F
 DIIS: error= 9.16D-04 at cycle   6 NSaved=   6.
 NSaved= 6 IEnMin= 6 EnMin= -113.826405072594     IErMin= 6 ErrMin= 9.16D-04
 ErrMax= 9.16D-04  0.00D+00 EMaxC= 1.00D-01 BMatC= 5.20D-05 BMatP= 3.35D-03
 IDIUse=3 WtCom= 9.91D-01 WtEn= 9.16D-03
 Coeff-Com: -0.118D-01 0.750D-02-0.303D-01 0.325D-02-0.447D-02 0.104D+01
 Coeff-En:   0.000D+00 0.000D+00 0.000D+00 0.000D+00 0.000D+00 0.100D+01
 Coeff:     -0.117D-01 0.743D-02-0.301D-01 0.322D-02-0.443D-02 0.104D+01
 Gap=     0.086 Goal=   None    Shift=    0.000
 Gap=     0.236 Goal=   None    Shift=    0.000
 RMSDP=8.28D-05 MaxDP=9.78D-04 DE=-9.25D-04 OVMax= 1.80D-03

 Cycle   7  Pass 0  IDiag  1:
 E= -113.826416597471     Delta-E=       -0.000011524876 Rises=F Damp=F
 DIIS: error= 4.80D-05 at cycle   7 NSaved=   7.
 NSaved= 7 IEnMin= 7 EnMin= -113.826416597471     IErMin= 7 ErrMin= 4.80D-05
 ErrMax= 4.80D-05  0.00D+00 EMaxC= 1.00D-01 BMatC= 1.37D-07 BMatP= 5.20D-05
 IDIUse=1 WtCom= 1.00D+00 WtEn= 0.00D+00
 Coeff-Com:  0.504D-03-0.143D-02-0.728D-02 0.178D-02-0.118D-01 0.120D+00
 Coeff-Com:  0.898D+00
 Coeff:      0.504D-03-0.143D-02-0.728D-02 0.178D-02-0.118D-01 0.120D+00
 Coeff:      0.898D+00
 Gap=     0.086 Goal=   None    Shift=    0.000
 Gap=     0.236 Goal=   None    Shift=    0.000
 RMSDP=4.54D-06 MaxDP=4.38D-05 DE=-1.15D-05 OVMax= 8.24D-05

 Initial convergence to 1.0D-05 achieved.  Increase integral accuracy.
 Cycle   8  Pass 1  IDiag  1:
 E= -113.826416018953     Delta-E=        0.000000578518 Rises=F Damp=F
 DIIS: error= 5.20D-06 at cycle   1 NSaved=   1.
 NSaved= 1 IEnMin= 1 EnMin= -113.826416018953     IErMin= 1 ErrMin= 5.20D-06
 ErrMax= 5.20D-06  0.00D+00 EMaxC= 1.00D-01 BMatC= 2.15D-09 BMatP= 2.15D-09
 IDIUse=1 WtCom= 1.00D+00 WtEn= 0.00D+00
 Coeff-Com:  0.100D+01
 Coeff:      0.100D+01
 Gap=     0.086 Goal=   None    Shift=    0.000
 Gap=     0.236 Goal=   None    Shift=    0.000
 RMSDP=4.54D-06 MaxDP=4.38D-05 DE= 5.79D-07 OVMax= 3.70D-05

 Cycle   9  Pass 1  IDiag  1:
 E= -113.826416017066     Delta-E=        0.000000001886 Rises=F Damp=F
 DIIS: error= 1.34D-05 at cycle   2 NSaved=   2.
 NSaved= 2 IEnMin= 1 EnMin= -113.826416018953     IErMin= 1 ErrMin= 5.20D-06
 ErrMax= 1.34D-05  0.00D+00 EMaxC= 1.00D-01 BMatC= 1.28D-08 BMatP= 2.15D-09
 IDIUse=1 WtCom= 1.00D+00 WtEn= 0.00D+00
 Coeff-Com:  0.731D+00 0.269D+00
 Coeff:      0.731D+00 0.269D+00
 Gap=     0.086 Goal=   None    Shift=    0.000
 Gap=     0.236 Goal=   None    Shift=    0.000
 RMSDP=1.29D-06 MaxDP=1.62D-05 DE= 1.89D-09 OVMax= 2.77D-05

 Cycle  10  Pass 1  IDiag  1:
 E= -113.826416019571     Delta-E=       -0.000000002505 Rises=F Damp=F
 DIIS: error= 2.90D-06 at cycle   3 NSaved=   3.
 NSaved= 3 IEnMin= 3 EnMin= -113.826416019571     IErMin= 3 ErrMin= 2.90D-06
 ErrMax= 2.90D-06  0.00D+00 EMaxC= 1.00D-01 BMatC= 4.48D-10 BMatP= 2.15D-09
 IDIUse=1 WtCom= 1.00D+00 WtEn= 0.00D+00
 Coeff-Com:  0.190D-01 0.152D+00 0.829D+00
 Coeff:      0.190D-01 0.152D+00 0.829D+00
 Gap=     0.086 Goal=   None    Shift=    0.000
 Gap=     0.236 Goal=   None    Shift=    0.000
 RMSDP=2.98D-07 MaxDP=4.30D-06 DE=-2.50D-09 OVMax= 7.12D-06

 Cycle  11  Pass 1  IDiag  1:
 E= -113.826416019675     Delta-E=       -0.000000000104 Rises=F Damp=F
 DIIS: error= 3.18D-07 at cycle   4 NSaved=   4.
 NSaved= 4 IEnMin= 4 EnMin= -113.826416019675     IErMin= 4 ErrMin= 3.18D-07
 ErrMax= 3.18D-07  0.00D+00 EMaxC= 1.00D-01 BMatC= 1.28D-11 BMatP= 4.48D-10
 IDIUse=1 WtCom= 1.00D+00 WtEn= 0.00D+00
 Coeff-Com: -0.876D-01 0.710D-02 0.160D+00 0.920D+00
 Coeff:     -0.876D-01 0.710D-02 0.160D+00 0.920D+00
 Gap=     0.086 Goal=   None    Shift=    0.000
 Gap=     0.236 Goal=   None    Shift=    0.000
 RMSDP=1.36D-07 MaxDP=1.90D-06 DE=-1.04D-10 OVMax= 2.19D-06

 Cycle  12  Pass 1  IDiag  1:
 E= -113.826416019681     Delta-E=       -0.000000000006 Rises=F Damp=F
 DIIS: error= 1.23D-07 at cycle   5 NSaved=   5.
 NSaved= 5 IEnMin= 5 EnMin= -113.826416019681     IErMin= 5 ErrMin= 1.23D-07
 ErrMax= 1.23D-07  0.00D+00 EMaxC= 1.00D-01 BMatC= 1.69D-12 BMatP= 1.28D-11
 IDIUse=1 WtCom= 1.00D+00 WtEn= 0.00D+00
 Coeff-Com: -0.314D-01-0.836D-02 0.534D-02 0.328D+00 0.707D+00
 Coeff:     -0.314D-01-0.836D-02 0.534D-02 0.328D+00 0.707D+00
 Gap=     0.086 Goal=   None    Shift=    0.000
 Gap=     0.236 Goal=   None    Shift=    0.000
 RMSDP=4.13D-08 MaxDP=5.22D-07 DE=-5.88D-12 OVMax= 5.14D-07

 Cycle  13  Pass 1  IDiag  1:
 E= -113.826416019682     Delta-E=       -0.000000000001 Rises=F Damp=F
 DIIS: error= 4.33D-08 at cycle   6 NSaved=   6.
 NSaved= 6 IEnMin= 6 EnMin= -113.826416019682     IErMin= 6 ErrMin= 4.33D-08
 ErrMax= 4.33D-08  0.00D+00 EMaxC= 1.00D-01 BMatC= 1.57D-13 BMatP= 1.69D-12
 IDIUse=1 WtCom= 1.00D+00 WtEn= 0.00D+00
 Coeff-Com:  0.675D-02-0.270D-02-0.246D-01-0.656D-01 0.159D+00 0.927D+00
 Coeff:      0.675D-02-0.270D-02-0.246D-01-0.656D-01 0.159D+00 0.927D+00
 Gap=     0.086 Goal=   None    Shift=    0.000
 Gap=     0.236 Goal=   None    Shift=    0.000
 RMSDP=1.29D-08 MaxDP=1.65D-07 DE=-5.40D-13 OVMax= 2.96D-07

 Cycle  14  Pass 1  IDiag  1:
 E= -113.826416019682     Delta-E=       -0.000000000000 Rises=F Damp=F
 DIIS: error= 9.17D-09 at cycle   7 NSaved=   7.
 NSaved= 7 IEnMin= 7 EnMin= -113.826416019682     IErMin= 7 ErrMin= 9.17D-09
 ErrMax= 9.17D-09  0.00D+00 EMaxC= 1.00D-01 BMatC= 1.07D-14 BMatP= 1.57D-13
 IDIUse=1 WtCom= 1.00D+00 WtEn= 0.00D+00
 Coeff-Com:  0.374D-02 0.115D-03-0.593D-02-0.433D-01-0.328D-01 0.199D+00
 Coeff-Com:  0.879D+00
 Coeff:      0.374D-02 0.115D-03-0.593D-02-0.433D-01-0.328D-01 0.199D+00
 Coeff:      0.879D+00
 Gap=     0.086 Goal=   None    Shift=    0.000
 Gap=     0.236 Goal=   None    Shift=    0.000
 RMSDP=3.65D-09 MaxDP=5.16D-08 DE=-3.13D-13 OVMax= 8.15D-08

 SCF Done:  E(UB-LYP) =  -113.826416020     A.U. after   14 cycles
            NFock= 14  Conv=0.36D-08     -V/T= 2.0057
 <Sx>= 0.0000 <Sy>= 0.0000 <Sz>= 0.5000 <S**2>= 0.7515 S= 0.5007
 <L.S>= 0.000000000000E+00
 KE= 1.131840308168D+02 PE=-3.203383382301D+02 EE= 6.681804298989D+01
 Annihilation of the first spin contaminant:
 S**2 before annihilation     0.7515,   after     0.7500
 Leave Link  502 at Wed Oct  7 14:47:20 2020, MaxMem=  2684354560 cpu:              12.4 elap:               1.5
 (Enter /udrive/faculty/rpeverati/g16/g16/l508.exe)
 QCSCF skips out because SCF is already converged.
 Leave Link  508 at Wed Oct  7 14:47:21 2020, MaxMem=  2684354560 cpu:               0.4 elap:               0.4
 (Enter /udrive/faculty/rpeverati/g16/g16/l601.exe)
 Copying SCF densities to generalized density rwf, IOpCl= 1 IROHF=0.

 **********************************************************************

            Population analysis using the SCF density.

 **********************************************************************

 Orbital symmetries:
 Alpha Orbitals:
       Occupied  (A') (A') (A') (A') (A') (A") (A') (A')
       Virtual   (A") (A') (A') (A") (A') (A') (A') (A') (A') (A")
                 (A') (A") (A') (A') (A") (A') (A") (A') (A') (A")
                 (A') (A')
 Beta  Orbitals:
       Occupied  (A') (A') (A') (A') (A') (A") (A')
       Virtual   (A') (A") (A') (A') (A") (A') (A') (A') (A') (A')
                 (A") (A') (A") (A') (A") (A') (A') (A") (A') (A')
                 (A") (A') (A')
 The electronic state is 2-A'.
 Alpha  occ. eigenvalues --  -18.85793 -10.01408  -1.00543  -0.54455  -0.42936
 Alpha  occ. eigenvalues --   -0.37821  -0.36821  -0.15742
 Alpha virt. eigenvalues --   -0.07095   0.10424   0.21326   0.46916   0.48205
 Alpha virt. eigenvalues --    0.60283   0.66338   0.76091   0.82449   0.87946
 Alpha virt. eigenvalues --    0.92782   1.43751   1.45615   1.46089   1.46158
 Alpha virt. eigenvalues --    1.64614   1.86137   1.98222   2.25068   2.49093
 Alpha virt. eigenvalues --    2.55193   2.84534
  Beta  occ. eigenvalues --  -18.85071 -10.00610  -0.99284  -0.52353  -0.41205
  Beta  occ. eigenvalues --   -0.37033  -0.33207
  Beta virt. eigenvalues --   -0.09636  -0.05475   0.12390   0.22353   0.47871
  Beta virt. eigenvalues --    0.52193   0.61836   0.68136   0.78040   0.84067
  Beta virt. eigenvalues --    0.88386   0.95011   1.45353   1.47145   1.48287
  Beta virt. eigenvalues --    1.48908   1.66805   1.88918   2.00945   2.27573
  Beta virt. eigenvalues --    2.50359   2.58662   2.85454
          Condensed to atoms (all electrons):
               1          2          3
     1  H    0.728313   0.185690  -0.043710
     2  C    0.185690   5.195268   0.554778
     3  O   -0.043710   0.554778   7.682904
          Atomic-Atomic Spin Densities.
               1          2          3
     1  H    0.343836  -0.164303  -0.016044
     2  C   -0.164303   0.876317  -0.138701
     3  O   -0.016044  -0.138701   0.417944
 Mulliken charges and spin densities:
               1          2
     1  H    0.129707   0.163489
     2  C    0.064264   0.573312
     3  O   -0.193972   0.263199
 Sum of Mulliken charges =  -0.00000   1.00000
 Mulliken charges and spin densities with hydrogens summed into heavy atoms:
               1          2
     2  C    0.193972   0.736801
     3  O   -0.193972   0.263199
 Electronic spatial extent (au):  <R**2>=             50.0683
 Charge=             -0.0000 electrons
 Dipole moment (field-independent basis, Debye):
    X=             -0.8490    Y=              1.0982    Z=              0.0000  Tot=              1.3881
 Quadrupole moment (field-independent basis, Debye-Ang):
   XX=            -11.1596   YY=            -11.3340   ZZ=            -10.5551
   XY=             -0.9134   XZ=              0.0000   YZ=              0.0000
 Traceless Quadrupole moment (field-independent basis, Debye-Ang):
   XX=             -0.1434   YY=             -0.3178   ZZ=              0.4612
   XY=             -0.9134   XZ=              0.0000   YZ=              0.0000
 Octapole moment (field-independent basis, Debye-Ang**2):
  XXX=             -0.5635  YYY=             -2.7316  ZZZ=              0.0000  XYY=             -1.2603
  XXY=             -1.0532  XXZ=              0.0000  XZZ=             -0.0793  YZZ=             -0.9808
  YYZ=              0.0000  XYZ=              0.0000
 Hexadecapole moment (field-independent basis, Debye-Ang**3):
 XXXX=            -13.6723 YYYY=            -38.2671 ZZZZ=             -8.3675 XXXY=              1.7304
 XXXZ=              0.0000 YYYX=              0.8285 YYYZ=              0.0000 ZZZX=              0.0000
 ZZZY=              0.0000 XXYY=             -8.6443 XXZZ=             -3.7270 YYZZ=             -7.6865
 XXYZ=              0.0000 YYXZ=              0.0000 ZZXY=              0.7087
 N-N= 2.650984840373D+01 E-N=-3.203383385438D+02  KE= 1.131840308168D+02
                          Isotropic Fermi Contact Couplings
        Atom                 a.u.       MegaHertz       Gauss      10(-4) cm-1
     1  H(1)               0.07849     350.83911     125.18812     117.02733
     2  C(13)              0.37237     418.61082     149.37075     139.63354
     3  O(17)              0.06121     -37.10694     -13.24068     -12.37754
 --------------------------------------------------------
       Center         ----  Spin Dipole Couplings  ----
                      3XX-RR        3YY-RR        3ZZ-RR
 --------------------------------------------------------
     1   Atom        0.019339      0.010465     -0.029804
     2   Atom        0.370588     -0.088790     -0.281798
     3   Atom        1.273676     -0.536866     -0.736811
 --------------------------------------------------------
                        XY            XZ            YZ
 --------------------------------------------------------
     1   Atom       -0.027697      0.000000      0.000000
     2   Atom        0.384557      0.000000      0.000000
     3   Atom        0.468567      0.000000      0.000000
 --------------------------------------------------------


 ---------------------------------------------------------------------------------
              Anisotropic Spin Dipole Couplings in Principal Axis System
 ---------------------------------------------------------------------------------

       Atom             a.u.   MegaHertz   Gauss  10(-4) cm-1        Axes

              Baa    -0.0298   -15.902    -5.674    -5.304  0.0000  0.0000  1.0000
     1 H(1)   Bbb    -0.0131    -7.015    -2.503    -2.340  0.6488  0.7610  0.0000
              Bcc     0.0430    22.917     8.177     7.644  0.7610 -0.6488  0.0000
 
              Baa    -0.3070   -41.201   -14.701   -13.743 -0.4936  0.8697  0.0000
     2 C(13)  Bbb    -0.2818   -37.815   -13.493   -12.614  0.0000  0.0000  1.0000
              Bcc     0.5888    79.015    28.195    26.357  0.8697  0.4936  0.0000
 
              Baa    -0.7368    53.315    19.024    17.784  0.0000  0.0000  1.0000
     3 O(17)  Bbb    -0.6509    47.102    16.807    15.711 -0.2365  0.9716  0.0000
              Bcc     1.3878  -100.417   -35.831   -33.495  0.9716  0.2365  0.0000
 

 ---------------------------------------------------------------------------------

 No NMR shielding tensors so no spin-rotation constants.
 Leave Link  601 at Wed Oct  7 14:47:22 2020, MaxMem=  2684354560 cpu:               8.7 elap:               1.1
 (Enter /udrive/faculty/rpeverati/g16/g16/l701.exe)
 ... and contract with generalized density number  0.
 Compute integral first derivatives.
 Leave Link  701 at Wed Oct  7 14:47:24 2020, MaxMem=  2684354560 cpu:               4.6 elap:               0.9
 (Enter /udrive/faculty/rpeverati/g16/g16/l702.exe)
 L702 exits ... SP integral derivatives will be done elsewhere.
 Leave Link  702 at Wed Oct  7 14:47:24 2020, MaxMem=  2684354560 cpu:               1.1 elap:               0.5
 (Enter /udrive/faculty/rpeverati/g16/g16/l703.exe)
 Integral derivatives from FoFJK, PRISM(SPDF).
 Compute integral first derivatives, UseDBF=F ICtDFT=           0.
 Calling FoFJK, ICntrl=      2527 FMM=F ISym2X=1 I1Cent= 0 IOpClX= 0 NMat=1 NMatS=1 NMatT=0.
 FoFJK:  IHMeth= 1 ICntrl=    2527 DoSepK=F KAlg= 0 I1Cent=           0 FoldK=F
 IRaf=         0 NMat=       1 IRICut=       1 DoRegI=T DoRafI=F ISym2E= 1 IDoP0=0 IntGTp=1.
 FoFCou: FMM=F IPFlag=           0 FMFlag=      100000 FMFlg1=         800
         NFxFlg=           0 DoJE=F BraDBF=F KetDBF=F FulRan=T
         wScrn=  0.000000 ICntrl=      2527 IOpCl=  0 I1Cent=           0 NGrid=           0
         NMat0=    1 NMatS0=      1 NMatT0=    0 NMatD0=    1 NMtDS0=    0 NMtDT0=    0
 Petite list used in FoFCou.
 Leave Link  703 at Wed Oct  7 14:47:26 2020, MaxMem=  2684354560 cpu:               4.2 elap:               0.8
 (Enter /udrive/faculty/rpeverati/g16/g16/l716.exe)
 Dipole        =-3.34013583D-01 4.32077568D-01 0.00000000D+00
 ***** Axes restored to original set *****
 -------------------------------------------------------------------
 Center     Atomic                   Forces (Hartrees/Bohr)
 Number     Number              X              Y              Z
 -------------------------------------------------------------------
      1        1          -0.011480443    0.005392470   -0.000000000
      2        6           0.013572112    0.030453657   -0.000000000
      3        8          -0.002091669   -0.035846126   -0.000000000
 -------------------------------------------------------------------
 Cartesian Forces:  Max     0.035846126 RMS     0.016871497
 Leave Link  716 at Wed Oct  7 14:47:26 2020, MaxMem=  2684354560 cpu:               1.3 elap:               0.5
 (Enter /udrive/faculty/rpeverati/g16/g16/l103.exe)

 GradGradGradGradGradGradGradGradGradGradGradGradGradGradGradGradGradGrad
 Berny optimization.
 Optmz: redundant internal coordinate code flag= 1
 FormGI is forming the generalized inverse of G from B-inverse, IUseBI=4.
 Internal  Forces:  Max     0.035846213 RMS     0.022080195
 Search for a local minimum.
 Step number   1 out of a maximum of  100
 All quantities printed in internal units (Hartrees-Bohrs-Radians)
 RMS Force = .22080D-01 SwitMx=.10000D-02 MixMth= 1
 Mixed Optimization -- RFO/linear search
 Second derivative matrix not updated -- first step.
 The second derivative matrix:
                          R1        R2        A1
           R1           0.31894
           R2           0.00000   1.17500
           A1           0.00000   0.00000   0.16000
 ITU=  0
 Eigenvectors of the second derivative matrix:
                           1         2         3
     Eigenvalues --     0.16000   0.31894   1.17500
   1         R1         0.00000   1.00000   0.00000
   2         R2         0.00000   0.00000  -1.00000
   3         A1         1.00000   0.00000  -0.00000
 Iter=   1 RLamda= 0.00000000D+00 Sum=-1.71797675D-03.
 Iter=   2 RLamda=-1.71797675D-03 Sum=-1.71232276D-03.
 Iter=   3 RLamda=-1.71232276D-03 Sum=-1.71234127D-03.
 Iter=   4 RLamda=-1.71234127D-03 Sum=-1.71234121D-03.
 RFO step:  Lambda=-1.71234127D-03 EMin= 1.60000000D-01
 Linear search not attempted -- first point.
 Iteration  1 RMS(Cart)=  0.02465396 RMS(Int)=  0.00031810
 Iteration  2 RMS(Cart)=  0.00038461 RMS(Int)=  0.00000006
 Iteration  3 RMS(Cart)=  0.00000004 RMS(Int)=  0.00000000
 ITry= 1 IFail=0 DXMaxC= 2.74D-02 DCOld= 1.00D+10 DXMaxT= 3.00D-01 DXLimC= 3.00D+00 Rises=F
 ClnCor:  largest displacement from symmetrization is 0.00D+00 for atom     0.
 Variable       Old X    -DE/DX   Delta X   Delta X   Delta X     New X
                                 (Linear)    (Quad)   (Total)
    R1        2.11038   0.01249   0.00000   0.03895   0.03895   2.14934
    R2        2.22351   0.03585   0.00000   0.03046   0.03046   2.25397
    A1        2.18460  -0.00465   0.00000  -0.02876  -0.02876   2.15584
         Item               Value     Threshold  Converged?
 Maximum Force            0.035846     0.000450     NO 
 RMS     Force            0.022080     0.000300     NO 
 Maximum Displacement     0.027361     0.001800     NO 
 RMS     Displacement     0.024616     0.001200     NO 
 Predicted change in Energy=-8.589727D-04
 Lowest energy point so far.  Saving SCF results.
 Largest change from initial coordinates is atom    2       0.011 Angstoms.
 GradGradGradGradGradGradGradGradGradGradGradGradGradGradGradGradGradGrad

 Leave Link  103 at Wed Oct  7 14:47:27 2020, MaxMem=  2684354560 cpu:               2.7 elap:               0.7
 (Enter /udrive/faculty/rpeverati/g16/g16/l202.exe)
                          Input orientation:                          
 ---------------------------------------------------------------------
 Center     Atomic      Atomic             Coordinates (Angstroms)
 Number     Number       Type             X           Y           Z
 ---------------------------------------------------------------------
      1          1           0       -0.863627    1.232301    0.000000
      2          6           0        0.075340    0.590449    0.000000
      3          8           0        0.057955   -0.602176    0.000000
 ---------------------------------------------------------------------
                    Distance matrix (angstroms):
                    1          2          3
     1  H    0.000000
     2  C    1.137380   0.000000
     3  O    2.052954   1.192751   0.000000
 Stoichiometry    CHO(2)
 Framework group  CS[SG(CHO)]
 Deg. of freedom     3
 Full point group                 CS      NOp   2
 RotChk:  IX=0 Diff= 2.06D-02
 Largest Abelian subgroup         CS      NOp   2
 Largest concise Abelian subgroup C1      NOp   1
                         Standard orientation:                         
 ---------------------------------------------------------------------
 Center     Atomic      Atomic             Coordinates (Angstroms)
 Number     Number       Type             X           Y           Z
 ---------------------------------------------------------------------
      1          1           0       -0.885008    1.222359    0.000000
      2          6           0        0.063215    0.594261    0.000000
      3          8           0        0.063215   -0.598490    0.000000
 ---------------------------------------------------------------------
 Rotational constants (GHZ):         684.7084920          43.7218663          41.0975913
 Leave Link  202 at Wed Oct  7 14:47:28 2020, MaxMem=  2684354560 cpu:               2.4 elap:               0.7
 (Enter /udrive/faculty/rpeverati/g16/g16/l301.exe)
 Standard basis: 6-31G(d) (5D, 7F)
 Ernie: Thresh=  0.10000D-02 Tol=  0.10000D-05 Strict=F.
 There are    24 symmetry adapted cartesian basis functions of A'  symmetry.
 There are     8 symmetry adapted cartesian basis functions of A"  symmetry.
 There are    22 symmetry adapted basis functions of A'  symmetry.
 There are     8 symmetry adapted basis functions of A"  symmetry.
    30 basis functions,    60 primitive gaussians,    32 cartesian basis functions
     8 alpha electrons        7 beta electrons
       nuclear repulsion energy        26.1493986074 Hartrees.
 IExCor=  402 DFT=T Ex=B Corr=LYP ExCW=0 ScaHFX=  0.000000
 ScaDFX=  1.000000  1.000000  1.000000  1.000000 ScalE2=  1.000000  1.000000
 IRadAn=      5 IRanWt=     -1 IRanGd=            0 ICorTp=0 IEmpDi=  4
 NAtoms=    3 NActive=    3 NUniq=    3 SFac= 1.00D+00 NAtFMM=   60 NAOKFM=F Big=F
 Integral buffers will be    131072 words long.
 Raffenetti 2 integral format.
 Two-electron integral symmetry is turned on.
 Leave Link  301 at Wed Oct  7 14:47:30 2020, MaxMem=  2684354560 cpu:               2.2 elap:               0.7
 (Enter /udrive/faculty/rpeverati/g16/g16/l302.exe)
 NPDir=0 NMtPBC=     1 NCelOv=     1 NCel=       1 NClECP=     1 NCelD=      1
         NCelK=      1 NCelE2=     1 NClLst=     1 CellRange=     0.0.
 One-electron integrals computed using PRISM.
 One-electron integral symmetry used in STVInt
 NBasis=    30 RedAO= T EigKep=  1.71D-02  NBF=    22     8
 NBsUse=    30 1.00D-06 EigRej= -1.00D+00 NBFU=    22     8
 Precomputing XC quadrature grid using
 IXCGrd= 4 IRadAn=           5 IRanWt=          -1 IRanGd=           0 AccXCQ= 0.00D+00.
 Generated NRdTot=       0 NPtTot=           0 NUsed=           0 NTot=          32
 NSgBfM=    32    32    32    32    32 MxSgAt=     3 MxSgA2=     3.
 Leave Link  302 at Wed Oct  7 14:47:31 2020, MaxMem=  2684354560 cpu:               3.6 elap:               0.8
 (Enter /udrive/faculty/rpeverati/g16/g16/l303.exe)
 DipDrv:  MaxL=1.
 Leave Link  303 at Wed Oct  7 14:47:32 2020, MaxMem=  2684354560 cpu:               1.6 elap:               0.7
 (Enter /udrive/faculty/rpeverati/g16/g16/l401.exe)
 Initial guess from the checkpoint file:  "MN_50_hco_BH76_BLYP_631Gs.chk"
 SCF N**3 symmetry information disabled.
 B after Tr=    -0.000000   -0.000000    0.000000
         Rot=    0.999994    0.000000    0.000000   -0.003348 Ang=  -0.38 deg.
 Guess basis will be translated and rotated to current coordinates.
 JPrj=2 DoOrth=T DoCkMO=T.
 Initial guess orbital symmetries:
 Alpha Orbitals:
       Occupied  (A') (A') (A') (A') (A') (A") (A') (A')
       Virtual   (A") (A') (A') (A") (A') (A') (A') (A') (A') (A")
                 (A') (A") (A') (A') (A") (A') (A") (A') (A') (A")
                 (A') (A')
 Beta  Orbitals:
       Occupied  (A') (A') (A') (A') (A') (A") (A')
       Virtual   (A') (A") (A') (A') (A") (A') (A') (A') (A') (A')
                 (A") (A') (A") (A') (A") (A') (A') (A") (A') (A')
                 (A") (A') (A')
 The electronic state of the initial guess is 2-A'.
 Initial guess <Sx>= 0.0000 <Sy>= 0.0000 <Sz>= 0.5000 <S**2>= 0.7515 S= 0.5008
 Generating alternative initial guess.
 ExpMin= 1.61D-01 ExpMax= 5.48D+03 ExpMxC= 8.25D+02 IAcc=2 IRadAn=         4 AccDes= 0.00D+00
 Harris functional with IExCor=  402 and IRadAn=       4 diagonalized for initial guess.
 HarFok:  IExCor=  402 AccDes= 0.00D+00 IRadAn=         4 IDoV= 1 UseB2=F ITyADJ=14
 ICtDFT=  3500011 ScaDFX=  1.000000  1.000000  1.000000  1.000000
 FoFCou: FMM=F IPFlag=           0 FMFlag=      100000 FMFlg1=           0
         NFxFlg=           0 DoJE=T BraDBF=F KetDBF=T FulRan=T
         wScrn=  0.000000 ICntrl=       500 IOpCl=  0 I1Cent=   200000004 NGrid=           0
         NMat0=    1 NMatS0=      1 NMatT0=    0 NMatD0=    1 NMtDS0=    0 NMtDT0=    0
 Petite list used in FoFCou.
 Harris En= -113.821791250019    
 Leave Link  401 at Wed Oct  7 14:47:33 2020, MaxMem=  2684354560 cpu:               5.6 elap:               0.9
 (Enter /udrive/faculty/rpeverati/g16/g16/l502.exe)
 Keep J ints in memory in symmetry-blocked form, NReq=10459184.
 FoFCou: FMM=F IPFlag=           0 FMFlag=           0 FMFlg1=           0
         NFxFlg=           0 DoJE=F BraDBF=F KetDBF=F FulRan=T
         wScrn=  0.000000 ICntrl=       600 IOpCl=  0 I1Cent=           0 NGrid=           0
         NMat0=    1 NMatS0=    465 NMatT0=    0 NMatD0=    1 NMtDS0=    0 NMtDT0=    0
 Petite list used in FoFCou.
 UHF open shell SCF:
 Using DIIS extrapolation, IDIIS=  1040.
 NGot=  2684354560 LenX=  2684292770 LenY=  2684291305
 Requested convergence on RMS density matrix=1.00D-08 within 120 cycles.
 Requested convergence on MAX density matrix=1.00D-06.
 Requested convergence on             energy=1.00D-06.
 No special actions if energy rises.
 Integral accuracy reduced to 1.0D-05 until final iterations.

 Cycle   1  Pass 0  IDiag  1:
 E= -113.827102954962    
 DIIS: error= 1.54D-03 at cycle   1 NSaved=   1.
 NSaved= 1 IEnMin= 1 EnMin= -113.827102954962     IErMin= 1 ErrMin= 1.54D-03
 ErrMax= 1.54D-03  0.00D+00 EMaxC= 1.00D-01 BMatC= 8.03D-04 BMatP= 8.03D-04
 IDIUse=3 WtCom= 9.85D-01 WtEn= 1.54D-02
 Coeff-Com:  0.100D+01
 Coeff-En:   0.100D+01
 Coeff:      0.100D+01
 Gap=     0.089 Goal=   None    Shift=    0.000
 Gap=     0.225 Goal=   None    Shift=    0.000
 GapD=    0.089 DampG=0.500 DampE=1.000 DampFc=0.5000 IDamp=-1.
 Damping current iteration by 5.00D-01
 RMSDP=8.45D-04 MaxDP=7.63D-03              OVMax= 9.27D-03

 Cycle   2  Pass 0  IDiag  1:
 E= -113.827243705205     Delta-E=       -0.000140750243 Rises=F Damp=T
 DIIS: error= 8.57D-04 at cycle   2 NSaved=   2.
 NSaved= 2 IEnMin= 2 EnMin= -113.827243705205     IErMin= 2 ErrMin= 8.57D-04
 ErrMax= 8.57D-04  0.00D+00 EMaxC= 1.00D-01 BMatC= 1.58D-04 BMatP= 8.03D-04
 IDIUse=3 WtCom= 9.91D-01 WtEn= 8.57D-03
 Coeff-Com: -0.427D+00 0.143D+01
 Coeff-En:   0.000D+00 0.100D+01
 Coeff:     -0.423D+00 0.142D+01
 Gap=     0.088 Goal=   None    Shift=    0.000
 Gap=     0.226 Goal=   None    Shift=    0.000
 RMSDP=5.48D-04 MaxDP=5.10D-03 DE=-1.41D-04 OVMax= 4.22D-03

 Cycle   3  Pass 0  IDiag  1:
 E= -113.827334255584     Delta-E=       -0.000090550378 Rises=F Damp=F
 DIIS: error= 1.71D-03 at cycle   3 NSaved=   3.
 NSaved= 3 IEnMin= 3 EnMin= -113.827334255584     IErMin= 2 ErrMin= 8.57D-04
 ErrMax= 1.71D-03  0.00D+00 EMaxC= 1.00D-01 BMatC= 2.58D-04 BMatP= 1.58D-04
 IDIUse=3 WtCom= 1.95D-01 WtEn= 8.05D-01
 Coeff-Com: -0.414D+00 0.102D+01 0.391D+00
 Coeff-En:   0.000D+00 0.000D+00 0.100D+01
 Coeff:     -0.806D-01 0.199D+00 0.881D+00
 Gap=     0.088 Goal=   None    Shift=    0.000
 Gap=     0.223 Goal=   None    Shift=    0.000
 RMSDP=6.50D-04 MaxDP=7.50D-03 DE=-9.06D-05 OVMax= 1.19D-02

 Cycle   4  Pass 0  IDiag  1:
 E= -113.826992460842     Delta-E=        0.000341794742 Rises=F Damp=F
 DIIS: error= 5.25D-03 at cycle   4 NSaved=   4.
 NSaved= 4 IEnMin= 3 EnMin= -113.827334255584     IErMin= 2 ErrMin= 8.57D-04
 ErrMax= 5.25D-03  0.00D+00 EMaxC= 1.00D-01 BMatC= 1.97D-03 BMatP= 1.58D-04
 IDIUse=3 WtCom= 1.21D-01 WtEn= 8.79D-01
 Coeff-Com: -0.184D+00 0.382D+00 0.621D+00 0.181D+00
 Coeff-En:   0.000D+00 0.000D+00 0.809D+00 0.191D+00
 Coeff:     -0.223D-01 0.463D-01 0.786D+00 0.190D+00
 Gap=     0.088 Goal=   None    Shift=    0.000
 Gap=     0.225 Goal=   None    Shift=    0.000
 RMSDP=3.22D-04 MaxDP=3.88D-03 DE= 3.42D-04 OVMax= 6.64D-03

 Cycle   5  Pass 0  IDiag  1:
 E= -113.827357408733     Delta-E=       -0.000364947891 Rises=F Damp=F
 DIIS: error= 1.32D-03 at cycle   5 NSaved=   5.
 NSaved= 5 IEnMin= 5 EnMin= -113.827357408733     IErMin= 2 ErrMin= 8.57D-04
 ErrMax= 1.32D-03  0.00D+00 EMaxC= 1.00D-01 BMatC= 1.42D-04 BMatP= 1.58D-04
 IDIUse=3 WtCom= 9.87D-01 WtEn= 1.32D-02
 Coeff-Com:  0.139D-01-0.305D-01 0.363D+00-0.572D-01 0.711D+00
 Coeff-En:   0.000D+00 0.000D+00 0.400D+00 0.000D+00 0.600D+00
 Coeff:      0.137D-01-0.301D-01 0.363D+00-0.564D-01 0.710D+00
 Gap=     0.088 Goal=   None    Shift=    0.000
 Gap=     0.225 Goal=   None    Shift=    0.000
 RMSDP=1.47D-04 MaxDP=1.60D-03 DE=-3.65D-04 OVMax= 2.15D-03

 Cycle   6  Pass 0  IDiag  1:
 E= -113.827385572476     Delta-E=       -0.000028163743 Rises=F Damp=F
 DIIS: error= 9.08D-06 at cycle   6 NSaved=   6.
 NSaved= 6 IEnMin= 6 EnMin= -113.827385572476     IErMin= 6 ErrMin= 9.08D-06
 ErrMax= 9.08D-06  0.00D+00 EMaxC= 1.00D-01 BMatC= 1.05D-08 BMatP= 1.42D-04
 IDIUse=1 WtCom= 1.00D+00 WtEn= 0.00D+00
 Coeff-Com:  0.146D-01-0.303D-01-0.120D-01-0.180D-01 0.672D-01 0.979D+00
 Coeff:      0.146D-01-0.303D-01-0.120D-01-0.180D-01 0.672D-01 0.979D+00
 Gap=     0.088 Goal=   None    Shift=    0.000
 Gap=     0.225 Goal=   None    Shift=    0.000
 RMSDP=3.62D-06 MaxDP=4.52D-05 DE=-2.82D-05 OVMax= 4.19D-05

 Initial convergence to 1.0D-05 achieved.  Increase integral accuracy.
 Cycle   7  Pass 1  IDiag  1:
 E= -113.827384737071     Delta-E=        0.000000835405 Rises=F Damp=F
 DIIS: error= 2.28D-06 at cycle   1 NSaved=   1.
 NSaved= 1 IEnMin= 1 EnMin= -113.827384737071     IErMin= 1 ErrMin= 2.28D-06
 ErrMax= 2.28D-06  0.00D+00 EMaxC= 1.00D-01 BMatC= 7.03D-10 BMatP= 7.03D-10
 IDIUse=1 WtCom= 1.00D+00 WtEn= 0.00D+00
 Coeff-Com:  0.100D+01
 Coeff:      0.100D+01
 Gap=     0.088 Goal=   None    Shift=    0.000
 Gap=     0.225 Goal=   None    Shift=    0.000
 RMSDP=3.62D-06 MaxDP=4.52D-05 DE= 8.35D-07 OVMax= 1.64D-05

 Cycle   8  Pass 1  IDiag  1:
 E= -113.827384737326     Delta-E=       -0.000000000255 Rises=F Damp=F
 DIIS: error= 2.64D-06 at cycle   2 NSaved=   2.
 NSaved= 2 IEnMin= 2 EnMin= -113.827384737326     IErMin= 1 ErrMin= 2.28D-06
 ErrMax= 2.64D-06  0.00D+00 EMaxC= 1.00D-01 BMatC= 4.58D-10 BMatP= 7.03D-10
 IDIUse=1 WtCom= 1.00D+00 WtEn= 0.00D+00
 Coeff-Com:  0.425D+00 0.575D+00
 Coeff:      0.425D+00 0.575D+00
 Gap=     0.088 Goal=   None    Shift=    0.000
 Gap=     0.225 Goal=   None    Shift=    0.000
 RMSDP=4.91D-07 MaxDP=6.34D-06 DE=-2.55D-10 OVMax= 1.05D-05

 Cycle   9  Pass 1  IDiag  1:
 E= -113.827384737285     Delta-E=        0.000000000041 Rises=F Damp=F
 DIIS: error= 3.73D-06 at cycle   3 NSaved=   3.
 NSaved= 3 IEnMin= 2 EnMin= -113.827384737326     IErMin= 1 ErrMin= 2.28D-06
 ErrMax= 3.73D-06  0.00D+00 EMaxC= 1.00D-01 BMatC= 7.69D-10 BMatP= 4.58D-10
 IDIUse=1 WtCom= 1.00D+00 WtEn= 0.00D+00
 Coeff-Com:  0.159D+00 0.515D+00 0.326D+00
 Coeff:      0.159D+00 0.515D+00 0.326D+00
 Gap=     0.088 Goal=   None    Shift=    0.000
 Gap=     0.225 Goal=   None    Shift=    0.000
 RMSDP=3.00D-07 MaxDP=4.40D-06 DE= 4.08D-11 OVMax= 7.39D-06

 Cycle  10  Pass 1  IDiag  1:
 E= -113.827384737443     Delta-E=       -0.000000000157 Rises=F Damp=F
 DIIS: error= 5.78D-07 at cycle   4 NSaved=   4.
 NSaved= 4 IEnMin= 4 EnMin= -113.827384737443     IErMin= 4 ErrMin= 5.78D-07
 ErrMax= 5.78D-07  0.00D+00 EMaxC= 1.00D-01 BMatC= 1.56D-11 BMatP= 4.58D-10
 IDIUse=1 WtCom= 1.00D+00 WtEn= 0.00D+00
 Coeff-Com: -0.117D+00-0.629D-01 0.898D-01 0.109D+01
 Coeff:     -0.117D+00-0.629D-01 0.898D-01 0.109D+01
 Gap=     0.088 Goal=   None    Shift=    0.000
 Gap=     0.225 Goal=   None    Shift=    0.000
 RMSDP=1.32D-07 MaxDP=1.87D-06 DE=-1.57D-10 OVMax= 3.13D-06

 Cycle  11  Pass 1  IDiag  1:
 E= -113.827384737452     Delta-E=       -0.000000000010 Rises=F Damp=F
 DIIS: error= 8.21D-08 at cycle   5 NSaved=   5.
 NSaved= 5 IEnMin= 5 EnMin= -113.827384737452     IErMin= 5 ErrMin= 8.21D-08
 ErrMax= 8.21D-08  0.00D+00 EMaxC= 1.00D-01 BMatC= 4.45D-13 BMatP= 1.56D-11
 IDIUse=1 WtCom= 1.00D+00 WtEn= 0.00D+00
 Coeff-Com: -0.192D-01-0.330D-01-0.138D-01 0.917D-01 0.974D+00
 Coeff:     -0.192D-01-0.330D-01-0.138D-01 0.917D-01 0.974D+00
 Gap=     0.088 Goal=   None    Shift=    0.000
 Gap=     0.225 Goal=   None    Shift=    0.000
 RMSDP=3.37D-08 MaxDP=3.73D-07 DE=-9.81D-12 OVMax= 6.72D-07

 Cycle  12  Pass 1  IDiag  1:
 E= -113.827384737453     Delta-E=       -0.000000000000 Rises=F Damp=F
 DIIS: error= 3.00D-08 at cycle   6 NSaved=   6.
 NSaved= 6 IEnMin= 6 EnMin= -113.827384737453     IErMin= 6 ErrMin= 3.00D-08
 ErrMax= 3.00D-08  0.00D+00 EMaxC= 1.00D-01 BMatC= 1.23D-13 BMatP= 4.45D-13
 IDIUse=1 WtCom= 1.00D+00 WtEn= 0.00D+00
 Coeff-Com:  0.609D-03-0.822D-02-0.132D-01-0.444D-01 0.407D+00 0.659D+00
 Coeff:      0.609D-03-0.822D-02-0.132D-01-0.444D-01 0.407D+00 0.659D+00
 Gap=     0.088 Goal=   None    Shift=    0.000
 Gap=     0.225 Goal=   None    Shift=    0.000
 RMSDP=1.27D-08 MaxDP=1.85D-07 DE=-3.69D-13 OVMax= 1.32D-07

 Cycle  13  Pass 1  IDiag  1:
 E= -113.827384737453     Delta-E=       -0.000000000000 Rises=F Damp=F
 DIIS: error= 9.64D-09 at cycle   7 NSaved=   7.
 NSaved= 7 IEnMin= 7 EnMin= -113.827384737453     IErMin= 7 ErrMin= 9.64D-09
 ErrMax= 9.64D-09  0.00D+00 EMaxC= 1.00D-01 BMatC= 7.76D-15 BMatP= 1.23D-13
 IDIUse=1 WtCom= 1.00D+00 WtEn= 0.00D+00
 Coeff-Com:  0.224D-02 0.138D-02-0.318D-02-0.225D-01 0.212D-01 0.185D+00
 Coeff-Com:  0.816D+00
 Coeff:      0.224D-02 0.138D-02-0.318D-02-0.225D-01 0.212D-01 0.185D+00
 Coeff:      0.816D+00
 Gap=     0.088 Goal=   None    Shift=    0.000
 Gap=     0.225 Goal=   None    Shift=    0.000
 RMSDP=1.90D-09 MaxDP=2.42D-08 DE=-2.27D-13 OVMax= 4.69D-08

 SCF Done:  E(UB-LYP) =  -113.827384737     A.U. after   13 cycles
            NFock= 13  Conv=0.19D-08     -V/T= 2.0064
 <Sx>= 0.0000 <Sy>= 0.0000 <Sz>= 0.5000 <S**2>= 0.7516 S= 0.5008
 <L.S>= 0.000000000000E+00
 KE= 1.131005292378D+02 PE=-3.195701360309D+02 EE= 6.649282344824D+01
 Annihilation of the first spin contaminant:
 S**2 before annihilation     0.7516,   after     0.7500
 Leave Link  502 at Wed Oct  7 14:47:36 2020, MaxMem=  2684354560 cpu:              22.3 elap:               2.4
 (Enter /udrive/faculty/rpeverati/g16/g16/l508.exe)
 QCSCF skips out because SCF is already converged.
 Leave Link  508 at Wed Oct  7 14:47:36 2020, MaxMem=  2684354560 cpu:               0.4 elap:               0.4
 (Enter /udrive/faculty/rpeverati/g16/g16/l701.exe)
 ... and contract with generalized density number  0.
 Compute integral first derivatives.
 Leave Link  701 at Wed Oct  7 14:47:37 2020, MaxMem=  2684354560 cpu:               2.7 elap:               0.6
 (Enter /udrive/faculty/rpeverati/g16/g16/l702.exe)
 L702 exits ... SP integral derivatives will be done elsewhere.
 Leave Link  702 at Wed Oct  7 14:47:38 2020, MaxMem=  2684354560 cpu:               0.9 elap:               0.5
 (Enter /udrive/faculty/rpeverati/g16/g16/l703.exe)
 Integral derivatives from FoFJK, PRISM(SPDF).
 Compute integral first derivatives, UseDBF=F ICtDFT=           0.
 Calling FoFJK, ICntrl=      2527 FMM=F ISym2X=1 I1Cent= 0 IOpClX= 0 NMat=1 NMatS=1 NMatT=0.
 FoFJK:  IHMeth= 1 ICntrl=    2527 DoSepK=F KAlg= 0 I1Cent=           0 FoldK=F
 IRaf=         0 NMat=       1 IRICut=       1 DoRegI=T DoRafI=F ISym2E= 1 IDoP0=0 IntGTp=1.
 FoFCou: FMM=F IPFlag=           0 FMFlag=      100000 FMFlg1=         800
         NFxFlg=           0 DoJE=F BraDBF=F KetDBF=F FulRan=T
         wScrn=  0.000000 ICntrl=      2527 IOpCl=  0 I1Cent=           0 NGrid=           0
         NMat0=    1 NMatS0=      1 NMatT0=    0 NMatD0=    1 NMtDS0=    0 NMtDT0=    0
 Petite list used in FoFCou.
 Leave Link  703 at Wed Oct  7 14:47:39 2020, MaxMem=  2684354560 cpu:               4.1 elap:               0.7
 (Enter /udrive/faculty/rpeverati/g16/g16/l716.exe)
 Dipole        =-3.36634945D-01 4.35416942D-01 0.00000000D+00
 ***** Axes restored to original set *****
 -------------------------------------------------------------------
 Center     Atomic                   Forces (Hartrees/Bohr)
 Number     Number              X              Y              Z
 -------------------------------------------------------------------
      1        1          -0.001740591    0.000437168   -0.000000000
      2        6           0.002403756    0.004423945   -0.000000000
      3        8          -0.000663165   -0.004861113   -0.000000000
 -------------------------------------------------------------------
 Cartesian Forces:  Max     0.004861113 RMS     0.002418455
 Leave Link  716 at Wed Oct  7 14:47:40 2020, MaxMem=  2684354560 cpu:               0.9 elap:               0.4
 (Enter /udrive/faculty/rpeverati/g16/g16/l103.exe)

 GradGradGradGradGradGradGradGradGradGradGradGradGradGradGradGradGradGrad
 Berny optimization.
 Optmz: redundant internal coordinate code flag= 1
 Using GEDIIS/GDIIS optimizer.
 Red2BG:  D1=  6.81D-01 OD1=  3.21D-02 B2RMS=  0.00D+00 IAprox=0
 FormGI is forming the generalized inverse of G from B-inverse, IUseBI=4.
 Internal  Forces:  Max     0.004870306 RMS     0.003073391
 Search for a local minimum.
 Step number   2 out of a maximum of  100
 All quantities printed in internal units (Hartrees-Bohrs-Radians)
 RMS Force = .30734D-02 SwitMx=.10000D-02 MixMth= 1
 Mixed Optimization -- RFO/linear search
 Update second derivatives using D2CorX and points    1    2
 DE= -9.69D-04 DEPred=-8.59D-04 R= 1.13D+00
 TightC=F SS=  1.41D+00  RLast= 5.72D-02 DXNew= 5.0454D-01 1.7162D-01
 Trust test= 1.13D+00 RLast= 5.72D-02 DXMaxT set to 3.00D-01
 The second derivative matrix:
                          R1        R2        A1
           R1           0.30850
           R2          -0.03127   1.08152
           A1           0.00895   0.02616   0.15512
 ITU=  1  0
 Use linear search instead of GDIIS.
 Eigenvectors of the second derivative matrix:
                           1         2         3
     Eigenvalues --     0.15376   0.30788   1.08350
   1         R1        -0.06384   0.99716   0.03998
   2         R2        -0.03028   0.03811  -0.99881
   3         A1         0.99750   0.06497  -0.02776
 Iter=   1 RLamda= 0.00000000D+00 Sum=-5.25547517D-06.
 Iter=   2 RLamda=-5.25547517D-06 Sum=-5.25531129D-06.
 RFO step:  Lambda=-5.25547517D-06 EMin= 1.53755775D-01
 Quartic linear search produced a step of  0.18497.
 Iteration  1 RMS(Cart)=  0.00634206 RMS(Int)=  0.00003154
 Iteration  2 RMS(Cart)=  0.00003733 RMS(Int)=  0.00000000
 Iteration  3 RMS(Cart)=  0.00000000 RMS(Int)=  0.00000000
 ITry= 1 IFail=0 DXMaxC= 8.22D-03 DCOld= 1.00D+10 DXMaxT= 3.00D-01 DXLimC= 3.00D+00 Rises=F
 ClnCor:  largest displacement from symmetrization is 8.01D-16 for atom     1.
 Variable       Old X    -DE/DX   Delta X   Delta X   Delta X     New X
                                 (Linear)    (Quad)   (Total)
    R1        2.14934   0.00168   0.00721  -0.00023   0.00697   2.15631
    R2        2.25397   0.00487   0.00563  -0.00051   0.00512   2.25909
    A1        2.15584  -0.00134  -0.00532  -0.00556  -0.01088   2.14496
         Item               Value     Threshold  Converged?
 Maximum Force            0.004870     0.000450     NO 
 RMS     Force            0.003073     0.000300     NO 
 Maximum Displacement     0.008221     0.001800     NO 
 RMS     Displacement     0.006352     0.001200     NO 
 Predicted change in Energy=-2.359895D-05
 Lowest energy point so far.  Saving SCF results.
 Largest change from initial coordinates is atom    1       0.007 Angstoms.
 GradGradGradGradGradGradGradGradGradGradGradGradGradGradGradGradGradGrad

 Leave Link  103 at Wed Oct  7 14:47:41 2020, MaxMem=  2684354560 cpu:               2.0 elap:               0.6
 (Enter /udrive/faculty/rpeverati/g16/g16/l202.exe)
                          Input orientation:                          
 ---------------------------------------------------------------------
 Center     Atomic      Atomic             Coordinates (Angstroms)
 Number     Number       Type             X           Y           Z
 ---------------------------------------------------------------------
      1          1           0       -0.865838    1.231108    0.000000
      2          6           0        0.079690    0.592344    0.000000
      3          8           0        0.055816   -0.602878    0.000000
 ---------------------------------------------------------------------
                    Distance matrix (angstroms):
                    1          2          3
     1  H    0.000000
     2  C    1.141071   0.000000
     3  O    2.052547   1.195461   0.000000
 Stoichiometry    CHO(2)
 Framework group  CS[SG(CHO)]
 Deg. of freedom     3
 Full point group                 CS      NOp   2
 RotChk:  IX=0 Diff= 7.63D-03
 Largest Abelian subgroup         CS      NOp   2
 Largest concise Abelian subgroup C1      NOp   1
                         Standard orientation:                         
 ---------------------------------------------------------------------
 Center     Atomic      Atomic             Coordinates (Angstroms)
 Number     Number       Type             X           Y           Z
 ---------------------------------------------------------------------
      1          1           0       -0.894224    1.216015    0.000000
      2          6           0        0.063873    0.596262    0.000000
      3          8           0        0.063873   -0.599198    0.000000
 ---------------------------------------------------------------------
 Rotational constants (GHZ):         669.2707643          43.6147890          40.9464086
 Leave Link  202 at Wed Oct  7 14:47:42 2020, MaxMem=  2684354560 cpu:               1.1 elap:               0.7
 (Enter /udrive/faculty/rpeverati/g16/g16/l301.exe)
 Standard basis: 6-31G(d) (5D, 7F)
 Ernie: Thresh=  0.10000D-02 Tol=  0.10000D-05 Strict=F.
 There are    24 symmetry adapted cartesian basis functions of A'  symmetry.
 There are     8 symmetry adapted cartesian basis functions of A"  symmetry.
 There are    22 symmetry adapted basis functions of A'  symmetry.
 There are     8 symmetry adapted basis functions of A"  symmetry.
    30 basis functions,    60 primitive gaussians,    32 cartesian basis functions
     8 alpha electrons        7 beta electrons
       nuclear repulsion energy        26.0925108865 Hartrees.
 IExCor=  402 DFT=T Ex=B Corr=LYP ExCW=0 ScaHFX=  0.000000
 ScaDFX=  1.000000  1.000000  1.000000  1.000000 ScalE2=  1.000000  1.000000
 IRadAn=      5 IRanWt=     -1 IRanGd=            0 ICorTp=0 IEmpDi=  4
 NAtoms=    3 NActive=    3 NUniq=    3 SFac= 1.00D+00 NAtFMM=   60 NAOKFM=F Big=F
 Integral buffers will be    131072 words long.
 Raffenetti 2 integral format.
 Two-electron integral symmetry is turned on.
 Leave Link  301 at Wed Oct  7 14:47:43 2020, MaxMem=  2684354560 cpu:               2.0 elap:               0.7
 (Enter /udrive/faculty/rpeverati/g16/g16/l302.exe)
 NPDir=0 NMtPBC=     1 NCelOv=     1 NCel=       1 NClECP=     1 NCelD=      1
         NCelK=      1 NCelE2=     1 NClLst=     1 CellRange=     0.0.
 One-electron integrals computed using PRISM.
 One-electron integral symmetry used in STVInt
 NBasis=    30 RedAO= T EigKep=  1.72D-02  NBF=    22     8
 NBsUse=    30 1.00D-06 EigRej= -1.00D+00 NBFU=    22     8
 Precomputing XC quadrature grid using
 IXCGrd= 4 IRadAn=           5 IRanWt=          -1 IRanGd=           0 AccXCQ= 0.00D+00.
 Generated NRdTot=       0 NPtTot=           0 NUsed=           0 NTot=          32
 NSgBfM=    32    32    32    32    32 MxSgAt=     3 MxSgA2=     3.
 Leave Link  302 at Wed Oct  7 14:47:44 2020, MaxMem=  2684354560 cpu:               2.8 elap:               0.7
 (Enter /udrive/faculty/rpeverati/g16/g16/l303.exe)
 DipDrv:  MaxL=1.
 Leave Link  303 at Wed Oct  7 14:47:45 2020, MaxMem=  2684354560 cpu:               3.9 elap:               0.7
 (Enter /udrive/faculty/rpeverati/g16/g16/l401.exe)
 Initial guess from the checkpoint file:  "MN_50_hco_BH76_BLYP_631Gs.chk"
 SCF N**3 symmetry information disabled.
 B after Tr=     0.000000    0.000000    0.000000
         Rot=    0.999999    0.000000    0.000000   -0.001234 Ang=  -0.14 deg.
 Guess basis will be translated and rotated to current coordinates.
 JPrj=2 DoOrth=T DoCkMO=T.
 Initial guess orbital symmetries:
 Alpha Orbitals:
       Occupied  (A') (A') (A') (A') (A') (A") (A') (A')
       Virtual   (A") (A') (A') (A") (A') (A') (A') (A') (A') (A")
                 (A') (A") (A") (A') (A') (A') (A") (A') (A') (A")
                 (A') (A')
 Beta  Orbitals:
       Occupied  (A') (A') (A') (A') (A') (A") (A')
       Virtual   (A') (A") (A') (A') (A") (A') (A') (A') (A') (A')
                 (A") (A') (A") (A') (A") (A') (A') (A") (A') (A')
                 (A") (A') (A')
 The electronic state of the initial guess is 2-A'.
 Initial guess <Sx>= 0.0000 <Sy>= 0.0000 <Sz>= 0.5000 <S**2>= 0.7516 S= 0.5008
 Leave Link  401 at Wed Oct  7 14:47:47 2020, MaxMem=  2684354560 cpu:               4.2 elap:               1.0
 (Enter /udrive/faculty/rpeverati/g16/g16/l502.exe)
 Keep J ints in memory in symmetry-blocked form, NReq=10459184.
 FoFCou: FMM=F IPFlag=           0 FMFlag=           0 FMFlg1=           0
         NFxFlg=           0 DoJE=F BraDBF=F KetDBF=F FulRan=T
         wScrn=  0.000000 ICntrl=       600 IOpCl=  0 I1Cent=           0 NGrid=           0
         NMat0=    1 NMatS0=    465 NMatT0=    0 NMatD0=    1 NMtDS0=    0 NMtDT0=    0
 Petite list used in FoFCou.
 UHF open shell SCF:
 Using DIIS extrapolation, IDIIS=  1040.
 NGot=  2684354560 LenX=  2684292770 LenY=  2684291305
 Requested convergence on RMS density matrix=1.00D-08 within 120 cycles.
 Requested convergence on MAX density matrix=1.00D-06.
 Requested convergence on             energy=1.00D-06.
 No special actions if energy rises.

 Cycle   1  Pass 1  IDiag  1:
 E= -113.827394825574    
 DIIS: error= 3.81D-04 at cycle   1 NSaved=   1.
 NSaved= 1 IEnMin= 1 EnMin= -113.827394825574     IErMin= 1 ErrMin= 3.81D-04
 ErrMax= 3.81D-04  0.00D+00 EMaxC= 1.00D-01 BMatC= 3.68D-05 BMatP= 3.68D-05
 IDIUse=3 WtCom= 9.96D-01 WtEn= 3.81D-03
 Coeff-Com:  0.100D+01
 Coeff-En:   0.100D+01
 Coeff:      0.100D+01
 Gap=     0.089 Goal=   None    Shift=    0.000
 Gap=     0.223 Goal=   None    Shift=    0.000
 RMSDP=1.99D-04 MaxDP=1.81D-03              OVMax= 2.98D-03

 Cycle   2  Pass 1  IDiag  1:
 E= -113.827407509697     Delta-E=       -0.000012684123 Rises=F Damp=F
 DIIS: error= 2.88D-04 at cycle   2 NSaved=   2.
 NSaved= 2 IEnMin= 2 EnMin= -113.827407509697     IErMin= 2 ErrMin= 2.88D-04
 ErrMax= 2.88D-04  0.00D+00 EMaxC= 1.00D-01 BMatC= 9.92D-06 BMatP= 3.68D-05
 IDIUse=3 WtCom= 9.97D-01 WtEn= 2.88D-03
 Coeff-Com:  0.269D+00 0.731D+00
 Coeff-En:   0.000D+00 0.100D+01
 Coeff:      0.268D+00 0.732D+00
 Gap=     0.089 Goal=   None    Shift=    0.000
 Gap=     0.223 Goal=   None    Shift=    0.000
 RMSDP=9.55D-05 MaxDP=1.08D-03 DE=-1.27D-05 OVMax= 1.38D-03

 Cycle   3  Pass 1  IDiag  1:
 E= -113.827404160627     Delta-E=        0.000003349070 Rises=F Damp=F
 DIIS: error= 5.86D-04 at cycle   3 NSaved=   3.
 NSaved= 3 IEnMin= 2 EnMin= -113.827407509697     IErMin= 2 ErrMin= 2.88D-04
 ErrMax= 5.86D-04  0.00D+00 EMaxC= 1.00D-01 BMatC= 2.69D-05 BMatP= 9.92D-06
 IDIUse=3 WtCom= 2.92D-01 WtEn= 7.08D-01
 Coeff-Com:  0.719D-01 0.597D+00 0.332D+00
 Coeff-En:   0.000D+00 0.682D+00 0.318D+00
 Coeff:      0.210D-01 0.657D+00 0.322D+00
 Gap=     0.089 Goal=   None    Shift=    0.000
 Gap=     0.223 Goal=   None    Shift=    0.000
 RMSDP=5.71D-05 MaxDP=7.08D-04 DE= 3.35D-06 OVMax= 1.22D-03

 Cycle   4  Pass 1  IDiag  1:
 E= -113.827409200519     Delta-E=       -0.000005039892 Rises=F Damp=F
 DIIS: error= 9.94D-05 at cycle   4 NSaved=   4.
 NSaved= 4 IEnMin= 4 EnMin= -113.827409200519     IErMin= 4 ErrMin= 9.94D-05
 ErrMax= 9.94D-05  0.00D+00 EMaxC= 1.00D-01 BMatC= 1.11D-06 BMatP= 9.92D-06
 IDIUse=1 WtCom= 1.00D+00 WtEn= 0.00D+00
 Coeff-Com: -0.482D-03 0.301D+00 0.202D+00 0.497D+00
 Coeff:     -0.482D-03 0.301D+00 0.202D+00 0.497D+00
 Gap=     0.089 Goal=   None    Shift=    0.000
 Gap=     0.223 Goal=   None    Shift=    0.000
 RMSDP=2.17D-05 MaxDP=3.36D-04 DE=-5.04D-06 OVMax= 2.04D-04

 Cycle   5  Pass 1  IDiag  1:
 E= -113.827409497834     Delta-E=       -0.000000297315 Rises=F Damp=F
 DIIS: error= 1.06D-05 at cycle   5 NSaved=   5.
 NSaved= 5 IEnMin= 5 EnMin= -113.827409497834     IErMin= 5 ErrMin= 1.06D-05
 ErrMax= 1.06D-05  0.00D+00 EMaxC= 1.00D-01 BMatC= 1.38D-08 BMatP= 1.11D-06
 IDIUse=1 WtCom= 1.00D+00 WtEn= 0.00D+00
 Coeff-Com: -0.223D-02 0.427D-01 0.444D-01 0.111D+00 0.804D+00
 Coeff:     -0.223D-02 0.427D-01 0.444D-01 0.111D+00 0.804D+00
 Gap=     0.089 Goal=   None    Shift=    0.000
 Gap=     0.223 Goal=   None    Shift=    0.000
 RMSDP=4.06D-06 MaxDP=5.09D-05 DE=-2.97D-07 OVMax= 4.05D-05

 Cycle   6  Pass 1  IDiag  1:
 E= -113.827409502423     Delta-E=       -0.000000004590 Rises=F Damp=F
 DIIS: error= 2.40D-06 at cycle   6 NSaved=   6.
 NSaved= 6 IEnMin= 6 EnMin= -113.827409502423     IErMin= 6 ErrMin= 2.40D-06
 ErrMax= 2.40D-06  0.00D+00 EMaxC= 1.00D-01 BMatC= 6.10D-10 BMatP= 1.38D-08
 IDIUse=1 WtCom= 1.00D+00 WtEn= 0.00D+00
 Coeff-Com: -0.184D-03-0.261D-01-0.172D-01-0.427D-01 0.659D-01 0.102D+01
 Coeff:     -0.184D-03-0.261D-01-0.172D-01-0.427D-01 0.659D-01 0.102D+01
 Gap=     0.089 Goal=   None    Shift=    0.000
 Gap=     0.223 Goal=   None    Shift=    0.000
 RMSDP=1.08D-06 MaxDP=1.36D-05 DE=-4.59D-09 OVMax= 1.24D-05

 Cycle   7  Pass 1  IDiag  1:
 E= -113.827409502773     Delta-E=       -0.000000000350 Rises=F Damp=F
 DIIS: error= 8.25D-07 at cycle   7 NSaved=   7.
 NSaved= 7 IEnMin= 7 EnMin= -113.827409502773     IErMin= 7 ErrMin= 8.25D-07
 ErrMax= 8.25D-07  0.00D+00 EMaxC= 1.00D-01 BMatC= 3.67D-11 BMatP= 6.10D-10
 IDIUse=1 WtCom= 1.00D+00 WtEn= 0.00D+00
 Coeff-Com:  0.460D-04-0.528D-02-0.368D-02-0.103D-01-0.241D-01 0.146D+00
 Coeff-Com:  0.897D+00
 Coeff:      0.460D-04-0.528D-02-0.368D-02-0.103D-01-0.241D-01 0.146D+00
 Coeff:      0.897D+00
 Gap=     0.089 Goal=   None    Shift=    0.000
 Gap=     0.223 Goal=   None    Shift=    0.000
 RMSDP=1.67D-07 MaxDP=2.41D-06 DE=-3.50D-10 OVMax= 4.21D-06

 Cycle   8  Pass 1  IDiag  1:
 E= -113.827409502792     Delta-E=       -0.000000000020 Rises=F Damp=F
 DIIS: error= 2.32D-07 at cycle   8 NSaved=   8.
 NSaved= 8 IEnMin= 8 EnMin= -113.827409502792     IErMin= 8 ErrMin= 2.32D-07
 ErrMax= 2.32D-07  0.00D+00 EMaxC= 1.00D-01 BMatC= 3.70D-12 BMatP= 3.67D-11
 IDIUse=1 WtCom= 1.00D+00 WtEn= 0.00D+00
 Coeff-Com:  0.430D-04 0.203D-02 0.133D-02 0.296D-02-0.133D-01-0.897D-01
 Coeff-Com:  0.118D+00 0.979D+00
 Coeff:      0.430D-04 0.203D-02 0.133D-02 0.296D-02-0.133D-01-0.897D-01
 Coeff:      0.118D+00 0.979D+00
 Gap=     0.089 Goal=   None    Shift=    0.000
 Gap=     0.223 Goal=   None    Shift=    0.000
 RMSDP=6.88D-08 MaxDP=1.11D-06 DE=-1.97D-11 OVMax= 1.91D-06

 Cycle   9  Pass 1  IDiag  1:
 E= -113.827409502795     Delta-E=       -0.000000000003 Rises=F Damp=F
 DIIS: error= 8.53D-08 at cycle   9 NSaved=   9.
 NSaved= 9 IEnMin= 9 EnMin= -113.827409502795     IErMin= 9 ErrMin= 8.53D-08
 ErrMax= 8.53D-08  0.00D+00 EMaxC= 1.00D-01 BMatC= 2.36D-13 BMatP= 3.70D-12
 IDIUse=1 WtCom= 1.00D+00 WtEn= 0.00D+00
 Coeff-Com: -0.864D-05 0.270D-03 0.130D-03 0.613D-03 0.265D-02-0.654D-02
 Coeff-Com: -0.717D-01-0.478D-01 0.112D+01
 Coeff:     -0.864D-05 0.270D-03 0.130D-03 0.613D-03 0.265D-02-0.654D-02
 Coeff:     -0.717D-01-0.478D-01 0.112D+01
 Gap=     0.089 Goal=   None    Shift=    0.000
 Gap=     0.223 Goal=   None    Shift=    0.000
 RMSDP=1.86D-08 MaxDP=3.28D-07 DE=-2.67D-12 OVMax= 5.68D-07

 Cycle  10  Pass 1  IDiag  1:
 E= -113.827409502795     Delta-E=       -0.000000000000 Rises=F Damp=F
 DIIS: error= 1.69D-08 at cycle  10 NSaved=  10.
 NSaved=10 IEnMin=10 EnMin= -113.827409502795     IErMin=10 ErrMin= 1.69D-08
 ErrMax= 1.69D-08  0.00D+00 EMaxC= 1.00D-01 BMatC= 1.16D-14 BMatP= 2.36D-13
 IDIUse=1 WtCom= 1.00D+00 WtEn= 0.00D+00
 Coeff-Com: -0.108D-06-0.644D-04-0.181D-04-0.124D-03 0.240D-03 0.252D-02
 Coeff-Com:  0.239D-02-0.246D-01-0.865D-01 0.111D+01
 Coeff:     -0.108D-06-0.644D-04-0.181D-04-0.124D-03 0.240D-03 0.252D-02
 Coeff:      0.239D-02-0.246D-01-0.865D-01 0.111D+01
 Gap=     0.089 Goal=   None    Shift=    0.000
 Gap=     0.223 Goal=   None    Shift=    0.000
 RMSDP=2.88D-09 MaxDP=4.50D-08 DE=-5.68D-14 OVMax= 7.68D-08

 SCF Done:  E(UB-LYP) =  -113.827409503     A.U. after   10 cycles
            NFock= 10  Conv=0.29D-08     -V/T= 2.0065
 <Sx>= 0.0000 <Sy>= 0.0000 <Sz>= 0.5000 <S**2>= 0.7516 S= 0.5008
 <L.S>= 0.000000000000E+00
 KE= 1.130875949043D+02 PE=-3.194488353973D+02 EE= 6.644132010367D+01
 Annihilation of the first spin contaminant:
 S**2 before annihilation     0.7516,   after     0.7500
 Leave Link  502 at Wed Oct  7 14:47:49 2020, MaxMem=  2684354560 cpu:              14.9 elap:               1.8
 (Enter /udrive/faculty/rpeverati/g16/g16/l508.exe)
 QCSCF skips out because SCF is already converged.
 Leave Link  508 at Wed Oct  7 14:47:50 2020, MaxMem=  2684354560 cpu:               0.5 elap:               0.5
 (Enter /udrive/faculty/rpeverati/g16/g16/l701.exe)
 ... and contract with generalized density number  0.
 Compute integral first derivatives.
 Leave Link  701 at Wed Oct  7 14:47:51 2020, MaxMem=  2684354560 cpu:               3.4 elap:               0.7
 (Enter /udrive/faculty/rpeverati/g16/g16/l702.exe)
 L702 exits ... SP integral derivatives will be done elsewhere.
 Leave Link  702 at Wed Oct  7 14:47:51 2020, MaxMem=  2684354560 cpu:               1.2 elap:               0.5
 (Enter /udrive/faculty/rpeverati/g16/g16/l703.exe)
 Integral derivatives from FoFJK, PRISM(SPDF).
 Compute integral first derivatives, UseDBF=F ICtDFT=           0.
 Calling FoFJK, ICntrl=      2527 FMM=F ISym2X=1 I1Cent= 0 IOpClX= 0 NMat=1 NMatS=1 NMatT=0.
 FoFJK:  IHMeth= 1 ICntrl=    2527 DoSepK=F KAlg= 0 I1Cent=           0 FoldK=F
 IRaf=         0 NMat=       1 IRICut=       1 DoRegI=T DoRafI=F ISym2E= 1 IDoP0=0 IntGTp=1.
 FoFCou: FMM=F IPFlag=           0 FMFlag=      100000 FMFlg1=         800
         NFxFlg=           0 DoJE=F BraDBF=F KetDBF=F FulRan=T
         wScrn=  0.000000 ICntrl=      2527 IOpCl=  0 I1Cent=           0 NGrid=           0
         NMat0=    1 NMatS0=      1 NMatT0=    0 NMatD0=    1 NMtDS0=    0 NMtDT0=    0
 Petite list used in FoFCou.
 Leave Link  703 at Wed Oct  7 14:47:52 2020, MaxMem=  2684354560 cpu:               4.1 elap:               0.8
 (Enter /udrive/faculty/rpeverati/g16/g16/l716.exe)
 Dipole        =-3.37444823D-01 4.33618830D-01 0.00000000D+00
 ***** Axes restored to original set *****
 -------------------------------------------------------------------
 Center     Atomic                   Forces (Hartrees/Bohr)
 Number     Number              X              Y              Z
 -------------------------------------------------------------------
      1        1           0.000062623    0.000083167   -0.000000000
      2        6          -0.000158351    0.000103925   -0.000000000
      3        8           0.000095728   -0.000187092   -0.000000000
 -------------------------------------------------------------------
 Cartesian Forces:  Max     0.000187092 RMS     0.000100488
 Leave Link  716 at Wed Oct  7 14:47:53 2020, MaxMem=  2684354560 cpu:               0.7 elap:               0.4
 (Enter /udrive/faculty/rpeverati/g16/g16/l103.exe)

 GradGradGradGradGradGradGradGradGradGradGradGradGradGradGradGradGradGrad
 Berny optimization.
 Optmz: redundant internal coordinate code flag= 1
 Using GEDIIS/GDIIS optimizer.
 Red2BG:  D1=  6.75D-01 OD1=  7.95D-03 B2RMS=  0.00D+00 IAprox=0
 FormGI is forming the generalized inverse of G from B-inverse, IUseBI=4.
 Internal  Forces:  Max     0.000224417 RMS     0.000168010
 Search for a local minimum.
 Step number   3 out of a maximum of  100
 All quantities printed in internal units (Hartrees-Bohrs-Radians)
 RMS Force = .16801D-03 SwitMx=.10000D-02 MixMth= 2
 Mixed Optimization -- En-DIIS/RFO-DIIS
 Update second derivatives using D2CorX and points    1    2    3
 DE= -2.48D-05 DEPred=-2.36D-05 R= 1.05D+00
 TightC=F SS=  1.41D+00  RLast= 1.39D-02 DXNew= 5.0454D-01 4.1693D-02
 Trust test= 1.05D+00 RLast= 1.39D-02 DXMaxT set to 3.00D-01
 The second derivative matrix:
                          R1        R2        A1
           R1           0.29743
           R2          -0.05439   1.03798
           A1           0.00984   0.02300   0.16054
 ITU=  1  1  0
 Use linear search instead of GDIIS.
 Eigenvectors of the second derivative matrix:
                           1         2         3
     Eigenvalues --     0.15900   0.29444   1.04251
   1         R1        -0.08307   0.99391   0.07245
   2         R2        -0.03120   0.07008  -0.99705
   3         A1         0.99606   0.08508  -0.02519
 Iter=   1 RLamda= 0.00000000D+00 Sum=-2.93447770D-07.
 Iter=   2 RLamda=-2.93447770D-07 Sum=-2.93447404D-07.
 RFO step:  Lambda=-2.93447770D-07 EMin= 1.59000905D-01
 Quartic linear search produced a step of -0.02924.
 Iteration  1 RMS(Cart)=  0.00088828 RMS(Int)=  0.00000043
 Iteration  2 RMS(Cart)=  0.00000039 RMS(Int)=  0.00000000
 ITry= 1 IFail=0 DXMaxC= 8.82D-04 DCOld= 1.00D+10 DXMaxT= 3.00D-01 DXLimC= 3.00D+00 Rises=F
 ClnCor:  largest displacement from symmetrization is 1.49D-15 for atom     1.
 Variable       Old X    -DE/DX   Delta X   Delta X   Delta X     New X
                                 (Linear)    (Quad)   (Total)
    R1        2.15631  -0.00001  -0.00020   0.00017  -0.00004   2.15627
    R2        2.25909   0.00019  -0.00015   0.00030   0.00015   2.25924
    A1        2.14496   0.00022   0.00032   0.00107   0.00138   2.14634
         Item               Value     Threshold  Converged?
 Maximum Force            0.000224     0.000450     YES
 RMS     Force            0.000168     0.000300     YES
 Maximum Displacement     0.000882     0.001800     YES
 RMS     Displacement     0.000888     0.001200     YES
 Predicted change in Energy=-1.683678D-07
 Optimization completed.
    -- Stationary point found.
                           ----------------------------
                           !   Optimized Parameters   !
                           ! (Angstroms and Degrees)  !
 --------------------------                            --------------------------
 ! Name  Definition              Value          Derivative Info.                !
 --------------------------------------------------------------------------------
 ! R1    R(1,2)                  1.1411         -DE/DX =    0.0                 !
 ! R2    R(2,3)                  1.1955         -DE/DX =    0.0002              !
 ! A1    A(1,2,3)              122.8972         -DE/DX =    0.0002              !
 --------------------------------------------------------------------------------
 Lowest energy point so far.  Saving SCF results.
 Largest change from initial coordinates is atom    1       0.008 Angstoms.
 GradGradGradGradGradGradGradGradGradGradGradGradGradGradGradGradGradGrad

 Leave Link  103 at Wed Oct  7 14:47:54 2020, MaxMem=  2684354560 cpu:               2.2 elap:               0.7
 (Enter /udrive/faculty/rpeverati/g16/g16/l202.exe)
                          Input orientation:                          
 ---------------------------------------------------------------------
 Center     Atomic      Atomic             Coordinates (Angstroms)
 Number     Number       Type             X           Y           Z
 ---------------------------------------------------------------------
      1          1           0       -0.865838    1.231108    0.000000
      2          6           0        0.079690    0.592344    0.000000
      3          8           0        0.055816   -0.602878    0.000000
 ---------------------------------------------------------------------
                    Distance matrix (angstroms):
                    1          2          3
     1  H    0.000000
     2  C    1.141071   0.000000
     3  O    2.052547   1.195461   0.000000
 Stoichiometry    CHO(2)
 Framework group  CS[SG(CHO)]
 Deg. of freedom     3
 Full point group                 CS      NOp   2
 RotChk:  IX=0 Diff= 4.44D-16
 Largest Abelian subgroup         CS      NOp   2
 Largest concise Abelian subgroup C1      NOp   1
                         Standard orientation:                         
 ---------------------------------------------------------------------
 Center     Atomic      Atomic             Coordinates (Angstroms)
 Number     Number       Type             X           Y           Z
 ---------------------------------------------------------------------
      1          1           0       -0.894224    1.216015    0.000000
      2          6           0        0.063873    0.596262    0.000000
      3          8           0        0.063873   -0.599198    0.000000
 ---------------------------------------------------------------------
 Rotational constants (GHZ):         669.2707643          43.6147890          40.9464086
 Leave Link  202 at Wed Oct  7 14:47:55 2020, MaxMem=  2684354560 cpu:               1.4 elap:               0.5
 (Enter /udrive/faculty/rpeverati/g16/g16/l601.exe)
 Copying SCF densities to generalized density rwf, IOpCl= 1 IROHF=0.

 **********************************************************************

            Population analysis using the SCF density.

 **********************************************************************

 Orbital symmetries:
 Alpha Orbitals:
       Occupied  (A') (A') (A') (A') (A') (A") (A') (A')
       Virtual   (A") (A') (A') (A") (A') (A') (A') (A') (A') (A")
                 (A') (A") (A") (A') (A') (A') (A") (A') (A') (A")
                 (A') (A')
 Beta  Orbitals:
       Occupied  (A') (A') (A') (A') (A') (A") (A')
       Virtual   (A') (A") (A') (A') (A") (A') (A') (A') (A') (A')
                 (A") (A') (A") (A') (A") (A') (A') (A") (A') (A')
                 (A") (A') (A')
 The electronic state is 2-A'.
 Alpha  occ. eigenvalues --  -18.85978 -10.01957  -0.99701  -0.54172  -0.42688
 Alpha  occ. eigenvalues --   -0.37343  -0.36400  -0.16562
 Alpha virt. eigenvalues --   -0.07660   0.09634   0.21037   0.47003   0.48336
 Alpha virt. eigenvalues --    0.60170   0.63869   0.75194   0.82170   0.87802
 Alpha virt. eigenvalues --    0.92305   1.44305   1.45195   1.45363   1.45668
 Alpha virt. eigenvalues --    1.63287   1.85274   1.97217   2.22240   2.47205
 Alpha virt. eigenvalues --    2.51670   2.81986
  Beta  occ. eigenvalues --  -18.85246 -10.01170  -0.98414  -0.52075  -0.40896
  Beta  occ. eigenvalues --   -0.36554  -0.32795
  Beta virt. eigenvalues --   -0.10521  -0.06055   0.11689   0.22079   0.47942
  Beta virt. eigenvalues --    0.52295   0.61510   0.65908   0.77474   0.83387
  Beta virt. eigenvalues --    0.88248   0.94586   1.45194   1.46562   1.48014
  Beta virt. eigenvalues --    1.48882   1.65334   1.87986   1.99936   2.24778
  Beta virt. eigenvalues --    2.48481   2.55067   2.82932
          Condensed to atoms (all electrons):
               1          2          3
     1  H    0.720961   0.191711  -0.043296
     2  C    0.191711   5.196840   0.539233
     3  O   -0.043296   0.539233   7.706902
          Atomic-Atomic Spin Densities.
               1          2          3
     1  H    0.343289  -0.151838  -0.016422
     2  C   -0.151838   0.835895  -0.129296
     3  O   -0.016422  -0.129296   0.415927
 Mulliken charges and spin densities:
               1          2
     1  H    0.130624   0.175030
     2  C    0.072215   0.554761
     3  O   -0.202839   0.270210
 Sum of Mulliken charges =  -0.00000   1.00000
 Mulliken charges and spin densities with hydrogens summed into heavy atoms:
               1          2
     2  C    0.202839   0.729790
     3  O   -0.202839   0.270210
 Electronic spatial extent (au):  <R**2>=             50.8769
 Charge=             -0.0000 electrons
 Dipole moment (field-independent basis, Debye):
    X=             -0.8577    Y=              1.1021    Z=              0.0000  Tot=              1.3966
 Quadrupole moment (field-independent basis, Debye-Ang):
   XX=            -11.1342   YY=            -11.4118   ZZ=            -10.6252
   XY=             -0.9220   XZ=              0.0000   YZ=              0.0000
 Traceless Quadrupole moment (field-independent basis, Debye-Ang):
   XX=             -0.0771   YY=             -0.3547   ZZ=              0.4318
   XY=             -0.9220   XZ=              0.0000   YZ=              0.0000
 Octapole moment (field-independent basis, Debye-Ang**2):
  XXX=             -0.5842  YYY=             -2.9294  ZZZ=              0.0000  XYY=             -1.2818
  XXY=             -0.9965  XXZ=              0.0000  XZZ=             -0.0571  YZZ=             -1.0146
  YYZ=              0.0000  XYZ=              0.0000
 Hexadecapole moment (field-independent basis, Debye-Ang**3):
 XXXX=            -14.0124 YYYY=            -39.1894 ZZZZ=             -8.4722 XXXY=              1.7741
 XXXZ=              0.0000 YYYX=              0.9283 YYYZ=              0.0000 ZZZX=              0.0000
 ZZZY=              0.0000 XXYY=             -8.7511 XXZZ=             -3.8194 YYZZ=             -7.8392
 XXYZ=              0.0000 YYXZ=              0.0000 ZZXY=              0.7592
 N-N= 2.609251088651D+01 E-N=-3.194488356034D+02  KE= 1.130875949043D+02
                          Isotropic Fermi Contact Couplings
        Atom                 a.u.       MegaHertz       Gauss      10(-4) cm-1
     1  H(1)               0.08254     368.92179     131.64047     123.05906
     2  C(13)              0.38087     428.17453     152.78332     142.82365
     3  O(17)              0.06002     -36.38195     -12.98198     -12.13571
 --------------------------------------------------------
       Center         ----  Spin Dipole Couplings  ----
                      3XX-RR        3YY-RR        3ZZ-RR
 --------------------------------------------------------
     1   Atom        0.018916      0.008280     -0.027196
     2   Atom        0.349379     -0.075956     -0.273423
     3   Atom        1.286483     -0.542778     -0.743705
 --------------------------------------------------------
                        XY            XZ            YZ
 --------------------------------------------------------
     1   Atom       -0.026329      0.000000      0.000000
     2   Atom        0.383336      0.000000      0.000000
     3   Atom        0.484905      0.000000      0.000000
 --------------------------------------------------------


 ---------------------------------------------------------------------------------
              Anisotropic Spin Dipole Couplings in Principal Axis System
 ---------------------------------------------------------------------------------

       Atom             a.u.   MegaHertz   Gauss  10(-4) cm-1        Axes

              Baa    -0.0272   -14.511    -5.178    -4.840  0.0000  0.0000  1.0000
     1 H(1)   Bbb    -0.0133    -7.076    -2.525    -2.360  0.6333  0.7739  0.0000
              Bcc     0.0405    21.587     7.703     7.201  0.7739 -0.6333  0.0000
 
              Baa    -0.3017   -40.481   -14.444   -13.503 -0.5074  0.8617  0.0000
     2 C(13)  Bbb    -0.2734   -36.691   -13.092   -12.239  0.0000  0.0000  1.0000
              Bcc     0.5751    77.171    27.537    25.742  0.8617  0.5074  0.0000
 
              Baa    -0.7437    53.814    19.202    17.950  0.0000  0.0000  1.0000
     3 O(17)  Bbb    -0.6634    48.001    17.128    16.011 -0.2413  0.9704  0.0000
              Bcc     1.4071  -101.815   -36.330   -33.962  0.9704  0.2413  0.0000
 

 ---------------------------------------------------------------------------------

 No NMR shielding tensors so no spin-rotation constants.
 Leave Link  601 at Wed Oct  7 14:47:56 2020, MaxMem=  2684354560 cpu:               3.9 elap:               0.6
 (Enter /udrive/faculty/rpeverati/g16/g16/l9999.exe)

 Test job not archived.
 1\1\GINC-NODE52\FOpt\UBLYP\6-31G(d)\C1H1O1(2)\RPEVERATI\07-Oct-2020\0\
 \#P Opt(MaxCyc=100) BLYP/6-31G* 5D 7F Integral=UltraFineGrid SCF=(NoSy
 mm,XQC,MaxCyc=120) IOp(1/33=1)\\TS search on BH76.\\0,2\H,-0.865838202
 9,1.2311079367,0.\C,0.0796904042,0.5923439744,0.\O,0.0558155131,-0.602
 8782155,0.\\Version=ES64L-G16RevA.03\State=2-A'\HF=-113.8274095\S2=0.7
 51618\S2-1=0.\S2A=0.750002\RMSD=2.885e-09\RMSF=1.005e-04\Dipole=-0.328
 7176,0.4402716,0.\Quadrupole=-0.0847799,-0.2362572,0.3210371,-0.689044
 1,0.,0.\PG=CS [SG(C1H1O1)]\\@


 LET US PLACE AT THE END OF EVERY CHAPTER.....THE
 TWO LETTERS USED BY THE ROMAN JUDGES WHEN THEY DID
 NOT UNDERSTAND A PLEADING.
 N. L. -NON LIQUET- IT IS NOT CLEAR.
                                              -- VOLTAIRE
 Job cpu time:       0 days  0 hours  2 minutes 36.1 seconds.
 Elapsed time:       0 days  0 hours  0 minutes 31.7 seconds.
 File lengths (MBytes):  RWF=      5 Int=      0 D2E=      0 Chk=      1 Scr=      1
 Normal termination of Gaussian 16 at Wed Oct  7 14:47:57 2020.
