 Entering Gaussian System, Link 0=g16
 Input=MN_58_hn2_BH76_BLYP_631Gs.in
 Output=MN_58_hn2_BH76_BLYP_631Gs.log
 Initial command:
 /udrive/faculty/rpeverati/g16/g16/l1.exe "/udrive/scratch-directories/gaussian09/rpeverati/Gau-11934.inp" -scrdir="/udrive/scratch-directories/gaussian09/rpeverati/"
 Entering Link 1 = /udrive/faculty/rpeverati/g16/g16/l1.exe PID=     11951.
  
 Copyright (c) 1988,1990,1992,1993,1995,1998,2003,2009,2016,
            Gaussian, Inc.  All Rights Reserved.
  
 This is part of the Gaussian(R) 16 program.  It is based on
 the Gaussian(R) 09 system (copyright 2009, Gaussian, Inc.),
 the Gaussian(R) 03 system (copyright 2003, Gaussian, Inc.),
 the Gaussian(R) 98 system (copyright 1998, Gaussian, Inc.),
 the Gaussian(R) 94 system (copyright 1995, Gaussian, Inc.),
 the Gaussian 92(TM) system (copyright 1992, Gaussian, Inc.),
 the Gaussian 90(TM) system (copyright 1990, Gaussian, Inc.),
 the Gaussian 88(TM) system (copyright 1988, Gaussian, Inc.),
 the Gaussian 86(TM) system (copyright 1986, Carnegie Mellon
 University), and the Gaussian 82(TM) system (copyright 1983,
 Carnegie Mellon University). Gaussian is a federally registered
 trademark of Gaussian, Inc.
  
 This software contains proprietary and confidential information,
 including trade secrets, belonging to Gaussian, Inc.
  
 This software is provided under written license and may be
 used, copied, transmitted, or stored only in accord with that
 written license.
  
 The following legend is applicable only to US Government
 contracts under FAR:
  
                    RESTRICTED RIGHTS LEGEND
  
 Use, reproduction and disclosure by the US Government is
 subject to restrictions as set forth in subparagraphs (a)
 and (c) of the Commercial Computer Software - Restricted
 Rights clause in FAR 52.227-19.
  
 Gaussian, Inc.
 340 Quinnipiac St., Bldg. 40, Wallingford CT 06492
  
  
 ---------------------------------------------------------------
 Warning -- This program may not be used in any manner that
 competes with the business of Gaussian, Inc. or will provide
 assistance to any competitor of Gaussian, Inc.  The licensee
 of this program is prohibited from giving any competitor of
 Gaussian, Inc. access to this program.  By using this program,
 the user acknowledges that Gaussian, Inc. is engaged in the
 business of creating and licensing software in the field of
 computational chemistry and represents and warrants to the
 licensee that it is not a competitor of Gaussian, Inc. and that
 it will not use this program in any manner prohibited above.
 ---------------------------------------------------------------
  

 Cite this work as:
 Gaussian 16, Revision A.03,
 M. J. Frisch, G. W. Trucks, H. B. Schlegel, G. E. Scuseria, 
 M. A. Robb, J. R. Cheeseman, G. Scalmani, V. Barone, 
 G. A. Petersson, H. Nakatsuji, X. Li, M. Caricato, A. V. Marenich, 
 J. Bloino, B. G. Janesko, R. Gomperts, B. Mennucci, H. P. Hratchian, 
 J. V. Ortiz, A. F. Izmaylov, J. L. Sonnenberg, D. Williams-Young, 
 F. Ding, F. Lipparini, F. Egidi, J. Goings, B. Peng, A. Petrone, 
 T. Henderson, D. Ranasinghe, V. G. Zakrzewski, J. Gao, N. Rega, 
 G. Zheng, W. Liang, M. Hada, M. Ehara, K. Toyota, R. Fukuda, 
 J. Hasegawa, M. Ishida, T. Nakajima, Y. Honda, O. Kitao, H. Nakai, 
 T. Vreven, K. Throssell, J. A. Montgomery, Jr., J. E. Peralta, 
 F. Ogliaro, M. J. Bearpark, J. J. Heyd, E. N. Brothers, K. N. Kudin, 
 V. N. Staroverov, T. A. Keith, R. Kobayashi, J. Normand, 
 K. Raghavachari, A. P. Rendell, J. C. Burant, S. S. Iyengar, 
 J. Tomasi, M. Cossi, J. M. Millam, M. Klene, C. Adamo, R. Cammi, 
 J. W. Ochterski, R. L. Martin, K. Morokuma, O. Farkas, 
 J. B. Foresman, and D. J. Fox, Gaussian, Inc., Wallingford CT, 2016.
 
 ******************************************
 Gaussian 16:  ES64L-G16RevA.03 25-Dec-2016
                 7-Oct-2020 
 ******************************************
 %NoSave
 %nproc=12
 Will use up to   12 processors via shared memory.
 %mem=20GB
 %chk=MN_58_hn2_BH76_BLYP_631Gs
 ----------------------------------------------------------------------
 #P Opt(MaxCyc=100) BLYP/6-31G* 5D 7F Integral=UltraFineGrid SCF=(NoSym
 m,XQC,MaxCyc=120) IOp(1/33=1)
 ----------------------------------------------------------------------
 1/6=100,18=20,19=15,26=4,33=1,38=1/1,3;
 2/9=110,12=2,17=6,18=5,40=1/2;
 3/5=1,6=6,7=1,8=11,11=2,25=1,30=1,71=1,74=402,75=-5/1,2,3;
 4/9=2/1;
 5/5=2,7=120,8=3,13=1,38=5/2,8;
 6/7=2,8=2,9=2,10=2,28=1/1;
 7//1,2,3,16;
 1/6=100,18=20,19=15,26=4,33=1/3(2);
 2/9=110/2;
 99//99;
 2/9=110/2;
 3/5=1,6=6,7=1,8=11,11=2,25=1,30=1,71=1,74=402,75=-5/1,2,3;
 4/5=5,9=2,16=3,69=1/1;
 5/5=2,7=120,8=3,13=1,38=5/2,8;
 7//1,2,3,16;
 1/6=100,18=20,19=15,26=4,33=1/3(-5);
 2/9=110/2;
 6/7=2,8=2,9=2,10=2,19=2,28=1/1;
 99/9=1/99;
 Leave Link    1 at Wed Oct  7 14:48:12 2020, MaxMem=  2684354560 cpu:               6.2 elap:               0.6
 (Enter /udrive/faculty/rpeverati/g16/g16/l101.exe)
 ONIOM data not found on unit 2.
 ------------------
 TS search on BH76.
 ------------------
 TstMul:  ICh=     0
 TstMul:  Mul=     2
 TstMul:  ICh=     0
 TstMul:  Mul=     2
 Symbolic Z-matrix:
 Charge =  0 Multiplicity = 2
 N                    -0.06244   0.65949   0. 
 N                    -0.06244  -0.51871   0. 
 H                     0.8742   -0.98548   0. 
 
 RdStrC is calling ZToCFu for IStruc=1 NZ=     3.
 PrtBox:  NBox=     1 Levels=  1 BoxLen=    8.00 SMaxX=        3.11
          Shift=            0.117998            1.862280            0.000000
 Box      1 Number                   0 centers from      1 to      3:
 After GenITR:
 ITRead=  0  0  0
 MicOpt= -1 -1 -1
 ITRead=  0  0  0
 MicOpt= -1 -1 -1
 NAtoms=      3 NQM=        3 NQMF=       0 NMMI=      0 NMMIF=      0
                NMic=       0 NMicF=      0.
                    Isotopes and Nuclear Properties:
 (Nuclear quadrupole moments (NQMom) in fm**2, nuclear magnetic moments (NMagM)
  in nuclear magnetons)

  Atom         1           2           3
 IAtWgt=          14          14           1
 AtmWgt=  14.0030740  14.0030740   1.0078250
 NucSpn=           2           2           1
 AtZEff=   0.0000000   0.0000000   0.0000000
 NQMom=    2.0440000   2.0440000   0.0000000
 NMagM=    0.4037610   0.4037610   2.7928460
 AtZNuc=   7.0000000   7.0000000   1.0000000
 No MM parameters found.
 Leave Link  101 at Wed Oct  7 14:48:14 2020, MaxMem=  2684354560 cpu:               9.7 elap:               0.9
 (Enter /udrive/faculty/rpeverati/g16/g16/l103.exe)

 GradGradGradGradGradGradGradGradGradGradGradGradGradGradGradGradGradGrad
 Berny optimization.
 Optmz: redundant internal coordinate code flag= 1
 Initialization pass.
                           ----------------------------
                           !    Initial Parameters    !
                           ! (Angstroms and Degrees)  !
 --------------------------                            --------------------------
 ! Name  Definition              Value          Derivative Info.                !
 --------------------------------------------------------------------------------
 ! R1    R(1,2)                  1.1782         estimate D2E/DX2                !
 ! R2    R(2,3)                  1.0465         estimate D2E/DX2                !
 ! A1    A(1,2,3)              116.4891         estimate D2E/DX2                !
 --------------------------------------------------------------------------------
 Maximum allowed force set to 1.00D+20.
 Trust Radius=3.00D-01 FncErr=1.00D-07 GrdErr=1.00D-06 EigMax=2.50D+02 EigMin=1.00D-04
 Number of steps in this run=    100 maximum allowed number of steps=    100.
 GradGradGradGradGradGradGradGradGradGradGradGradGradGradGradGradGradGrad

 Leave Link  103 at Wed Oct  7 14:48:14 2020, MaxMem=  2684354560 cpu:               1.1 elap:               0.6
 (Enter /udrive/faculty/rpeverati/g16/g16/l202.exe)
                          Input orientation:                          
 ---------------------------------------------------------------------
 Center     Atomic      Atomic             Coordinates (Angstroms)
 Number     Number       Type             X           Y           Z
 ---------------------------------------------------------------------
      1          7           0       -0.062442    0.659492    0.000000
      2          7           0       -0.062442   -0.518709    0.000000
      3          1           0        0.874195   -0.985476    0.000000
 ---------------------------------------------------------------------
                    Distance matrix (angstroms):
                    1          2          3
     1  N    0.000000
     2  N    1.178201   0.000000
     3  H    1.892937   1.046499   0.000000
 Stoichiometry    HN2(2)
 Framework group  CS[SG(HN2)]
 Deg. of freedom     3
 Full point group                 CS      NOp   2
 Largest Abelian subgroup         CS      NOp   2
 Largest concise Abelian subgroup C1      NOp   1
                         Standard orientation:                         
 ---------------------------------------------------------------------
 Center     Atomic      Atomic             Coordinates (Angstroms)
 Number     Number       Type             X           Y           Z
 ---------------------------------------------------------------------
      1          7           0       -0.062442    0.659492    0.000000
      2          7           0       -0.062442   -0.518710    0.000000
      3          1           0        0.874195   -0.985477    0.000000
 ---------------------------------------------------------------------
 Rotational constants (GHZ):         663.8594863          46.3822203          43.3532368
 Leave Link  202 at Wed Oct  7 14:48:15 2020, MaxMem=  2684354560 cpu:               0.8 elap:               0.5
 (Enter /udrive/faculty/rpeverati/g16/g16/l301.exe)
 Standard basis: 6-31G(d) (5D, 7F)
 Ernie: Thresh=  0.10000D-02 Tol=  0.10000D-05 Strict=F.
 There are    24 symmetry adapted cartesian basis functions of A'  symmetry.
 There are     8 symmetry adapted cartesian basis functions of A"  symmetry.
 There are    22 symmetry adapted basis functions of A'  symmetry.
 There are     8 symmetry adapted basis functions of A"  symmetry.
    30 basis functions,    60 primitive gaussians,    32 cartesian basis functions
     8 alpha electrons        7 beta electrons
       nuclear repulsion energy        27.5043762580 Hartrees.
 IExCor=  402 DFT=T Ex=B Corr=LYP ExCW=0 ScaHFX=  0.000000
 ScaDFX=  1.000000  1.000000  1.000000  1.000000 ScalE2=  1.000000  1.000000
 IRadAn=      5 IRanWt=     -1 IRanGd=            0 ICorTp=0 IEmpDi=  4
 NAtoms=    3 NActive=    3 NUniq=    3 SFac= 1.00D+00 NAtFMM=   60 NAOKFM=F Big=F
 Integral buffers will be    131072 words long.
 Raffenetti 2 integral format.
 Two-electron integral symmetry is turned on.
 Leave Link  301 at Wed Oct  7 14:48:16 2020, MaxMem=  2684354560 cpu:               2.6 elap:               0.7
 (Enter /udrive/faculty/rpeverati/g16/g16/l302.exe)
 NPDir=0 NMtPBC=     1 NCelOv=     1 NCel=       1 NClECP=     1 NCelD=      1
         NCelK=      1 NCelE2=     1 NClLst=     1 CellRange=     0.0.
 One-electron integrals computed using PRISM.
 One-electron integral symmetry used in STVInt
 NBasis=    30 RedAO= T EigKep=  7.30D-03  NBF=    22     8
 NBsUse=    30 1.00D-06 EigRej= -1.00D+00 NBFU=    22     8
 Precomputing XC quadrature grid using
 IXCGrd= 4 IRadAn=           5 IRanWt=          -1 IRanGd=           0 AccXCQ= 0.00D+00.
 Generated NRdTot=       0 NPtTot=           0 NUsed=           0 NTot=          32
 NSgBfM=    32    32    32    32    32 MxSgAt=     3 MxSgA2=     3.
 Leave Link  302 at Wed Oct  7 14:48:17 2020, MaxMem=  2684354560 cpu:               4.6 elap:               0.8
 (Enter /udrive/faculty/rpeverati/g16/g16/l303.exe)
 DipDrv:  MaxL=1.
 Leave Link  303 at Wed Oct  7 14:48:18 2020, MaxMem=  2684354560 cpu:               1.9 elap:               0.5
 (Enter /udrive/faculty/rpeverati/g16/g16/l401.exe)
 SCF N**3 symmetry information disabled.
 ExpMin= 1.61D-01 ExpMax= 4.17D+03 ExpMxC= 6.27D+02 IAcc=3 IRadAn=         5 AccDes= 0.00D+00
 Harris functional with IExCor=  402 and IRadAn=       5 diagonalized for initial guess.
 HarFok:  IExCor=  402 AccDes= 0.00D+00 IRadAn=         5 IDoV= 1 UseB2=F ITyADJ=14
 ICtDFT=  3500011 ScaDFX=  1.000000  1.000000  1.000000  1.000000
 FoFCou: FMM=F IPFlag=           0 FMFlag=      100000 FMFlg1=           0
         NFxFlg=           0 DoJE=T BraDBF=F KetDBF=T FulRan=T
         wScrn=  0.000000 ICntrl=       500 IOpCl=  0 I1Cent=   200000004 NGrid=           0
         NMat0=    1 NMatS0=      1 NMatT0=    0 NMatD0=    1 NMtDS0=    0 NMtDT0=    0
 Petite list used in FoFCou.
 Harris En= -109.979122185474    
 JPrj=0 DoOrth=F DoCkMO=F.
 Initial guess orbital symmetries:
 Alpha Orbitals:
       Occupied  (A') (A') (A') (A') (A') (A") (A') (A')
       Virtual   (A") (A') (A') (A') (A") (A') (A') (A') (A") (A')
                 (A') (A') (A") (A') (A") (A') (A") (A') (A') (A")
                 (A') (A')
 Beta  Orbitals:
       Occupied  (A') (A') (A') (A') (A') (A") (A')
       Virtual   (A') (A") (A') (A') (A') (A") (A') (A') (A') (A")
                 (A') (A') (A') (A") (A') (A") (A') (A") (A') (A')
                 (A") (A') (A')
 The electronic state of the initial guess is 2-A'.
 Initial guess <Sx>= 0.0000 <Sy>= 0.0000 <Sz>= 0.5000 <S**2>= 0.7500 S= 0.5000
 Leave Link  401 at Wed Oct  7 14:48:19 2020, MaxMem=  2684354560 cpu:               5.3 elap:               0.9
 (Enter /udrive/faculty/rpeverati/g16/g16/l502.exe)
 Keep J ints in memory in symmetry-blocked form, NReq=10459184.
 FoFCou: FMM=F IPFlag=           0 FMFlag=           0 FMFlg1=           0
         NFxFlg=           0 DoJE=F BraDBF=F KetDBF=F FulRan=T
         wScrn=  0.000000 ICntrl=       600 IOpCl=  0 I1Cent=           0 NGrid=           0
         NMat0=    1 NMatS0=    465 NMatT0=    0 NMatD0=    1 NMtDS0=    0 NMtDT0=    0
 Petite list used in FoFCou.
 UHF open shell SCF:
 Using DIIS extrapolation, IDIIS=  1040.
 NGot=  2684354560 LenX=  2684292770 LenY=  2684291305
 Requested convergence on RMS density matrix=1.00D-08 within 120 cycles.
 Requested convergence on MAX density matrix=1.00D-06.
 Requested convergence on             energy=1.00D-06.
 No special actions if energy rises.
 Integral accuracy reduced to 1.0D-05 until final iterations.

 Cycle   1  Pass 0  IDiag  1:
 E= -109.995929588989    
 DIIS: error= 1.68D-02 at cycle   1 NSaved=   1.
 NSaved= 1 IEnMin= 1 EnMin= -109.995929588989     IErMin= 1 ErrMin= 1.68D-02
 ErrMax= 1.68D-02  0.00D+00 EMaxC= 1.00D-01 BMatC= 3.28D-02 BMatP= 3.28D-02
 IDIUse=3 WtCom= 8.32D-01 WtEn= 1.68D-01
 Coeff-Com:  0.100D+01
 Coeff-En:   0.100D+01
 Coeff:      0.100D+01
 Gap=     0.081 Goal=   None    Shift=    0.000
 Gap=     0.223 Goal=   None    Shift=    0.000
 GapD=    0.081 DampG=0.500 DampE=0.500 DampFc=0.2500 IDamp=-1.
 Damping current iteration by 2.50D-01
 RMSDP=1.05D-02 MaxDP=1.50D-01              OVMax= 1.22D-01

 Cycle   2  Pass 0  IDiag  1:
 E= -109.999418962909     Delta-E=       -0.003489373920 Rises=F Damp=T
 DIIS: error= 8.43D-03 at cycle   2 NSaved=   2.
 NSaved= 2 IEnMin= 2 EnMin= -109.999418962909     IErMin= 2 ErrMin= 8.43D-03
 ErrMax= 8.43D-03  0.00D+00 EMaxC= 1.00D-01 BMatC= 9.62D-03 BMatP= 3.28D-02
 IDIUse=3 WtCom= 9.16D-01 WtEn= 8.43D-02
 Coeff-Com: -0.888D+00 0.189D+01
 Coeff-En:   0.000D+00 0.100D+01
 Coeff:     -0.813D+00 0.181D+01
 Gap=     0.079 Goal=   None    Shift=    0.000
 Gap=     0.231 Goal=   None    Shift=    0.000
 RMSDP=2.91D-03 MaxDP=2.86D-02 DE=-3.49D-03 OVMax= 6.86D-02

 Cycle   3  Pass 0  IDiag  1:
 E= -110.005122506130     Delta-E=       -0.005703543221 Rises=F Damp=F
 DIIS: error= 8.38D-03 at cycle   3 NSaved=   3.
 NSaved= 3 IEnMin= 3 EnMin= -110.005122506130     IErMin= 3 ErrMin= 8.38D-03
 ErrMax= 8.38D-03  0.00D+00 EMaxC= 1.00D-01 BMatC= 4.71D-03 BMatP= 9.62D-03
 IDIUse=3 WtCom= 9.16D-01 WtEn= 8.38D-02
 Coeff-Com: -0.548D+00 0.112D+01 0.427D+00
 Coeff-En:   0.000D+00 0.000D+00 0.100D+01
 Coeff:     -0.502D+00 0.103D+01 0.475D+00
 Gap=     0.078 Goal=   None    Shift=    0.000
 Gap=     0.232 Goal=   None    Shift=    0.000
 RMSDP=1.31D-03 MaxDP=1.53D-02 DE=-5.70D-03 OVMax= 2.71D-02

 Cycle   4  Pass 0  IDiag  1:
 E= -110.005092554457     Delta-E=        0.000029951673 Rises=F Damp=F
 DIIS: error= 9.02D-03 at cycle   4 NSaved=   4.
 NSaved= 4 IEnMin= 3 EnMin= -110.005122506130     IErMin= 3 ErrMin= 8.38D-03
 ErrMax= 9.02D-03  0.00D+00 EMaxC= 1.00D-01 BMatC= 4.85D-03 BMatP= 4.71D-03
 IDIUse=3 WtCom= 9.10D-01 WtEn= 9.02D-02
 Coeff-Com: -0.870D-01 0.134D+00 0.490D+00 0.462D+00
 Coeff-En:   0.000D+00 0.000D+00 0.505D+00 0.495D+00
 Coeff:     -0.791D-01 0.122D+00 0.492D+00 0.465D+00
 Gap=     0.080 Goal=   None    Shift=    0.000
 Gap=     0.233 Goal=   None    Shift=    0.000
 RMSDP=7.63D-04 MaxDP=9.49D-03 DE= 3.00D-05 OVMax= 1.67D-02

 Cycle   5  Pass 0  IDiag  1:
 E= -110.006118513474     Delta-E=       -0.001025959017 Rises=F Damp=F
 DIIS: error= 5.31D-04 at cycle   5 NSaved=   5.
 NSaved= 5 IEnMin= 5 EnMin= -110.006118513474     IErMin= 5 ErrMin= 5.31D-04
 ErrMax= 5.31D-04  0.00D+00 EMaxC= 1.00D-01 BMatC= 1.84D-05 BMatP= 4.71D-03
 IDIUse=3 WtCom= 9.95D-01 WtEn= 5.31D-03
 Coeff-Com:  0.182D-01-0.477D-01 0.732D-01 0.113D+00 0.843D+00
 Coeff-En:   0.000D+00 0.000D+00 0.000D+00 0.000D+00 0.100D+01
 Coeff:      0.181D-01-0.475D-01 0.729D-01 0.112D+00 0.844D+00
 Gap=     0.080 Goal=   None    Shift=    0.000
 Gap=     0.233 Goal=   None    Shift=    0.000
 RMSDP=8.79D-05 MaxDP=9.97D-04 DE=-1.03D-03 OVMax= 1.79D-03

 Cycle   6  Pass 0  IDiag  1:
 E= -110.006124720827     Delta-E=       -0.000006207353 Rises=F Damp=F
 DIIS: error= 9.70D-05 at cycle   6 NSaved=   6.
 NSaved= 6 IEnMin= 6 EnMin= -110.006124720827     IErMin= 6 ErrMin= 9.70D-05
 ErrMax= 9.70D-05  0.00D+00 EMaxC= 1.00D-01 BMatC= 6.27D-07 BMatP= 1.84D-05
 IDIUse=1 WtCom= 1.00D+00 WtEn= 0.00D+00
 Coeff-Com:  0.410D-02-0.627D-02-0.267D-01-0.272D-01-0.104D-01 0.107D+01
 Coeff:      0.410D-02-0.627D-02-0.267D-01-0.272D-01-0.104D-01 0.107D+01
 Gap=     0.080 Goal=   None    Shift=    0.000
 Gap=     0.233 Goal=   None    Shift=    0.000
 RMSDP=3.09D-05 MaxDP=4.50D-04 DE=-6.21D-06 OVMax= 7.74D-04

 Cycle   7  Pass 0  IDiag  1:
 E= -110.006125314833     Delta-E=       -0.000000594006 Rises=F Damp=F
 DIIS: error= 6.24D-05 at cycle   7 NSaved=   7.
 NSaved= 7 IEnMin= 7 EnMin= -110.006125314833     IErMin= 7 ErrMin= 6.24D-05
 ErrMax= 6.24D-05  0.00D+00 EMaxC= 1.00D-01 BMatC= 1.40D-07 BMatP= 6.27D-07
 IDIUse=1 WtCom= 1.00D+00 WtEn= 0.00D+00
 Coeff-Com: -0.331D-03 0.229D-02-0.963D-02-0.161D-01-0.768D-01 0.132D+00
 Coeff-Com:  0.969D+00
 Coeff:     -0.331D-03 0.229D-02-0.963D-02-0.161D-01-0.768D-01 0.132D+00
 Coeff:      0.969D+00
 Gap=     0.080 Goal=   None    Shift=    0.000
 Gap=     0.233 Goal=   None    Shift=    0.000
 RMSDP=1.29D-05 MaxDP=1.92D-04 DE=-5.94D-07 OVMax= 3.63D-04

 Cycle   8  Pass 0  IDiag  1:
 E= -110.006125403910     Delta-E=       -0.000000089077 Rises=F Damp=F
 DIIS: error= 1.02D-05 at cycle   8 NSaved=   8.
 NSaved= 8 IEnMin= 8 EnMin= -110.006125403910     IErMin= 8 ErrMin= 1.02D-05
 ErrMax= 1.02D-05  0.00D+00 EMaxC= 1.00D-01 BMatC= 1.03D-08 BMatP= 1.40D-07
 IDIUse=1 WtCom= 1.00D+00 WtEn= 0.00D+00
 Coeff-Com: -0.593D-03 0.132D-02 0.142D-02 0.365D-03-0.142D-01-0.115D+00
 Coeff-Com:  0.188D+00 0.939D+00
 Coeff:     -0.593D-03 0.132D-02 0.142D-02 0.365D-03-0.142D-01-0.115D+00
 Coeff:      0.188D+00 0.939D+00
 Gap=     0.080 Goal=   None    Shift=    0.000
 Gap=     0.233 Goal=   None    Shift=    0.000
 RMSDP=4.08D-06 MaxDP=6.30D-05 DE=-8.91D-08 OVMax= 1.11D-04

 Initial convergence to 1.0D-05 achieved.  Increase integral accuracy.
 Cycle   9  Pass 1  IDiag  1:
 E= -110.006125791721     Delta-E=       -0.000000387810 Rises=F Damp=F
 DIIS: error= 4.67D-06 at cycle   1 NSaved=   1.
 NSaved= 1 IEnMin= 1 EnMin= -110.006125791721     IErMin= 1 ErrMin= 4.67D-06
 ErrMax= 4.67D-06  0.00D+00 EMaxC= 1.00D-01 BMatC= 9.05D-10 BMatP= 9.05D-10
 IDIUse=1 WtCom= 1.00D+00 WtEn= 0.00D+00
 Coeff-Com:  0.100D+01
 Coeff:      0.100D+01
 Gap=     0.080 Goal=   None    Shift=    0.000
 Gap=     0.233 Goal=   None    Shift=    0.000
 RMSDP=4.08D-06 MaxDP=6.30D-05 DE=-3.88D-07 OVMax= 3.22D-05

 Cycle  10  Pass 1  IDiag  1:
 E= -110.006125790357     Delta-E=        0.000000001364 Rises=F Damp=F
 DIIS: error= 1.17D-05 at cycle   2 NSaved=   2.
 NSaved= 2 IEnMin= 1 EnMin= -110.006125791721     IErMin= 1 ErrMin= 4.67D-06
 ErrMax= 1.17D-05  0.00D+00 EMaxC= 1.00D-01 BMatC= 7.75D-09 BMatP= 9.05D-10
 IDIUse=1 WtCom= 1.00D+00 WtEn= 0.00D+00
 Coeff-Com:  0.763D+00 0.237D+00
 Coeff:      0.763D+00 0.237D+00
 Gap=     0.080 Goal=   None    Shift=    0.000
 Gap=     0.233 Goal=   None    Shift=    0.000
 RMSDP=9.48D-07 MaxDP=1.07D-05 DE= 1.36D-09 OVMax= 1.99D-05

 Cycle  11  Pass 1  IDiag  1:
 E= -110.006125792016     Delta-E=       -0.000000001659 Rises=F Damp=F
 DIIS: error= 9.18D-07 at cycle   3 NSaved=   3.
 NSaved= 3 IEnMin= 3 EnMin= -110.006125792016     IErMin= 3 ErrMin= 9.18D-07
 ErrMax= 9.18D-07  0.00D+00 EMaxC= 1.00D-01 BMatC= 4.49D-11 BMatP= 9.05D-10
 IDIUse=1 WtCom= 1.00D+00 WtEn= 0.00D+00
 Coeff-Com:  0.120D+00 0.744D-01 0.806D+00
 Coeff:      0.120D+00 0.744D-01 0.806D+00
 Gap=     0.080 Goal=   None    Shift=    0.000
 Gap=     0.233 Goal=   None    Shift=    0.000
 RMSDP=1.57D-07 MaxDP=1.87D-06 DE=-1.66D-09 OVMax= 3.44D-06

 Cycle  12  Pass 1  IDiag  1:
 E= -110.006125792033     Delta-E=       -0.000000000017 Rises=F Damp=F
 DIIS: error= 2.23D-07 at cycle   4 NSaved=   4.
 NSaved= 4 IEnMin= 4 EnMin= -110.006125792033     IErMin= 4 ErrMin= 2.23D-07
 ErrMax= 2.23D-07  0.00D+00 EMaxC= 1.00D-01 BMatC= 4.66D-12 BMatP= 4.49D-11
 IDIUse=1 WtCom= 1.00D+00 WtEn= 0.00D+00
 Coeff-Com: -0.825D-01-0.183D-01 0.103D+00 0.998D+00
 Coeff:     -0.825D-01-0.183D-01 0.103D+00 0.998D+00
 Gap=     0.080 Goal=   None    Shift=    0.000
 Gap=     0.233 Goal=   None    Shift=    0.000
 RMSDP=8.31D-08 MaxDP=1.10D-06 DE=-1.67D-11 OVMax= 2.03D-06

 Cycle  13  Pass 1  IDiag  1:
 E= -110.006125792036     Delta-E=       -0.000000000004 Rises=F Damp=F
 DIIS: error= 9.11D-08 at cycle   5 NSaved=   5.
 NSaved= 5 IEnMin= 5 EnMin= -110.006125792036     IErMin= 5 ErrMin= 9.11D-08
 ErrMax= 9.11D-08  0.00D+00 EMaxC= 1.00D-01 BMatC= 5.10D-13 BMatP= 4.66D-12
 IDIUse=1 WtCom= 1.00D+00 WtEn= 0.00D+00
 Coeff-Com: -0.211D-01-0.780D-02-0.800D-01 0.141D+00 0.968D+00
 Coeff:     -0.211D-01-0.780D-02-0.800D-01 0.141D+00 0.968D+00
 Gap=     0.080 Goal=   None    Shift=    0.000
 Gap=     0.233 Goal=   None    Shift=    0.000
 RMSDP=3.00D-08 MaxDP=4.13D-07 DE=-3.92D-12 OVMax= 7.11D-07

 Cycle  14  Pass 1  IDiag  1:
 E= -110.006125792036     Delta-E=        0.000000000000 Rises=F Damp=F
 DIIS: error= 2.88D-08 at cycle   6 NSaved=   6.
 NSaved= 6 IEnMin= 5 EnMin= -110.006125792036     IErMin= 6 ErrMin= 2.88D-08
 ErrMax= 2.88D-08  0.00D+00 EMaxC= 1.00D-01 BMatC= 1.00D-13 BMatP= 5.10D-13
 IDIUse=1 WtCom= 1.00D+00 WtEn= 0.00D+00
 Coeff-Com:  0.980D-03-0.177D-02-0.394D-01-0.498D-01 0.333D+00 0.757D+00
 Coeff:      0.980D-03-0.177D-02-0.394D-01-0.498D-01 0.333D+00 0.757D+00
 Gap=     0.080 Goal=   None    Shift=    0.000
 Gap=     0.233 Goal=   None    Shift=    0.000
 RMSDP=1.11D-08 MaxDP=1.27D-07 DE= 8.53D-14 OVMax= 1.71D-07

 Cycle  15  Pass 1  IDiag  1:
 E= -110.006125792037     Delta-E=       -0.000000000000 Rises=F Damp=F
 DIIS: error= 1.68D-08 at cycle   7 NSaved=   7.
 NSaved= 7 IEnMin= 7 EnMin= -110.006125792037     IErMin= 7 ErrMin= 1.68D-08
 ErrMax= 1.68D-08  0.00D+00 EMaxC= 1.00D-01 BMatC= 2.43D-14 BMatP= 1.00D-13
 IDIUse=1 WtCom= 1.00D+00 WtEn= 0.00D+00
 Coeff-Com:  0.503D-02 0.200D-03-0.301D-02-0.496D-01-0.135D-01 0.317D+00
 Coeff-Com:  0.744D+00
 Coeff:      0.503D-02 0.200D-03-0.301D-02-0.496D-01-0.135D-01 0.317D+00
 Coeff:      0.744D+00
 Gap=     0.080 Goal=   None    Shift=    0.000
 Gap=     0.233 Goal=   None    Shift=    0.000
 RMSDP=3.58D-09 MaxDP=4.19D-08 DE=-3.69D-13 OVMax= 7.12D-08

 SCF Done:  E(UB-LYP) =  -110.006125792     A.U. after   15 cycles
            NFock= 15  Conv=0.36D-08     -V/T= 2.0061
 <Sx>= 0.0000 <Sy>= 0.0000 <Sz>= 0.5000 <S**2>= 0.7526 S= 0.5013
 <L.S>= 0.000000000000E+00
 KE= 1.093440575965D+02 PE=-3.123609871858D+02 EE= 6.550642753930D+01
 Annihilation of the first spin contaminant:
 S**2 before annihilation     0.7526,   after     0.7500
 Leave Link  502 at Wed Oct  7 14:48:21 2020, MaxMem=  2684354560 cpu:              15.3 elap:               1.8
 (Enter /udrive/faculty/rpeverati/g16/g16/l508.exe)
 QCSCF skips out because SCF is already converged.
 Leave Link  508 at Wed Oct  7 14:48:22 2020, MaxMem=  2684354560 cpu:               0.5 elap:               0.5
 (Enter /udrive/faculty/rpeverati/g16/g16/l601.exe)
 Copying SCF densities to generalized density rwf, IOpCl= 1 IROHF=0.

 **********************************************************************

            Population analysis using the SCF density.

 **********************************************************************

 Orbital symmetries:
 Alpha Orbitals:
       Occupied  (A') (A') (A') (A') (A') (A") (A') (A')
       Virtual   (A") (A') (A') (A') (A") (A') (A') (A') (A") (A')
                 (A') (A') (A") (A') (A") (A') (A") (A') (A') (A")
                 (A') (A')
 Beta  Orbitals:
       Occupied  (A') (A') (A') (A') (A') (A") (A')
       Virtual   (A') (A") (A') (A') (A") (A') (A') (A') (A") (A')
                 (A') (A') (A') (A") (A") (A') (A') (A") (A') (A')
                 (A") (A') (A')
 The electronic state is 2-A'.
 Alpha  occ. eigenvalues --  -14.10445 -14.09192  -0.97366  -0.60518  -0.41675
 Alpha  occ. eigenvalues --   -0.37544  -0.35258  -0.15732
 Alpha virt. eigenvalues --   -0.07737   0.05367   0.34466   0.57964   0.58279
 Alpha virt. eigenvalues --    0.61128   0.63652   0.69587   0.70020   0.76325
 Alpha virt. eigenvalues --    0.89249   1.21021   1.41615   1.43655   1.44733
 Alpha virt. eigenvalues --    1.63213   1.82583   2.09424   2.32308   2.45894
 Alpha virt. eigenvalues --    2.49041   2.65170
  Beta  occ. eigenvalues --  -14.10139 -14.07902  -0.95928  -0.58358  -0.38323
  Beta  occ. eigenvalues --   -0.36718  -0.32672
  Beta virt. eigenvalues --   -0.09388  -0.06446   0.07175   0.35750   0.58697
  Beta virt. eigenvalues --    0.58888   0.63295   0.68340   0.70884   0.70893
  Beta virt. eigenvalues --    0.79286   0.90232   1.22577   1.43394   1.45878
  Beta virt. eigenvalues --    1.46273   1.67347   1.86074   2.11942   2.34118
  Beta virt. eigenvalues --    2.46783   2.52350   2.66676
          Condensed to atoms (all electrons):
               1          2          3
     1  N    6.697585   0.464409  -0.074935
     2  N    0.464409   6.548846   0.192039
     3  H   -0.074935   0.192039   0.590543
          Atomic-Atomic Spin Densities.
               1          2          3
     1  N    0.882748  -0.122272  -0.061924
     2  N   -0.122272   0.341417  -0.080192
     3  H   -0.061924  -0.080192   0.304611
 Mulliken charges and spin densities:
               1          2
     1  N   -0.087059   0.698552
     2  N   -0.205294   0.138953
     3  H    0.292353   0.162495
 Sum of Mulliken charges =   0.00000   1.00000
 Mulliken charges and spin densities with hydrogens summed into heavy atoms:
               1          2
     1  N   -0.087059   0.698552
     2  N    0.087059   0.301448
 Electronic spatial extent (au):  <R**2>=             48.9417
 Charge=              0.0000 electrons
 Dipole moment (field-independent basis, Debye):
    X=              1.3454    Y=             -1.2524    Z=              0.0000  Tot=              1.8381
 Quadrupole moment (field-independent basis, Debye-Ang):
   XX=            -10.6976   YY=            -11.9505   ZZ=            -10.9127
   XY=             -1.2684   XZ=              0.0000   YZ=              0.0000
 Traceless Quadrupole moment (field-independent basis, Debye-Ang):
   XX=              0.4893   YY=             -0.7636   ZZ=              0.2743
   XY=             -1.2684   XZ=              0.0000   YZ=              0.0000
 Octapole moment (field-independent basis, Debye-Ang**2):
  XXX=              1.3989  YYY=             -2.4482  ZZZ=              0.0000  XYY=              1.5932
  XXY=             -0.9938  XXZ=              0.0000  XZZ=              0.1939  YZZ=             -0.0477
  YYZ=              0.0000  XYZ=              0.0000
 Hexadecapole moment (field-independent basis, Debye-Ang**3):
 XXXX=            -12.1939 YYYY=            -37.6086 ZZZZ=             -8.7811 XXXY=              0.9129
 XXXZ=              0.0000 YYYX=              0.4441 YYYZ=              0.0000 ZZZX=              0.0000
 ZZZY=              0.0000 XXYY=             -7.9366 XXZZ=             -3.6252 YYZZ=             -7.4742
 XXYZ=              0.0000 YYXZ=              0.0000 ZZXY=              0.5242
 N-N= 2.750437625798D+01 E-N=-3.123609877356D+02  KE= 1.093440575965D+02
                          Isotropic Fermi Contact Couplings
        Atom                 a.u.       MegaHertz       Gauss      10(-4) cm-1
     1  N(14)              0.07984      25.79744       9.20517       8.60510
     2  N(14)              0.23772      76.80956      27.40756      25.62091
     3  H(1)               0.08636     386.01521     137.73983     128.76082
 --------------------------------------------------------
       Center         ----  Spin Dipole Couplings  ----
                      3XX-RR        3YY-RR        3ZZ-RR
 --------------------------------------------------------
     1   Atom        1.632521     -0.836147     -0.796374
     2   Atom        0.211686      0.064596     -0.276283
     3   Atom        0.005335      0.013963     -0.019298
 --------------------------------------------------------
                        XY            XZ            YZ
 --------------------------------------------------------
     1   Atom        0.298182      0.000000      0.000000
     2   Atom        0.337795      0.000000      0.000000
     3   Atom       -0.023335      0.000000      0.000000
 --------------------------------------------------------


 ---------------------------------------------------------------------------------
              Anisotropic Spin Dipole Couplings in Principal Axis System
 ---------------------------------------------------------------------------------

       Atom             a.u.   MegaHertz   Gauss  10(-4) cm-1        Axes

              Baa    -0.8717   -33.618   -11.996   -11.214 -0.1182  0.9930  0.0000
     1 N(14)  Bbb    -0.7964   -30.714   -10.960   -10.245  0.0000  0.0000  1.0000
              Bcc     1.6680    64.332    22.955    21.459  0.9930  0.1182  0.0000
 
              Baa    -0.2763   -10.656    -3.802    -3.554  0.0000  0.0000  1.0000
     2 N(14)  Bbb    -0.2076    -8.005    -2.857    -2.670 -0.6274  0.7787  0.0000
              Bcc     0.4839    18.661     6.659     6.225  0.7787  0.6274  0.0000
 
              Baa    -0.0193   -10.297    -3.674    -3.435  0.0000  0.0000  1.0000
     3 H(1)   Bbb    -0.0141    -7.513    -2.681    -2.506  0.7687  0.6396  0.0000
              Bcc     0.0334    17.809     6.355     5.941 -0.6396  0.7687  0.0000
 

 ---------------------------------------------------------------------------------

 No NMR shielding tensors so no spin-rotation constants.
 Leave Link  601 at Wed Oct  7 14:48:23 2020, MaxMem=  2684354560 cpu:               6.4 elap:               0.8
 (Enter /udrive/faculty/rpeverati/g16/g16/l701.exe)
 ... and contract with generalized density number  0.
 Compute integral first derivatives.
 Leave Link  701 at Wed Oct  7 14:48:24 2020, MaxMem=  2684354560 cpu:               4.2 elap:               0.8
 (Enter /udrive/faculty/rpeverati/g16/g16/l702.exe)
 L702 exits ... SP integral derivatives will be done elsewhere.
 Leave Link  702 at Wed Oct  7 14:48:25 2020, MaxMem=  2684354560 cpu:               2.1 elap:               0.5
 (Enter /udrive/faculty/rpeverati/g16/g16/l703.exe)
 Integral derivatives from FoFJK, PRISM(SPDF).
 Compute integral first derivatives, UseDBF=F ICtDFT=           0.
 Calling FoFJK, ICntrl=      2527 FMM=F ISym2X=1 I1Cent= 0 IOpClX= 0 NMat=1 NMatS=1 NMatT=0.
 FoFJK:  IHMeth= 1 ICntrl=    2527 DoSepK=F KAlg= 0 I1Cent=           0 FoldK=F
 IRaf=         0 NMat=       1 IRICut=       1 DoRegI=T DoRafI=F ISym2E= 1 IDoP0=0 IntGTp=1.
 FoFCou: FMM=F IPFlag=           0 FMFlag=      100000 FMFlg1=         800
         NFxFlg=           0 DoJE=F BraDBF=F KetDBF=F FulRan=T
         wScrn=  0.000000 ICntrl=      2527 IOpCl=  0 I1Cent=           0 NGrid=           0
         NMat0=    1 NMatS0=      1 NMatT0=    0 NMatD0=    1 NMtDS0=    0 NMtDT0=    0
 Petite list used in FoFCou.
 Leave Link  703 at Wed Oct  7 14:48:26 2020, MaxMem=  2684354560 cpu:               6.0 elap:               1.0
 (Enter /udrive/faculty/rpeverati/g16/g16/l716.exe)
 Dipole        = 5.29321646D-01-4.92743380D-01 0.00000000D+00
 ***** Axes restored to original set *****
 -------------------------------------------------------------------
 Center     Atomic                   Forces (Hartrees/Bohr)
 Number     Number              X              Y              Z
 -------------------------------------------------------------------
      1        7          -0.002562240    0.029055206   -0.000000000
      2        7          -0.014013989   -0.017572175   -0.000000000
      3        1           0.016576229   -0.011483031   -0.000000000
 -------------------------------------------------------------------
 Cartesian Forces:  Max     0.029055206 RMS     0.013994343
 Leave Link  716 at Wed Oct  7 14:48:27 2020, MaxMem=  2684354560 cpu:               1.4 elap:               0.5
 (Enter /udrive/faculty/rpeverati/g16/g16/l103.exe)

 GradGradGradGradGradGradGradGradGradGradGradGradGradGradGradGradGradGrad
 Berny optimization.
 Optmz: redundant internal coordinate code flag= 1
 FormGI is forming the generalized inverse of G from B-inverse, IUseBI=4.
 Internal  Forces:  Max     0.029055304 RMS     0.020615985
 Search for a local minimum.
 Step number   1 out of a maximum of  100
 All quantities printed in internal units (Hartrees-Bohrs-Radians)
 RMS Force = .20616D-01 SwitMx=.10000D-02 MixMth= 1
 Mixed Optimization -- RFO/linear search
 Second derivative matrix not updated -- first step.
 The second derivative matrix:
                          R1        R2        A1
           R1           1.16586
           R2           0.00000   0.40365
           A1           0.00000   0.00000   0.16000
 ITU=  0
 Eigenvectors of the second derivative matrix:
                           1         2         3
     Eigenvalues --     0.16000   0.40365   1.16586
   1         R1         0.00000   0.00000  -1.00000
   2         R2         0.00000   1.00000   0.00000
   3         A1        -1.00000   0.00000  -0.00000
 Iter=   1 RLamda= 0.00000000D+00 Sum=-1.91422140D-03.
 Iter=   2 RLamda=-1.91422140D-03 Sum=-1.90597295D-03.
 Iter=   3 RLamda=-1.90597295D-03 Sum=-1.90600826D-03.
 Iter=   4 RLamda=-1.90600826D-03 Sum=-1.90600811D-03.
 RFO step:  Lambda=-1.90600826D-03 EMin= 1.60000000D-01
 Linear search not attempted -- first point.
 Iteration  1 RMS(Cart)=  0.04223220 RMS(Int)=  0.00048626
 Iteration  2 RMS(Cart)=  0.00040164 RMS(Int)=  0.00000013
 Iteration  3 RMS(Cart)=  0.00000014 RMS(Int)=  0.00000000
 ITry= 1 IFail=0 DXMaxC= 4.89D-02 DCOld= 1.00D+10 DXMaxT= 3.00D-01 DXLimC= 3.00D+00 Rises=F
 ClnCor:  largest displacement from symmetrization is 0.00D+00 for atom     0.
 Variable       Old X    -DE/DX   Delta X   Delta X   Delta X     New X
                                 (Linear)    (Quad)   (Total)
    R1        2.22648   0.02906   0.00000   0.02488   0.02488   2.25136
    R2        1.97760   0.01996   0.00000   0.04921   0.04921   2.02681
    A1        2.03312   0.00570   0.00000   0.03523   0.03523   2.06835
         Item               Value     Threshold  Converged?
 Maximum Force            0.029055     0.000450     NO 
 RMS     Force            0.020616     0.000300     NO 
 Maximum Displacement     0.048864     0.001800     NO 
 RMS     Displacement     0.042386     0.001200     NO 
 Predicted change in Energy=-9.570847D-04
 Lowest energy point so far.  Saving SCF results.
 Largest change from initial coordinates is atom    3       0.029 Angstoms.
 GradGradGradGradGradGradGradGradGradGradGradGradGradGradGradGradGradGrad

 Leave Link  103 at Wed Oct  7 14:48:28 2020, MaxMem=  2684354560 cpu:               2.4 elap:               0.6
 (Enter /udrive/faculty/rpeverati/g16/g16/l202.exe)
                          Input orientation:                          
 ---------------------------------------------------------------------
 Center     Atomic      Atomic             Coordinates (Angstroms)
 Number     Number       Type             X           Y           Z
 ---------------------------------------------------------------------
      1          7           0       -0.077496    0.678949    0.000000
      2          7           0       -0.061285   -0.512308    0.000000
      3          1           0        0.888092   -1.011334    0.000000
 ---------------------------------------------------------------------
                    Distance matrix (angstroms):
                    1          2          3
     1  N    0.000000
     2  N    1.191368   0.000000
     3  H    1.946643   1.072540   0.000000
 Stoichiometry    HN2(2)
 Framework group  CS[SG(HN2)]
 Deg. of freedom     3
 Full point group                 CS      NOp   2
 RotChk:  IX=0 Diff= 1.92D-02
 Largest Abelian subgroup         CS      NOp   2
 Largest concise Abelian subgroup C1      NOp   1
                         Standard orientation:                         
 ---------------------------------------------------------------------
 Center     Atomic      Atomic             Coordinates (Angstroms)
 Number     Number       Type             X           Y           Z
 ---------------------------------------------------------------------
      1          7           0       -0.062833    0.669523    0.000000
      2          7           0       -0.062833   -0.521845    0.000000
      3          1           0        0.879665   -1.033743    0.000000
 ---------------------------------------------------------------------
 Rotational constants (GHZ):         660.9078370          45.0003439          42.1316550
 Leave Link  202 at Wed Oct  7 14:48:28 2020, MaxMem=  2684354560 cpu:               1.3 elap:               0.5
 (Enter /udrive/faculty/rpeverati/g16/g16/l301.exe)
 Standard basis: 6-31G(d) (5D, 7F)
 Ernie: Thresh=  0.10000D-02 Tol=  0.10000D-05 Strict=F.
 There are    24 symmetry adapted cartesian basis functions of A'  symmetry.
 There are     8 symmetry adapted cartesian basis functions of A"  symmetry.
 There are    22 symmetry adapted basis functions of A'  symmetry.
 There are     8 symmetry adapted basis functions of A"  symmetry.
    30 basis functions,    60 primitive gaussians,    32 cartesian basis functions
     8 alpha electrons        7 beta electrons
       nuclear repulsion energy        27.1212253667 Hartrees.
 IExCor=  402 DFT=T Ex=B Corr=LYP ExCW=0 ScaHFX=  0.000000
 ScaDFX=  1.000000  1.000000  1.000000  1.000000 ScalE2=  1.000000  1.000000
 IRadAn=      5 IRanWt=     -1 IRanGd=            0 ICorTp=0 IEmpDi=  4
 NAtoms=    3 NActive=    3 NUniq=    3 SFac= 1.00D+00 NAtFMM=   60 NAOKFM=F Big=F
 Integral buffers will be    131072 words long.
 Raffenetti 2 integral format.
 Two-electron integral symmetry is turned on.
 Leave Link  301 at Wed Oct  7 14:48:29 2020, MaxMem=  2684354560 cpu:               1.7 elap:               0.4
 (Enter /udrive/faculty/rpeverati/g16/g16/l302.exe)
 NPDir=0 NMtPBC=     1 NCelOv=     1 NCel=       1 NClECP=     1 NCelD=      1
         NCelK=      1 NCelE2=     1 NClLst=     1 CellRange=     0.0.
 One-electron integrals computed using PRISM.
 One-electron integral symmetry used in STVInt
 NBasis=    30 RedAO= T EigKep=  7.73D-03  NBF=    22     8
 NBsUse=    30 1.00D-06 EigRej= -1.00D+00 NBFU=    22     8
 Precomputing XC quadrature grid using
 IXCGrd= 4 IRadAn=           5 IRanWt=          -1 IRanGd=           0 AccXCQ= 0.00D+00.
 Generated NRdTot=       0 NPtTot=           0 NUsed=           0 NTot=          32
 NSgBfM=    32    32    32    32    32 MxSgAt=     3 MxSgA2=     3.
 Leave Link  302 at Wed Oct  7 14:48:30 2020, MaxMem=  2684354560 cpu:               4.1 elap:               0.7
 (Enter /udrive/faculty/rpeverati/g16/g16/l303.exe)
 DipDrv:  MaxL=1.
 Leave Link  303 at Wed Oct  7 14:48:30 2020, MaxMem=  2684354560 cpu:               1.8 elap:               0.5
 (Enter /udrive/faculty/rpeverati/g16/g16/l401.exe)
 Initial guess from the checkpoint file:  "MN_58_hn2_BH76_BLYP_631Gs.chk"
 SCF N**3 symmetry information disabled.
 B after Tr=     0.000000    0.000000    0.000000
         Rot=    0.999996    0.000000    0.000000    0.002887 Ang=   0.33 deg.
 Guess basis will be translated and rotated to current coordinates.
 JPrj=2 DoOrth=T DoCkMO=T.
 Initial guess orbital symmetries:
 Alpha Orbitals:
       Occupied  (A') (A') (A') (A') (A') (A") (A') (A')
       Virtual   (A") (A') (A') (A') (A") (A') (A') (A') (A") (A')
                 (A') (A') (A") (A') (A") (A') (A") (A') (A') (A")
                 (A') (A')
 Beta  Orbitals:
       Occupied  (A') (A') (A') (A') (A') (A") (A')
       Virtual   (A') (A") (A') (A') (A") (A') (A') (A') (A") (A')
                 (A') (A') (A') (A") (A") (A') (A') (A") (A') (A')
                 (A") (A') (A')
 The electronic state of the initial guess is 2-A'.
 Initial guess <Sx>= 0.0000 <Sy>= 0.0000 <Sz>= 0.5000 <S**2>= 0.7527 S= 0.5014
 Generating alternative initial guess.
 ExpMin= 1.61D-01 ExpMax= 4.17D+03 ExpMxC= 6.27D+02 IAcc=2 IRadAn=         4 AccDes= 0.00D+00
 Harris functional with IExCor=  402 and IRadAn=       4 diagonalized for initial guess.
 HarFok:  IExCor=  402 AccDes= 0.00D+00 IRadAn=         4 IDoV= 1 UseB2=F ITyADJ=14
 ICtDFT=  3500011 ScaDFX=  1.000000  1.000000  1.000000  1.000000
 FoFCou: FMM=F IPFlag=           0 FMFlag=      100000 FMFlg1=           0
         NFxFlg=           0 DoJE=T BraDBF=F KetDBF=T FulRan=T
         wScrn=  0.000000 ICntrl=       500 IOpCl=  0 I1Cent=   200000004 NGrid=           0
         NMat0=    1 NMatS0=      1 NMatT0=    0 NMatD0=    1 NMtDS0=    0 NMtDT0=    0
 Petite list used in FoFCou.
 Harris En= -109.978994606313    
 Leave Link  401 at Wed Oct  7 14:48:32 2020, MaxMem=  2684354560 cpu:               6.8 elap:               1.0
 (Enter /udrive/faculty/rpeverati/g16/g16/l502.exe)
 Keep J ints in memory in symmetry-blocked form, NReq=10459184.
 FoFCou: FMM=F IPFlag=           0 FMFlag=           0 FMFlg1=           0
         NFxFlg=           0 DoJE=F BraDBF=F KetDBF=F FulRan=T
         wScrn=  0.000000 ICntrl=       600 IOpCl=  0 I1Cent=           0 NGrid=           0
         NMat0=    1 NMatS0=    465 NMatT0=    0 NMatD0=    1 NMtDS0=    0 NMtDT0=    0
 Petite list used in FoFCou.
 UHF open shell SCF:
 Using DIIS extrapolation, IDIIS=  1040.
 NGot=  2684354560 LenX=  2684292770 LenY=  2684291305
 Requested convergence on RMS density matrix=1.00D-08 within 120 cycles.
 Requested convergence on MAX density matrix=1.00D-06.
 Requested convergence on             energy=1.00D-06.
 No special actions if energy rises.
 Integral accuracy reduced to 1.0D-05 until final iterations.

 Cycle   1  Pass 0  IDiag  1:
 E= -110.006782009383    
 DIIS: error= 2.46D-03 at cycle   1 NSaved=   1.
 NSaved= 1 IEnMin= 1 EnMin= -110.006782009383     IErMin= 1 ErrMin= 2.46D-03
 ErrMax= 2.46D-03  0.00D+00 EMaxC= 1.00D-01 BMatC= 9.13D-04 BMatP= 9.13D-04
 IDIUse=3 WtCom= 9.75D-01 WtEn= 2.46D-02
 Coeff-Com:  0.100D+01
 Coeff-En:   0.100D+01
 Coeff:      0.100D+01
 Gap=     0.079 Goal=   None    Shift=    0.000
 Gap=     0.228 Goal=   None    Shift=    0.000
 GapD=    0.079 DampG=0.500 DampE=1.000 DampFc=0.5000 IDamp=-1.
 Damping current iteration by 5.00D-01
 RMSDP=1.13D-03 MaxDP=1.34D-02              OVMax= 1.44D-02

 Cycle   2  Pass 0  IDiag  1:
 E= -110.006907059109     Delta-E=       -0.000125049726 Rises=F Damp=T
 DIIS: error= 1.24D-03 at cycle   2 NSaved=   2.
 NSaved= 2 IEnMin= 2 EnMin= -110.006907059109     IErMin= 2 ErrMin= 1.24D-03
 ErrMax= 1.24D-03  0.00D+00 EMaxC= 1.00D-01 BMatC= 2.62D-04 BMatP= 9.13D-04
 IDIUse=3 WtCom= 9.88D-01 WtEn= 1.24D-02
 Coeff-Com:  0.417D-01 0.958D+00
 Coeff-En:   0.000D+00 0.100D+01
 Coeff:      0.412D-01 0.959D+00
 Gap=     0.078 Goal=   None    Shift=    0.000
 Gap=     0.228 Goal=   None    Shift=    0.000
 RMSDP=6.47D-04 MaxDP=4.69D-03 DE=-1.25D-04 OVMax= 1.20D-02

 Cycle   3  Pass 0  IDiag  1:
 E= -110.006876308063     Delta-E=        0.000030751046 Rises=F Damp=F
 DIIS: error= 4.00D-03 at cycle   3 NSaved=   3.
 NSaved= 3 IEnMin= 2 EnMin= -110.006907059109     IErMin= 2 ErrMin= 1.24D-03
 ErrMax= 4.00D-03  0.00D+00 EMaxC= 1.00D-01 BMatC= 9.87D-04 BMatP= 2.62D-04
 IDIUse=3 WtCom= 1.37D-01 WtEn= 8.63D-01
 Coeff-Com: -0.289D+00 0.891D+00 0.398D+00
 Coeff-En:   0.000D+00 0.555D+00 0.445D+00
 Coeff:     -0.395D-01 0.601D+00 0.439D+00
 Gap=     0.079 Goal=   None    Shift=    0.000
 Gap=     0.228 Goal=   None    Shift=    0.000
 RMSDP=6.01D-04 MaxDP=6.43D-03 DE= 3.08D-05 OVMax= 1.22D-02

 Cycle   4  Pass 0  IDiag  1:
 E= -110.006925104452     Delta-E=       -0.000048796389 Rises=F Damp=F
 DIIS: error= 3.52D-03 at cycle   4 NSaved=   4.
 NSaved= 4 IEnMin= 4 EnMin= -110.006925104452     IErMin= 2 ErrMin= 1.24D-03
 ErrMax= 3.52D-03  0.00D+00 EMaxC= 1.00D-01 BMatC= 7.69D-04 BMatP= 2.62D-04
 IDIUse=3 WtCom= 1.44D-01 WtEn= 8.56D-01
 Coeff-Com: -0.255D-01 0.809D-01 0.460D+00 0.485D+00
 Coeff-En:   0.000D+00 0.000D+00 0.458D+00 0.542D+00
 Coeff:     -0.368D-02 0.117D-01 0.458D+00 0.534D+00
 Gap=     0.079 Goal=   None    Shift=    0.000
 Gap=     0.228 Goal=   None    Shift=    0.000
 RMSDP=3.16D-04 MaxDP=3.22D-03 DE=-4.88D-05 OVMax= 6.05D-03

 Cycle   5  Pass 0  IDiag  1:
 E= -110.007088073821     Delta-E=       -0.000162969369 Rises=F Damp=F
 DIIS: error= 2.20D-04 at cycle   5 NSaved=   5.
 NSaved= 5 IEnMin= 5 EnMin= -110.007088073821     IErMin= 5 ErrMin= 2.20D-04
 ErrMax= 2.20D-04  0.00D+00 EMaxC= 1.00D-01 BMatC= 4.14D-06 BMatP= 2.62D-04
 IDIUse=3 WtCom= 9.98D-01 WtEn= 2.20D-03
 Coeff-Com:  0.184D-01-0.404D-01 0.164D+00 0.242D+00 0.616D+00
 Coeff-En:   0.000D+00 0.000D+00 0.000D+00 0.000D+00 0.100D+01
 Coeff:      0.183D-01-0.403D-01 0.163D+00 0.241D+00 0.617D+00
 Gap=     0.079 Goal=   None    Shift=    0.000
 Gap=     0.228 Goal=   None    Shift=    0.000
 RMSDP=3.86D-05 MaxDP=4.30D-04 DE=-1.63D-04 OVMax= 4.45D-04

 Cycle   6  Pass 0  IDiag  1:
 E= -110.007089086697     Delta-E=       -0.000001012876 Rises=F Damp=F
 DIIS: error= 2.45D-05 at cycle   6 NSaved=   6.
 NSaved= 6 IEnMin= 6 EnMin= -110.007089086697     IErMin= 6 ErrMin= 2.45D-05
 ErrMax= 2.45D-05  0.00D+00 EMaxC= 1.00D-01 BMatC= 4.96D-08 BMatP= 4.14D-06
 IDIUse=1 WtCom= 1.00D+00 WtEn= 0.00D+00
 Coeff-Com:  0.460D-02-0.119D-01-0.200D-01-0.196D-01 0.623D-01 0.985D+00
 Coeff:      0.460D-02-0.119D-01-0.200D-01-0.196D-01 0.623D-01 0.985D+00
 Gap=     0.079 Goal=   None    Shift=    0.000
 Gap=     0.228 Goal=   None    Shift=    0.000
 RMSDP=5.89D-06 MaxDP=7.81D-05 DE=-1.01D-06 OVMax= 7.71D-05

 Initial convergence to 1.0D-05 achieved.  Increase integral accuracy.
 Cycle   7  Pass 1  IDiag  1:
 E= -110.007089221208     Delta-E=       -0.000000134511 Rises=F Damp=F
 DIIS: error= 4.64D-06 at cycle   1 NSaved=   1.
 NSaved= 1 IEnMin= 1 EnMin= -110.007089221208     IErMin= 1 ErrMin= 4.64D-06
 ErrMax= 4.64D-06  0.00D+00 EMaxC= 1.00D-01 BMatC= 2.16D-09 BMatP= 2.16D-09
 IDIUse=1 WtCom= 1.00D+00 WtEn= 0.00D+00
 Coeff-Com:  0.100D+01
 Coeff:      0.100D+01
 Gap=     0.079 Goal=   None    Shift=    0.000
 Gap=     0.228 Goal=   None    Shift=    0.000
 RMSDP=5.89D-06 MaxDP=7.81D-05 DE=-1.35D-07 OVMax= 4.09D-05

 Cycle   8  Pass 1  IDiag  1:
 E= -110.007089218517     Delta-E=        0.000000002691 Rises=F Damp=F
 DIIS: error= 1.58D-05 at cycle   2 NSaved=   2.
 NSaved= 2 IEnMin= 1 EnMin= -110.007089221208     IErMin= 1 ErrMin= 4.64D-06
 ErrMax= 1.58D-05  0.00D+00 EMaxC= 1.00D-01 BMatC= 1.53D-08 BMatP= 2.16D-09
 IDIUse=1 WtCom= 1.00D+00 WtEn= 0.00D+00
 Coeff-Com:  0.751D+00 0.249D+00
 Coeff:      0.751D+00 0.249D+00
 Gap=     0.079 Goal=   None    Shift=    0.000
 Gap=     0.228 Goal=   None    Shift=    0.000
 RMSDP=1.47D-06 MaxDP=1.52D-05 DE= 2.69D-09 OVMax= 2.89D-05

 Cycle   9  Pass 1  IDiag  1:
 E= -110.007089221774     Delta-E=       -0.000000003257 Rises=F Damp=F
 DIIS: error= 2.03D-06 at cycle   3 NSaved=   3.
 NSaved= 3 IEnMin= 3 EnMin= -110.007089221774     IErMin= 3 ErrMin= 2.03D-06
 ErrMax= 2.03D-06  0.00D+00 EMaxC= 1.00D-01 BMatC= 4.34D-10 BMatP= 2.16D-09
 IDIUse=1 WtCom= 1.00D+00 WtEn= 0.00D+00
 Coeff-Com:  0.258D+00 0.148D+00 0.594D+00
 Coeff:      0.258D+00 0.148D+00 0.594D+00
 Gap=     0.079 Goal=   None    Shift=    0.000
 Gap=     0.228 Goal=   None    Shift=    0.000
 RMSDP=3.27D-07 MaxDP=2.64D-06 DE=-3.26D-09 OVMax= 5.93D-06

 Cycle  10  Pass 1  IDiag  1:
 E= -110.007089221869     Delta-E=       -0.000000000095 Rises=F Damp=F
 DIIS: error= 3.90D-07 at cycle   4 NSaved=   4.
 NSaved= 4 IEnMin= 4 EnMin= -110.007089221869     IErMin= 4 ErrMin= 3.90D-07
 ErrMax= 3.90D-07  0.00D+00 EMaxC= 1.00D-01 BMatC= 1.26D-11 BMatP= 4.34D-10
 IDIUse=1 WtCom= 1.00D+00 WtEn= 0.00D+00
 Coeff-Com:  0.102D-01 0.696D-02 0.133D+00 0.850D+00
 Coeff:      0.102D-01 0.696D-02 0.133D+00 0.850D+00
 Gap=     0.079 Goal=   None    Shift=    0.000
 Gap=     0.228 Goal=   None    Shift=    0.000
 RMSDP=8.28D-08 MaxDP=6.58D-07 DE=-9.45D-11 OVMax= 1.32D-06

 Cycle  11  Pass 1  IDiag  1:
 E= -110.007089221871     Delta-E=       -0.000000000003 Rises=F Damp=F
 DIIS: error= 1.39D-07 at cycle   5 NSaved=   5.
 NSaved= 5 IEnMin= 5 EnMin= -110.007089221871     IErMin= 5 ErrMin= 1.39D-07
 ErrMax= 1.39D-07  0.00D+00 EMaxC= 1.00D-01 BMatC= 2.64D-12 BMatP= 1.26D-11
 IDIUse=1 WtCom= 1.00D+00 WtEn= 0.00D+00
 Coeff-Com: -0.331D-01-0.188D-01-0.277D-01 0.369D+00 0.710D+00
 Coeff:     -0.331D-01-0.188D-01-0.277D-01 0.369D+00 0.710D+00
 Gap=     0.079 Goal=   None    Shift=    0.000
 Gap=     0.228 Goal=   None    Shift=    0.000
 RMSDP=5.82D-08 MaxDP=8.37D-07 DE=-2.90D-12 OVMax= 8.43D-07

 Cycle  12  Pass 1  IDiag  1:
 E= -110.007089221872     Delta-E=       -0.000000000001 Rises=F Damp=F
 DIIS: error= 4.55D-08 at cycle   6 NSaved=   6.
 NSaved= 6 IEnMin= 6 EnMin= -110.007089221872     IErMin= 6 ErrMin= 4.55D-08
 ErrMax= 4.55D-08  0.00D+00 EMaxC= 1.00D-01 BMatC= 2.84D-13 BMatP= 2.64D-12
 IDIUse=1 WtCom= 1.00D+00 WtEn= 0.00D+00
 Coeff-Com: -0.141D-01-0.674D-02-0.241D-01 0.698D-01 0.292D+00 0.683D+00
 Coeff:     -0.141D-01-0.674D-02-0.241D-01 0.698D-01 0.292D+00 0.683D+00
 Gap=     0.079 Goal=   None    Shift=    0.000
 Gap=     0.228 Goal=   None    Shift=    0.000
 RMSDP=9.74D-09 MaxDP=9.21D-08 DE=-6.54D-13 OVMax= 1.41D-07

 SCF Done:  E(UB-LYP) =  -110.007089222     A.U. after   12 cycles
            NFock= 12  Conv=0.97D-08     -V/T= 2.0069
 <Sx>= 0.0000 <Sy>= 0.0000 <Sz>= 0.5000 <S**2>= 0.7529 S= 0.5014
 <L.S>= 0.000000000000E+00
 KE= 1.092512288836D+02 PE=-3.115412213847D+02 EE= 6.516167791247D+01
 Annihilation of the first spin contaminant:
 S**2 before annihilation     0.7529,   after     0.7500
 Leave Link  502 at Wed Oct  7 14:48:34 2020, MaxMem=  2684354560 cpu:              16.0 elap:               1.8
 (Enter /udrive/faculty/rpeverati/g16/g16/l508.exe)
 QCSCF skips out because SCF is already converged.
 Leave Link  508 at Wed Oct  7 14:48:34 2020, MaxMem=  2684354560 cpu:               0.6 elap:               0.5
 (Enter /udrive/faculty/rpeverati/g16/g16/l701.exe)
 ... and contract with generalized density number  0.
 Compute integral first derivatives.
 Leave Link  701 at Wed Oct  7 14:48:35 2020, MaxMem=  2684354560 cpu:               3.6 elap:               0.7
 (Enter /udrive/faculty/rpeverati/g16/g16/l702.exe)
 L702 exits ... SP integral derivatives will be done elsewhere.
 Leave Link  702 at Wed Oct  7 14:48:36 2020, MaxMem=  2684354560 cpu:               2.2 elap:               0.7
 (Enter /udrive/faculty/rpeverati/g16/g16/l703.exe)
 Integral derivatives from FoFJK, PRISM(SPDF).
 Compute integral first derivatives, UseDBF=F ICtDFT=           0.
 Calling FoFJK, ICntrl=      2527 FMM=F ISym2X=1 I1Cent= 0 IOpClX= 0 NMat=1 NMatS=1 NMatT=0.
 FoFJK:  IHMeth= 1 ICntrl=    2527 DoSepK=F KAlg= 0 I1Cent=           0 FoldK=F
 IRaf=         0 NMat=       1 IRICut=       1 DoRegI=T DoRafI=F ISym2E= 1 IDoP0=0 IntGTp=1.
 FoFCou: FMM=F IPFlag=           0 FMFlag=      100000 FMFlg1=         800
         NFxFlg=           0 DoJE=F BraDBF=F KetDBF=F FulRan=T
         wScrn=  0.000000 ICntrl=      2527 IOpCl=  0 I1Cent=           0 NGrid=           0
         NMat0=    1 NMatS0=      1 NMatT0=    0 NMatD0=    1 NMtDS0=    0 NMtDT0=    0
 Petite list used in FoFCou.
 Leave Link  703 at Wed Oct  7 14:48:37 2020, MaxMem=  2684354560 cpu:               6.4 elap:               1.0
 (Enter /udrive/faculty/rpeverati/g16/g16/l716.exe)
 Dipole        = 5.21031582D-01-4.99975416D-01 0.00000000D+00
 ***** Axes restored to original set *****
 -------------------------------------------------------------------
 Center     Atomic                   Forces (Hartrees/Bohr)
 Number     Number              X              Y              Z
 -------------------------------------------------------------------
      1        7           0.001182156   -0.001482723   -0.000000000
      2        7          -0.005206222    0.002139139   -0.000000000
      3        1           0.004024067   -0.000656416   -0.000000000
 -------------------------------------------------------------------
 Cartesian Forces:  Max     0.005206222 RMS     0.002401403
 Leave Link  716 at Wed Oct  7 14:48:38 2020, MaxMem=  2684354560 cpu:               1.6 elap:               0.6
 (Enter /udrive/faculty/rpeverati/g16/g16/l103.exe)

 GradGradGradGradGradGradGradGradGradGradGradGradGradGradGradGradGradGrad
 Berny optimization.
 Optmz: redundant internal coordinate code flag= 1
 Using GEDIIS/GDIIS optimizer.
 Red2BG:  D1=  6.85D-01 OD1=  6.61D-03 B2RMS=  0.00D+00 IAprox=0
 FormGI is forming the generalized inverse of G from B-inverse, IUseBI=4.
 Internal  Forces:  Max     0.003867265 RMS     0.002831231
 Search for a local minimum.
 Step number   2 out of a maximum of  100
 All quantities printed in internal units (Hartrees-Bohrs-Radians)
 RMS Force = .28312D-02 SwitMx=.10000D-02 MixMth= 1
 Mixed Optimization -- RFO/linear search
 Update second derivatives using D2CorX and points    1    2
 DE= -9.63D-04 DEPred=-9.57D-04 R= 1.01D+00
 TightC=F SS=  1.41D+00  RLast= 6.54D-02 DXNew= 5.0454D-01 1.9631D-01
 Trust test= 1.01D+00 RLast= 6.54D-02 DXMaxT set to 3.00D-01
 The second derivative matrix:
                          R1        R2        A1
           R1           1.22842
           R2          -0.03717   0.33606
           A1           0.05162   0.01356   0.18078
 ITU=  1  0
 Use linear search instead of GDIIS.
 Eigenvectors of the second derivative matrix:
                           1         2         3
     Eigenvalues --     0.17675   0.33607   1.23244
   1         R1        -0.05221  -0.03572   0.99800
   2         R2        -0.09677  -0.99448  -0.04065
   3         A1         0.99394  -0.09870   0.04846
 Iter=   1 RLamda= 0.00000000D+00 Sum=-8.50212420D-05.
 Iter=   2 RLamda=-8.50212420D-05 Sum=-8.49889487D-05.
 Iter=   3 RLamda=-8.49889487D-05 Sum=-8.49889609D-05.
 RFO step:  Lambda=-8.49889487D-05 EMin= 1.76746725D-01
 Quartic linear search produced a step of  0.03532.
 Iteration  1 RMS(Cart)=  0.00902523 RMS(Int)=  0.00005663
 Iteration  2 RMS(Cart)=  0.00006262 RMS(Int)=  0.00000000
 Iteration  3 RMS(Cart)=  0.00000000 RMS(Int)=  0.00000000
 ITry= 1 IFail=0 DXMaxC= 1.19D-02 DCOld= 1.00D+10 DXMaxT= 3.00D-01 DXLimC= 3.00D+00 Rises=F
 ClnCor:  largest displacement from symmetrization is 2.24D-16 for atom     1.
 Variable       Old X    -DE/DX   Delta X   Delta X   Delta X     New X
                                 (Linear)    (Quad)   (Total)
    R1        2.25136  -0.00150   0.00088  -0.00107  -0.00019   2.25117
    R2        2.02681   0.00387   0.00174   0.01050   0.01224   2.03905
    A1        2.06835  -0.00262   0.00124  -0.01638  -0.01513   2.05322
         Item               Value     Threshold  Converged?
 Maximum Force            0.003867     0.000450     NO 
 RMS     Force            0.002831     0.000300     NO 
 Maximum Displacement     0.011868     0.001800     NO 
 RMS     Displacement     0.009048     0.001200     NO 
 Predicted change in Energy=-4.359635D-05
 Lowest energy point so far.  Saving SCF results.
 Largest change from initial coordinates is atom    3       0.047 Angstoms.
 GradGradGradGradGradGradGradGradGradGradGradGradGradGradGradGradGradGrad

 Leave Link  103 at Wed Oct  7 14:48:39 2020, MaxMem=  2684354560 cpu:               2.0 elap:               0.6
 (Enter /udrive/faculty/rpeverati/g16/g16/l202.exe)
                          Input orientation:                          
 ---------------------------------------------------------------------
 Center     Atomic      Atomic             Coordinates (Angstroms)
 Number     Number       Type             X           Y           Z
 ---------------------------------------------------------------------
      1          7           0       -0.074211    0.677682    0.000000
      2          7           0       -0.067565   -0.513566    0.000000
      3          1           0        0.891088   -1.008809    0.000000
 ---------------------------------------------------------------------
                    Distance matrix (angstroms):
                    1          2          3
     1  N    0.000000
     2  N    1.191266   0.000000
     3  H    1.943207   1.079019   0.000000
 Stoichiometry    HN2(2)
 Framework group  CS[SG(HN2)]
 Deg. of freedom     3
 Full point group                 CS      NOp   2
 RotChk:  IX=0 Diff= 1.14D-02
 Largest Abelian subgroup         CS      NOp   2
 Largest concise Abelian subgroup C1      NOp   1
                         Standard orientation:                         
 ---------------------------------------------------------------------
 Center     Atomic      Atomic             Coordinates (Angstroms)
 Number     Number       Type             X           Y           Z
 ---------------------------------------------------------------------
      1          7           0       -0.063725    0.668714    0.000000
      2          7           0       -0.063725   -0.522552    0.000000
      3          1           0        0.892150   -1.023136    0.000000
 ---------------------------------------------------------------------
 Rotational constants (GHZ):         641.2286144          45.1000711          42.1364525
 Leave Link  202 at Wed Oct  7 14:48:40 2020, MaxMem=  2684354560 cpu:               2.1 elap:               0.7
 (Enter /udrive/faculty/rpeverati/g16/g16/l301.exe)
 Standard basis: 6-31G(d) (5D, 7F)
 Ernie: Thresh=  0.10000D-02 Tol=  0.10000D-05 Strict=F.
 There are    24 symmetry adapted cartesian basis functions of A'  symmetry.
 There are     8 symmetry adapted cartesian basis functions of A"  symmetry.
 There are    22 symmetry adapted basis functions of A'  symmetry.
 There are     8 symmetry adapted basis functions of A"  symmetry.
    30 basis functions,    60 primitive gaussians,    32 cartesian basis functions
     8 alpha electrons        7 beta electrons
       nuclear repulsion energy        27.1057199860 Hartrees.
 IExCor=  402 DFT=T Ex=B Corr=LYP ExCW=0 ScaHFX=  0.000000
 ScaDFX=  1.000000  1.000000  1.000000  1.000000 ScalE2=  1.000000  1.000000
 IRadAn=      5 IRanWt=     -1 IRanGd=            0 ICorTp=0 IEmpDi=  4
 NAtoms=    3 NActive=    3 NUniq=    3 SFac= 1.00D+00 NAtFMM=   60 NAOKFM=F Big=F
 Integral buffers will be    131072 words long.
 Raffenetti 2 integral format.
 Two-electron integral symmetry is turned on.
 Leave Link  301 at Wed Oct  7 14:48:41 2020, MaxMem=  2684354560 cpu:               1.3 elap:               0.4
 (Enter /udrive/faculty/rpeverati/g16/g16/l302.exe)
 NPDir=0 NMtPBC=     1 NCelOv=     1 NCel=       1 NClECP=     1 NCelD=      1
         NCelK=      1 NCelE2=     1 NClLst=     1 CellRange=     0.0.
 One-electron integrals computed using PRISM.
 One-electron integral symmetry used in STVInt
 NBasis=    30 RedAO= T EigKep=  7.71D-03  NBF=    22     8
 NBsUse=    30 1.00D-06 EigRej= -1.00D+00 NBFU=    22     8
 Precomputing XC quadrature grid using
 IXCGrd= 4 IRadAn=           5 IRanWt=          -1 IRanGd=           0 AccXCQ= 0.00D+00.
 Generated NRdTot=       0 NPtTot=           0 NUsed=           0 NTot=          32
 NSgBfM=    32    32    32    32    32 MxSgAt=     3 MxSgA2=     3.
 Leave Link  302 at Wed Oct  7 14:48:41 2020, MaxMem=  2684354560 cpu:               3.9 elap:               0.6
 (Enter /udrive/faculty/rpeverati/g16/g16/l303.exe)
 DipDrv:  MaxL=1.
 Leave Link  303 at Wed Oct  7 14:48:42 2020, MaxMem=  2684354560 cpu:               1.8 elap:               0.6
 (Enter /udrive/faculty/rpeverati/g16/g16/l401.exe)
 Initial guess from the checkpoint file:  "MN_58_hn2_BH76_BLYP_631Gs.chk"
 SCF N**3 symmetry information disabled.
 B after Tr=    -0.000000   -0.000000    0.000000
         Rot=    0.999999    0.000000    0.000000   -0.001716 Ang=  -0.20 deg.
 Guess basis will be translated and rotated to current coordinates.
 JPrj=2 DoOrth=T DoCkMO=T.
 Initial guess orbital symmetries:
 Alpha Orbitals:
       Occupied  (A') (A') (A') (A') (A') (A") (A') (A')
       Virtual   (A") (A') (A') (A') (A") (A') (A') (A') (A") (A')
                 (A') (A') (A") (A') (A") (A') (A") (A') (A') (A")
                 (A') (A')
 Beta  Orbitals:
       Occupied  (A') (A') (A') (A') (A') (A") (A')
       Virtual   (A') (A") (A') (A') (A") (A') (A') (A') (A') (A")
                 (A') (A') (A') (A") (A") (A') (A') (A") (A') (A')
                 (A") (A') (A')
 The electronic state of the initial guess is 2-A'.
 Initial guess <Sx>= 0.0000 <Sy>= 0.0000 <Sz>= 0.5000 <S**2>= 0.7529 S= 0.5014
 Leave Link  401 at Wed Oct  7 14:48:43 2020, MaxMem=  2684354560 cpu:               3.9 elap:               0.7
 (Enter /udrive/faculty/rpeverati/g16/g16/l502.exe)
 Keep J ints in memory in symmetry-blocked form, NReq=10459184.
 FoFCou: FMM=F IPFlag=           0 FMFlag=           0 FMFlg1=           0
         NFxFlg=           0 DoJE=F BraDBF=F KetDBF=F FulRan=T
         wScrn=  0.000000 ICntrl=       600 IOpCl=  0 I1Cent=           0 NGrid=           0
         NMat0=    1 NMatS0=    465 NMatT0=    0 NMatD0=    1 NMtDS0=    0 NMtDT0=    0
 Petite list used in FoFCou.
 UHF open shell SCF:
 Using DIIS extrapolation, IDIIS=  1040.
 NGot=  2684354560 LenX=  2684292770 LenY=  2684291305
 Requested convergence on RMS density matrix=1.00D-08 within 120 cycles.
 Requested convergence on MAX density matrix=1.00D-06.
 Requested convergence on             energy=1.00D-06.
 No special actions if energy rises.

 Cycle   1  Pass 1  IDiag  1:
 E= -110.007110480501    
 DIIS: error= 5.64D-04 at cycle   1 NSaved=   1.
 NSaved= 1 IEnMin= 1 EnMin= -110.007110480501     IErMin= 1 ErrMin= 5.64D-04
 ErrMax= 5.64D-04  0.00D+00 EMaxC= 1.00D-01 BMatC= 6.48D-05 BMatP= 6.48D-05
 IDIUse=3 WtCom= 9.94D-01 WtEn= 5.64D-03
 Coeff-Com:  0.100D+01
 Coeff-En:   0.100D+01
 Coeff:      0.100D+01
 Gap=     0.080 Goal=   None    Shift=    0.000
 Gap=     0.227 Goal=   None    Shift=    0.000
 RMSDP=3.16D-04 MaxDP=3.24D-03              OVMax= 4.11D-03

 Cycle   2  Pass 1  IDiag  1:
 E= -110.007136453541     Delta-E=       -0.000025973040 Rises=F Damp=F
 DIIS: error= 5.04D-04 at cycle   2 NSaved=   2.
 NSaved= 2 IEnMin= 2 EnMin= -110.007136453541     IErMin= 2 ErrMin= 5.04D-04
 ErrMax= 5.04D-04  0.00D+00 EMaxC= 1.00D-01 BMatC= 2.26D-05 BMatP= 6.48D-05
 IDIUse=3 WtCom= 9.95D-01 WtEn= 5.04D-03
 Coeff-Com:  0.300D+00 0.700D+00
 Coeff-En:   0.000D+00 0.100D+01
 Coeff:      0.299D+00 0.701D+00
 Gap=     0.080 Goal=   None    Shift=    0.000
 Gap=     0.228 Goal=   None    Shift=    0.000
 RMSDP=1.32D-04 MaxDP=1.59D-03 DE=-2.60D-05 OVMax= 2.56D-03

 Cycle   3  Pass 1  IDiag  1:
 E= -110.007124159200     Delta-E=        0.000012294341 Rises=F Damp=F
 DIIS: error= 1.14D-03 at cycle   3 NSaved=   3.
 NSaved= 3 IEnMin= 2 EnMin= -110.007136453541     IErMin= 2 ErrMin= 5.04D-04
 ErrMax= 1.14D-03  0.00D+00 EMaxC= 1.00D-01 BMatC= 8.19D-05 BMatP= 2.26D-05
 IDIUse=3 WtCom= 2.28D-01 WtEn= 7.72D-01
 Coeff-Com:  0.339D-01 0.644D+00 0.322D+00
 Coeff-En:   0.000D+00 0.710D+00 0.290D+00
 Coeff:      0.775D-02 0.695D+00 0.297D+00
 Gap=     0.080 Goal=   None    Shift=    0.000
 Gap=     0.228 Goal=   None    Shift=    0.000
 RMSDP=8.59D-05 MaxDP=9.33D-04 DE= 1.23D-05 OVMax= 1.77D-03

 Cycle   4  Pass 1  IDiag  1:
 E= -110.007140922439     Delta-E=       -0.000016763239 Rises=F Damp=F
 DIIS: error= 1.39D-04 at cycle   4 NSaved=   4.
 NSaved= 4 IEnMin= 4 EnMin= -110.007140922439     IErMin= 4 ErrMin= 1.39D-04
 ErrMax= 1.39D-04  0.00D+00 EMaxC= 1.00D-01 BMatC= 1.93D-06 BMatP= 2.26D-05
 IDIUse=3 WtCom= 9.99D-01 WtEn= 1.39D-03
 Coeff-Com:  0.136D-02 0.330D+00 0.110D+00 0.558D+00
 Coeff-En:   0.000D+00 0.559D-01 0.000D+00 0.944D+00
 Coeff:      0.136D-02 0.330D+00 0.110D+00 0.558D+00
 Gap=     0.080 Goal=   None    Shift=    0.000
 Gap=     0.227 Goal=   None    Shift=    0.000
 RMSDP=3.21D-05 MaxDP=4.70D-04 DE=-1.68D-05 OVMax= 4.08D-04

 Cycle   5  Pass 1  IDiag  1:
 E= -110.007141382978     Delta-E=       -0.000000460539 Rises=F Damp=F
 DIIS: error= 2.17D-05 at cycle   5 NSaved=   5.
 NSaved= 5 IEnMin= 5 EnMin= -110.007141382978     IErMin= 5 ErrMin= 2.17D-05
 ErrMax= 2.17D-05  0.00D+00 EMaxC= 1.00D-01 BMatC= 6.48D-08 BMatP= 1.93D-06
 IDIUse=1 WtCom= 1.00D+00 WtEn= 0.00D+00
 Coeff-Com: -0.405D-02 0.418D-01-0.203D-02 0.199D+00 0.766D+00
 Coeff:     -0.405D-02 0.418D-01-0.203D-02 0.199D+00 0.766D+00
 Gap=     0.080 Goal=   None    Shift=    0.000
 Gap=     0.228 Goal=   None    Shift=    0.000
 RMSDP=5.59D-06 MaxDP=5.48D-05 DE=-4.61D-07 OVMax= 6.10D-05

 Cycle   6  Pass 1  IDiag  1:
 E= -110.007141402199     Delta-E=       -0.000000019221 Rises=F Damp=F
 DIIS: error= 4.23D-06 at cycle   6 NSaved=   6.
 NSaved= 6 IEnMin= 6 EnMin= -110.007141402199     IErMin= 6 ErrMin= 4.23D-06
 ErrMax= 4.23D-06  0.00D+00 EMaxC= 1.00D-01 BMatC= 2.13D-09 BMatP= 6.48D-08
 IDIUse=1 WtCom= 1.00D+00 WtEn= 0.00D+00
 Coeff-Com: -0.504D-04-0.296D-01-0.129D-01-0.398D-01 0.295D-01 0.105D+01
 Coeff:     -0.504D-04-0.296D-01-0.129D-01-0.398D-01 0.295D-01 0.105D+01
 Gap=     0.080 Goal=   None    Shift=    0.000
 Gap=     0.228 Goal=   None    Shift=    0.000
 RMSDP=1.78D-06 MaxDP=1.91D-05 DE=-1.92D-08 OVMax= 2.54D-05

 Cycle   7  Pass 1  IDiag  1:
 E= -110.007141403372     Delta-E=       -0.000000001174 Rises=F Damp=F
 DIIS: error= 1.67D-06 at cycle   7 NSaved=   7.
 NSaved= 7 IEnMin= 7 EnMin= -110.007141403372     IErMin= 7 ErrMin= 1.67D-06
 ErrMax= 1.67D-06  0.00D+00 EMaxC= 1.00D-01 BMatC= 1.03D-10 BMatP= 2.13D-09
 IDIUse=1 WtCom= 1.00D+00 WtEn= 0.00D+00
 Coeff-Com:  0.573D-04 0.368D-03 0.285D-03-0.280D-02-0.383D-01-0.403D-01
 Coeff-Com:  0.108D+01
 Coeff:      0.573D-04 0.368D-03 0.285D-03-0.280D-02-0.383D-01-0.403D-01
 Coeff:      0.108D+01
 Gap=     0.080 Goal=   None    Shift=    0.000
 Gap=     0.228 Goal=   None    Shift=    0.000
 RMSDP=4.20D-07 MaxDP=6.06D-06 DE=-1.17D-09 OVMax= 1.12D-05

 Cycle   8  Pass 1  IDiag  1:
 E= -110.007141403454     Delta-E=       -0.000000000082 Rises=F Damp=F
 DIIS: error= 7.65D-07 at cycle   8 NSaved=   8.
 NSaved= 8 IEnMin= 8 EnMin= -110.007141403454     IErMin= 8 ErrMin= 7.65D-07
 ErrMax= 7.65D-07  0.00D+00 EMaxC= 1.00D-01 BMatC= 1.67D-11 BMatP= 1.03D-10
 IDIUse=1 WtCom= 1.00D+00 WtEn= 0.00D+00
 Coeff-Com:  0.438D-04 0.258D-02 0.151D-02 0.282D-02 0.112D-02-0.902D-01
 Coeff-Com: -0.384D-01 0.112D+01
 Coeff:      0.438D-04 0.258D-02 0.151D-02 0.282D-02 0.112D-02-0.902D-01
 Coeff:     -0.384D-01 0.112D+01
 Gap=     0.080 Goal=   None    Shift=    0.000
 Gap=     0.228 Goal=   None    Shift=    0.000
 RMSDP=1.54D-07 MaxDP=2.46D-06 DE=-8.16D-11 OVMax= 4.48D-06

 Cycle   9  Pass 1  IDiag  1:
 E= -110.007141403465     Delta-E=       -0.000000000011 Rises=F Damp=F
 DIIS: error= 2.26D-07 at cycle   9 NSaved=   9.
 NSaved= 9 IEnMin= 9 EnMin= -110.007141403465     IErMin= 9 ErrMin= 2.26D-07
 ErrMax= 2.26D-07  0.00D+00 EMaxC= 1.00D-01 BMatC= 1.59D-12 BMatP= 1.67D-11
 IDIUse=1 WtCom= 1.00D+00 WtEn= 0.00D+00
 Coeff-Com: -0.146D-04 0.200D-03 0.822D-05 0.515D-03 0.273D-02-0.683D-02
 Coeff-Com: -0.880D-01 0.107D+00 0.985D+00
 Coeff:     -0.146D-04 0.200D-03 0.822D-05 0.515D-03 0.273D-02-0.683D-02
 Coeff:     -0.880D-01 0.107D+00 0.985D+00
 Gap=     0.080 Goal=   None    Shift=    0.000
 Gap=     0.228 Goal=   None    Shift=    0.000
 RMSDP=3.86D-08 MaxDP=6.50D-07 DE=-1.10D-11 OVMax= 1.19D-06

 Cycle  10  Pass 1  IDiag  1:
 E= -110.007141403466     Delta-E=       -0.000000000001 Rises=F Damp=F
 DIIS: error= 2.27D-08 at cycle  10 NSaved=  10.
 NSaved=10 IEnMin=10 EnMin= -110.007141403466     IErMin=10 ErrMin= 2.27D-08
 ErrMax= 2.27D-08  0.00D+00 EMaxC= 1.00D-01 BMatC= 4.18D-14 BMatP= 1.59D-12
 IDIUse=1 WtCom= 1.00D+00 WtEn= 0.00D+00
 Coeff-Com: -0.280D-05-0.820D-04-0.787D-04-0.465D-05 0.569D-03 0.326D-02
 Coeff-Com: -0.164D-01-0.382D-01 0.155D+00 0.896D+00
 Coeff:     -0.280D-05-0.820D-04-0.787D-04-0.465D-05 0.569D-03 0.326D-02
 Coeff:     -0.164D-01-0.382D-01 0.155D+00 0.896D+00
 Gap=     0.080 Goal=   None    Shift=    0.000
 Gap=     0.228 Goal=   None    Shift=    0.000
 RMSDP=7.91D-09 MaxDP=9.66D-08 DE=-9.66D-13 OVMax= 1.79D-07

 SCF Done:  E(UB-LYP) =  -110.007141403     A.U. after   10 cycles
            NFock= 10  Conv=0.79D-08     -V/T= 2.0070
 <Sx>= 0.0000 <Sy>= 0.0000 <Sz>= 0.5000 <S**2>= 0.7530 S= 0.5015
 <L.S>= 0.000000000000E+00
 KE= 1.092461074222D+02 PE=-3.115052625178D+02 EE= 6.514629370606D+01
 Annihilation of the first spin contaminant:
 S**2 before annihilation     0.7530,   after     0.7500
 Leave Link  502 at Wed Oct  7 14:48:45 2020, MaxMem=  2684354560 cpu:              12.0 elap:               1.4
 (Enter /udrive/faculty/rpeverati/g16/g16/l508.exe)
 QCSCF skips out because SCF is already converged.
 Leave Link  508 at Wed Oct  7 14:48:45 2020, MaxMem=  2684354560 cpu:               0.5 elap:               0.5
 (Enter /udrive/faculty/rpeverati/g16/g16/l701.exe)
 ... and contract with generalized density number  0.
 Compute integral first derivatives.
 Leave Link  701 at Wed Oct  7 14:48:47 2020, MaxMem=  2684354560 cpu:               4.0 elap:               0.8
 (Enter /udrive/faculty/rpeverati/g16/g16/l702.exe)
 L702 exits ... SP integral derivatives will be done elsewhere.
 Leave Link  702 at Wed Oct  7 14:48:47 2020, MaxMem=  2684354560 cpu:               1.7 elap:               0.6
 (Enter /udrive/faculty/rpeverati/g16/g16/l703.exe)
 Integral derivatives from FoFJK, PRISM(SPDF).
 Compute integral first derivatives, UseDBF=F ICtDFT=           0.
 Calling FoFJK, ICntrl=      2527 FMM=F ISym2X=1 I1Cent= 0 IOpClX= 0 NMat=1 NMatS=1 NMatT=0.
 FoFJK:  IHMeth= 1 ICntrl=    2527 DoSepK=F KAlg= 0 I1Cent=           0 FoldK=F
 IRaf=         0 NMat=       1 IRICut=       1 DoRegI=T DoRafI=F ISym2E= 1 IDoP0=0 IntGTp=1.
 FoFCou: FMM=F IPFlag=           0 FMFlag=      100000 FMFlg1=         800
         NFxFlg=           0 DoJE=F BraDBF=F KetDBF=F FulRan=T
         wScrn=  0.000000 ICntrl=      2527 IOpCl=  0 I1Cent=           0 NGrid=           0
         NMat0=    1 NMatS0=      1 NMatT0=    0 NMatD0=    1 NMtDS0=    0 NMtDT0=    0
 Petite list used in FoFCou.
 Leave Link  703 at Wed Oct  7 14:48:48 2020, MaxMem=  2684354560 cpu:               5.5 elap:               0.8
 (Enter /udrive/faculty/rpeverati/g16/g16/l716.exe)
 Dipole        = 5.20855358D-01-4.88522891D-01 0.00000000D+00
 ***** Axes restored to original set *****
 -------------------------------------------------------------------
 Center     Atomic                   Forces (Hartrees/Bohr)
 Number     Number              X              Y              Z
 -------------------------------------------------------------------
      1        7           0.000113056   -0.001286383   -0.000000000
      2        7          -0.001146036    0.001687807   -0.000000000
      3        1           0.001032980   -0.000401424   -0.000000000
 -------------------------------------------------------------------
 Cartesian Forces:  Max     0.001687807 RMS     0.000885553
 Leave Link  716 at Wed Oct  7 14:48:49 2020, MaxMem=  2684354560 cpu:               1.5 elap:               0.5
 (Enter /udrive/faculty/rpeverati/g16/g16/l103.exe)

 GradGradGradGradGradGradGradGradGradGradGradGradGradGradGradGradGradGrad
 Berny optimization.
 Optmz: redundant internal coordinate code flag= 1
 Using GEDIIS/GDIIS optimizer.
 Red2BG:  D1=  6.78D-01 OD1=  1.12D-02 B2RMS=  0.00D+00 IAprox=0
 FormGI is forming the generalized inverse of G from B-inverse, IUseBI=4.
 Internal  Forces:  Max     0.001286900 RMS     0.000987824
 Search for a local minimum.
 Step number   3 out of a maximum of  100
 All quantities printed in internal units (Hartrees-Bohrs-Radians)
 RMS Force = .98782D-03 SwitMx=.10000D-02 MixMth= 2
 Mixed Optimization -- En-DIIS/RFO-DIIS
 Update second derivatives using D2CorX and points    1    2    3
 DE= -5.22D-05 DEPred=-4.36D-05 R= 1.20D+00
 TightC=F SS=  1.41D+00  RLast= 1.95D-02 DXNew= 5.0454D-01 5.8395D-02
 Trust test= 1.20D+00 RLast= 1.95D-02 DXMaxT set to 3.00D-01
 The second derivative matrix:
                          R1        R2        A1
           R1           1.24307
           R2           0.02420   0.26631
           A1           0.01771   0.03240   0.18311
 ITU=  1  1  0
 Use linear search instead of GDIIS.
 Eigenvectors of the second derivative matrix:
                           1         2         3
     Eigenvalues --     0.17191   0.27658   1.24399
   1         R1        -0.00836   0.02960   0.99953
   2         R2        -0.32266  -0.94618   0.02532
   3         A1         0.94648  -0.32229   0.01746
 Iter=   1 RLamda= 0.00000000D+00 Sum=-2.49979272D-06.
 Iter=   2 RLamda=-2.49979272D-06 Sum=-2.49977710D-06.
 RFO step:  Lambda=-2.49979272D-06 EMin= 1.71906646D-01
 Quartic linear search produced a step of  0.25130.
 Iteration  1 RMS(Cart)=  0.00198062 RMS(Int)=  0.00000139
 Iteration  2 RMS(Cart)=  0.00000134 RMS(Int)=  0.00000000
 Iteration  3 RMS(Cart)=  0.00000000 RMS(Int)=  0.00000000
 ITry= 1 IFail=0 DXMaxC= 2.60D-03 DCOld= 1.00D+10 DXMaxT= 3.00D-01 DXLimC= 3.00D+00 Rises=F
 ClnCor:  largest displacement from symmetrization is 3.14D-16 for atom     3.
 Variable       Old X    -DE/DX   Delta X   Delta X   Delta X     New X
                                 (Linear)    (Quad)   (Total)
    R1        2.25117  -0.00129  -0.00005  -0.00105  -0.00109   2.25007
    R2        2.03905   0.00110   0.00308   0.00143   0.00451   2.04356
    A1        2.05322  -0.00024  -0.00380   0.00176  -0.00204   2.05118
         Item               Value     Threshold  Converged?
 Maximum Force            0.001287     0.000450     NO 
 RMS     Force            0.000988     0.000300     NO 
 Maximum Displacement     0.002599     0.001800     NO 
 RMS     Displacement     0.001981     0.001200     NO 
 Predicted change in Energy=-3.409576D-06
 Lowest energy point so far.  Saving SCF results.
 Largest change from initial coordinates is atom    3       0.042 Angstoms.
 GradGradGradGradGradGradGradGradGradGradGradGradGradGradGradGradGradGrad

 Leave Link  103 at Wed Oct  7 14:48:50 2020, MaxMem=  2684354560 cpu:               2.1 elap:               0.6
 (Enter /udrive/faculty/rpeverati/g16/g16/l202.exe)
                          Input orientation:                          
 ---------------------------------------------------------------------
 Center     Atomic      Atomic             Coordinates (Angstroms)
 Number     Number       Type             X           Y           Z
 ---------------------------------------------------------------------
      1          7           0       -0.073888    0.677468    0.000000
      2          7           0       -0.068940   -0.513208    0.000000
      3          1           0        0.892140   -1.008953    0.000000
 ---------------------------------------------------------------------
                    Distance matrix (angstroms):
                    1          2          3
     1  N    0.000000
     2  N    1.190687   0.000000
     3  H    1.943509   1.081405   0.000000
 Stoichiometry    HN2(2)
 Framework group  CS[SG(HN2)]
 Deg. of freedom     3
 Full point group                 CS      NOp   2
 RotChk:  IX=0 Diff= 2.01D-03
 Largest Abelian subgroup         CS      NOp   2
 Largest concise Abelian subgroup C1      NOp   1
                         Standard orientation:                         
 ---------------------------------------------------------------------
 Center     Atomic      Atomic             Coordinates (Angstroms)
 Number     Number       Type             X           Y           Z
 ---------------------------------------------------------------------
      1          7           0       -0.063934    0.668349    0.000000
      2          7           0       -0.063934   -0.522338    0.000000
      3          1           0        0.895078   -1.022072    0.000000
 ---------------------------------------------------------------------
 Rotational constants (GHZ):         637.0081842          45.1462523          42.1583891
 Leave Link  202 at Wed Oct  7 14:48:51 2020, MaxMem=  2684354560 cpu:               1.3 elap:               0.6
 (Enter /udrive/faculty/rpeverati/g16/g16/l301.exe)
 Standard basis: 6-31G(d) (5D, 7F)
 Ernie: Thresh=  0.10000D-02 Tol=  0.10000D-05 Strict=F.
 There are    24 symmetry adapted cartesian basis functions of A'  symmetry.
 There are     8 symmetry adapted cartesian basis functions of A"  symmetry.
 There are    22 symmetry adapted basis functions of A'  symmetry.
 There are     8 symmetry adapted basis functions of A"  symmetry.
    30 basis functions,    60 primitive gaussians,    32 cartesian basis functions
     8 alpha electrons        7 beta electrons
       nuclear repulsion energy        27.1084305014 Hartrees.
 IExCor=  402 DFT=T Ex=B Corr=LYP ExCW=0 ScaHFX=  0.000000
 ScaDFX=  1.000000  1.000000  1.000000  1.000000 ScalE2=  1.000000  1.000000
 IRadAn=      5 IRanWt=     -1 IRanGd=            0 ICorTp=0 IEmpDi=  4
 NAtoms=    3 NActive=    3 NUniq=    3 SFac= 1.00D+00 NAtFMM=   60 NAOKFM=F Big=F
 Integral buffers will be    131072 words long.
 Raffenetti 2 integral format.
 Two-electron integral symmetry is turned on.
 Leave Link  301 at Wed Oct  7 14:48:52 2020, MaxMem=  2684354560 cpu:               1.9 elap:               0.6
 (Enter /udrive/faculty/rpeverati/g16/g16/l302.exe)
 NPDir=0 NMtPBC=     1 NCelOv=     1 NCel=       1 NClECP=     1 NCelD=      1
         NCelK=      1 NCelE2=     1 NClLst=     1 CellRange=     0.0.
 One-electron integrals computed using PRISM.
 One-electron integral symmetry used in STVInt
 NBasis=    30 RedAO= T EigKep=  7.70D-03  NBF=    22     8
 NBsUse=    30 1.00D-06 EigRej= -1.00D+00 NBFU=    22     8
 Precomputing XC quadrature grid using
 IXCGrd= 4 IRadAn=           5 IRanWt=          -1 IRanGd=           0 AccXCQ= 0.00D+00.
 Generated NRdTot=       0 NPtTot=           0 NUsed=           0 NTot=          32
 NSgBfM=    32    32    32    32    32 MxSgAt=     3 MxSgA2=     3.
 Leave Link  302 at Wed Oct  7 14:48:53 2020, MaxMem=  2684354560 cpu:               4.5 elap:               0.9
 (Enter /udrive/faculty/rpeverati/g16/g16/l303.exe)
 DipDrv:  MaxL=1.
 Leave Link  303 at Wed Oct  7 14:48:54 2020, MaxMem=  2684354560 cpu:               2.0 elap:               0.7
 (Enter /udrive/faculty/rpeverati/g16/g16/l401.exe)
 Initial guess from the checkpoint file:  "MN_58_hn2_BH76_BLYP_631Gs.chk"
 SCF N**3 symmetry information disabled.
 B after Tr=     0.000000    0.000000    0.000000
         Rot=    1.000000    0.000000    0.000000   -0.000304 Ang=  -0.03 deg.
 Guess basis will be translated and rotated to current coordinates.
 JPrj=2 DoOrth=T DoCkMO=T.
 Initial guess orbital symmetries:
 Alpha Orbitals:
[...]

 Cycle   6  Pass 1  IDiag  1:
 E= -110.007145747247     Delta-E=       -0.000000000032 Rises=F Damp=F
 DIIS: error= 3.18D-07 at cycle   6 NSaved=   6.
 NSaved= 6 IEnMin= 6 EnMin= -110.007145747247     IErMin= 6 ErrMin= 3.18D-07
 ErrMax= 3.18D-07  0.00D+00 EMaxC= 1.00D-01 BMatC= 8.85D-12 BMatP= 7.40D-11
 IDIUse=1 WtCom= 1.00D+00 WtEn= 0.00D+00
 Coeff-Com: -0.131D-03-0.149D-01-0.930D-02-0.330D-01 0.257D+00 0.800D+00
 Coeff:     -0.131D-03-0.149D-01-0.930D-02-0.330D-01 0.257D+00 0.800D+00
 Gap=     0.080 Goal=   None    Shift=    0.000
 Gap=     0.228 Goal=   None    Shift=    0.000
 RMSDP=7.46D-08 MaxDP=7.88D-07 DE=-3.20D-11 OVMax= 1.30D-06

 Cycle   7  Pass 1  IDiag  1:
 E= -110.007145747250     Delta-E=       -0.000000000003 Rises=F Damp=F
 DIIS: error= 7.06D-08 at cycle   7 NSaved=   7.
 NSaved= 7 IEnMin= 7 EnMin= -110.007145747250     IErMin= 7 ErrMin= 7.06D-08
 ErrMax= 7.06D-08  0.00D+00 EMaxC= 1.00D-01 BMatC= 3.96D-13 BMatP= 8.85D-12
 IDIUse=1 WtCom= 1.00D+00 WtEn= 0.00D+00
 Coeff-Com:  0.872D-04 0.114D-02 0.953D-03-0.773D-02-0.335D-01 0.906D-01
 Coeff-Com:  0.948D+00
 Coeff:      0.872D-04 0.114D-02 0.953D-03-0.773D-02-0.335D-01 0.906D-01
 Coeff:      0.948D+00
 Gap=     0.080 Goal=   None    Shift=    0.000
 Gap=     0.228 Goal=   None    Shift=    0.000
 RMSDP=2.32D-08 MaxDP=2.88D-07 DE=-3.07D-12 OVMax= 4.66D-07

 Cycle   8  Pass 1  IDiag  1:
 E= -110.007145747250     Delta-E=       -0.000000000000 Rises=F Damp=F
 DIIS: error= 4.30D-08 at cycle   8 NSaved=   8.
 NSaved= 8 IEnMin= 8 EnMin= -110.007145747250     IErMin= 8 ErrMin= 4.30D-08
 ErrMax= 4.30D-08  0.00D+00 EMaxC= 1.00D-01 BMatC= 1.38D-13 BMatP= 3.96D-13
 IDIUse=1 WtCom= 1.00D+00 WtEn= 0.00D+00
 Coeff-Com:  0.849D-04 0.161D-02 0.117D-02 0.775D-03-0.341D-01-0.449D-01
 Coeff-Com:  0.365D+00 0.710D+00
 Coeff:      0.849D-04 0.161D-02 0.117D-02 0.775D-03-0.341D-01-0.449D-01
 Coeff:      0.365D+00 0.710D+00
 Gap=     0.080 Goal=   None    Shift=    0.000
 Gap=     0.228 Goal=   None    Shift=    0.000
 RMSDP=1.28D-08 MaxDP=1.61D-07 DE=-8.53D-14 OVMax= 2.20D-07

 Cycle   9  Pass 1  IDiag  1:
 E= -110.007145747251     Delta-E=       -0.000000000000 Rises=F Damp=F
 DIIS: error= 1.74D-08 at cycle   9 NSaved=   9.
 NSaved= 9 IEnMin= 9 EnMin= -110.007145747251     IErMin= 9 ErrMin= 1.74D-08
 ErrMax= 1.74D-08  0.00D+00 EMaxC= 1.00D-01 BMatC= 2.29D-14 BMatP= 1.38D-13
 IDIUse=1 WtCom= 1.00D+00 WtEn= 0.00D+00
 Coeff-Com: -0.177D-04 0.457D-03 0.265D-03 0.208D-02-0.712D-02-0.419D-01
 Coeff-Com: -0.932D-01 0.263D+00 0.877D+00
 Coeff:     -0.177D-04 0.457D-03 0.265D-03 0.208D-02-0.712D-02-0.419D-01
 Coeff:     -0.932D-01 0.263D+00 0.877D+00
 Gap=     0.080 Goal=   None    Shift=    0.000
 Gap=     0.228 Goal=   None    Shift=    0.000
 RMSDP=5.63D-09 MaxDP=7.21D-08 DE=-3.41D-13 OVMax= 1.29D-07

 SCF Done:  E(UB-LYP) =  -110.007145747     A.U. after    9 cycles
            NFock=  9  Conv=0.56D-08     -V/T= 2.0070
 <Sx>= 0.0000 <Sy>= 0.0000 <Sz>= 0.5000 <S**2>= 0.7530 S= 0.5015
 <L.S>= 0.000000000000E+00
 KE= 1.092460582805D+02 PE=-3.115168330983D+02 EE= 6.515155650262D+01
 Annihilation of the first spin contaminant:
 S**2 before annihilation     0.7530,   after     0.7500
 Leave Link  502 at Wed Oct  7 14:49:07 2020, MaxMem=  2684354560 cpu:              11.5 elap:               1.3
 (Enter /udrive/faculty/rpeverati/g16/g16/l508.exe)
 QCSCF skips out because SCF is already converged.
 Leave Link  508 at Wed Oct  7 14:49:08 2020, MaxMem=  2684354560 cpu:               0.3 elap:               0.4
 (Enter /udrive/faculty/rpeverati/g16/g16/l701.exe)
 ... and contract with generalized density number  0.
 Compute integral first derivatives.
 Leave Link  701 at Wed Oct  7 14:49:09 2020, MaxMem=  2684354560 cpu:               3.2 elap:               0.7
 (Enter /udrive/faculty/rpeverati/g16/g16/l702.exe)
 L702 exits ... SP integral derivatives will be done elsewhere.
 Leave Link  702 at Wed Oct  7 14:49:10 2020, MaxMem=  2684354560 cpu:               2.3 elap:               0.6
 (Enter /udrive/faculty/rpeverati/g16/g16/l703.exe)
 Integral derivatives from FoFJK, PRISM(SPDF).
 Compute integral first derivatives, UseDBF=F ICtDFT=           0.
 Calling FoFJK, ICntrl=      2527 FMM=F ISym2X=1 I1Cent= 0 IOpClX= 0 NMat=1 NMatS=1 NMatT=0.
 FoFJK:  IHMeth= 1 ICntrl=    2527 DoSepK=F KAlg= 0 I1Cent=           0 FoldK=F
 IRaf=         0 NMat=       1 IRICut=       1 DoRegI=T DoRafI=F ISym2E= 1 IDoP0=0 IntGTp=1.
 FoFCou: FMM=F IPFlag=           0 FMFlag=      100000 FMFlg1=         800
         NFxFlg=           0 DoJE=F BraDBF=F KetDBF=F FulRan=T
         wScrn=  0.000000 ICntrl=      2527 IOpCl=  0 I1Cent=           0 NGrid=           0
         NMat0=    1 NMatS0=      1 NMatT0=    0 NMatD0=    1 NMtDS0=    0 NMtDT0=    0
 Petite list used in FoFCou.
 Leave Link  703 at Wed Oct  7 14:49:11 2020, MaxMem=  2684354560 cpu:               5.5 elap:               0.8
 (Enter /udrive/faculty/rpeverati/g16/g16/l716.exe)
 Dipole        = 5.19114025D-01-4.86158174D-01 0.00000000D+00
 ***** Axes restored to original set *****
 -------------------------------------------------------------------
 Center     Atomic                   Forces (Hartrees/Bohr)
 Number     Number              X              Y              Z
 -------------------------------------------------------------------
      1        7          -0.000029745   -0.000133259   -0.000000000
      2        7           0.000043176    0.000163249   -0.000000000
      3        1          -0.000013431   -0.000029990   -0.000000000
 -------------------------------------------------------------------
 Cartesian Forces:  Max     0.000163249 RMS     0.000073210
 Leave Link  716 at Wed Oct  7 14:49:12 2020, MaxMem=  2684354560 cpu:               1.0 elap:               0.4
 (Enter /udrive/faculty/rpeverati/g16/g16/l103.exe)

 GradGradGradGradGradGradGradGradGradGradGradGradGradGradGradGradGradGrad
 Berny optimization.
 Optmz: redundant internal coordinate code flag= 1
 Using GEDIIS/GDIIS optimizer.
 Red2BG:  D1=  6.77D-01 OD1=  1.94D-04 B2RMS=  0.00D+00 IAprox=0
 FormGI is forming the generalized inverse of G from B-inverse, IUseBI=4.
 Internal  Forces:  Max     0.000133041 RMS     0.000086163
 Search for a local minimum.
 Step number   5 out of a maximum of  100
 All quantities printed in internal units (Hartrees-Bohrs-Radians)
 RMS Force = .86163D-04 SwitMx=.10000D-02 MixMth= 2
 Mixed Optimization -- En-DIIS/RFO-DIIS
 Swapping is turned off.
 Update second derivatives using D2CorX and points    2    3    4    5
 DE= -3.54D-07 DEPred=-2.93D-07 R= 1.21D+00
 Trust test= 1.21D+00 RLast= 1.31D-03 DXMaxT set to 3.00D-01
 The second derivative matrix:
                          R1        R2        A1
           R1           0.94116
           R2           0.11055   0.24716
           A1           0.07278  -0.00043   0.18196
 ITU=  0  1  1  1
 Eigenvectors of the second derivative matrix:
                           1         2         3
     Eigenvalues --     0.17302   0.23231   0.96494
   1         R1        -0.11877   0.13119   0.98422
   2         R2         0.18273  -0.97142   0.15153
   3         A1         0.97596   0.19784   0.09141
 DoSqrt=T IScMMF=    -3 MM Scaling Factor =       0.00000
 En-DIIS/RFO-DIIS/Sim-DIIS IScMMF=       -3 using points:     5    4    3
 Iter=   1 RLamda= 0.00000000D+00 Sum=-5.51525455D-08.
 Iter=   2 RLamda=-5.51525455D-08 Sum=-5.51525322D-08.
 RFO step:  Lambda=-5.51525455D-08.
 NNeg= 0 NGDIIS= 3 SimSw=  2.50D-01 Rises=F DC= -3.54D-07 SmlDif=  1.00D-05
 NRisDI= 0 DoIntr=F SqrtH=F CThrHd= 10.0 CDAdj=  3.0
 RMS Error=  0.2842256630D-03 NUsed= 3 OKEnD=F EnDIS=F
 Total RFO-DIIS matrix:
                 1             2             3             4 
      1   0.000000D+00 -0.100000D+01 -0.100000D+01 -0.100000D+01
      2  -0.100000D+01  0.242353D-06  0.717867D-06  0.618894D-06
      3  -0.100000D+01  0.717867D-06  0.290407D-05  0.673735D-05
      4  -0.100000D+01  0.618894D-06  0.673735D-05  0.325062D-04
 InvSVX:  RCond= 1.17D-07 Info=           0 Equed=N FErr=  4.21D-15 BErr=  5.39D-17
 DidBck=F Rises=F RFO-DIIS coefs:    1.49043   -0.58285    0.09243
 Iteration  1 RMS(Cart)=  0.00029442 RMS(Int)=  0.00000006
 Iteration  2 RMS(Cart)=  0.00000005 RMS(Int)=  0.00000000
 ITry= 1 IFail=0 DXMaxC= 3.00D-04 DCOld= 1.00D+10 DXMaxT= 3.00D-01 DXLimC= 3.00D+00 Rises=F
 ClnCor:  largest displacement from symmetrization is 2.24D-16 for atom     1.
 Variable       Old X    -DE/DX   Delta X   Delta X   Delta X     New X
                                 (Linear)    (Quad)   (Total)
    R1        2.24947  -0.00013  -0.00019  -0.00000  -0.00019   2.24928
    R2        2.04455   0.00000   0.00007  -0.00000   0.00007   2.04461
    A1        2.05179   0.00007   0.00049  -0.00000   0.00049   2.05228
         Item               Value     Threshold  Converged?
 Maximum Force            0.000133     0.000450     YES
 RMS     Force            0.000086     0.000300     YES
 Maximum Displacement     0.000300     0.001800     YES
 RMS     Displacement     0.000294     0.001200     YES
 Predicted change in Energy=-2.732076D-08
 Optimization completed.
    -- Stationary point found.
                           ----------------------------
                           !   Optimized Parameters   !
                           ! (Angstroms and Degrees)  !
 --------------------------                            --------------------------
 ! Name  Definition              Value          Derivative Info.                !
 --------------------------------------------------------------------------------
 ! R1    R(1,2)                  1.1904         -DE/DX =   -0.0001              !
 ! R2    R(2,3)                  1.0819         -DE/DX =    0.0                 !
 ! A1    A(1,2,3)              117.5588         -DE/DX =    0.0001              !
 --------------------------------------------------------------------------------
 Lowest energy point so far.  Saving SCF results.
 Largest change from initial coordinates is atom    3       0.043 Angstoms.
 GradGradGradGradGradGradGradGradGradGradGradGradGradGradGradGradGradGrad

 Leave Link  103 at Wed Oct  7 14:49:13 2020, MaxMem=  2684354560 cpu:               1.8 elap:               0.7
 (Enter /udrive/faculty/rpeverati/g16/g16/l202.exe)
                          Input orientation:                          
 ---------------------------------------------------------------------
 Center     Atomic      Atomic             Coordinates (Angstroms)
 Number     Number       Type             X           Y           Z
 ---------------------------------------------------------------------
      1          7           0       -0.074083    0.677485    0.000000
      2          7           0       -0.068960   -0.512873    0.000000
      3          1           0        0.892354   -1.009304    0.000000
 ---------------------------------------------------------------------
                    Distance matrix (angstroms):
                    1          2          3
     1  N    0.000000
     2  N    1.190369   0.000000
     3  H    1.944031   1.081928   0.000000
 Stoichiometry    HN2(2)
 Framework group  CS[SG(HN2)]
 Deg. of freedom     3
 Full point group                 CS      NOp   2
 RotChk:  IX=0 Diff= 3.14D-16
 Largest Abelian subgroup         CS      NOp   2
 Largest concise Abelian subgroup C1      NOp   1
                         Standard orientation:                         
 ---------------------------------------------------------------------
 Center     Atomic      Atomic             Coordinates (Angstroms)
 Number     Number       Type             X           Y           Z
 ---------------------------------------------------------------------
      1          7           0       -0.063945    0.668235    0.000000
      2          7           0       -0.063945   -0.522135    0.000000
      3          1           0        0.895224   -1.022698    0.000000
 ---------------------------------------------------------------------
 Rotational constants (GHZ):         636.9307612          45.1610502          42.1709535
 Leave Link  202 at Wed Oct  7 14:49:13 2020, MaxMem=  2684354560 cpu:               1.7 elap:               0.7
 (Enter /udrive/faculty/rpeverati/g16/g16/l601.exe)
 Copying SCF densities to generalized density rwf, IOpCl= 1 IROHF=0.

 **********************************************************************

            Population analysis using the SCF density.

 **********************************************************************

 Orbital symmetries:
 Alpha Orbitals:
       Occupied  (A') (A') (A') (A') (A') (A") (A') (A')
       Virtual   (A") (A') (A') (A') (A") (A') (A') (A') (A") (A')
                 (A') (A') (A") (A') (A") (A') (A") (A') (A') (A")
                 (A') (A')
 Beta  Orbitals:
       Occupied  (A') (A') (A') (A') (A') (A") (A')
       Virtual   (A') (A") (A') (A') (A") (A') (A') (A') (A') (A")
                 (A') (A') (A') (A") (A") (A') (A') (A") (A') (A')
                 (A") (A') (A')
 The electronic state is 2-A'.
 Alpha  occ. eigenvalues --  -14.10873 -14.09557  -0.96560  -0.59814  -0.41516
 Alpha  occ. eigenvalues --   -0.37210  -0.35227  -0.16173
 Alpha virt. eigenvalues --   -0.08168   0.04353   0.33685   0.58218   0.58447
 Alpha virt. eigenvalues --    0.60686   0.62496   0.68672   0.69852   0.75896
 Alpha virt. eigenvalues --    0.88511   1.20516   1.42112   1.43585   1.44112
 Alpha virt. eigenvalues --    1.62275   1.82163   2.05507   2.30497   2.44702
 Alpha virt. eigenvalues --    2.47390   2.64039
  Beta  occ. eigenvalues --  -14.10581 -14.08282  -0.95139  -0.57622  -0.38264
  Beta  occ. eigenvalues --   -0.36399  -0.32645
  Beta virt. eigenvalues --   -0.09885  -0.06900   0.06349   0.34968   0.58855
  Beta virt. eigenvalues --    0.59209   0.62753   0.67304   0.69908   0.70702
  Beta virt. eigenvalues --    0.78955   0.89427   1.22020   1.43459   1.45641
  Beta virt. eigenvalues --    1.46119   1.66360   1.85549   2.08012   2.32248
  Beta virt. eigenvalues --    2.45582   2.50683   2.65523
          Condensed to atoms (all electrons):
               1          2          3
     1  N    6.691290   0.457470  -0.070273
     2  N    0.457470   6.570940   0.176547
     3  H   -0.070273   0.176547   0.610283
          Atomic-Atomic Spin Densities.
               1          2          3
     1  N    0.860708  -0.114142  -0.057829
     2  N   -0.114142   0.329927  -0.088182
     3  H   -0.057829  -0.088182   0.329669
 Mulliken charges and spin densities:
               1          2
     1  N   -0.078486   0.688738
     2  N   -0.204957   0.127604
     3  H    0.283443   0.183659
 Sum of Mulliken charges =  -0.00000   1.00000
 Mulliken charges and spin densities with hydrogens summed into heavy atoms:
               1          2
     1  N   -0.078486   0.688738
     2  N    0.078486   0.311262
 Electronic spatial extent (au):  <R**2>=             49.7949
 Charge=             -0.0000 electrons
 Dipole moment (field-independent basis, Debye):
    X=              1.3195    Y=             -1.2357    Z=              0.0000  Tot=              1.8077
 Quadrupole moment (field-independent basis, Debye-Ang):
   XX=            -10.7550   YY=            -11.9120   ZZ=            -10.9808
   XY=             -1.2749   XZ=              0.0000   YZ=              0.0000
 Traceless Quadrupole moment (field-independent basis, Debye-Ang):
   XX=              0.4609   YY=             -0.6960   ZZ=              0.2351
   XY=             -1.2749   XZ=              0.0000   YZ=              0.0000
 Octapole moment (field-independent basis, Debye-Ang**2):
  XXX=              1.3128  YYY=             -2.4181  ZZZ=              0.0000  XYY=              1.6124
  XXY=             -0.9818  XXZ=              0.0000  XZZ=              0.1578  YZZ=             -0.0077
  YYZ=              0.0000  XYZ=              0.0000
 Hexadecapole moment (field-independent basis, Debye-Ang**3):
 XXXX=            -12.5816 YYYY=            -38.4491 ZZZZ=             -8.8773 XXXY=              1.0883
 XXXZ=              0.0000 YYYX=              0.5731 YYYZ=              0.0000 ZZZX=              0.0000
 ZZZY=              0.0000 XXYY=             -8.0876 XXZZ=             -3.7125 YYZZ=             -7.6577
 XXYZ=              0.0000 YYXZ=              0.0000 ZZXY=              0.6022
 N-N= 2.711207256787D+01 E-N=-3.115168336071D+02  KE= 1.092460582805D+02
                          Isotropic Fermi Contact Couplings
        Atom                 a.u.       MegaHertz       Gauss      10(-4) cm-1
     1  N(14)              0.07938      25.64920       9.15227       8.55565
     2  N(14)              0.24830      80.22549      28.62645      26.76034
     3  H(1)               0.09090     406.29302     144.97545     135.52476
 --------------------------------------------------------
       Center         ----  Spin Dipole Couplings  ----
                      3XX-RR        3YY-RR        3ZZ-RR
 --------------------------------------------------------
     1   Atom        1.601937     -0.819715     -0.782222
     2   Atom        0.182312      0.081896     -0.264208
     3   Atom        0.002902      0.013401     -0.016302
 --------------------------------------------------------
                        XY            XZ            YZ
 --------------------------------------------------------
     1   Atom        0.322720      0.000000      0.000000
     2   Atom        0.338551      0.000000      0.000000
     3   Atom       -0.019550      0.000000      0.000000
 --------------------------------------------------------


 ---------------------------------------------------------------------------------
              Anisotropic Spin Dipole Couplings in Principal Axis System
 ---------------------------------------------------------------------------------

       Atom             a.u.   MegaHertz   Gauss  10(-4) cm-1        Axes

              Baa    -0.8620   -33.245   -11.863   -11.089 -0.1299  0.9915  0.0000
     1 N(14)  Bbb    -0.7822   -30.169   -10.765   -10.063  0.0000  0.0000  1.0000
              Bcc     1.6442    63.413    22.627    21.152  0.9915  0.1299  0.0000
 
              Baa    -0.2642   -10.190    -3.636    -3.399  0.0000  0.0000  1.0000
     2 N(14)  Bbb    -0.2101    -8.105    -2.892    -2.704 -0.6532  0.7572  0.0000
              Bcc     0.4744    18.295     6.528     6.103  0.7572  0.6532  0.0000
 
              Baa    -0.0163    -8.698    -3.104    -2.901  0.0000  0.0000  1.0000
     3 H(1)   Bbb    -0.0121    -6.451    -2.302    -2.152  0.7935  0.6086  0.0000
              Bcc     0.0284    15.149     5.406     5.053 -0.6086  0.7935  0.0000
 

 ---------------------------------------------------------------------------------

 No NMR shielding tensors so no spin-rotation constants.
 Leave Link  601 at Wed Oct  7 14:49:15 2020, MaxMem=  2684354560 cpu:               5.9 elap:               0.9
 (Enter /udrive/faculty/rpeverati/g16/g16/l9999.exe)

 Test job not archived.
 1\1\GINC-NODE37\FOpt\UBLYP\6-31G(d)\H1N2(2)\RPEVERATI\07-Oct-2020\0\\#
 P Opt(MaxCyc=100) BLYP/6-31G* 5D 7F Integral=UltraFineGrid SCF=(NoSymm
 ,XQC,MaxCyc=120) IOp(1/33=1)\\TS search on BH76.\\0,2\N,-0.0740827458,
 0.6774848248,0.\N,-0.0689597781,-0.512873484,0.\H,0.8923542794,-1.0093
 041134,0.\\Version=ES64L-G16RevA.03\State=2-A'\HF=-110.0071457\S2=0.75
 3\S2-1=0.\S2A=0.750007\RMSD=5.627e-09\RMSF=7.321e-05\Dipole=0.5212015,
 -0.4839196,0.\Quadrupole=0.3508279,-0.5256278,0.1747999,-0.9441559,0.,
 0.\PG=CS [SG(H1N2)]\\@


 Human beings, who are almost unique in having the
 ability to learn from the experience of others, are
 also remarkable for their apparent disinclination to do so.
                               -- Douglas Adams,
                                Last Chance to See
 Job cpu time:       0 days  0 hours  4 minutes  9.7 seconds.
 Elapsed time:       0 days  0 hours  0 minutes 48.1 seconds.
 File lengths (MBytes):  RWF=      5 Int=      0 D2E=      0 Chk=      1 Scr=      1
 Normal termination of Gaussian 16 at Wed Oct  7 14:49:16 2020.
