 Entering Gaussian System, Link 0=g16
 Input=MN_60_hnc_BH76_BLYP_631Gs.in
 Output=MN_60_hnc_BH76_BLYP_631Gs.log
 Initial command:
 /udrive/faculty/rpeverati/g16/g16/l1.exe "/udrive/scratch-directories/gaussian09/rpeverati/Gau-26278.inp" -scrdir="/udrive/scratch-directories/gaussian09/rpeverati/"
 Entering Link 1 = /udrive/faculty/rpeverati/g16/g16/l1.exe PID=     26297.
  
 Copyright (c) 1988,1990,1992,1993,1995,1998,2003,2009,2016,
            Gaussian, Inc.  All Rights Reserved.
  
 This is part of the Gaussian(R) 16 program.  It is based on
 the Gaussian(R) 09 system (copyright 2009, Gaussian, Inc.),
 the Gaussian(R) 03 system (copyright 2003, Gaussian, Inc.),
 the Gaussian(R) 98 system (copyright 1998, Gaussian, Inc.),
 the Gaussian(R) 94 system (copyright 1995, Gaussian, Inc.),
 the Gaussian 92(TM) system (copyright 1992, Gaussian, Inc.),
 the Gaussian 90(TM) system (copyright 1990, Gaussian, Inc.),
 the Gaussian 88(TM) system (copyright 1988, Gaussian, Inc.),
 the Gaussian 86(TM) system (copyright 1986, Carnegie Mellon
 University), and the Gaussian 82(TM) system (copyright 1983,
 Carnegie Mellon University). Gaussian is a federally registered
 trademark of Gaussian, Inc.
  
 This software contains proprietary and confidential information,
 including trade secrets, belonging to Gaussian, Inc.
  
 This software is provided under written license and may be
 used, copied, transmitted, or stored only in accord with that
 written license.
  
 The following legend is applicable only to US Government
 contracts under FAR:
  
                    RESTRICTED RIGHTS LEGEND
  
 Use, reproduction and disclosure by the US Government is
 subject to restrictions as set forth in subparagraphs (a)
 and (c) of the Commercial Computer Software - Restricted
 Rights clause in FAR 52.227-19.
  
 Gaussian, Inc.
 340 Quinnipiac St., Bldg. 40, Wallingford CT 06492
  
  
 ---------------------------------------------------------------
 Warning -- This program may not be used in any manner that
 competes with the business of Gaussian, Inc. or will provide
 assistance to any competitor of Gaussian, Inc.  The licensee
 of this program is prohibited from giving any competitor of
 Gaussian, Inc. access to this program.  By using this program,
 the user acknowledges that Gaussian, Inc. is engaged in the
 business of creating and licensing software in the field of
 computational chemistry and represents and warrants to the
 licensee that it is not a competitor of Gaussian, Inc. and that
 it will not use this program in any manner prohibited above.
 ---------------------------------------------------------------
  

 Cite this work as:
 Gaussian 16, Revision A.03,
 M. J. Frisch, G. W. Trucks, H. B. Schlegel, G. E. Scuseria, 
 M. A. Robb, J. R. Cheeseman, G. Scalmani, V. Barone, 
 G. A. Petersson, H. Nakatsuji, X. Li, M. Caricato, A. V. Marenich, 
 J. Bloino, B. G. Janesko, R. Gomperts, B. Mennucci, H. P. Hratchian, 
 J. V. Ortiz, A. F. Izmaylov, J. L. Sonnenberg, D. Williams-Young, 
 F. Ding, F. Lipparini, F. Egidi, J. Goings, B. Peng, A. Petrone, 
 T. Henderson, D. Ranasinghe, V. G. Zakrzewski, J. Gao, N. Rega, 
 G. Zheng, W. Liang, M. Hada, M. Ehara, K. Toyota, R. Fukuda, 
 J. Hasegawa, M. Ishida, T. Nakajima, Y. Honda, O. Kitao, H. Nakai, 
 T. Vreven, K. Throssell, J. A. Montgomery, Jr., J. E. Peralta, 
 F. Ogliaro, M. J. Bearpark, J. J. Heyd, E. N. Brothers, K. N. Kudin, 
 V. N. Staroverov, T. A. Keith, R. Kobayashi, J. Normand, 
 K. Raghavachari, A. P. Rendell, J. C. Burant, S. S. Iyengar, 
 J. Tomasi, M. Cossi, J. M. Millam, M. Klene, C. Adamo, R. Cammi, 
 J. W. Ochterski, R. L. Martin, K. Morokuma, O. Farkas, 
 J. B. Foresman, and D. J. Fox, Gaussian, Inc., Wallingford CT, 2016.
 
 ******************************************
 Gaussian 16:  ES64L-G16RevA.03 25-Dec-2016
                 7-Oct-2020 
 ******************************************
 %NoSave
 %nproc=12
 Will use up to   12 processors via shared memory.
 %mem=20GB
 %chk=MN_60_hnc_BH76_BLYP_631Gs
 ----------------------------------------------------------------------
 #P Opt(MaxCyc=100) BLYP/6-31G* 5D 7F Integral=UltraFineGrid SCF=(NoSym
 m,XQC,MaxCyc=120) IOp(1/33=1)
 ----------------------------------------------------------------------
 1/6=100,18=20,19=15,26=4,33=1,38=1/1,3;
 2/9=110,12=2,17=6,18=5,40=1/2;
 3/5=1,6=6,7=1,8=11,11=2,25=1,30=1,71=1,74=402,75=-5/1,2,3;
 4/9=2/1;
 5/5=2,7=120,8=3,13=1,38=5/2,8;
 6/7=2,8=2,9=2,10=2,28=1/1;
 7//1,2,3,16;
 1/6=100,18=20,19=15,26=4,33=1/3(2);
 2/9=110/2;
 99//99;
 2/9=110/2;
 3/5=1,6=6,7=1,8=11,11=2,25=1,30=1,71=1,74=402,75=-5/1,2,3;
 4/5=5,9=2,16=3,69=1/1;
 5/5=2,7=120,8=3,13=1,38=5/2,8;
 7//1,2,3,16;
 1/6=100,18=20,19=15,26=4,33=1/3(-5);
 2/9=110/2;
 6/7=2,8=2,9=2,10=2,19=2,28=1/1;
 99/9=1/99;
 Leave Link    1 at Wed Oct  7 14:48:12 2020, MaxMem=  2684354560 cpu:               5.2 elap:               0.6
 (Enter /udrive/faculty/rpeverati/g16/g16/l101.exe)
 ONIOM data not found on unit 2.
 ------------------
 TS search on BH76.
 ------------------
 TstMul:  ICh=     0
 TstMul:  Mul=     1
 TstMul:  ICh=     0
 TstMul:  Mul=     1
 Symbolic Z-matrix:
 Charge =  0 Multiplicity = 1
 C                     0.        0.       -0.73926 
 N                     0.        0.        0.43008 
 H                     0.        0.        1.42495 
 
 RdStrC is calling ZToCFu for IStruc=1 NZ=     3.
 PrtBox:  NBox=     1 Levels=  1 BoxLen=    8.00 SMaxX=        4.09
          Shift=            0.000000            0.000000            1.396990
 Box      1 Number                   0 centers from      1 to      3:
 After GenITR:
 ITRead=  0  0  0
 MicOpt= -1 -1 -1
 ITRead=  0  0  0
 MicOpt= -1 -1 -1
 NAtoms=      3 NQM=        3 NQMF=       0 NMMI=      0 NMMIF=      0
                NMic=       0 NMicF=      0.
                    Isotopes and Nuclear Properties:
 (Nuclear quadrupole moments (NQMom) in fm**2, nuclear magnetic moments (NMagM)
  in nuclear magnetons)

  Atom         1           2           3
 IAtWgt=          12          14           1
 AtmWgt=  12.0000000  14.0030740   1.0078250
 NucSpn=           0           2           1
 AtZEff=   0.0000000   0.0000000   0.0000000
 NQMom=    0.0000000   2.0440000   0.0000000
 NMagM=    0.0000000   0.4037610   2.7928460
 AtZNuc=   6.0000000   7.0000000   1.0000000
 No MM parameters found.
 Leave Link  101 at Wed Oct  7 14:48:13 2020, MaxMem=  2684354560 cpu:               9.4 elap:               0.9
 (Enter /udrive/faculty/rpeverati/g16/g16/l103.exe)

 GradGradGradGradGradGradGradGradGradGradGradGradGradGradGradGradGradGrad
 Berny optimization.
 Optmz: redundant internal coordinate code flag= 1
 Initialization pass.
                           ----------------------------
                           !    Initial Parameters    !
                           ! (Angstroms and Degrees)  !
 --------------------------                            --------------------------
 ! Name  Definition              Value          Derivative Info.                !
 --------------------------------------------------------------------------------
 ! R1    R(1,2)                  1.1693         estimate D2E/DX2                !
 ! R2    R(2,3)                  0.9949         estimate D2E/DX2                !
 ! A1    L(1,2,3,-1,-1)        180.0            estimate D2E/DX2                !
 ! A2    L(1,2,3,-2,-2)        180.0            estimate D2E/DX2                !
 --------------------------------------------------------------------------------
 Maximum allowed force set to 1.00D+20.
 Trust Radius=3.00D-01 FncErr=1.00D-07 GrdErr=1.00D-06 EigMax=2.50D+02 EigMin=1.00D-04
 Number of steps in this run=    100 maximum allowed number of steps=    100.
 GradGradGradGradGradGradGradGradGradGradGradGradGradGradGradGradGradGrad

 Leave Link  103 at Wed Oct  7 14:48:14 2020, MaxMem=  2684354560 cpu:               0.8 elap:               0.6
 (Enter /udrive/faculty/rpeverati/g16/g16/l202.exe)
                          Input orientation:                          
 ---------------------------------------------------------------------
 Center     Atomic      Atomic             Coordinates (Angstroms)
 Number     Number       Type             X           Y           Z
 ---------------------------------------------------------------------
      1          6           0        0.000000    0.000000   -0.739255
      2          7           0        0.000000    0.000000    0.430082
      3          1           0        0.000000    0.000000    1.424953
 ---------------------------------------------------------------------
                    Distance matrix (angstroms):
                    1          2          3
     1  C    0.000000
     2  N    1.169338   0.000000
     3  H    2.164208   0.994870   0.000000
 Stoichiometry    CHN
 Framework group  C*V[C*(CNH)]
 Deg. of freedom     2
 Full point group                 C*V     NOp   4
 Largest Abelian subgroup         C2V     NOp   4
 Largest concise Abelian subgroup C1      NOp   1
                         Standard orientation:                         
 ---------------------------------------------------------------------
 Center     Atomic      Atomic             Coordinates (Angstroms)
 Number     Number       Type             X           Y           Z
 ---------------------------------------------------------------------
      1          6           0        0.000000    0.000000   -0.739255
      2          7           0        0.000000    0.000000    0.430083
      3          1           0        0.000000    0.000000    1.424953
 ---------------------------------------------------------------------
 Rotational constants (GHZ):           0.0000000          45.4450696          45.4450696
 Leave Link  202 at Wed Oct  7 14:48:15 2020, MaxMem=  2684354560 cpu:               1.2 elap:               0.5
 (Enter /udrive/faculty/rpeverati/g16/g16/l301.exe)
 Standard basis: 6-31G(d) (5D, 7F)
 Ernie: Thresh=  0.10000D-02 Tol=  0.10000D-05 Strict=F.
 There are    18 symmetry adapted cartesian basis functions of A1  symmetry.
 There are     2 symmetry adapted cartesian basis functions of A2  symmetry.
 There are     6 symmetry adapted cartesian basis functions of B1  symmetry.
 There are     6 symmetry adapted cartesian basis functions of B2  symmetry.
 There are    16 symmetry adapted basis functions of A1  symmetry.
 There are     2 symmetry adapted basis functions of A2  symmetry.
 There are     6 symmetry adapted basis functions of B1  symmetry.
 There are     6 symmetry adapted basis functions of B2  symmetry.
    30 basis functions,    60 primitive gaussians,    32 cartesian basis functions
     7 alpha electrons        7 beta electrons
       nuclear repulsion energy        24.1972838306 Hartrees.
 IExCor=  402 DFT=T Ex=B Corr=LYP ExCW=0 ScaHFX=  0.000000
 ScaDFX=  1.000000  1.000000  1.000000  1.000000 ScalE2=  1.000000  1.000000
 IRadAn=      5 IRanWt=     -1 IRanGd=            0 ICorTp=0 IEmpDi=  4
 NAtoms=    3 NActive=    3 NUniq=    3 SFac= 1.00D+00 NAtFMM=   60 NAOKFM=F Big=F
 Integral buffers will be    131072 words long.
 Raffenetti 2 integral format.
 Two-electron integral symmetry is turned on.
 Leave Link  301 at Wed Oct  7 14:48:16 2020, MaxMem=  2684354560 cpu:               2.1 elap:               0.6
 (Enter /udrive/faculty/rpeverati/g16/g16/l302.exe)
 NPDir=0 NMtPBC=     1 NCelOv=     1 NCel=       1 NClECP=     1 NCelD=      1
         NCelK=      1 NCelE2=     1 NClLst=     1 CellRange=     0.0.
 One-electron integrals computed using PRISM.
 One-electron integral symmetry used in STVInt
 NBasis=    30 RedAO= T EigKep=  6.53D-03  NBF=    16     2     6     6
 NBsUse=    30 1.00D-06 EigRej= -1.00D+00 NBFU=    16     2     6     6
 Precomputing XC quadrature grid using
 IXCGrd= 4 IRadAn=           5 IRanWt=          -1 IRanGd=           0 AccXCQ= 0.00D+00.
 Generated NRdTot=       0 NPtTot=           0 NUsed=           0 NTot=          32
 NSgBfM=    32    32    32    32    32 MxSgAt=     3 MxSgA2=     3.
 Leave Link  302 at Wed Oct  7 14:48:17 2020, MaxMem=  2684354560 cpu:               4.4 elap:               0.7
 (Enter /udrive/faculty/rpeverati/g16/g16/l303.exe)
 DipDrv:  MaxL=1.
 Leave Link  303 at Wed Oct  7 14:48:18 2020, MaxMem=  2684354560 cpu:               1.2 elap:               0.5
 (Enter /udrive/faculty/rpeverati/g16/g16/l401.exe)
 SCF N**3 symmetry information disabled.
 ExpMin= 1.61D-01 ExpMax= 4.17D+03 ExpMxC= 6.27D+02 IAcc=3 IRadAn=         5 AccDes= 0.00D+00
 Harris functional with IExCor=  402 and IRadAn=       5 diagonalized for initial guess.
 HarFok:  IExCor=  402 AccDes= 0.00D+00 IRadAn=         5 IDoV= 1 UseB2=F ITyADJ=14
 ICtDFT=  3500011 ScaDFX=  1.000000  1.000000  1.000000  1.000000
 FoFCou: FMM=F IPFlag=           0 FMFlag=      100000 FMFlg1=           0
         NFxFlg=           0 DoJE=T BraDBF=F KetDBF=T FulRan=T
         wScrn=  0.000000 ICntrl=       500 IOpCl=  0 I1Cent=   200000004 NGrid=           0
         NMat0=    1 NMatS0=      1 NMatT0=    0 NMatD0=    1 NMtDS0=    0 NMtDT0=    0
 Petite list used in FoFCou.
 Harris En= -93.3931896399393    
 JPrj=0 DoOrth=F DoCkMO=F.
 Initial guess orbital symmetries:
       Occupied  (SG) (SG) (SG) (SG) (PI) (PI) (SG)
       Virtual   (PI) (PI) (SG) (SG) (SG) (PI) (PI) (SG) (PI) (PI)
                 (SG) (SG) (SG) (PI) (PI) (DLTA) (DLTA) (DLTA)
                 (DLTA) (SG) (PI) (PI) (SG)
 The electronic state of the initial guess is 1-SG.
 Leave Link  401 at Wed Oct  7 14:48:19 2020, MaxMem=  2684354560 cpu:               5.0 elap:               0.8
 (Enter /udrive/faculty/rpeverati/g16/g16/l502.exe)
 Keep J ints in memory in symmetry-blocked form, NReq=10459988.
 FoFCou: FMM=F IPFlag=           0 FMFlag=           0 FMFlg1=           0
         NFxFlg=           0 DoJE=F BraDBF=F KetDBF=F FulRan=T
         wScrn=  0.000000 ICntrl=       600 IOpCl=  0 I1Cent=           0 NGrid=           0
         NMat0=    1 NMatS0=    465 NMatT0=    0 NMatD0=    1 NMtDS0=    0 NMtDT0=    0
 Petite list used in FoFCou.
 Closed shell SCF:
 Using DIIS extrapolation, IDIIS=  1040.
 NGot=  2684354560 LenX=  2684318858 LenY=  2684317393
 Requested convergence on RMS density matrix=1.00D-08 within 120 cycles.
 Requested convergence on MAX density matrix=1.00D-06.
 Requested convergence on             energy=1.00D-06.
 No special actions if energy rises.
 Integral accuracy reduced to 1.0D-05 until final iterations.

 Cycle   1  Pass 0  IDiag  1:
 E= -93.3344192628999    
 DIIS: error= 3.15D-02 at cycle   1 NSaved=   1.
 NSaved= 1 IEnMin= 1 EnMin= -93.3344192628999     IErMin= 1 ErrMin= 3.15D-02
 ErrMax= 3.15D-02  0.00D+00 EMaxC= 1.00D-01 BMatC= 3.17D-02 BMatP= 3.17D-02
 IDIUse=3 WtCom= 6.85D-01 WtEn= 3.15D-01
 Coeff-Com:  0.100D+01
 Coeff-En:   0.100D+01
 Coeff:      0.100D+01
 Gap=     0.254 Goal=   None    Shift=    0.000
 GapD=    0.254 DampG=1.000 DampE=0.500 DampFc=0.5000 IDamp=-1.
 Damping current iteration by 5.00D-01
 RMSDP=1.20D-02 MaxDP=1.06D-01              OVMax= 1.17D-01

 Cycle   2  Pass 0  IDiag  1:
 E= -93.3498783441254     Delta-E=       -0.015459081225 Rises=F Damp=T
 DIIS: error= 4.50D-03 at cycle   2 NSaved=   2.
 NSaved= 2 IEnMin= 2 EnMin= -93.3498783441254     IErMin= 2 ErrMin= 4.50D-03
 ErrMax= 4.50D-03  0.00D+00 EMaxC= 1.00D-01 BMatC= 5.19D-04 BMatP= 3.17D-02
 IDIUse=3 WtCom= 9.55D-01 WtEn= 4.50D-02
 Coeff-Com:  0.353D-01 0.965D+00
 Coeff-En:   0.562D-01 0.944D+00
 Coeff:      0.363D-01 0.964D+00
 Gap=     0.283 Goal=   None    Shift=    0.000
 RMSDP=2.78D-03 MaxDP=3.40D-02 DE=-1.55D-02 OVMax= 6.35D-02

 Cycle   3  Pass 0  IDiag  1:
 E= -93.3652921864526     Delta-E=       -0.015413842327 Rises=F Damp=F
 DIIS: error= 1.12D-02 at cycle   3 NSaved=   3.
 NSaved= 3 IEnMin= 3 EnMin= -93.3652921864526     IErMin= 2 ErrMin= 4.50D-03
 ErrMax= 1.12D-02  0.00D+00 EMaxC= 1.00D-01 BMatC= 2.17D-03 BMatP= 5.19D-04
 IDIUse=2 WtCom= 0.00D+00 WtEn= 1.00D+00
 Coeff-En:   0.000D+00 0.000D+00 0.100D+01
 Coeff:      0.000D+00 0.000D+00 0.100D+01
 Gap=     0.265 Goal=   None    Shift=    0.000
 RMSDP=4.44D-03 MaxDP=4.14D-02 DE=-1.54D-02 OVMax= 7.29D-02

 Cycle   4  Pass 0  IDiag  1:
 E= -93.3462265505584     Delta-E=        0.019065635894 Rises=F Damp=F
 DIIS: error= 3.67D-02 at cycle   4 NSaved=   4.
 NSaved= 4 IEnMin= 3 EnMin= -93.3652921864526     IErMin= 2 ErrMin= 4.50D-03
 ErrMax= 3.67D-02  0.00D+00 EMaxC= 1.00D-01 BMatC= 2.33D-02 BMatP= 5.19D-04
 IDIUse=2 WtCom= 0.00D+00 WtEn= 1.00D+00
 Coeff-En:   0.000D+00 0.000D+00 0.846D+00 0.154D+00
 Coeff:      0.000D+00 0.000D+00 0.846D+00 0.154D+00
 Gap=     0.257 Goal=   None    Shift=    0.000
 RMSDP=2.14D-03 MaxDP=2.06D-02 DE= 1.91D-02 OVMax= 3.65D-02

 Cycle   5  Pass 0  IDiag  1:
 E= -93.3648964450813     Delta-E=       -0.018669894523 Rises=F Damp=F
 DIIS: error= 1.24D-02 at cycle   5 NSaved=   5.
 NSaved= 5 IEnMin= 3 EnMin= -93.3652921864526     IErMin= 2 ErrMin= 4.50D-03
 ErrMax= 1.24D-02  0.00D+00 EMaxC= 1.00D-01 BMatC= 2.68D-03 BMatP= 5.19D-04
 IDIUse=2 WtCom= 0.00D+00 WtEn= 1.00D+00
 Coeff-En:   0.000D+00 0.000D+00 0.529D+00 0.000D+00 0.471D+00
 Coeff:      0.000D+00 0.000D+00 0.529D+00 0.000D+00 0.471D+00
 Gap=     0.253 Goal=   None    Shift=    0.000
 RMSDP=1.08D-03 MaxDP=1.06D-02 DE=-1.87D-02 OVMax= 1.82D-02

 Cycle   6  Pass 0  IDiag  1:
 E= -93.3673373269546     Delta-E=       -0.002440881873 Rises=F Damp=F
 DIIS: error= 4.67D-04 at cycle   6 NSaved=   6.
 NSaved= 6 IEnMin= 6 EnMin= -93.3673373269546     IErMin= 6 ErrMin= 4.67D-04
 ErrMax= 4.67D-04  0.00D+00 EMaxC= 1.00D-01 BMatC= 3.43D-06 BMatP= 5.19D-04
 IDIUse=3 WtCom= 9.95D-01 WtEn= 4.67D-03
 Coeff-Com: -0.475D-03 0.577D-03 0.967D-01-0.123D-01 0.934D-01 0.822D+00
 Coeff-En:   0.000D+00 0.000D+00 0.000D+00 0.000D+00 0.000D+00 0.100D+01
 Coeff:     -0.473D-03 0.575D-03 0.963D-01-0.122D-01 0.930D-01 0.823D+00
 Gap=     0.253 Goal=   None    Shift=    0.000
 RMSDP=5.42D-05 MaxDP=5.16D-04 DE=-2.44D-03 OVMax= 7.13D-04

 Cycle   7  Pass 0  IDiag  1:
 E= -93.3673407228954     Delta-E=       -0.000003395941 Rises=F Damp=F
 DIIS: error= 7.69D-06 at cycle   7 NSaved=   7.
 NSaved= 7 IEnMin= 7 EnMin= -93.3673407228954     IErMin= 7 ErrMin= 7.69D-06
 ErrMax= 7.69D-06  0.00D+00 EMaxC= 1.00D-01 BMatC= 1.66D-09 BMatP= 3.43D-06
 IDIUse=1 WtCom= 1.00D+00 WtEn= 0.00D+00
 Coeff-Com: -0.128D-03 0.908D-04 0.177D-01-0.398D-02 0.215D-01 0.156D+00
 Coeff-Com:  0.809D+00
 Coeff:     -0.128D-03 0.908D-04 0.177D-01-0.398D-02 0.215D-01 0.156D+00
 Coeff:      0.809D+00
 Gap=     0.253 Goal=   None    Shift=    0.000
 RMSDP=1.86D-06 MaxDP=3.34D-05 DE=-3.40D-06 OVMax= 1.19D-05

 Initial convergence to 1.0D-05 achieved.  Increase integral accuracy.
 Cycle   8  Pass 1  IDiag  1:
 E= -93.3673405191564     Delta-E=        0.000000203739 Rises=F Damp=F
 DIIS: error= 2.27D-06 at cycle   1 NSaved=   1.
 NSaved= 1 IEnMin= 1 EnMin= -93.3673405191564     IErMin= 1 ErrMin= 2.27D-06
 ErrMax= 2.27D-06  0.00D+00 EMaxC= 1.00D-01 BMatC= 9.54D-11 BMatP= 9.54D-11
 IDIUse=1 WtCom= 1.00D+00 WtEn= 0.00D+00
 Coeff-Com:  0.100D+01
 Coeff:      0.100D+01
 Gap=     0.253 Goal=   None    Shift=    0.000
 RMSDP=1.86D-06 MaxDP=3.34D-05 DE= 2.04D-07 OVMax= 1.37D-05

 Cycle   9  Pass 1  IDiag  1:
 E= -93.3673405184876     Delta-E=        0.000000000669 Rises=F Damp=F
 DIIS: error= 6.84D-06 at cycle   2 NSaved=   2.
 NSaved= 2 IEnMin= 1 EnMin= -93.3673405191564     IErMin= 1 ErrMin= 2.27D-06
 ErrMax= 6.84D-06  0.00D+00 EMaxC= 1.00D-01 BMatC= 8.27D-10 BMatP= 9.54D-11
 IDIUse=1 WtCom= 1.00D+00 WtEn= 0.00D+00
 Coeff-Com:  0.750D+00 0.250D+00
 Coeff:      0.750D+00 0.250D+00
 Gap=     0.253 Goal=   None    Shift=    0.000
 RMSDP=6.49D-07 MaxDP=6.26D-06 DE= 6.69D-10 OVMax= 1.08D-05

 Cycle  10  Pass 1  IDiag  1:
 E= -93.3673405192439     Delta-E=       -0.000000000756 Rises=F Damp=F
 DIIS: error= 1.77D-07 at cycle   3 NSaved=   3.
 NSaved= 3 IEnMin= 3 EnMin= -93.3673405192439     IErMin= 3 ErrMin= 1.77D-07
 ErrMax= 1.77D-07  0.00D+00 EMaxC= 1.00D-01 BMatC= 1.05D-12 BMatP= 9.54D-11
 IDIUse=1 WtCom= 1.00D+00 WtEn= 0.00D+00
 Coeff-Com:  0.102D+00 0.585D-01 0.839D+00
 Coeff:      0.102D+00 0.585D-01 0.839D+00
 Gap=     0.253 Goal=   None    Shift=    0.000
 RMSDP=2.78D-08 MaxDP=2.62D-07 DE=-7.56D-10 OVMax= 3.02D-07

 Cycle  11  Pass 1  IDiag  1:
 E= -93.3673405192447     Delta-E=       -0.000000000001 Rises=F Damp=F
 DIIS: error= 7.25D-08 at cycle   4 NSaved=   4.
 NSaved= 4 IEnMin= 4 EnMin= -93.3673405192447     IErMin= 4 ErrMin= 7.25D-08
 ErrMax= 7.25D-08  0.00D+00 EMaxC= 1.00D-01 BMatC= 1.49D-13 BMatP= 1.05D-12
 IDIUse=1 WtCom= 1.00D+00 WtEn= 0.00D+00
 Coeff-Com: -0.775D-03 0.139D-01 0.382D+00 0.604D+00
 Coeff:     -0.775D-03 0.139D-01 0.382D+00 0.604D+00
 Gap=     0.253 Goal=   None    Shift=    0.000
 RMSDP=1.37D-08 MaxDP=1.11D-07 DE=-7.67D-13 OVMax= 1.34D-07

 Cycle  12  Pass 1  IDiag  1:
 E= -93.3673405192450     Delta-E=       -0.000000000000 Rises=F Damp=F
 DIIS: error= 6.81D-09 at cycle   5 NSaved=   5.
 NSaved= 5 IEnMin= 5 EnMin= -93.3673405192450     IErMin= 5 ErrMin= 6.81D-09
 ErrMax= 6.81D-09  0.00D+00 EMaxC= 1.00D-01 BMatC= 1.40D-15 BMatP= 1.49D-13
 IDIUse=1 WtCom= 1.00D+00 WtEn= 0.00D+00
 Coeff-Com: -0.218D-02 0.213D-02 0.873D-01 0.176D+00 0.736D+00
 Coeff:     -0.218D-02 0.213D-02 0.873D-01 0.176D+00 0.736D+00
 Gap=     0.253 Goal=   None    Shift=    0.000
 RMSDP=1.75D-09 MaxDP=2.70D-08 DE=-2.84D-13 OVMax= 1.46D-08

 SCF Done:  E(RB-LYP) =  -93.3673405192     A.U. after   12 cycles
            NFock= 12  Conv=0.17D-08     -V/T= 2.0054
 KE= 9.286974299557D+01 PE=-2.661978402642D+02 EE= 5.576347291879D+01
 Leave Link  502 at Wed Oct  7 14:48:20 2020, MaxMem=  2684354560 cpu:              11.2 elap:               1.4
 (Enter /udrive/faculty/rpeverati/g16/g16/l508.exe)
 QCSCF skips out because SCF is already converged.
 Leave Link  508 at Wed Oct  7 14:48:21 2020, MaxMem=  2684354560 cpu:               0.3 elap:               0.5
 (Enter /udrive/faculty/rpeverati/g16/g16/l601.exe)
 Copying SCF densities to generalized density rwf, IOpCl= 0 IROHF=0.

 **********************************************************************

            Population analysis using the SCF density.

 **********************************************************************

 Orbital symmetries:
       Occupied  (SG) (SG) (SG) (SG) (PI) (PI) (SG)
       Virtual   (PI) (PI) (SG) (SG) (SG) (PI) (PI) (SG) (PI) (PI)
                 (SG) (SG) (SG) (PI) (PI) (DLTA) (DLTA) (DLTA)
                 (DLTA) (SG) (PI) (PI) (SG)
 The electronic state is 1-SG.
 Alpha  occ. eigenvalues --  -14.05833  -9.95985  -0.85077  -0.60003  -0.32100
 Alpha  occ. eigenvalues --   -0.32100  -0.25316
 Alpha virt. eigenvalues --   -0.00021  -0.00021   0.04165   0.32621   0.47380
 Alpha virt. eigenvalues --    0.51268   0.51268   0.60890   0.68110   0.68110
 Alpha virt. eigenvalues --    0.87331   1.14179   1.38369   1.45631   1.45631
 Alpha virt. eigenvalues --    1.45744   1.45744   1.87628   1.87628   2.34651
 Alpha virt. eigenvalues --    2.45614   2.45614   3.01757
          Condensed to atoms (all electrons):
               1          2          3
     1  C    5.400346   0.629406  -0.030197
     2  N    0.629406   6.415796   0.288813
     3  H   -0.030197   0.288813   0.407814
 Mulliken charges:
               1
     1  C    0.000445
     2  N   -0.334015
     3  H    0.333570
 Sum of Mulliken charges =  -0.00000
 Mulliken charges with hydrogens summed into heavy atoms:
               1
     1  C    0.000445
     2  N   -0.000445
 Electronic spatial extent (au):  <R**2>=             48.0731
 Charge=             -0.0000 electrons
 Dipole moment (field-independent basis, Debye):
    X=              0.0000    Y=             -0.0000    Z=              2.9694  Tot=              2.9694
 Quadrupole moment (field-independent basis, Debye-Ang):
   XX=            -11.4412   YY=            -11.4412   ZZ=            -10.0560
   XY=              0.0000   XZ=              0.0000   YZ=              0.0000
 Traceless Quadrupole moment (field-independent basis, Debye-Ang):
   XX=             -0.4617   YY=             -0.4617   ZZ=              0.9235
   XY=              0.0000   XZ=              0.0000   YZ=              0.0000
 Octapole moment (field-independent basis, Debye-Ang**2):
  XXX=              0.0000  YYY=              0.0000  ZZZ=             12.7551  XYY=              0.0000
  XXY=             -0.0000  XXZ=              1.1738  XZZ=              0.0000  YZZ=             -0.0000
  YYZ=              1.1738  XYZ=             -0.0000
 Hexadecapole moment (field-independent basis, Debye-Ang**3):
 XXXX=            -10.2435 YYYY=            -10.2435 ZZZZ=            -39.1885 XXXY=              0.0000
 XXXZ=              0.0000 YYYX=              0.0000 YYYZ=              0.0000 ZZZX=              0.0000
 ZZZY=              0.0000 XXYY=             -3.4145 XXZZ=             -8.7970 YYZZ=             -8.7970
 XXYZ=              0.0000 YYXZ=              0.0000 ZZXY=              0.0000
 N-N= 2.419728383058D+01 E-N=-2.661978404337D+02  KE= 9.286974299557D+01
 No NMR shielding tensors so no spin-rotation constants.
 Leave Link  601 at Wed Oct  7 14:48:22 2020, MaxMem=  2684354560 cpu:               4.0 elap:               0.8
 (Enter /udrive/faculty/rpeverati/g16/g16/l701.exe)
 ... and contract with generalized density number  0.
 Compute integral first derivatives.
 Leave Link  701 at Wed Oct  7 14:48:23 2020, MaxMem=  2684354560 cpu:               4.2 elap:               0.7
 (Enter /udrive/faculty/rpeverati/g16/g16/l702.exe)
 L702 exits ... SP integral derivatives will be done elsewhere.
 Leave Link  702 at Wed Oct  7 14:48:24 2020, MaxMem=  2684354560 cpu:               2.2 elap:               0.6
 (Enter /udrive/faculty/rpeverati/g16/g16/l703.exe)
 Integral derivatives from FoFJK, PRISM(SPDF).
 Compute integral first derivatives, UseDBF=F ICtDFT=           0.
 Calling FoFJK, ICntrl=      2527 FMM=F ISym2X=1 I1Cent= 0 IOpClX= 0 NMat=1 NMatS=1 NMatT=0.
 FoFJK:  IHMeth= 1 ICntrl=    2527 DoSepK=F KAlg= 0 I1Cent=           0 FoldK=F
 IRaf=         0 NMat=       1 IRICut=       1 DoRegI=T DoRafI=F ISym2E= 1 IDoP0=0 IntGTp=1.
 FoFCou: FMM=F IPFlag=           0 FMFlag=      100000 FMFlg1=         800
         NFxFlg=           0 DoJE=F BraDBF=F KetDBF=F FulRan=T
         wScrn=  0.000000 ICntrl=      2527 IOpCl=  0 I1Cent=           0 NGrid=           0
         NMat0=    1 NMatS0=      1 NMatT0=    0 NMatD0=    1 NMtDS0=    0 NMtDT0=    0
 Petite list used in FoFCou.
 Leave Link  703 at Wed Oct  7 14:48:25 2020, MaxMem=  2684354560 cpu:               4.7 elap:               0.7
 (Enter /udrive/faculty/rpeverati/g16/g16/l716.exe)
 Dipole        = 0.00000000D+00-2.54256455D-32 1.16826214D+00
 ***** Axes restored to original set *****
 -------------------------------------------------------------------
 Center     Atomic                   Forces (Hartrees/Bohr)
 Number     Number              X              Y              Z
 -------------------------------------------------------------------
      1        6          -0.000000000   -0.000000000   -0.040062891
      2        7           0.000000000    0.000000000    0.027734650
      3        1          -0.000000000   -0.000000000    0.012328241
 -------------------------------------------------------------------
 Cartesian Forces:  Max     0.040062891 RMS     0.016753877
 Leave Link  716 at Wed Oct  7 14:48:26 2020, MaxMem=  2684354560 cpu:               2.0 elap:               0.6
 (Enter /udrive/faculty/rpeverati/g16/g16/l103.exe)

 GradGradGradGradGradGradGradGradGradGradGradGradGradGradGradGradGradGrad
 Berny optimization.
 Optmz: redundant internal coordinate code flag= 1
 FormGI is forming the generalized inverse of G from B-inverse, IUseBI=4.
 Internal  Forces:  Max     0.040062891 RMS     0.020958416
 Search for a local minimum.
 Step number   1 out of a maximum of  100
 All quantities printed in internal units (Hartrees-Bohrs-Radians)
 RMS Force = .20958D-01 SwitMx=.10000D-02 MixMth= 1
 Mixed Optimization -- RFO/linear search
 Second derivative matrix not updated -- first step.
 The second derivative matrix:
                          R1        R2        A1        A2
           R1           1.21873
           R2           0.00000   0.48602
           A1           0.00000   0.00000   0.01096
           A2           0.00000   0.00000   0.00000   0.01096
 ITU=  0
 Eigenvectors of the second derivative matrix:
                           1         2         3         4
     Eigenvalues --     0.01096   0.01096   0.48602   1.21873
   1         R1        -0.00000   0.00000   0.00000  -1.00000
   2         R2         0.00000  -0.00000   1.00000   0.00000
   3         A1         0.90953   0.41565   0.00000   0.00000
   4         A2        -0.41565   0.90953   0.00000   0.00000
 Iter=   1 RLamda= 0.00000000D+00 Sum=-1.62969268D-03.
 Iter=   2 RLamda=-1.62969268D-03 Sum=-1.62688888D-03.
 Iter=   3 RLamda=-1.62688888D-03 Sum=-1.62689369D-03.
 RFO step:  Lambda=-1.62688888D-03 EMin= 1.09624103D-02
 Linear search not attempted -- first point.
 Iteration  1 RMS(Cart)=  0.02060272 RMS(Int)=  0.00000000
 Iteration  2 RMS(Cart)=  0.00000000 RMS(Int)=  0.00000000
 ITry= 1 IFail=0 DXMaxC= 3.03D-02 DCOld= 1.00D+10 DXMaxT= 3.00D-01 DXLimC= 3.00D+00 Rises=F
 ClnCor:  largest displacement from symmetrization is 0.00D+00 for atom     0.
 Variable       Old X    -DE/DX   Delta X   Delta X   Delta X     New X
                                 (Linear)    (Quad)   (Total)
    R1        2.20973   0.04006   0.00000   0.03283   0.03283   2.24256
    R2        1.88003   0.01233   0.00000   0.02528   0.02528   1.90531
    A1        3.14159  -0.00000   0.00000   0.00000   0.00000   3.14159
    A2        3.14159   0.00000   0.00000   0.00000   0.00000   3.14159
         Item               Value     Threshold  Converged?
 Maximum Force            0.040063     0.000450     NO 
 RMS     Force            0.020958     0.000300     NO 
 Maximum Displacement     0.030313     0.001800     NO 
 RMS     Displacement     0.020603     0.001200     NO 
 Predicted change in Energy=-8.148434D-04
 Lowest energy point so far.  Saving SCF results.
 Largest change from initial coordinates is atom    1       0.015 Angstoms.
 GradGradGradGradGradGradGradGradGradGradGradGradGradGradGradGradGradGrad

 Leave Link  103 at Wed Oct  7 14:48:26 2020, MaxMem=  2684354560 cpu:               2.1 elap:               0.6
 (Enter /udrive/faculty/rpeverati/g16/g16/l202.exe)
                          Input orientation:                          
 ---------------------------------------------------------------------
 Center     Atomic      Atomic             Coordinates (Angstroms)
 Number     Number       Type             X           Y           Z
 ---------------------------------------------------------------------
      1          6           0        0.000000    0.000000   -0.755296
      2          7           0        0.000000    0.000000    0.431414
      3          1           0        0.000000    0.000000    1.439662
 ---------------------------------------------------------------------
                    Distance matrix (angstroms):
                    1          2          3
     1  C    0.000000
     2  N    1.186710   0.000000
     3  H    2.194958   1.008248   0.000000
 Stoichiometry    CHN
 Framework group  C*V[C*(CNH)]
 Deg. of freedom     2
 Full point group                 C*V     NOp   4
 RotChk:  IX=0 Diff= 0.00D+00
 Largest Abelian subgroup         C2V     NOp   4
 Largest concise Abelian subgroup C1      NOp   1
                         Standard orientation:                         
 ---------------------------------------------------------------------
 Center     Atomic      Atomic             Coordinates (Angstroms)
 Number     Number       Type             X           Y           Z
 ---------------------------------------------------------------------
      1          6           0        0.000000    0.000000   -0.750138
      2          7           0        0.000000    0.000000    0.436572
      3          1           0        0.000000    0.000000    1.444821
 ---------------------------------------------------------------------
 Rotational constants (GHZ):           0.0000000          44.1405843          44.1405843
 Leave Link  202 at Wed Oct  7 14:48:27 2020, MaxMem=  2684354560 cpu:               1.0 elap:               0.4
 (Enter /udrive/faculty/rpeverati/g16/g16/l301.exe)
 Standard basis: 6-31G(d) (5D, 7F)
 Ernie: Thresh=  0.10000D-02 Tol=  0.10000D-05 Strict=F.
 There are    18 symmetry adapted cartesian basis functions of A1  symmetry.
 There are     2 symmetry adapted cartesian basis functions of A2  symmetry.
 There are     6 symmetry adapted cartesian basis functions of B1  symmetry.
 There are     6 symmetry adapted cartesian basis functions of B2  symmetry.
 There are    16 symmetry adapted basis functions of A1  symmetry.
 There are     2 symmetry adapted basis functions of A2  symmetry.
 There are     6 symmetry adapted basis functions of B1  symmetry.
 There are     6 symmetry adapted basis functions of B2  symmetry.
    30 basis functions,    60 primitive gaussians,    32 cartesian basis functions
     7 alpha electrons        7 beta electrons
       nuclear repulsion energy        23.8490839055 Hartrees.
 IExCor=  402 DFT=T Ex=B Corr=LYP ExCW=0 ScaHFX=  0.000000
 ScaDFX=  1.000000  1.000000  1.000000  1.000000 ScalE2=  1.000000  1.000000
 IRadAn=      5 IRanWt=     -1 IRanGd=            0 ICorTp=0 IEmpDi=  4
 NAtoms=    3 NActive=    3 NUniq=    3 SFac= 1.00D+00 NAtFMM=   60 NAOKFM=F Big=F
 Integral buffers will be    131072 words long.
 Raffenetti 2 integral format.
 Two-electron integral symmetry is turned on.
 Leave Link  301 at Wed Oct  7 14:48:28 2020, MaxMem=  2684354560 cpu:               1.5 elap:               0.5
 (Enter /udrive/faculty/rpeverati/g16/g16/l302.exe)
 NPDir=0 NMtPBC=     1 NCelOv=     1 NCel=       1 NClECP=     1 NCelD=      1
         NCelK=      1 NCelE2=     1 NClLst=     1 CellRange=     0.0.
 One-electron integrals computed using PRISM.
 One-electron integral symmetry used in STVInt
 NBasis=    30 RedAO= T EigKep=  6.94D-03  NBF=    16     2     6     6
 NBsUse=    30 1.00D-06 EigRej= -1.00D+00 NBFU=    16     2     6     6
 Precomputing XC quadrature grid using
 IXCGrd= 4 IRadAn=           5 IRanWt=          -1 IRanGd=           0 AccXCQ= 0.00D+00.
 Generated NRdTot=       0 NPtTot=           0 NUsed=           0 NTot=          32
 NSgBfM=    32    32    32    32    32 MxSgAt=     3 MxSgA2=     3.
 Leave Link  302 at Wed Oct  7 14:48:29 2020, MaxMem=  2684354560 cpu:               3.4 elap:               0.6
 (Enter /udrive/faculty/rpeverati/g16/g16/l303.exe)
 DipDrv:  MaxL=1.
 Leave Link  303 at Wed Oct  7 14:48:29 2020, MaxMem=  2684354560 cpu:               1.4 elap:               0.4
 (Enter /udrive/faculty/rpeverati/g16/g16/l401.exe)
 Initial guess from the checkpoint file:  "MN_60_hnc_BH76_BLYP_631Gs.chk"
 SCF N**3 symmetry information disabled.
 B after Tr=     0.000000    0.000000   -0.000000
         Rot=    1.000000    0.000000    0.000000    0.000000 Ang=   0.00 deg.
 Guess basis will be translated and rotated to current coordinates.
 JPrj=2 DoOrth=T DoCkMO=T.
 Initial guess orbital symmetries:
       Occupied  (SG) (SG) (SG) (SG) (PI) (PI) (SG)
       Virtual   (PI) (PI) (SG) (SG) (SG) (PI) (PI) (SG) (PI) (PI)
                 (SG) (SG) (SG) (PI) (PI) (DLTA) (DLTA) (DLTA)
                 (DLTA) (SG) (PI) (PI) (SG)
 The electronic state of the initial guess is 1-SG.
 Generating alternative initial guess.
 ExpMin= 1.61D-01 ExpMax= 4.17D+03 ExpMxC= 6.27D+02 IAcc=2 IRadAn=         4 AccDes= 0.00D+00
 Harris functional with IExCor=  402 and IRadAn=       4 diagonalized for initial guess.
 HarFok:  IExCor=  402 AccDes= 0.00D+00 IRadAn=         4 IDoV= 1 UseB2=F ITyADJ=14
 ICtDFT=  3500011 ScaDFX=  1.000000  1.000000  1.000000  1.000000
 FoFCou: FMM=F IPFlag=           0 FMFlag=      100000 FMFlg1=           0
         NFxFlg=           0 DoJE=T BraDBF=F KetDBF=T FulRan=T
         wScrn=  0.000000 ICntrl=       500 IOpCl=  0 I1Cent=   200000004 NGrid=           0
         NMat0=    1 NMatS0=      1 NMatT0=    0 NMatD0=    1 NMtDS0=    0 NMtDT0=    0
 Petite list used in FoFCou.
 Harris En= -93.3904716761888    
 Leave Link  401 at Wed Oct  7 14:48:30 2020, MaxMem=  2684354560 cpu:               5.5 elap:               0.8
 (Enter /udrive/faculty/rpeverati/g16/g16/l502.exe)
 Keep J ints in memory in symmetry-blocked form, NReq=10459988.
 FoFCou: FMM=F IPFlag=           0 FMFlag=           0 FMFlg1=           0
         NFxFlg=           0 DoJE=F BraDBF=F KetDBF=F FulRan=T
         wScrn=  0.000000 ICntrl=       600 IOpCl=  0 I1Cent=           0 NGrid=           0
         NMat0=    1 NMatS0=    465 NMatT0=    0 NMatD0=    1 NMtDS0=    0 NMtDT0=    0
 Petite list used in FoFCou.
 Closed shell SCF:
 Using DIIS extrapolation, IDIIS=  1040.
 NGot=  2684354560 LenX=  2684318858 LenY=  2684317393
 Requested convergence on RMS density matrix=1.00D-08 within 120 cycles.
 Requested convergence on MAX density matrix=1.00D-06.
 Requested convergence on             energy=1.00D-06.
 No special actions if energy rises.
 Integral accuracy reduced to 1.0D-05 until final iterations.

 Cycle   1  Pass 0  IDiag  1:
 E= -93.3680059241853    
 DIIS: error= 2.16D-03 at cycle   1 NSaved=   1.
 NSaved= 1 IEnMin= 1 EnMin= -93.3680059241853     IErMin= 1 ErrMin= 2.16D-03
 ErrMax= 2.16D-03  0.00D+00 EMaxC= 1.00D-01 BMatC= 1.76D-04 BMatP= 1.76D-04
 IDIUse=3 WtCom= 9.78D-01 WtEn= 2.16D-02
 Coeff-Com:  0.100D+01
 Coeff-En:   0.100D+01
 Coeff:      0.100D+01
 Gap=     0.251 Goal=   None    Shift=    0.000
 GapD=    0.251 DampG=1.000 DampE=1.000 DampFc=1.0000 IDamp=-1.
 RMSDP=8.24D-04 MaxDP=5.88D-03              OVMax= 7.20D-03

 Cycle   2  Pass 0  IDiag  1:
 E= -93.3680366031417     Delta-E=       -0.000030678956 Rises=F Damp=F
 DIIS: error= 2.29D-03 at cycle   2 NSaved=   2.
 NSaved= 2 IEnMin= 2 EnMin= -93.3680366031417     IErMin= 1 ErrMin= 2.16D-03
 ErrMax= 2.29D-03  0.00D+00 EMaxC= 1.00D-01 BMatC= 1.91D-04 BMatP= 1.76D-04
 IDIUse=3 WtCom= 9.77D-01 WtEn= 2.29D-02
 Coeff-Com:  0.513D+00 0.487D+00
 Coeff-En:   0.443D+00 0.557D+00
 Coeff:      0.511D+00 0.489D+00
 Gap=     0.249 Goal=   None    Shift=    0.000
 RMSDP=4.55D-04 MaxDP=5.78D-03 DE=-3.07D-05 OVMax= 7.63D-03

 Cycle   3  Pass 0  IDiag  1:
 E= -93.3680901187240     Delta-E=       -0.000053515582 Rises=F Damp=F
 DIIS: error= 2.59D-03 at cycle   3 NSaved=   3.
 NSaved= 3 IEnMin= 3 EnMin= -93.3680901187240     IErMin= 1 ErrMin= 2.16D-03
 ErrMax= 2.59D-03  0.00D+00 EMaxC= 1.00D-01 BMatC= 1.21D-04 BMatP= 1.76D-04
 IDIUse=3 WtCom= 9.74D-01 WtEn= 2.59D-02
 Coeff-Com:  0.195D+00 0.403D+00 0.402D+00
 Coeff-En:   0.000D+00 0.424D+00 0.576D+00
 Coeff:      0.190D+00 0.404D+00 0.407D+00
 Gap=     0.251 Goal=   None    Shift=    0.000
 RMSDP=3.35D-04 MaxDP=3.13D-03 DE=-5.35D-05 OVMax= 5.23D-03

 Cycle   4  Pass 0  IDiag  1:
 E= -93.3681895397605     Delta-E=       -0.000099421036 Rises=F Damp=F
 DIIS: error= 7.48D-04 at cycle   4 NSaved=   4.
 NSaved= 4 IEnMin= 4 EnMin= -93.3681895397605     IErMin= 4 ErrMin= 7.48D-04
 ErrMax= 7.48D-04  0.00D+00 EMaxC= 1.00D-01 BMatC= 1.05D-05 BMatP= 1.21D-04
 IDIUse=3 WtCom= 9.93D-01 WtEn= 7.48D-03
 Coeff-Com:  0.210D-01 0.141D+00 0.278D+00 0.560D+00
 Coeff-En:   0.000D+00 0.000D+00 0.139D+00 0.861D+00
 Coeff:      0.208D-01 0.140D+00 0.277D+00 0.562D+00
 Gap=     0.250 Goal=   None    Shift=    0.000
 RMSDP=9.46D-05 MaxDP=7.66D-04 DE=-9.94D-05 OVMax= 1.26D-03

 Cycle   5  Pass 0  IDiag  1:
 E= -93.3682009750238     Delta-E=       -0.000011435263 Rises=F Damp=F
 DIIS: error= 2.02D-05 at cycle   5 NSaved=   5.
 NSaved= 5 IEnMin= 5 EnMin= -93.3682009750238     IErMin= 5 ErrMin= 2.02D-05
 ErrMax= 2.02D-05  0.00D+00 EMaxC= 1.00D-01 BMatC= 7.38D-09 BMatP= 1.05D-05
 IDIUse=1 WtCom= 1.00D+00 WtEn= 0.00D+00
 Coeff-Com:  0.916D-03 0.161D-01 0.421D-01 0.970D-01 0.844D+00
 Coeff:      0.916D-03 0.161D-01 0.421D-01 0.970D-01 0.844D+00
 Gap=     0.250 Goal=   None    Shift=    0.000
 RMSDP=3.27D-06 MaxDP=3.47D-05 DE=-1.14D-05 OVMax= 4.46D-05

 Initial convergence to 1.0D-05 achieved.  Increase integral accuracy.
 Cycle   6  Pass 1  IDiag  1:
 E= -93.3682003773019     Delta-E=        0.000000597722 Rises=F Damp=F
 DIIS: error= 3.50D-06 at cycle   1 NSaved=   1.
 NSaved= 1 IEnMin= 1 EnMin= -93.3682003773019     IErMin= 1 ErrMin= 3.50D-06
 ErrMax= 3.50D-06  0.00D+00 EMaxC= 1.00D-01 BMatC= 2.22D-10 BMatP= 2.22D-10
 IDIUse=1 WtCom= 1.00D+00 WtEn= 0.00D+00
 Coeff-Com:  0.100D+01
 Coeff:      0.100D+01
 Gap=     0.250 Goal=   None    Shift=    0.000
 RMSDP=3.27D-06 MaxDP=3.47D-05 DE= 5.98D-07 OVMax= 2.12D-05

 Cycle   7  Pass 1  IDiag  1:
 E= -93.3682003758423     Delta-E=        0.000000001460 Rises=F Damp=F
 DIIS: error= 1.02D-05 at cycle   2 NSaved=   2.
 NSaved= 2 IEnMin= 1 EnMin= -93.3682003773019     IErMin= 1 ErrMin= 3.50D-06
 ErrMax= 1.02D-05  0.00D+00 EMaxC= 1.00D-01 BMatC= 1.85D-09 BMatP= 2.22D-10
 IDIUse=1 WtCom= 1.00D+00 WtEn= 0.00D+00
 Coeff-Com:  0.754D+00 0.246D+00
 Coeff:      0.754D+00 0.246D+00
 Gap=     0.250 Goal=   None    Shift=    0.000
 RMSDP=9.52D-07 MaxDP=9.66D-06 DE= 1.46D-09 OVMax= 1.64D-05

 Cycle   8  Pass 1  IDiag  1:
 E= -93.3682003775239     Delta-E=       -0.000000001682 Rises=F Damp=F
 DIIS: error= 4.62D-07 at cycle   3 NSaved=   3.
 NSaved= 3 IEnMin= 3 EnMin= -93.3682003775239     IErMin= 3 ErrMin= 4.62D-07
 ErrMax= 4.62D-07  0.00D+00 EMaxC= 1.00D-01 BMatC= 6.99D-12 BMatP= 2.22D-10
 IDIUse=1 WtCom= 1.00D+00 WtEn= 0.00D+00
 Coeff-Com:  0.194D+00 0.893D-01 0.716D+00
 Coeff:      0.194D+00 0.893D-01 0.716D+00
 Gap=     0.250 Goal=   None    Shift=    0.000
 RMSDP=1.24D-07 MaxDP=2.26D-06 DE=-1.68D-09 OVMax= 1.02D-06

 Cycle   9  Pass 1  IDiag  1:
 E= -93.3682003775306     Delta-E=       -0.000000000007 Rises=F Damp=F
 DIIS: error= 6.53D-08 at cycle   4 NSaved=   4.
 NSaved= 4 IEnMin= 4 EnMin= -93.3682003775306     IErMin= 4 ErrMin= 6.53D-08
 ErrMax= 6.53D-08  0.00D+00 EMaxC= 1.00D-01 BMatC= 1.65D-13 BMatP= 6.99D-12
 IDIUse=1 WtCom= 1.00D+00 WtEn= 0.00D+00
 Coeff-Com:  0.556D-01 0.244D-01 0.243D+00 0.676D+00
 Coeff:      0.556D-01 0.244D-01 0.243D+00 0.676D+00
 Gap=     0.250 Goal=   None    Shift=    0.000
 RMSDP=2.16D-08 MaxDP=2.16D-07 DE=-6.71D-12 OVMax= 1.94D-07

 Cycle  10  Pass 1  IDiag  1:
 E= -93.3682003775308     Delta-E=       -0.000000000000 Rises=F Damp=F
 DIIS: error= 2.75D-08 at cycle   5 NSaved=   5.
 NSaved= 5 IEnMin= 5 EnMin= -93.3682003775308     IErMin= 5 ErrMin= 2.75D-08
 ErrMax= 2.75D-08  0.00D+00 EMaxC= 1.00D-01 BMatC= 2.01D-14 BMatP= 1.65D-13
 IDIUse=1 WtCom= 1.00D+00 WtEn= 0.00D+00
 Coeff-Com: -0.591D-03 0.371D-03 0.162D-01 0.273D+00 0.711D+00
 Coeff:     -0.591D-03 0.371D-03 0.162D-01 0.273D+00 0.711D+00
 Gap=     0.250 Goal=   None    Shift=    0.000
 RMSDP=4.19D-09 MaxDP=2.43D-08 DE=-2.27D-13 OVMax= 4.38D-08

 SCF Done:  E(RB-LYP) =  -93.3682003775     A.U. after   10 cycles
            NFock= 10  Conv=0.42D-08     -V/T= 2.0064
 KE= 9.277194168283D+01 PE=-2.654390131576D+02 EE= 5.544978719172D+01
 Leave Link  502 at Wed Oct  7 14:48:32 2020, MaxMem=  2684354560 cpu:               9.8 elap:               1.1
 (Enter /udrive/faculty/rpeverati/g16/g16/l508.exe)
 QCSCF skips out because SCF is already converged.
 Leave Link  508 at Wed Oct  7 14:48:32 2020, MaxMem=  2684354560 cpu:               0.2 elap:               0.3
 (Enter /udrive/faculty/rpeverati/g16/g16/l701.exe)
 ... and contract with generalized density number  0.
 Compute integral first derivatives.
 Leave Link  701 at Wed Oct  7 14:48:33 2020, MaxMem=  2684354560 cpu:               3.8 elap:               0.6
 (Enter /udrive/faculty/rpeverati/g16/g16/l702.exe)
 L702 exits ... SP integral derivatives will be done elsewhere.
 Leave Link  702 at Wed Oct  7 14:48:33 2020, MaxMem=  2684354560 cpu:               1.1 elap:               0.4
 (Enter /udrive/faculty/rpeverati/g16/g16/l703.exe)
 Integral derivatives from FoFJK, PRISM(SPDF).
 Compute integral first derivatives, UseDBF=F ICtDFT=           0.
 Calling FoFJK, ICntrl=      2527 FMM=F ISym2X=1 I1Cent= 0 IOpClX= 0 NMat=1 NMatS=1 NMatT=0.
 FoFJK:  IHMeth= 1 ICntrl=    2527 DoSepK=F KAlg= 0 I1Cent=           0 FoldK=F
 IRaf=         0 NMat=       1 IRICut=       1 DoRegI=T DoRafI=F ISym2E= 1 IDoP0=0 IntGTp=1.
 FoFCou: FMM=F IPFlag=           0 FMFlag=      100000 FMFlg1=         800
         NFxFlg=           0 DoJE=F BraDBF=F KetDBF=F FulRan=T
         wScrn=  0.000000 ICntrl=      2527 IOpCl=  0 I1Cent=           0 NGrid=           0
         NMat0=    1 NMatS0=      1 NMatT0=    0 NMatD0=    1 NMtDS0=    0 NMtDT0=    0
 Petite list used in FoFCou.
 Leave Link  703 at Wed Oct  7 14:48:34 2020, MaxMem=  2684354560 cpu:               4.8 elap:               0.8
 (Enter /udrive/faculty/rpeverati/g16/g16/l716.exe)
 Dipole        = 0.00000000D+00 6.46221577D-32 1.15385405D+00
 ***** Axes restored to original set *****
 -------------------------------------------------------------------
 Center     Atomic                   Forces (Hartrees/Bohr)
 Number     Number              X              Y              Z
 -------------------------------------------------------------------
      1        6           0.000000000    0.000000000   -0.003414279
      2        7          -0.000000000   -0.000000000    0.003088967
      3        1          -0.000000000   -0.000000000    0.000325312
 -------------------------------------------------------------------
 Cartesian Forces:  Max     0.003414279 RMS     0.001538572
 Leave Link  716 at Wed Oct  7 14:48:35 2020, MaxMem=  2684354560 cpu:               1.3 elap:               0.4
 (Enter /udrive/faculty/rpeverati/g16/g16/l103.exe)

 GradGradGradGradGradGradGradGradGradGradGradGradGradGradGradGradGradGrad
 Berny optimization.
 Optmz: redundant internal coordinate code flag= 1
 Using GEDIIS/GDIIS optimizer.
 Red2BG:  D1=  1.00D+00 OD1=  3.33D-16 B2RMS=  0.00D+00 IAprox=1
 Red2BG is reusing G-inverse.
 Internal  Forces:  Max     0.003414279 RMS     0.001714871
 Search for a local minimum.
 Step number   2 out of a maximum of  100
 All quantities printed in internal units (Hartrees-Bohrs-Radians)
 RMS Force = .17149D-02 SwitMx=.10000D-02 MixMth= 1
 Mixed Optimization -- RFO/linear search
 Update second derivatives using D2CorX and points    1    2
 DE= -8.60D-04 DEPred=-8.15D-04 R= 1.06D+00
 TightC=F SS=  1.41D+00  RLast= 4.14D-02 DXNew= 5.0454D-01 1.2431D-01
 Trust test= 1.06D+00 RLast= 4.14D-02 DXMaxT set to 3.00D-01
 The second derivative matrix:
                          R1        R2        A1        A2
           R1           1.12460
           R2          -0.01071   0.48869
           A1          -0.00000  -0.00000   0.01096
           A2           0.00000   0.00000  -0.00000   0.01096
 ITU=  1  0
 Use linear search instead of GDIIS.
 Eigenvectors of the second derivative matrix:
                           1         2         3         4
     Eigenvalues --     0.01096   0.01096   0.48851   1.12478
   1         R1         0.00000   0.00000  -0.01684  -0.99986
   2         R2        -0.00000  -0.00000  -0.99986   0.01684
   3         A1        -0.00000   1.00000   0.00000   0.00000
   4         A2         1.00000   0.00000  -0.00000   0.00000
 Iter=   1 RLamda= 0.00000000D+00 Sum=-8.63127253D-07.
 Iter=   2 RLamda=-8.63127253D-07 Sum=-8.63125915D-07.
 RFO step:  Lambda=-8.63127253D-07 EMin= 1.09624103D-02
 Quartic linear search produced a step of  0.08484.
 Iteration  1 RMS(Cart)=  0.00152981 RMS(Int)=  0.00000000
 Iteration  2 RMS(Cart)=  0.00000000 RMS(Int)=  0.00000000
 ITry= 1 IFail=0 DXMaxC= 2.44D-03 DCOld= 1.00D+10 DXMaxT= 3.00D-01 DXLimC= 3.00D+00 Rises=F
 ClnCor:  largest displacement from symmetrization is 0.00D+00 for atom     0.
 Variable       Old X    -DE/DX   Delta X   Delta X   Delta X     New X
                                 (Linear)    (Quad)   (Total)
    R1        2.24256   0.00341   0.00279   0.00039   0.00317   2.24573
    R2        1.90531   0.00033   0.00214  -0.00118   0.00096   1.90627
    A1        3.14159   0.00000   0.00000   0.00000   0.00000   3.14159
    A2        3.14159  -0.00000   0.00000   0.00000   0.00000   3.14159
         Item               Value     Threshold  Converged?
 Maximum Force            0.003414     0.000450     NO 
 RMS     Force            0.001715     0.000300     NO 
 Maximum Displacement     0.002436     0.001800     NO 
 RMS     Displacement     0.001530     0.001200     NO 
 Predicted change in Energy=-5.291905D-06
 Lowest energy point so far.  Saving SCF results.
 Largest change from initial coordinates is atom    3       0.021 Angstoms.
 GradGradGradGradGradGradGradGradGradGradGradGradGradGradGradGradGradGrad

 Leave Link  103 at Wed Oct  7 14:48:36 2020, MaxMem=  2684354560 cpu:               1.6 elap:               0.5
 (Enter /udrive/faculty/rpeverati/g16/g16/l202.exe)
                          Input orientation:                          
 ---------------------------------------------------------------------
 Center     Atomic      Atomic             Coordinates (Angstroms)
 Number     Number       Type             X           Y           Z
 ---------------------------------------------------------------------
      1          6           0        0.000000    0.000000   -0.756585
      2          7           0        0.000000    0.000000    0.431804
      3          1           0        0.000000    0.000000    1.440561
 ---------------------------------------------------------------------
                    Distance matrix (angstroms):
                    1          2          3
     1  C    0.000000
     2  N    1.188389   0.000000
     3  H    2.197146   1.008757   0.000000
 Stoichiometry    CHN
 Framework group  C*V[C*(CNH)]
 Deg. of freedom     2
 Full point group                 C*V     NOp   4
 RotChk:  IX=0 Diff= 0.00D+00
 Largest Abelian subgroup         C2V     NOp   4
 Largest concise Abelian subgroup C1      NOp   1
                         Standard orientation:                         
 ---------------------------------------------------------------------
 Center     Atomic      Atomic             Coordinates (Angstroms)
 Number     Number       Type             X           Y           Z
 ---------------------------------------------------------------------
      1          6           0        0.000000    0.000000   -0.751134
      2          7           0        0.000000    0.000000    0.437255
      3          1           0        0.000000    0.000000    1.446013
 ---------------------------------------------------------------------
 Rotational constants (GHZ):           0.0000000          44.0265824          44.0265824
 Leave Link  202 at Wed Oct  7 14:48:36 2020, MaxMem=  2684354560 cpu:               1.0 elap:               0.5
 (Enter /udrive/faculty/rpeverati/g16/g16/l301.exe)
 Standard basis: 6-31G(d) (5D, 7F)
 Ernie: Thresh=  0.10000D-02 Tol=  0.10000D-05 Strict=F.
 There are    18 symmetry adapted cartesian basis functions of A1  symmetry.
 There are     2 symmetry adapted cartesian basis functions of A2  symmetry.
 There are     6 symmetry adapted cartesian basis functions of B1  symmetry.
 There are     6 symmetry adapted cartesian basis functions of B2  symmetry.
 There are    16 symmetry adapted basis functions of A1  symmetry.
 There are     2 symmetry adapted basis functions of A2  symmetry.
 There are     6 symmetry adapted basis functions of B1  symmetry.
 There are     6 symmetry adapted basis functions of B2  symmetry.
    30 basis functions,    60 primitive gaussians,    32 cartesian basis functions
     7 alpha electrons        7 beta electrons
       nuclear repulsion energy        23.8193301995 Hartrees.
 IExCor=  402 DFT=T Ex=B Corr=LYP ExCW=0 ScaHFX=  0.000000
 ScaDFX=  1.000000  1.000000  1.000000  1.000000 ScalE2=  1.000000  1.000000
 IRadAn=      5 IRanWt=     -1 IRanGd=            0 ICorTp=0 IEmpDi=  4
 NAtoms=    3 NActive=    3 NUniq=    3 SFac= 1.00D+00 NAtFMM=   60 NAOKFM=F Big=F
 Integral buffers will be    131072 words long.
 Raffenetti 2 integral format.
 Two-electron integral symmetry is turned on.
 Leave Link  301 at Wed Oct  7 14:48:37 2020, MaxMem=  2684354560 cpu:               1.9 elap:               0.5
 (Enter /udrive/faculty/rpeverati/g16/g16/l302.exe)
 NPDir=0 NMtPBC=     1 NCelOv=     1 NCel=       1 NClECP=     1 NCelD=      1
         NCelK=      1 NCelE2=     1 NClLst=     1 CellRange=     0.0.
 One-electron integrals computed using PRISM.
 One-electron integral symmetry used in STVInt
 NBasis=    30 RedAO= T EigKep=  6.98D-03  NBF=    16     2     6     6
 NBsUse=    30 1.00D-06 EigRej= -1.00D+00 NBFU=    16     2     6     6
 Precomputing XC quadrature grid using
 IXCGrd= 4 IRadAn=           5 IRanWt=          -1 IRanGd=           0 AccXCQ= 0.00D+00.
 Generated NRdTot=       0 NPtTot=           0 NUsed=           0 NTot=          32
 NSgBfM=    32    32    32    32    32 MxSgAt=     3 MxSgA2=     3.
 Leave Link  302 at Wed Oct  7 14:48:38 2020, MaxMem=  2684354560 cpu:               3.4 elap:               0.6
 (Enter /udrive/faculty/rpeverati/g16/g16/l303.exe)
 DipDrv:  MaxL=1.
 Leave Link  303 at Wed Oct  7 14:48:39 2020, MaxMem=  2684354560 cpu:               1.2 elap:               0.4
 (Enter /udrive/faculty/rpeverati/g16/g16/l401.exe)
 Initial guess from the checkpoint file:  "MN_60_hnc_BH76_BLYP_631Gs.chk"
 SCF N**3 symmetry information disabled.
 B after Tr=     0.000000    0.000000    0.000000
         Rot=    1.000000    0.000000    0.000000    0.000000 Ang=   0.00 deg.
 Guess basis will be translated and rotated to current coordinates.
 JPrj=2 DoOrth=T DoCkMO=T.
 Initial guess orbital symmetries:
       Occupied  (SG) (SG) (SG) (SG) (PI) (PI) (SG)
       Virtual   (PI) (PI) (SG) (SG) (SG) (PI) (PI) (SG) (PI) (PI)
                 (SG) (SG) (SG) (PI) (PI) (DLTA) (DLTA) (DLTA)
                 (DLTA) (SG) (PI) (PI) (SG)
 The electronic state of the initial guess is 1-SG.
 Leave Link  401 at Wed Oct  7 14:48:39 2020, MaxMem=  2684354560 cpu:               2.0 elap:               0.5
 (Enter /udrive/faculty/rpeverati/g16/g16/l502.exe)
 Keep J ints in memory in symmetry-blocked form, NReq=10459988.
 FoFCou: FMM=F IPFlag=           0 FMFlag=           0 FMFlg1=           0
         NFxFlg=           0 DoJE=F BraDBF=F KetDBF=F FulRan=T
         wScrn=  0.000000 ICntrl=       600 IOpCl=  0 I1Cent=           0 NGrid=           0
         NMat0=    1 NMatS0=    465 NMatT0=    0 NMatD0=    1 NMtDS0=    0 NMtDT0=    0
 Petite list used in FoFCou.
 Closed shell SCF:
 Using DIIS extrapolation, IDIIS=  1040.
 NGot=  2684354560 LenX=  2684318858 LenY=  2684317393
 Requested convergence on RMS density matrix=1.00D-08 within 120 cycles.
 Requested convergence on MAX density matrix=1.00D-06.
 Requested convergence on             energy=1.00D-06.
 No special actions if energy rises.

 Cycle   1  Pass 1  IDiag  1:
 E= -93.3682045498657    
 DIIS: error= 1.82D-04 at cycle   1 NSaved=   1.
 NSaved= 1 IEnMin= 1 EnMin= -93.3682045498657     IErMin= 1 ErrMin= 1.82D-04
 ErrMax= 1.82D-04  0.00D+00 EMaxC= 1.00D-01 BMatC= 1.30D-06 BMatP= 1.30D-06
 IDIUse=3 WtCom= 9.98D-01 WtEn= 1.82D-03
 Coeff-Com:  0.100D+01
 Coeff-En:   0.100D+01
 Coeff:      0.100D+01
 Gap=     0.250 Goal=   None    Shift=    0.000
 RMSDP=6.97D-05 MaxDP=4.59D-04              OVMax= 5.82D-04

 Cycle   2  Pass 1  IDiag  1:
 E= -93.3682051411653     Delta-E=       -0.000000591300 Rises=F Damp=F
 DIIS: error= 1.74D-04 at cycle   2 NSaved=   2.
 NSaved= 2 IEnMin= 2 EnMin= -93.3682051411653     IErMin= 2 ErrMin= 1.74D-04
 ErrMax= 1.74D-04  0.00D+00 EMaxC= 1.00D-01 BMatC= 9.81D-07 BMatP= 1.30D-06
 IDIUse=3 WtCom= 9.98D-01 WtEn= 1.74D-03
 Coeff-Com:  0.457D+00 0.543D+00
 Coeff-En:   0.306D+00 0.694D+00
 Coeff:      0.457D+00 0.543D+00
 Gap=     0.250 Goal=   None    Shift=    0.000
 RMSDP=3.31D-05 MaxDP=4.17D-04 DE=-5.91D-07 OVMax= 5.07D-04

 Cycle   3  Pass 1  IDiag  1:
 E= -93.3682054301107     Delta-E=       -0.000000288945 Rises=F Damp=F
 DIIS: error= 1.84D-04 at cycle   3 NSaved=   3.
 NSaved= 3 IEnMin= 3 EnMin= -93.3682054301107     IErMin= 2 ErrMin= 1.74D-04
 ErrMax= 1.84D-04  0.00D+00 EMaxC= 1.00D-01 BMatC= 6.40D-07 BMatP= 9.81D-07
 IDIUse=3 WtCom= 9.98D-01 WtEn= 1.84D-03
 Coeff-Com:  0.190D+00 0.416D+00 0.394D+00
 Coeff-En:   0.000D+00 0.413D+00 0.587D+00
 Coeff:      0.189D+00 0.416D+00 0.395D+00
 Gap=     0.250 Goal=   None    Shift=    0.000
 RMSDP=2.49D-05 MaxDP=2.20D-04 DE=-2.89D-07 OVMax= 4.04D-04

 Cycle   4  Pass 1  IDiag  1:
 E= -93.3682058953843     Delta-E=       -0.000000465274 Rises=F Damp=F
 DIIS: error= 7.67D-05 at cycle   4 NSaved=   4.
 NSaved= 4 IEnMin= 4 EnMin= -93.3682058953843     IErMin= 4 ErrMin= 7.67D-05
 ErrMax= 7.67D-05  0.00D+00 EMaxC= 1.00D-01 BMatC= 1.03D-07 BMatP= 6.40D-07
 IDIUse=1 WtCom= 1.00D+00 WtEn= 0.00D+00
 Coeff-Com:  0.189D-01 0.146D+00 0.312D+00 0.523D+00
 Coeff:      0.189D-01 0.146D+00 0.312D+00 0.523D+00
 Gap=     0.250 Goal=   None    Shift=    0.000
 RMSDP=8.77D-06 MaxDP=6.91D-05 DE=-4.65D-07 OVMax= 1.26D-04

 Cycle   5  Pass 1  IDiag  1:
 E= -93.3682060027968     Delta-E=       -0.000000107413 Rises=F Damp=F
 DIIS: error= 1.24D-06 at cycle   5 NSaved=   5.
 NSaved= 5 IEnMin= 5 EnMin= -93.3682060027968     IErMin= 5 ErrMin= 1.24D-06
 ErrMax= 1.24D-06  0.00D+00 EMaxC= 1.00D-01 BMatC= 4.31D-11 BMatP= 1.03D-07
 IDIUse=1 WtCom= 1.00D+00 WtEn= 0.00D+00
 Coeff-Com:  0.553D-03 0.153D-01 0.446D-01 0.853D-01 0.854D+00
 Coeff:      0.553D-03 0.153D-01 0.446D-01 0.853D-01 0.854D+00
 Gap=     0.250 Goal=   None    Shift=    0.000
 RMSDP=2.90D-07 MaxDP=2.45D-06 DE=-1.07D-07 OVMax= 3.77D-06

 Cycle   6  Pass 1  IDiag  1:
 E= -93.3682060028517     Delta-E=       -0.000000000055 Rises=F Damp=F
 DIIS: error= 2.67D-07 at cycle   6 NSaved=   6.
 NSaved= 6 IEnMin= 6 EnMin= -93.3682060028517     IErMin= 6 ErrMin= 2.67D-07
 ErrMax= 2.67D-07  0.00D+00 EMaxC= 1.00D-01 BMatC= 1.11D-12 BMatP= 4.31D-11
 IDIUse=1 WtCom= 1.00D+00 WtEn= 0.00D+00
 Coeff-Com:  0.330D-04 0.137D-02 0.563D-02 0.914D-02 0.135D+00 0.849D+00
 Coeff:      0.330D-04 0.137D-02 0.563D-02 0.914D-02 0.135D+00 0.849D+00
 Gap=     0.250 Goal=   None    Shift=    0.000
 RMSDP=5.69D-08 MaxDP=5.45D-07 DE=-5.50D-11 OVMax= 5.18D-07

 Cycle   7  Pass 1  IDiag  1:
 E= -93.3682060028533     Delta-E=       -0.000000000002 Rises=F Damp=F
 DIIS: error= 3.33D-08 at cycle   7 NSaved=   7.
 NSaved= 7 IEnMin= 7 EnMin= -93.3682060028533     IErMin= 7 ErrMin= 3.33D-08
 ErrMax= 3.33D-08  0.00D+00 EMaxC= 1.00D-01 BMatC= 1.77D-14 BMatP= 1.11D-12
 IDIUse=1 WtCom= 1.00D+00 WtEn= 0.00D+00
 Coeff-Com: -0.149D-05 0.122D-03 0.491D-03 0.966D-03 0.146D-01 0.132D+00
 Coeff-Com:  0.852D+00
 Coeff:     -0.149D-05 0.122D-03 0.491D-03 0.966D-03 0.146D-01 0.132D+00
 Coeff:      0.852D+00
 Gap=     0.250 Goal=   None    Shift=    0.000
 RMSDP=5.63D-09 MaxDP=7.34D-08 DE=-1.52D-12 OVMax= 5.32D-08

 SCF Done:  E(RB-LYP) =  -93.3682060029     A.U. after    7 cycles
            NFock=  7  Conv=0.56D-08     -V/T= 2.0065
 KE= 9.276407754679D+01 PE=-2.653739836215D+02 EE= 5.542236987236D+01
 Leave Link  502 at Wed Oct  7 14:48:41 2020, MaxMem=  2684354560 cpu:               8.5 elap:               1.1
 (Enter /udrive/faculty/rpeverati/g16/g16/l508.exe)
 QCSCF skips out because SCF is already converged.
 Leave Link  508 at Wed Oct  7 14:48:41 2020, MaxMem=  2684354560 cpu:               0.1 elap:               0.3
 (Enter /udrive/faculty/rpeverati/g16/g16/l701.exe)
 ... and contract with generalized density number  0.
 Compute integral first derivatives.
 Leave Link  701 at Wed Oct  7 14:48:42 2020, MaxMem=  2684354560 cpu:               4.1 elap:               0.7
 (Enter /udrive/faculty/rpeverati/g16/g16/l702.exe)
 L702 exits ... SP integral derivatives will be done elsewhere.
 Leave Link  702 at Wed Oct  7 14:48:43 2020, MaxMem=  2684354560 cpu:               1.2 elap:               0.4
 (Enter /udrive/faculty/rpeverati/g16/g16/l703.exe)
 Integral derivatives from FoFJK, PRISM(SPDF).
 Compute integral first derivatives, UseDBF=F ICtDFT=           0.
 Calling FoFJK, ICntrl=      2527 FMM=F ISym2X=1 I1Cent= 0 IOpClX= 0 NMat=1 NMatS=1 NMatT=0.
 FoFJK:  IHMeth= 1 ICntrl=    2527 DoSepK=F KAlg= 0 I1Cent=           0 FoldK=F
 IRaf=         0 NMat=       1 IRICut=       1 DoRegI=T DoRafI=F ISym2E= 1 IDoP0=0 IntGTp=1.
 FoFCou: FMM=F IPFlag=           0 FMFlag=      100000 FMFlg1=         800
         NFxFlg=           0 DoJE=F BraDBF=F KetDBF=F FulRan=T
         wScrn=  0.000000 ICntrl=      2527 IOpCl=  0 I1Cent=           0 NGrid=           0
         NMat0=    1 NMatS0=      1 NMatT0=    0 NMatD0=    1 NMtDS0=    0 NMtDT0=    0
 Petite list used in FoFCou.
 Leave Link  703 at Wed Oct  7 14:48:44 2020, MaxMem=  2684354560 cpu:               4.7 elap:               0.7
 (Enter /udrive/faculty/rpeverati/g16/g16/l716.exe)
 Dipole        = 0.00000000D+00 5.88633074D-32 1.15198726D+00
 ***** Axes restored to original set *****
 -------------------------------------------------------------------
 Center     Atomic                   Forces (Hartrees/Bohr)
 Number     Number              X              Y              Z
 -------------------------------------------------------------------
      1        6          -0.000000000   -0.000000000   -0.000061679
      2        7           0.000000000    0.000000000    0.000135474
      3        1          -0.000000000   -0.000000000   -0.000073795
 -------------------------------------------------------------------
 Cartesian Forces:  Max     0.000135474 RMS     0.000055381
 Leave Link  716 at Wed Oct  7 14:48:44 2020, MaxMem=  2684354560 cpu:               1.4 elap:               0.3
 (Enter /udrive/faculty/rpeverati/g16/g16/l103.exe)

 GradGradGradGradGradGradGradGradGradGradGradGradGradGradGradGradGradGrad
 Berny optimization.
 Optmz: redundant internal coordinate code flag= 1
 Using GEDIIS/GDIIS optimizer.
 Red2BG:  D1=  1.00D+00 OD1=  3.33D-16 B2RMS=  0.00D+00 IAprox=1
 Red2BG is reusing G-inverse.
 Internal  Forces:  Max     0.000073795 RMS     0.000048089
 Search for a local minimum.
 Step number   3 out of a maximum of  100
 All quantities printed in internal units (Hartrees-Bohrs-Radians)
 RMS Force = .48089D-04 SwitMx=.10000D-02 MixMth= 2
 Mixed Optimization -- En-DIIS/RFO-DIIS
 Update second derivatives using D2CorX and points    1    2    3
 DE= -5.63D-06 DEPred=-5.29D-06 R= 1.06D+00
 TightC=F SS=  1.41D+00  RLast= 3.32D-03 DXNew= 5.0454D-01 9.9459D-03
 Trust test= 1.06D+00 RLast= 3.32D-03 DXMaxT set to 3.00D-01
 The second derivative matrix:
                          R1        R2        A1        A2
           R1           1.06326
           R2          -0.02178   0.48696
           A1           0.00000   0.00000   0.01096
           A2          -0.00000  -0.00000  -0.00000   0.01096
 ITU=  1  1  0
 Use linear search instead of GDIIS.
 Eigenvectors of the second derivative matrix:
                           1         2         3         4
     Eigenvalues --     0.01096   0.01096   0.48614   1.06408
   1         R1        -0.00000   0.00000  -0.03771  -0.99929
   2         R2         0.00000  -0.00000  -0.99929   0.03771
   3         A1         0.46860   0.88341  -0.00000  -0.00000
   4         A2         0.88341  -0.46860   0.00000  -0.00000
 Iter=   1 RLamda= 0.00000000D+00 Sum=-1.29677886D-08.
 Iter=   2 RLamda=-1.29677886D-08 Sum=-1.29677883D-08.
 RFO step:  Lambda=-1.29677886D-08 EMin= 1.09624103D-02
 Quartic linear search produced a step of  0.01138.
 Iteration  1 RMS(Cart)=  0.00005325 RMS(Int)=  0.00000000
 Iteration  2 RMS(Cart)=  0.00000000 RMS(Int)=  0.00000001
 ITry= 1 IFail=0 DXMaxC= 8.09D-05 DCOld= 1.00D+10 DXMaxT= 3.00D-01 DXLimC= 3.00D+00 Rises=F
 ClnCor:  largest displacement from symmetrization is 0.00D+00 for atom     0.
 Variable       Old X    -DE/DX   Delta X   Delta X   Delta X     New X
                                 (Linear)    (Quad)   (Total)
    R1        2.24573   0.00006   0.00004   0.00002   0.00006   2.24578
    R2        1.90627  -0.00007   0.00001  -0.00016  -0.00015   1.90613
    A1        3.14159  -0.00000   0.00000  -0.00000  -0.00000   3.14159
    A2        3.14159   0.00000   0.00000  -0.00000  -0.00000   3.14159
         Item               Value     Threshold  Converged?
 Maximum Force            0.000074     0.000450     YES
 RMS     Force            0.000048     0.000300     YES
 Maximum Displacement     0.000081     0.001800     YES
 RMS     Displacement     0.000053     0.001200     YES
 Predicted change in Energy=-7.195646D-09
 Optimization completed.
    -- Stationary point found.
                           ----------------------------
                           !   Optimized Parameters   !
                           ! (Angstroms and Degrees)  !
 --------------------------                            --------------------------
 ! Name  Definition              Value          Derivative Info.                !
 --------------------------------------------------------------------------------
 ! R1    R(1,2)                  1.1884         -DE/DX =    0.0001              !
 ! R2    R(2,3)                  1.0088         -DE/DX =   -0.0001              !
 ! A1    L(1,2,3,-1,-1)        180.0            -DE/DX =    0.0                 !
 ! A2    L(1,2,3,-2,-2)        180.0            -DE/DX =    0.0                 !
 --------------------------------------------------------------------------------
 Lowest energy point so far.  Saving SCF results.
 Largest change from initial coordinates is atom    3       0.021 Angstoms.
 GradGradGradGradGradGradGradGradGradGradGradGradGradGradGradGradGradGrad

 Leave Link  103 at Wed Oct  7 14:48:45 2020, MaxMem=  2684354560 cpu:               1.6 elap:               0.5
 (Enter /udrive/faculty/rpeverati/g16/g16/l202.exe)
                          Input orientation:                          
 ---------------------------------------------------------------------
 Center     Atomic      Atomic             Coordinates (Angstroms)
 Number     Number       Type             X           Y           Z
 ---------------------------------------------------------------------
      1          6           0        0.000000    0.000000   -0.756585
      2          7           0        0.000000    0.000000    0.431804
      3          1           0        0.000000    0.000000    1.440561
 ---------------------------------------------------------------------
                    Distance matrix (angstroms):
                    1          2          3
     1  C    0.000000
     2  N    1.188389   0.000000
     3  H    2.197146   1.008757   0.000000
 Stoichiometry    CHN
 Framework group  C*V[C*(CNH)]
 Deg. of freedom     2
 Full point group                 C*V     NOp   4
 RotChk:  IX=0 Diff= 0.00D+00
 Largest Abelian subgroup         C2V     NOp   4
 Largest concise Abelian subgroup C1      NOp   1
                         Standard orientation:                         
 ---------------------------------------------------------------------
 Center     Atomic      Atomic             Coordinates (Angstroms)
 Number     Number       Type             X           Y           Z
 ---------------------------------------------------------------------
      1          6           0        0.000000    0.000000   -0.751134
      2          7           0        0.000000    0.000000    0.437255
      3          1           0        0.000000    0.000000    1.446013
 ---------------------------------------------------------------------
 Rotational constants (GHZ):           0.0000000          44.0265824          44.0265824
 Leave Link  202 at Wed Oct  7 14:48:46 2020, MaxMem=  2684354560 cpu:               1.4 elap:               0.5
 (Enter /udrive/faculty/rpeverati/g16/g16/l601.exe)
 Copying SCF densities to generalized density rwf, IOpCl= 0 IROHF=0.

 **********************************************************************

            Population analysis using the SCF density.

 **********************************************************************

 Orbital symmetries:
       Occupied  (SG) (SG) (SG) (SG) (PI) (PI) (SG)
       Virtual   (PI) (PI) (SG) (SG) (SG) (PI) (PI) (SG) (PI) (PI)
                 (SG) (SG) (SG) (PI) (PI) (DLTA) (DLTA) (DLTA)
                 (DLTA) (SG) (PI) (PI) (SG)
 The electronic state is 1-SG.
 Alpha  occ. eigenvalues --  -14.06083  -9.96586  -0.84353  -0.59434  -0.31645
 Alpha  occ. eigenvalues --   -0.31645  -0.25683
 Alpha virt. eigenvalues --   -0.00663  -0.00663   0.03615   0.32580   0.46470
 Alpha virt. eigenvalues --    0.51448   0.51448   0.60699   0.67927   0.67927
 Alpha virt. eigenvalues --    0.85960   1.11891   1.37224   1.44453   1.44453
 Alpha virt. eigenvalues --    1.46393   1.46393   1.86611   1.86611   2.31498
 Alpha virt. eigenvalues --    2.43793   2.43793   2.97272
          Condensed to atoms (all electrons):
               1          2          3
     1  C    5.394891   0.619525  -0.026416
     2  N    0.619525   6.446429   0.283437
     3  H   -0.026416   0.283437   0.405587
 Mulliken charges:
               1
     1  C    0.012000
     2  N   -0.349391
     3  H    0.337391
 Sum of Mulliken charges =  -0.00000
 Mulliken charges with hydrogens summed into heavy atoms:
               1
     1  C    0.012000
     2  N   -0.012000
 Electronic spatial extent (au):  <R**2>=             48.8647
 Charge=             -0.0000 electrons
 Dipole moment (field-independent basis, Debye):
    X=              0.0000    Y=              0.0000    Z=              2.9281  Tot=              2.9281
 Quadrupole moment (field-independent basis, Debye-Ang):
   XX=            -11.5098   YY=            -11.5098   ZZ=             -9.9736
   XY=             -0.0000   XZ=              0.0000   YZ=              0.0000
 Traceless Quadrupole moment (field-independent basis, Debye-Ang):
   XX=             -0.5121   YY=             -0.5121   ZZ=              1.0242
   XY=             -0.0000   XZ=              0.0000   YZ=              0.0000
 Octapole moment (field-independent basis, Debye-Ang**2):
  XXX=              0.0000  YYY=              0.0000  ZZZ=             12.9416  XYY=              0.0000
  XXY=              0.0000  XXZ=              1.1527  XZZ=              0.0000  YZZ=              0.0000
  YYZ=              1.1527  XYZ=             -0.0000
 Hexadecapole moment (field-independent basis, Debye-Ang**3):
 XXXX=            -10.3533 YYYY=            -10.3533 ZZZZ=            -39.8232 XXXY=             -0.0000
 XXXZ=              0.0000 YYYX=             -0.0000 YYYZ=              0.0000 ZZZX=              0.0000
 ZZZY=              0.0000 XXYY=             -3.4511 XXZZ=             -8.9967 YYZZ=             -8.9967
 XXYZ=              0.0000 YYXZ=              0.0000 ZZXY=             -0.0000
 N-N= 2.381933019950D+01 E-N=-2.653739833718D+02  KE= 9.276407754679D+01
 No NMR shielding tensors so no spin-rotation constants.
 Leave Link  601 at Wed Oct  7 14:48:47 2020, MaxMem=  2684354560 cpu:               4.0 elap:               0.7
 (Enter /udrive/faculty/rpeverati/g16/g16/l9999.exe)

 Test job not archived.
 1\1\GINC-NODE27\FOpt\RBLYP\6-31G(d)\C1H1N1\RPEVERATI\07-Oct-2020\0\\#P
  Opt(MaxCyc=100) BLYP/6-31G* 5D 7F Integral=UltraFineGrid SCF=(NoSymm,
 XQC,MaxCyc=120) IOp(1/33=1)\\TS search on BH76.\\0,1\C,0.,0.,-0.756585
 1493\N,0.,0.,0.4318038425\H,0.,0.,1.440560981\\Version=ES64L-G16RevA.0
 3\State=1-SG\HF=-93.368206\RMSD=5.626e-09\RMSF=5.538e-05\Dipole=0.,0.,
 1.1519873\Quadrupole=-0.3807233,-0.3807233,0.7614465,0.,0.,0.\PG=C*V [
 C*(C1N1H1)]\\@


 TERRY FORSTER, PORTLY ATLANTA BRAVES RELIEVER,
 ANNOUNCING THAT HE WAS GOING TO A FAT FARM:
 "A WAIST IS A TERRIBLE THING TO MIND."
 Job cpu time:       0 days  0 hours  2 minutes 14.4 seconds.
 Elapsed time:       0 days  0 hours  0 minutes 26.1 seconds.
 File lengths (MBytes):  RWF=      5 Int=      0 D2E=      0 Chk=      1 Scr=      1
 Normal termination of Gaussian 16 at Wed Oct  7 14:48:48 2020.
