 Entering Gaussian System, Link 0=g16
 Input=MN_68_n2ohts_BH76_BLYP_631Gs.in
 Output=MN_68_n2ohts_BH76_BLYP_631Gs.log
 Initial command:
 /udrive/faculty/rpeverati/g16/g16/l1.exe "/udrive/scratch-directories/gaussian09/rpeverati/Gau-24655.inp" -scrdir="/udrive/scratch-directories/gaussian09/rpeverati/"
 Entering Link 1 = /udrive/faculty/rpeverati/g16/g16/l1.exe PID=     24679.
  
 Copyright (c) 1988,1990,1992,1993,1995,1998,2003,2009,2016,
            Gaussian, Inc.  All Rights Reserved.
  
 This is part of the Gaussian(R) 16 program.  It is based on
 the Gaussian(R) 09 system (copyright 2009, Gaussian, Inc.),
 the Gaussian(R) 03 system (copyright 2003, Gaussian, Inc.),
 the Gaussian(R) 98 system (copyright 1998, Gaussian, Inc.),
 the Gaussian(R) 94 system (copyright 1995, Gaussian, Inc.),
 the Gaussian 92(TM) system (copyright 1992, Gaussian, Inc.),
 the Gaussian 90(TM) system (copyright 1990, Gaussian, Inc.),
 the Gaussian 88(TM) system (copyright 1988, Gaussian, Inc.),
 the Gaussian 86(TM) system (copyright 1986, Carnegie Mellon
 University), and the Gaussian 82(TM) system (copyright 1983,
 Carnegie Mellon University). Gaussian is a federally registered
 trademark of Gaussian, Inc.
  
 This software contains proprietary and confidential information,
 including trade secrets, belonging to Gaussian, Inc.
  
 This software is provided under written license and may be
 used, copied, transmitted, or stored only in accord with that
 written license.
  
 The following legend is applicable only to US Government
 contracts under FAR:
  
                    RESTRICTED RIGHTS LEGEND
  
 Use, reproduction and disclosure by the US Government is
 subject to restrictions as set forth in subparagraphs (a)
 and (c) of the Commercial Computer Software - Restricted
 Rights clause in FAR 52.227-19.
  
 Gaussian, Inc.
 340 Quinnipiac St., Bldg. 40, Wallingford CT 06492
  
  
 ---------------------------------------------------------------
 Warning -- This program may not be used in any manner that
 competes with the business of Gaussian, Inc. or will provide
 assistance to any competitor of Gaussian, Inc.  The licensee
 of this program is prohibited from giving any competitor of
 Gaussian, Inc. access to this program.  By using this program,
 the user acknowledges that Gaussian, Inc. is engaged in the
 business of creating and licensing software in the field of
 computational chemistry and represents and warrants to the
 licensee that it is not a competitor of Gaussian, Inc. and that
 it will not use this program in any manner prohibited above.
 ---------------------------------------------------------------
  

 Cite this work as:
 Gaussian 16, Revision A.03,
 M. J. Frisch, G. W. Trucks, H. B. Schlegel, G. E. Scuseria, 
 M. A. Robb, J. R. Cheeseman, G. Scalmani, V. Barone, 
 G. A. Petersson, H. Nakatsuji, X. Li, M. Caricato, A. V. Marenich, 
 J. Bloino, B. G. Janesko, R. Gomperts, B. Mennucci, H. P. Hratchian, 
 J. V. Ortiz, A. F. Izmaylov, J. L. Sonnenberg, D. Williams-Young, 
 F. Ding, F. Lipparini, F. Egidi, J. Goings, B. Peng, A. Petrone, 
 T. Henderson, D. Ranasinghe, V. G. Zakrzewski, J. Gao, N. Rega, 
 G. Zheng, W. Liang, M. Hada, M. Ehara, K. Toyota, R. Fukuda, 
 J. Hasegawa, M. Ishida, T. Nakajima, Y. Honda, O. Kitao, H. Nakai, 
 T. Vreven, K. Throssell, J. A. Montgomery, Jr., J. E. Peralta, 
 F. Ogliaro, M. J. Bearpark, J. J. Heyd, E. N. Brothers, K. N. Kudin, 
 V. N. Staroverov, T. A. Keith, R. Kobayashi, J. Normand, 
 K. Raghavachari, A. P. Rendell, J. C. Burant, S. S. Iyengar, 
 J. Tomasi, M. Cossi, J. M. Millam, M. Klene, C. Adamo, R. Cammi, 
 J. W. Ochterski, R. L. Martin, K. Morokuma, O. Farkas, 
 J. B. Foresman, and D. J. Fox, Gaussian, Inc., Wallingford CT, 2016.
 
 ******************************************
 Gaussian 16:  ES64L-G16RevA.03 25-Dec-2016
                 7-Oct-2020 
 ******************************************
 %NoSave
 %nproc=12
 Will use up to   12 processors via shared memory.
 %mem=20GB
 %chk=MN_68_n2ohts_BH76_BLYP_631Gs
 ----------------------------------------------------------------------
 #P Opt(TS,MaxCyc=50,NoEigenTest,MaxStep=10,AddRedundant) BLYP/6-31G* 5
 D 7F Integral=UltraFineGrid SCF=(NoSymm,XQC,MaxCyc=120) IOp(1/33=1)
 ----------------------------------------------------------------------
 1/5=1,6=50,8=10,11=1,18=120,26=4,33=1,38=1/1,3;
 2/9=110,12=2,17=6,18=5,40=1/2;
 3/5=1,6=6,7=1,8=11,11=2,25=1,30=1,71=1,74=402,75=-5/1,2,3;
 4/9=2/1;
 5/5=2,7=120,8=3,13=1,38=5/2,8;
 6/7=2,8=2,9=2,10=2,28=1/1;
 7//1,2,3,16;
 1/5=1,6=50,8=10,11=1,18=20,26=4,33=1/3(2);
 2/9=110/2;
 99//99;
 2/9=110/2;
 3/5=1,6=6,7=1,8=11,11=2,25=1,30=1,71=1,74=402,75=-5/1,2,3;
 4/5=5,9=2,16=3,69=1/1;
 5/5=2,7=120,8=3,13=1,38=5/2,8;
 7//1,2,3,16;
 1/5=1,6=50,8=10,11=1,18=20,26=4,33=1/3(-5);
 2/9=110/2;
 6/7=2,8=2,9=2,10=2,19=2,28=1/1;
 99/9=1/99;
 Leave Link    1 at Wed Oct  7 14:48:43 2020, MaxMem=  2684354560 cpu:               7.2 elap:               0.9
 (Enter /udrive/faculty/rpeverati/g16/g16/l101.exe)
 ONIOM data not found on unit 2.
 ------------------
 TS search on BH76.
 ------------------
 TstMul:  ICh=     0
 TstMul:  Mul=     2
 TstMul:  ICh=     0
 TstMul:  Mul=     2
 Symbolic Z-matrix:
 Charge =  0 Multiplicity = 2
 H                    -0.30329  -1.93071   0. 
 O                    -0.86101  -0.62152   0. 
 N                     0.        0.25703   0. 
 N                     1.02733   0.72911   0. 
 
 RdStrC is calling ZToCFu for IStruc=1 NZ=     4.
 PrtBox:  NBox=     1 Levels=  1 BoxLen=    8.00 SMaxX=        5.03
          Shift=            1.627070            3.648520            0.000000
 Box      1 Number                   0 centers from      1 to      4:
 After GenITR:
 ITRead=  0  0  0  0
 MicOpt= -1 -1 -1 -1
 Add virtual bond connecting atoms O2         and H1         Dist= 2.69D+00.
 The following ModRedundant input section has been read:
 
 ITRead=  0  0  0  0
 MicOpt= -1 -1 -1 -1
 NAtoms=      4 NQM=        4 NQMF=       0 NMMI=      0 NMMIF=      0
                NMic=       0 NMicF=      0.
                    Isotopes and Nuclear Properties:
 (Nuclear quadrupole moments (NQMom) in fm**2, nuclear magnetic moments (NMagM)
  in nuclear magnetons)

  Atom         1           2           3           4
 IAtWgt=           1          16          14          14
 AtmWgt=   1.0078250  15.9949146  14.0030740  14.0030740
 NucSpn=           1           0           2           2
 AtZEff=   0.0000000   0.0000000   0.0000000   0.0000000
 NQMom=    0.0000000   0.0000000   2.0440000   2.0440000
 NMagM=    2.7928460   0.0000000   0.4037610   0.4037610
 AtZNuc=   1.0000000   8.0000000   7.0000000   7.0000000
 No MM parameters found.
 Leave Link  101 at Wed Oct  7 14:48:44 2020, MaxMem=  2684354560 cpu:              14.9 elap:               1.4
 (Enter /udrive/faculty/rpeverati/g16/g16/l103.exe)

 GradGradGradGradGradGradGradGradGradGradGradGradGradGradGradGradGradGrad
 Berny optimization.
 Optmz: redundant internal coordinate code flag= 1
 Initialization pass.
                           ----------------------------
                           !    Initial Parameters    !
                           ! (Angstroms and Degrees)  !
 --------------------------                            --------------------------
 ! Name  Definition              Value          Derivative Info.                !
 --------------------------------------------------------------------------------
 ! R1    R(1,2)                  1.423          estimate D2E/DX2                !
 ! R2    R(2,3)                  1.2301         estimate D2E/DX2                !
 ! R3    R(3,4)                  1.1306         estimate D2E/DX2                !
 ! A1    A(1,2,3)              112.5035         estimate D2E/DX2                !
 ! A2    A(2,3,4)              159.1018         estimate D2E/DX2                !
 ! D1    D(1,2,3,4)              0.0            estimate D2E/DX2                !
 --------------------------------------------------------------------------------
 Maximum allowed force set to 1.00D+20.
 Trust Radius=1.00D-01 FncErr=1.00D-07 GrdErr=1.00D-06 EigMax=2.50D+02 EigMin=1.00D-04
 Number of steps in this run=     50 maximum allowed number of steps=    100.
 Search for a saddle point of order  1.
 GradGradGradGradGradGradGradGradGradGradGradGradGradGradGradGradGradGrad

 Leave Link  103 at Wed Oct  7 14:48:45 2020, MaxMem=  2684354560 cpu:               1.6 elap:               0.5
 (Enter /udrive/faculty/rpeverati/g16/g16/l202.exe)
                          Input orientation:                          
 ---------------------------------------------------------------------
 Center     Atomic      Atomic             Coordinates (Angstroms)
 Number     Number       Type             X           Y           Z
 ---------------------------------------------------------------------
      1          1           0       -0.303285   -1.930714    0.000000
      2          8           0       -0.861008   -0.621524    0.000000
      3          7           0        0.000000    0.257027    0.000000
      4          7           0        1.027334    0.729106    0.000000
 ---------------------------------------------------------------------
                    Distance matrix (angstroms):
                    1          2          3          4
     1  H    0.000000
     2  O    1.423036   0.000000
     3  N    2.208663   1.230117   0.000000
     4  N    2.974086   2.321645   1.130608   0.000000
 Stoichiometry    HN2O(2)
 Framework group  CS[SG(HN2O)]
 Deg. of freedom     5
 Full point group                 CS      NOp   2
 Largest Abelian subgroup         CS      NOp   2
 Largest concise Abelian subgroup C1      NOp   1
                         Standard orientation:                         
 ---------------------------------------------------------------------
 Center     Atomic      Atomic             Coordinates (Angstroms)
 Number     Number       Type             X           Y           Z
 ---------------------------------------------------------------------
      1          1           0       -0.303280   -1.930715   -0.000000
      2          8           0       -0.861006   -0.621527   -0.000000
      3          7           0       -0.000000    0.257026    0.000000
      4          7           0        1.027333    0.729107    0.000000
 ---------------------------------------------------------------------
 Rotational constants (GHZ):         211.0820827          11.8757533          11.2431964
 Leave Link  202 at Wed Oct  7 14:48:46 2020, MaxMem=  2684354560 cpu:               1.9 elap:               0.6
 (Enter /udrive/faculty/rpeverati/g16/g16/l301.exe)
 Standard basis: 6-31G(d) (5D, 7F)
 Ernie: Thresh=  0.10000D-02 Tol=  0.10000D-05 Strict=F.
 There are    35 symmetry adapted cartesian basis functions of A'  symmetry.
 There are    12 symmetry adapted cartesian basis functions of A"  symmetry.
 There are    32 symmetry adapted basis functions of A'  symmetry.
 There are    12 symmetry adapted basis functions of A"  symmetry.
    44 basis functions,    88 primitive gaussians,    47 cartesian basis functions
    12 alpha electrons       11 beta electrons
       nuclear repulsion energy        65.6863811334 Hartrees.
 IExCor=  402 DFT=T Ex=B Corr=LYP ExCW=0 ScaHFX=  0.000000
 ScaDFX=  1.000000  1.000000  1.000000  1.000000 ScalE2=  1.000000  1.000000
 IRadAn=      5 IRanWt=     -1 IRanGd=            0 ICorTp=0 IEmpDi=  4
 NAtoms=    4 NActive=    4 NUniq=    4 SFac= 1.00D+00 NAtFMM=   60 NAOKFM=F Big=F
 Integral buffers will be    131072 words long.
 Raffenetti 2 integral format.
 Two-electron integral symmetry is turned on.
 Leave Link  301 at Wed Oct  7 14:48:47 2020, MaxMem=  2684354560 cpu:               2.6 elap:               0.5
 (Enter /udrive/faculty/rpeverati/g16/g16/l302.exe)
 NPDir=0 NMtPBC=     1 NCelOv=     1 NCel=       1 NClECP=     1 NCelD=      1
         NCelK=      1 NCelE2=     1 NClLst=     1 CellRange=     0.0.
 One-electron integrals computed using PRISM.
 One-electron integral symmetry used in STVInt
 NBasis=    44 RedAO= T EigKep=  2.89D-03  NBF=    32    12
 NBsUse=    44 1.00D-06 EigRej= -1.00D+00 NBFU=    32    12
 Precomputing XC quadrature grid using
 IXCGrd= 4 IRadAn=           5 IRanWt=          -1 IRanGd=           0 AccXCQ= 0.00D+00.
 Generated NRdTot=       0 NPtTot=           0 NUsed=           0 NTot=          32
 NSgBfM=    47    47    47    47    47 MxSgAt=     4 MxSgA2=     4.
 Leave Link  302 at Wed Oct  7 14:48:48 2020, MaxMem=  2684354560 cpu:               4.1 elap:               0.7
 (Enter /udrive/faculty/rpeverati/g16/g16/l303.exe)
 DipDrv:  MaxL=1.
 Leave Link  303 at Wed Oct  7 14:48:48 2020, MaxMem=  2684354560 cpu:               1.3 elap:               0.4
 (Enter /udrive/faculty/rpeverati/g16/g16/l401.exe)
 SCF N**3 symmetry information disabled.
 ExpMin= 1.61D-01 ExpMax= 5.48D+03 ExpMxC= 8.25D+02 IAcc=3 IRadAn=         5 AccDes= 0.00D+00
 Harris functional with IExCor=  402 and IRadAn=       5 diagonalized for initial guess.
 HarFok:  IExCor=  402 AccDes= 0.00D+00 IRadAn=         5 IDoV= 1 UseB2=F ITyADJ=14
 ICtDFT=  3500011 ScaDFX=  1.000000  1.000000  1.000000  1.000000
 FoFCou: FMM=F IPFlag=           0 FMFlag=      100000 FMFlg1=           0
         NFxFlg=           0 DoJE=T BraDBF=F KetDBF=T FulRan=T
         wScrn=  0.000000 ICntrl=       500 IOpCl=  0 I1Cent=   200000004 NGrid=           0
         NMat0=    1 NMatS0=      1 NMatT0=    0 NMatD0=    1 NMtDS0=    0 NMtDT0=    0
 Petite list used in FoFCou.
 Harris En= -185.103478926479    
 JPrj=0 DoOrth=F DoCkMO=F.
 Initial guess orbital symmetries:
 Alpha Orbitals:
       Occupied  (A') (A') (A') (A') (A') (A') (A') (A") (A') (A')
                 (A") (A')
       Virtual   (A') (A") (A') (A') (A') (A") (A') (A') (A') (A')
                 (A") (A') (A") (A') (A') (A') (A") (A') (A") (A')
                 (A") (A') (A') (A") (A') (A") (A') (A') (A') (A')
                 (A") (A')
 Beta  Orbitals:
       Occupied  (A') (A') (A') (A') (A') (A') (A') (A") (A') (A')
                 (A")
       Virtual   (A') (A') (A") (A') (A') (A') (A") (A') (A') (A')
                 (A') (A") (A') (A") (A') (A') (A') (A") (A') (A")
                 (A') (A") (A') (A') (A") (A') (A") (A') (A') (A')
                 (A') (A") (A')
 The electronic state of the initial guess is 2-A'.
 Initial guess <Sx>= 0.0000 <Sy>= 0.0000 <Sz>= 0.5000 <S**2>= 0.7500 S= 0.5000
 Leave Link  401 at Wed Oct  7 14:48:49 2020, MaxMem=  2684354560 cpu:               5.5 elap:               0.8
 (Enter /udrive/faculty/rpeverati/g16/g16/l502.exe)
 Keep J ints in memory in symmetry-blocked form, NReq=10900634.
 FoFCou: FMM=F IPFlag=           0 FMFlag=           0 FMFlg1=           0
         NFxFlg=           0 DoJE=F BraDBF=F KetDBF=F FulRan=T
         wScrn=  0.000000 ICntrl=       600 IOpCl=  0 I1Cent=           0 NGrid=           0
         NMat0=    1 NMatS0=    990 NMatT0=    0 NMatD0=    1 NMtDS0=    0 NMtDT0=    0
 Petite list used in FoFCou.
 UHF open shell SCF:
 Using DIIS extrapolation, IDIIS=  1040.
 NGot=  2684354560 LenX=  2684088460 LenY=  2684085810
 Requested convergence on RMS density matrix=1.00D-08 within 120 cycles.
 Requested convergence on MAX density matrix=1.00D-06.
 Requested convergence on             energy=1.00D-06.
 No special actions if energy rises.
 Integral accuracy reduced to 1.0D-05 until final iterations.

 Cycle   1  Pass 0  IDiag  1:
 E= -185.074517231730    
 DIIS: error= 3.88D-02 at cycle   1 NSaved=   1.
 NSaved= 1 IEnMin= 1 EnMin= -185.074517231730     IErMin= 1 ErrMin= 3.88D-02
 ErrMax= 3.88D-02  0.00D+00 EMaxC= 1.00D-01 BMatC= 2.45D-01 BMatP= 2.45D-01
 IDIUse=3 WtCom= 6.12D-01 WtEn= 3.88D-01
 Coeff-Com:  0.100D+01
 Coeff-En:   0.100D+01
 Coeff:      0.100D+01
 Gap=     0.110 Goal=   None    Shift=    0.000
 Gap=     0.142 Goal=   None    Shift=    0.000
 GapD=    0.110 DampG=1.000 DampE=0.500 DampFc=0.5000 IDamp=-1.
 Damping current iteration by 5.00D-01
 RMSDP=1.38D-02 MaxDP=1.81D-01              OVMax= 2.20D-01

 Cycle   2  Pass 0  IDiag  1:
 E= -185.036986606690     Delta-E=        0.037530625040 Rises=F Damp=T
 DIIS: error= 2.65D-02 at cycle   2 NSaved=   2.
 NSaved= 2 IEnMin= 1 EnMin= -185.074517231730     IErMin= 2 ErrMin= 2.65D-02
 ErrMax= 2.65D-02  0.00D+00 EMaxC= 1.00D-01 BMatC= 2.14D-01 BMatP= 2.45D-01
 IDIUse=3 WtCom= 7.35D-01 WtEn= 2.65D-01
 Coeff-Com:  0.481D+00 0.519D+00
 Coeff-En:   0.650D+00 0.350D+00
 Coeff:      0.526D+00 0.474D+00
 Gap=     0.106 Goal=   None    Shift=    0.000
 Gap=     0.146 Goal=   None    Shift=    0.000
 RMSDP=6.31D-03 MaxDP=6.02D-02 DE= 3.75D-02 OVMax= 2.04D-01

 Cycle   3  Pass 0  IDiag  1:
 E= -185.089754265169     Delta-E=       -0.052767658479 Rises=F Damp=F
 DIIS: error= 2.73D-02 at cycle   3 NSaved=   3.
 NSaved= 3 IEnMin= 3 EnMin= -185.089754265169     IErMin= 2 ErrMin= 2.65D-02
 ErrMax= 2.73D-02  0.00D+00 EMaxC= 1.00D-01 BMatC= 1.69D-01 BMatP= 2.14D-01
 IDIUse=3 WtCom= 7.27D-01 WtEn= 2.73D-01
 EnCoef did     2 forward-backward iterations
 Coeff-Com:  0.366D+00 0.395D+00 0.238D+00
 Coeff-En:   0.355D+00 0.139D+00 0.506D+00
 Coeff:      0.363D+00 0.326D+00 0.311D+00
 Gap=     0.105 Goal=   None    Shift=    0.000
 Gap=     0.184 Goal=   None    Shift=    0.000
 RMSDP=6.42D-03 MaxDP=7.96D-02 DE=-5.28D-02 OVMax= 1.71D-01

 Cycle   4  Pass 0  IDiag  1:
 E= -185.108264057524     Delta-E=       -0.018509792355 Rises=F Damp=F
 DIIS: error= 1.68D-02 at cycle   4 NSaved=   4.
 NSaved= 4 IEnMin= 4 EnMin= -185.108264057524     IErMin= 4 ErrMin= 1.68D-02
 ErrMax= 1.68D-02  0.00D+00 EMaxC= 1.00D-01 BMatC= 7.02D-02 BMatP= 1.69D-01
 IDIUse=3 WtCom= 8.32D-01 WtEn= 1.68D-01
 EnCoef did     1 forward-backward iterations
 Coeff-Com:  0.160D+00 0.345D-01 0.322D+00 0.483D+00
 Coeff-En:   0.113D-02 0.000D+00 0.375D+00 0.624D+00
 Coeff:      0.134D+00 0.288D-01 0.331D+00 0.507D+00
 Gap=     0.107 Goal=   None    Shift=    0.000
 Gap=     0.183 Goal=   None    Shift=    0.000
 RMSDP=3.58D-03 MaxDP=5.71D-02 DE=-1.85D-02 OVMax= 1.08D-01

 Cycle   5  Pass 0  IDiag  1:
 E= -185.123564607714     Delta-E=       -0.015300550191 Rises=F Damp=F
 DIIS: error= 3.20D-03 at cycle   5 NSaved=   5.
 NSaved= 5 IEnMin= 5 EnMin= -185.123564607714     IErMin= 5 ErrMin= 3.20D-03
 ErrMax= 3.20D-03  0.00D+00 EMaxC= 1.00D-01 BMatC= 3.10D-03 BMatP= 7.02D-02
 IDIUse=3 WtCom= 9.68D-01 WtEn= 3.20D-02
 Coeff-Com:  0.469D-01 0.130D-01 0.156D+00 0.294D+00 0.490D+00
 Coeff-En:   0.000D+00 0.000D+00 0.000D+00 0.866D-01 0.913D+00
 Coeff:      0.454D-01 0.126D-01 0.151D+00 0.288D+00 0.503D+00
 Gap=     0.112 Goal=   None    Shift=    0.000
 Gap=     0.179 Goal=   None    Shift=    0.000
 RMSDP=1.13D-03 MaxDP=2.12D-02 DE=-1.53D-02 OVMax= 3.61D-02

 Cycle   6  Pass 0  IDiag  1:
 E= -185.124373605115     Delta-E=       -0.000808997400 Rises=F Damp=F
 DIIS: error= 6.89D-04 at cycle   6 NSaved=   6.
 NSaved= 6 IEnMin= 6 EnMin= -185.124373605115     IErMin= 6 ErrMin= 6.89D-04
 ErrMax= 6.89D-04  0.00D+00 EMaxC= 1.00D-01 BMatC= 1.61D-04 BMatP= 3.10D-03
 IDIUse=3 WtCom= 9.93D-01 WtEn= 6.89D-03
 Coeff-Com: -0.189D-01 0.505D-02-0.130D-01-0.737D-02 0.276D+00 0.758D+00
 Coeff-En:   0.000D+00 0.000D+00 0.000D+00 0.000D+00 0.750D-01 0.925D+00
 Coeff:     -0.188D-01 0.501D-02-0.129D-01-0.732D-02 0.275D+00 0.759D+00
 Gap=     0.112 Goal=   None    Shift=    0.000
 Gap=     0.180 Goal=   None    Shift=    0.000
 RMSDP=3.06D-04 MaxDP=6.00D-03 DE=-8.09D-04 OVMax= 9.45D-03

 Cycle   7  Pass 0  IDiag  1:
 E= -185.124438640372     Delta-E=       -0.000065035257 Rises=F Damp=F
 DIIS: error= 1.98D-04 at cycle   7 NSaved=   7.
 NSaved= 7 IEnMin= 7 EnMin= -185.124438640372     IErMin= 7 ErrMin= 1.98D-04
 ErrMax= 1.98D-04  0.00D+00 EMaxC= 1.00D-01 BMatC= 7.10D-06 BMatP= 1.61D-04
 IDIUse=3 WtCom= 9.98D-01 WtEn= 1.98D-03
 Coeff-Com: -0.359D-02 0.417D-03-0.101D-01-0.120D-01-0.217D-01 0.545D-01
 Coeff-Com:  0.992D+00
 Coeff-En:   0.000D+00 0.000D+00 0.000D+00 0.000D+00 0.000D+00 0.000D+00
 Coeff-En:   0.100D+01
 Coeff:     -0.359D-02 0.416D-03-0.101D-01-0.119D-01-0.216D-01 0.544D-01
 Coeff:      0.992D+00
 Gap=     0.113 Goal=   None    Shift=    0.000
 Gap=     0.180 Goal=   None    Shift=    0.000
 RMSDP=5.77D-05 MaxDP=6.94D-04 DE=-6.50D-05 OVMax= 1.51D-03

 Cycle   8  Pass 0  IDiag  1:
 E= -185.124441223959     Delta-E=       -0.000002583588 Rises=F Damp=F
 DIIS: error= 5.60D-05 at cycle   8 NSaved=   8.
 NSaved= 8 IEnMin= 8 EnMin= -185.124441223959     IErMin= 8 ErrMin= 5.60D-05
 ErrMax= 5.60D-05  0.00D+00 EMaxC= 1.00D-01 BMatC= 7.50D-07 BMatP= 7.10D-06
 IDIUse=1 WtCom= 1.00D+00 WtEn= 0.00D+00
 Coeff-Com:  0.957D-03-0.108D-02-0.387D-03-0.188D-02-0.299D-01-0.601D-01
 Coeff-Com:  0.269D+00 0.823D+00
 Coeff:      0.957D-03-0.108D-02-0.387D-03-0.188D-02-0.299D-01-0.601D-01
 Coeff:      0.269D+00 0.823D+00
 Gap=     0.113 Goal=   None    Shift=    0.000
 Gap=     0.180 Goal=   None    Shift=    0.000
 RMSDP=1.20D-05 MaxDP=1.49D-04 DE=-2.58D-06 OVMax= 2.48D-04

 Cycle   9  Pass 0  IDiag  1:
 E= -185.124441454610     Delta-E=       -0.000000230651 Rises=F Damp=F
 DIIS: error= 2.31D-05 at cycle   9 NSaved=   9.
 NSaved= 9 IEnMin= 9 EnMin= -185.124441454610     IErMin= 9 ErrMin= 2.31D-05
 ErrMax= 2.31D-05  0.00D+00 EMaxC= 1.00D-01 BMatC= 8.26D-08 BMatP= 7.50D-07
 IDIUse=1 WtCom= 1.00D+00 WtEn= 0.00D+00
 Coeff-Com:  0.515D-03-0.440D-03 0.865D-03 0.251D-03-0.442D-02-0.175D-01
 Coeff-Com: -0.158D-01 0.163D+00 0.874D+00
 Coeff:      0.515D-03-0.440D-03 0.865D-03 0.251D-03-0.442D-02-0.175D-01
 Coeff:     -0.158D-01 0.163D+00 0.874D+00
 Gap=     0.113 Goal=   None    Shift=    0.000
 Gap=     0.180 Goal=   None    Shift=    0.000
 RMSDP=5.77D-06 MaxDP=6.64D-05 DE=-2.31D-07 OVMax= 1.55D-04

 Initial convergence to 1.0D-05 achieved.  Increase integral accuracy.
 Cycle  10  Pass 1  IDiag  1:
 E= -185.124438180209     Delta-E=        0.000003274401 Rises=F Damp=F
 DIIS: error= 5.42D-06 at cycle   1 NSaved=   1.
 NSaved= 1 IEnMin= 1 EnMin= -185.124438180209     IErMin= 1 ErrMin= 5.42D-06
 ErrMax= 5.42D-06  0.00D+00 EMaxC= 1.00D-01 BMatC= 5.35D-09 BMatP= 5.35D-09
 IDIUse=1 WtCom= 1.00D+00 WtEn= 0.00D+00
 Coeff-Com:  0.100D+01
 Coeff:      0.100D+01
 Gap=     0.113 Goal=   None    Shift=    0.000
 Gap=     0.180 Goal=   None    Shift=    0.000
 RMSDP=5.77D-06 MaxDP=6.64D-05 DE= 3.27D-06 OVMax= 1.33D-04

 Cycle  11  Pass 1  IDiag  1:
 E= -185.124438167353     Delta-E=        0.000000012857 Rises=F Damp=F
 DIIS: error= 1.73D-05 at cycle   2 NSaved=   2.
 NSaved= 2 IEnMin= 1 EnMin= -185.124438180209     IErMin= 1 ErrMin= 5.42D-06
 ErrMax= 1.73D-05  0.00D+00 EMaxC= 1.00D-01 BMatC= 6.14D-08 BMatP= 5.35D-09
 IDIUse=1 WtCom= 1.00D+00 WtEn= 0.00D+00
 Coeff-Com:  0.805D+00 0.195D+00
 Coeff:      0.805D+00 0.195D+00
 Gap=     0.113 Goal=   None    Shift=    0.000
 Gap=     0.180 Goal=   None    Shift=    0.000
 RMSDP=3.19D-06 MaxDP=4.74D-05 DE= 1.29D-08 OVMax= 9.58D-05

 Cycle  12  Pass 1  IDiag  1:
 E= -185.124438182536     Delta-E=       -0.000000015183 Rises=F Damp=F
 DIIS: error= 2.55D-06 at cycle   3 NSaved=   3.
 NSaved= 3 IEnMin= 3 EnMin= -185.124438182536     IErMin= 3 ErrMin= 2.55D-06
 ErrMax= 2.55D-06  0.00D+00 EMaxC= 1.00D-01 BMatC= 1.59D-09 BMatP= 5.35D-09
 IDIUse=1 WtCom= 1.00D+00 WtEn= 0.00D+00
 Coeff-Com:  0.277D+00 0.120D+00 0.602D+00
 Coeff:      0.277D+00 0.120D+00 0.602D+00
 Gap=     0.113 Goal=   None    Shift=    0.000
 Gap=     0.180 Goal=   None    Shift=    0.000
 RMSDP=1.02D-06 MaxDP=1.58D-05 DE=-1.52D-08 OVMax= 2.76D-05

 Cycle  13  Pass 1  IDiag  1:
 E= -185.124438182627     Delta-E=       -0.000000000091 Rises=F Damp=F
 DIIS: error= 2.57D-06 at cycle   4 NSaved=   4.
 NSaved= 4 IEnMin= 4 EnMin= -185.124438182627     IErMin= 3 ErrMin= 2.55D-06
 ErrMax= 2.57D-06  0.00D+00 EMaxC= 1.00D-01 BMatC= 1.47D-09 BMatP= 1.59D-09
 IDIUse=1 WtCom= 1.00D+00 WtEn= 0.00D+00
 Coeff-Com:  0.951D-02 0.610D-01 0.508D+00 0.422D+00
 Coeff:      0.951D-02 0.610D-01 0.508D+00 0.422D+00
 Gap=     0.113 Goal=   None    Shift=    0.000
 Gap=     0.180 Goal=   None    Shift=    0.000
 RMSDP=4.61D-07 MaxDP=7.95D-06 DE=-9.07D-11 OVMax= 1.04D-05

 Cycle  14  Pass 1  IDiag  1:
 E= -185.124438182982     Delta-E=       -0.000000000356 Rises=F Damp=F
 DIIS: error= 1.07D-06 at cycle   5 NSaved=   5.
 NSaved= 5 IEnMin= 5 EnMin= -185.124438182982     IErMin= 5 ErrMin= 1.07D-06
 ErrMax= 1.07D-06  0.00D+00 EMaxC= 1.00D-01 BMatC= 1.55D-10 BMatP= 1.47D-09
 IDIUse=1 WtCom= 1.00D+00 WtEn= 0.00D+00
 Coeff-Com: -0.706D-01 0.235D-01 0.156D+00 0.230D+00 0.661D+00
 Coeff:     -0.706D-01 0.235D-01 0.156D+00 0.230D+00 0.661D+00
 Gap=     0.113 Goal=   None    Shift=    0.000
 Gap=     0.180 Goal=   None    Shift=    0.000
 RMSDP=2.45D-07 MaxDP=3.31D-06 DE=-3.56D-10 OVMax= 5.57D-06

 Cycle  15  Pass 1  IDiag  1:
 E= -185.124438183030     Delta-E=       -0.000000000048 Rises=F Damp=F
 DIIS: error= 4.40D-07 at cycle   6 NSaved=   6.
 NSaved= 6 IEnMin= 6 EnMin= -185.124438183030     IErMin= 6 ErrMin= 4.40D-07
 ErrMax= 4.40D-07  0.00D+00 EMaxC= 1.00D-01 BMatC= 3.89D-11 BMatP= 1.55D-10
 IDIUse=1 WtCom= 1.00D+00 WtEn= 0.00D+00
 Coeff-Com: -0.556D-01 0.160D-02 0.848D-03 0.526D-01 0.417D+00 0.584D+00
 Coeff:     -0.556D-01 0.160D-02 0.848D-03 0.526D-01 0.417D+00 0.584D+00
 Gap=     0.113 Goal=   None    Shift=    0.000
 Gap=     0.180 Goal=   None    Shift=    0.000
 RMSDP=1.21D-07 MaxDP=2.03D-06 DE=-4.81D-11 OVMax= 3.29D-06

 Cycle  16  Pass 1  IDiag  1:
 E= -185.124438183041     Delta-E=       -0.000000000010 Rises=F Damp=F
 DIIS: error= 1.21D-07 at cycle   7 NSaved=   7.
 NSaved= 7 IEnMin= 7 EnMin= -185.124438183041     IErMin= 7 ErrMin= 1.21D-07
 ErrMax= 1.21D-07  0.00D+00 EMaxC= 1.00D-01 BMatC= 3.20D-12 BMatP= 3.89D-11
 IDIUse=1 WtCom= 1.00D+00 WtEn= 0.00D+00
 Coeff-Com: -0.111D-02-0.262D-02-0.384D-01-0.457D-01 0.393D-02 0.224D+00
 Coeff-Com:  0.860D+00
 Coeff:     -0.111D-02-0.262D-02-0.384D-01-0.457D-01 0.393D-02 0.224D+00
 Coeff:      0.860D+00
 Gap=     0.113 Goal=   None    Shift=    0.000
 Gap=     0.180 Goal=   None    Shift=    0.000
 RMSDP=4.70D-08 MaxDP=7.23D-07 DE=-1.05D-11 OVMax= 1.02D-06

 Cycle  17  Pass 1  IDiag  1:
 E= -185.124438183043     Delta-E=       -0.000000000002 Rises=F Damp=F
 DIIS: error= 4.50D-08 at cycle   8 NSaved=   8.
 NSaved= 8 IEnMin= 8 EnMin= -185.124438183043     IErMin= 8 ErrMin= 4.50D-08
 ErrMax= 4.50D-08  0.00D+00 EMaxC= 1.00D-01 BMatC= 3.58D-13 BMatP= 3.20D-12
 IDIUse=1 WtCom= 1.00D+00 WtEn= 0.00D+00
 Coeff-Com:  0.115D-02-0.234D-02-0.108D-01-0.148D-01-0.123D-01 0.395D-01
 Coeff-Com:  0.272D+00 0.728D+00
 Coeff:      0.115D-02-0.234D-02-0.108D-01-0.148D-01-0.123D-01 0.395D-01
 Coeff:      0.272D+00 0.728D+00
 Gap=     0.113 Goal=   None    Shift=    0.000
 Gap=     0.180 Goal=   None    Shift=    0.000
 RMSDP=1.13D-08 MaxDP=1.73D-07 DE=-2.10D-12 OVMax= 3.49D-07

 Cycle  18  Pass 1  IDiag  1:
 E= -185.124438183043     Delta-E=        0.000000000000 Rises=F Damp=F
 DIIS: error= 3.40D-09 at cycle   9 NSaved=   9.
 NSaved= 9 IEnMin= 8 EnMin= -185.124438183043     IErMin= 9 ErrMin= 3.40D-09
 ErrMax= 3.40D-09  0.00D+00 EMaxC= 1.00D-01 BMatC= 2.77D-15 BMatP= 3.58D-13
 IDIUse=1 WtCom= 1.00D+00 WtEn= 0.00D+00
 Coeff-Com:  0.162D-03 0.732D-04 0.190D-02 0.270D-02-0.127D-02-0.109D-01
 Coeff-Com: -0.469D-01 0.241D-01 0.103D+01
 Coeff:      0.162D-03 0.732D-04 0.190D-02 0.270D-02-0.127D-02-0.109D-01
 Coeff:     -0.469D-01 0.241D-01 0.103D+01
 Gap=     0.113 Goal=   None    Shift=    0.000
 Gap=     0.180 Goal=   None    Shift=    0.000
 RMSDP=1.22D-09 MaxDP=1.27D-08 DE= 4.83D-13 OVMax= 3.20D-08

 SCF Done:  E(UB-LYP) =  -185.124438183     A.U. after   18 cycles
            NFock= 18  Conv=0.12D-08     -V/T= 2.0058
 <Sx>= 0.0000 <Sy>= 0.0000 <Sz>= 0.5000 <S**2>= 0.7582 S= 0.5041
 <L.S>= 0.000000000000E+00
 KE= 1.840490115551D+02 PE=-5.654489162840D+02 EE= 1.305890854124D+02
 Annihilation of the first spin contaminant:
 S**2 before annihilation     0.7582,   after     0.7500
 Leave Link  502 at Wed Oct  7 14:48:52 2020, MaxMem=  2684354560 cpu:              26.6 elap:               2.7
 (Enter /udrive/faculty/rpeverati/g16/g16/l508.exe)
 QCSCF skips out because SCF is already converged.
 Leave Link  508 at Wed Oct  7 14:48:53 2020, MaxMem=  2684354560 cpu:               0.6 elap:               0.4
 (Enter /udrive/faculty/rpeverati/g16/g16/l601.exe)
 Copying SCF densities to generalized density rwf, IOpCl= 1 IROHF=0.

 **********************************************************************

            Population analysis using the SCF density.

 **********************************************************************

 Orbital symmetries:
 Alpha Orbitals:
       Occupied  (A') (A') (A') (A') (A') (A') (A') (A") (A') (A')
                 (A") (A')
       Virtual   (A') (A") (A') (A') (A') (A") (A') (A') (A') (A")
                 (A') (A') (A") (A') (A') (A') (A") (A') (A") (A')
                 (A") (A') (A') (A") (A') (A") (A') (A') (A') (A')
                 (A") (A')
 Beta  Orbitals:
       Occupied  (A') (A') (A') (A') (A') (A') (A") (A') (A') (A')
                 (A")
       Virtual   (A') (A") (A') (A') (A') (A") (A') (A') (A') (A')
                 (A") (A') (A') (A") (A') (A') (A') (A") (A') (A")
                 (A') (A") (A') (A') (A") (A') (A") (A') (A') (A')
                 (A') (A") (A')
 The electronic state is 2-A'.
 Alpha  occ. eigenvalues --  -18.91477 -14.21750 -14.11157  -1.12190  -0.97798
 Alpha  occ. eigenvalues --   -0.57788  -0.48930  -0.48356  -0.41106  -0.33465
 Alpha  occ. eigenvalues --   -0.29911  -0.17495
 Alpha virt. eigenvalues --   -0.06239  -0.04923   0.11899   0.42083   0.53889
 Alpha virt. eigenvalues --    0.55743   0.56100   0.64088   0.66875   0.69774
 Alpha virt. eigenvalues --    0.70760   0.72304   0.87353   0.88725   1.06537
 Alpha virt. eigenvalues --    1.30147   1.32401   1.33453   1.34275   1.41761
 Alpha virt. eigenvalues --    1.63587   1.67121   1.72039   1.85789   1.87469
 Alpha virt. eigenvalues --    2.10710   2.11012   2.48807   2.70321   2.75992
 Alpha virt. eigenvalues --    2.77920   3.07639
  Beta  occ. eigenvalues --  -18.91347 -14.21524 -14.10640  -1.11619  -0.97157
  Beta  occ. eigenvalues --   -0.56809  -0.48010  -0.47935  -0.39974  -0.31521
  Beta  occ. eigenvalues --   -0.29575
  Beta virt. eigenvalues --   -0.11544  -0.04352  -0.02245   0.12516   0.42590
  Beta virt. eigenvalues --    0.55980   0.56458   0.57356   0.67301   0.69192
  Beta virt. eigenvalues --    0.70117   0.72410   0.73866   0.87421   0.89262
  Beta virt. eigenvalues --    1.08172   1.31140   1.32812   1.34434   1.34908
  Beta virt. eigenvalues --    1.42300   1.64243   1.67983   1.73201   1.86653
  Beta virt. eigenvalues --    1.88595   2.11050   2.11829   2.49559   2.70559
  Beta virt. eigenvalues --    2.77316   2.78292   3.08233
          Condensed to atoms (all electrons):
               1          2          3          4
     1  H    1.009031  -0.068395   0.000581   0.006895
     2  O   -0.068395   8.220772   0.277998  -0.092158
     3  N    0.000581   0.277998   5.820674   0.503710
     4  N    0.006895  -0.092158   0.503710   6.692260
          Atomic-Atomic Spin Densities.
               1          2          3          4
     1  H    0.849630  -0.218441   0.016422   0.013709
     2  O   -0.218441   0.232408  -0.067069  -0.009024
     3  N    0.016422  -0.067069   0.234916  -0.072946
     4  N    0.013709  -0.009024  -0.072946   0.357744
 Mulliken charges and spin densities:
               1          2
     1  H    0.051888   0.661320
     2  O   -0.338217  -0.062127
     3  N    0.397037   0.111323
     4  N   -0.110708   0.289483
 Sum of Mulliken charges =  -0.00000   1.00000
 Mulliken charges and spin densities with hydrogens summed into heavy atoms:
               1          2
     2  O   -0.286329   0.599194
     3  N    0.397037   0.111323
     4  N   -0.110708   0.289483
 Electronic spatial extent (au):  <R**2>=            126.1379
 Charge=             -0.0000 electrons
 Dipole moment (field-independent basis, Debye):
    X=             -0.2935    Y=             -0.2257    Z=              0.0000  Tot=              0.3702
 Quadrupole moment (field-independent basis, Debye-Ang):
   XX=            -18.8530   YY=            -17.3279   ZZ=            -16.2222
   XY=             -1.5415   XZ=             -0.0000   YZ=             -0.0000
 Traceless Quadrupole moment (field-independent basis, Debye-Ang):
   XX=             -1.3853   YY=              0.1398   ZZ=              1.2456
   XY=             -1.5415   XZ=             -0.0000   YZ=             -0.0000
 Octapole moment (field-independent basis, Debye-Ang**2):
  XXX=             -3.8021  YYY=              0.6446  ZZZ=             -0.0000  XYY=             -1.8439
  XXY=             -0.8016  XXZ=             -0.0000  XZZ=             -0.6337  YZZ=              0.5108
  YYZ=             -0.0000  XYZ=             -0.0000
 Hexadecapole moment (field-independent basis, Debye-Ang**3):
 XXXX=            -75.2822 YYYY=            -74.5613 ZZZZ=            -12.4618 XXXY=            -24.8155
 XXXZ=             -0.0000 YYYX=            -23.5363 YYYZ=             -0.0000 ZZZX=             -0.0000
 ZZZY=             -0.0000 XXYY=            -25.1319 XXZZ=            -14.1111 YYZZ=            -14.2488
 XXYZ=             -0.0000 YYXZ=             -0.0000 ZZXY=             -7.6813
 N-N= 6.568638113341D+01 E-N=-5.654489163017D+02  KE= 1.840490115551D+02
                          Isotropic Fermi Contact Couplings
        Atom                 a.u.       MegaHertz       Gauss      10(-4) cm-1
     1  H(1)               0.20079     897.48599     320.24532     299.36910
     2  O(17)              0.50094    -303.66919    -108.35672    -101.29314
     3  N(14)              0.11238      36.31005      12.95633      12.11173
     4  N(14)              0.04006      12.94482       4.61903       4.31793
 --------------------------------------------------------
       Center         ----  Spin Dipole Couplings  ----
                      3XX-RR        3YY-RR        3ZZ-RR
 --------------------------------------------------------
     1   Atom        0.007394     -0.017558      0.010164
     2   Atom        0.203828     -0.227430      0.023602
     3   Atom        0.191648     -0.033510     -0.158138
     4   Atom        0.042639      0.274825     -0.317464
 --------------------------------------------------------
                        XY            XZ            YZ
 --------------------------------------------------------
     1   Atom        0.014039      0.000000     -0.000000
     2   Atom        0.085204     -0.000000      0.000000
     3   Atom       -0.181163     -0.000000     -0.000000
     4   Atom       -0.481188      0.000000     -0.000000
 --------------------------------------------------------


 ---------------------------------------------------------------------------------
              Anisotropic Spin Dipole Couplings in Principal Axis System
 ---------------------------------------------------------------------------------

       Atom             a.u.   MegaHertz   Gauss  10(-4) cm-1        Axes

              Baa    -0.0239   -12.733    -4.543    -4.247 -0.4097  0.9122  0.0000
     1 H(1)   Bbb     0.0102     5.423     1.935     1.809  0.0000  0.0000  1.0000
              Bcc     0.0137     7.309     2.608     2.438  0.9122  0.4097  0.0000
 
              Baa    -0.2437    17.631     6.291     5.881 -0.1870  0.9824  0.0000
     2 O(17)  Bbb     0.0236    -1.708    -0.609    -0.570  0.0000  0.0000  1.0000
              Bcc     0.2201   -15.923    -5.682    -5.311  0.9824  0.1870  0.0000
 
              Baa    -0.1581    -6.099    -2.176    -2.034  0.0000  0.0000  1.0000
     3 N(14)  Bbb    -0.1342    -5.177    -1.847    -1.727  0.4859  0.8740 -0.0000
              Bcc     0.2924    11.276     4.023     3.761  0.8740 -0.4859  0.0000
 
              Baa    -0.3363   -12.969    -4.628    -4.326  0.7857  0.6187  0.0000
     4 N(14)  Bbb    -0.3175   -12.244    -4.369    -4.084  0.0000  0.0000  1.0000
              Bcc     0.6537    25.213     8.997     8.410 -0.6187  0.7857  0.0000
 

 ---------------------------------------------------------------------------------

 No NMR shielding tensors so no spin-rotation constants.
 Leave Link  601 at Wed Oct  7 14:48:54 2020, MaxMem=  2684354560 cpu:               6.8 elap:               0.9
 (Enter /udrive/faculty/rpeverati/g16/g16/l701.exe)
 ... and contract with generalized density number  0.
 Compute integral first derivatives.
 Leave Link  701 at Wed Oct  7 14:48:55 2020, MaxMem=  2684354560 cpu:               4.1 elap:               0.8
 (Enter /udrive/faculty/rpeverati/g16/g16/l702.exe)
 L702 exits ... SP integral derivatives will be done elsewhere.
 Leave Link  702 at Wed Oct  7 14:48:56 2020, MaxMem=  2684354560 cpu:               2.4 elap:               0.6
 (Enter /udrive/faculty/rpeverati/g16/g16/l703.exe)
 Integral derivatives from FoFJK, PRISM(SPDF).
 Compute integral first derivatives, UseDBF=F ICtDFT=           0.
 Calling FoFJK, ICntrl=      2527 FMM=F ISym2X=1 I1Cent= 0 IOpClX= 0 NMat=1 NMatS=1 NMatT=0.
 FoFJK:  IHMeth= 1 ICntrl=    2527 DoSepK=F KAlg= 0 I1Cent=           0 FoldK=F
 IRaf=         0 NMat=       1 IRICut=       1 DoRegI=T DoRafI=F ISym2E= 1 IDoP0=0 IntGTp=1.
 FoFCou: FMM=F IPFlag=           0 FMFlag=      100000 FMFlg1=         800
         NFxFlg=           0 DoJE=F BraDBF=F KetDBF=F FulRan=T
         wScrn=  0.000000 ICntrl=      2527 IOpCl=  0 I1Cent=           0 NGrid=           0
         NMat0=    1 NMatS0=      1 NMatT0=    0 NMatD0=    1 NMtDS0=    0 NMtDT0=    0
 Petite list used in FoFCou.
 Leave Link  703 at Wed Oct  7 14:48:58 2020, MaxMem=  2684354560 cpu:               7.9 elap:               1.0
 (Enter /udrive/faculty/rpeverati/g16/g16/l716.exe)
 Dipole        =-1.15456203D-01-8.87960855D-02 2.41501087D-33
 ***** Axes restored to original set *****
 -------------------------------------------------------------------
 Center     Atomic                   Forces (Hartrees/Bohr)
 Number     Number              X              Y              Z
 -------------------------------------------------------------------
      1        1          -0.001665036   -0.001828621    0.000000000
      2        8          -0.019418127   -0.027280119    0.000000000
      3        7          -0.052923661   -0.001645618   -0.000000000
      4        7           0.074006824    0.030754358   -0.000000000
 -------------------------------------------------------------------
 Cartesian Forces:  Max     0.074006824 RMS     0.029373808
 Leave Link  716 at Wed Oct  7 14:48:58 2020, MaxMem=  2684354560 cpu:               2.3 elap:               0.7
 (Enter /udrive/faculty/rpeverati/g16/g16/l103.exe)

 GradGradGradGradGradGradGradGradGradGradGradGradGradGradGradGradGradGrad
 Berny optimization.
 Optmz: redundant internal coordinate code flag= 1
 FormGI is forming the generalized inverse of G from B-inverse, IUseBI=4.
 Internal  Forces:  Max     0.080087949 RMS     0.035951609
 Search for a saddle point.
 Step number   1 out of a maximum of   50
 All quantities printed in internal units (Hartrees-Bohrs-Radians)
 Swapping is turned off.
 Second derivative matrix not updated -- first step.
 The second derivative matrix:
                          R1        R2        R3        A1        A2
           R1           0.13583
           R2           0.00000   0.91038
           R3           0.00000   0.00000   1.49133
           A1           0.00000   0.00000   0.00000   0.16000
           A2           0.00000   0.00000   0.00000   0.00000   0.25000
           D1           0.00000   0.00000   0.00000   0.00000   0.00000
                          D1
           D1           0.03542
 ITU=  0
 Eigenvectors of the second derivative matrix:
                           1         2         3         4         5
     Eigenvalues --     0.03542   0.13583   0.16000   0.25000   0.91038
   1         R1         0.00000  -1.00000   0.00000   0.00000   0.00000
   2         R2         0.00000   0.00000   0.00000  -0.00000   1.00000
   3         R3         0.00000   0.00000   0.00000  -0.00000  -0.00000
   4         A1        -0.00000   0.00000   1.00000  -0.00000  -0.00000
   5         A2        -0.00000  -0.00000  -0.00000  -1.00000  -0.00000
   6         D1         1.00000   0.00000   0.00000  -0.00000  -0.00000
                           6
     Eigenvalues --     1.49133
   1         R1        -0.00000
   2         R2        -0.00000
   3         R3        -1.00000
   4         A1         0.00000
   5         A2         0.00000
   6         D1         0.00000
 Eigenvalue     1 is   3.54D-02 should be less than     0.000000 Eigenvector:
                          D1        R1        A1        A2        R3
   1                    1.00000   0.00000  -0.00000  -0.00000   0.00000
                          R2
   1                    0.00000
 RLam0= 3.54D-02.
 Iter=   1 RLamda= 0.00000000D+00 Sum=-6.08460213D-03.
 Iter=   2 RLamda=-6.08460213D-03 Sum=-6.04541722D-03.
 Iter=   3 RLamda=-6.04541722D-03 Sum=-6.04566610D-03.
 Iter=   4 RLamda=-6.04566610D-03 Sum=-6.04566452D-03.
 RFO step:  Lambda0=3.542034317D-02 Lambda=-6.04566610D-03.
 Linear search not attempted -- option 19 set.
 Iteration  1 RMS(Cart)=  0.04226142 RMS(Int)=  0.00219109
 Iteration  2 RMS(Cart)=  0.00084014 RMS(Int)=  0.00000200
 Iteration  3 RMS(Cart)=  0.00000265 RMS(Int)=  0.00000000
 Iteration  4 RMS(Cart)=  0.00000000 RMS(Int)=  0.00000000
 ITry= 1 IFail=0 DXMaxC= 5.24D-02 DCOld= 1.00D+10 DXMaxT= 1.00D-01 DXLimC= 3.00D+00 Rises=F
 ClnCor:  largest displacement from symmetrization is 1.91D-02 for atom     3.
 Variable       Old X    -DE/DX   Delta X   Delta X   Delta X     New X
                                 (Linear)    (Quad)   (Total)
    R1        2.68915   0.00103   0.00000   0.00726   0.00722   2.69636
    R2        2.32458   0.03555   0.00000   0.03879   0.03858   2.36316
    R3        2.13654   0.08009   0.00000   0.05349   0.05330   2.18984
    A1        1.96356   0.00605   0.00000   0.03641   0.03654   2.00010
    A2        2.77685  -0.00631   0.00000  -0.02466  -0.02377   2.75308
    D1        0.00000  -0.00000   0.00000  -0.07970   0.00000   0.00000
         Item               Value     Threshold  Converged?
 Maximum Force            0.080088     0.000450     NO 
 RMS     Force            0.035952     0.000300     NO 
 Maximum Displacement     0.052447     0.001800     NO 
 RMS     Displacement     0.041235     0.001200     NO 
 Predicted change in Energy=-3.041668D-03
 Lowest energy point so far.  Saving SCF results.
 Largest change from initial coordinates is atom    4       0.035 Angstoms.
 GradGradGradGradGradGradGradGradGradGradGradGradGradGradGradGradGradGrad

 Leave Link  103 at Wed Oct  7 14:48:59 2020, MaxMem=  2684354560 cpu:               3.0 elap:               0.6
 (Enter /udrive/faculty/rpeverati/g16/g16/l202.exe)
                          Input orientation:                          
 ---------------------------------------------------------------------
 Center     Atomic      Atomic             Coordinates (Angstroms)
 Number     Number       Type             X           Y           Z
 ---------------------------------------------------------------------
      1          1           0       -0.321253   -1.958467    0.000000
      2          8           0       -0.860571   -0.637464    0.000000
      3          7           0       -0.004614    0.274218   -0.000000
      4          7           0        1.049477    0.755608   -0.000000
 ---------------------------------------------------------------------
                    Distance matrix (angstroms):
                    1          2          3          4
     1  H    0.000000
     2  O    1.426855   0.000000
     3  N    2.255026   1.250530   0.000000
     4  N    3.040576   2.364092   1.158811   0.000000
 Stoichiometry    HN2O(2)
 Framework group  CS[SG(HN2O)]
 Deg. of freedom     5
 Full point group                 CS      NOp   2
 RotChk:  IX=0 Diff= 4.92D-02
 Largest Abelian subgroup         CS      NOp   2
 Largest concise Abelian subgroup C1      NOp   1
                         Standard orientation:                         
 ---------------------------------------------------------------------
 Center     Atomic      Atomic             Coordinates (Angstroms)
 Number     Number       Type             X           Y           Z
 ---------------------------------------------------------------------
      1          1           0       -0.394133   -1.952484   -0.000000
      2          8           0       -0.887160   -0.613515   -0.000000
      3          7           0       -0.000000    0.267832    0.000000
      4          7           0        1.070202    0.712254    0.000000
 ---------------------------------------------------------------------
 Rotational constants (GHZ):         204.4504322          11.4351794          10.8294728
 Leave Link  202 at Wed Oct  7 14:49:00 2020, MaxMem=  2684354560 cpu:               1.1 elap:               0.4
 (Enter /udrive/faculty/rpeverati/g16/g16/l301.exe)
 Standard basis: 6-31G(d) (5D, 7F)
 Ernie: Thresh=  0.10000D-02 Tol=  0.10000D-05 Strict=F.
 There are    35 symmetry adapted cartesian basis functions of A'  symmetry.
 There are    12 symmetry adapted cartesian basis functions of A"  symmetry.
 There are    32 symmetry adapted basis functions of A'  symmetry.
 There are    12 symmetry adapted basis functions of A"  symmetry.
    44 basis functions,    88 primitive gaussians,    47 cartesian basis functions
    12 alpha electrons       11 beta electrons
       nuclear repulsion energy        64.4360909794 Hartrees.
 IExCor=  402 DFT=T Ex=B Corr=LYP ExCW=0 ScaHFX=  0.000000
 ScaDFX=  1.000000  1.000000  1.000000  1.000000 ScalE2=  1.000000  1.000000
 IRadAn=      5 IRanWt=     -1 IRanGd=            0 ICorTp=0 IEmpDi=  4
 NAtoms=    4 NActive=    4 NUniq=    4 SFac= 1.00D+00 NAtFMM=   60 NAOKFM=F Big=F
 Integral buffers will be    131072 words long.
 Raffenetti 2 integral format.
 Two-electron integral symmetry is turned on.
 Leave Link  301 at Wed Oct  7 14:49:01 2020, MaxMem=  2684354560 cpu:               2.4 elap:               0.5
 (Enter /udrive/faculty/rpeverati/g16/g16/l302.exe)
 NPDir=0 NMtPBC=     1 NCelOv=     1 NCel=       1 NClECP=     1 NCelD=      1
         NCelK=      1 NCelE2=     1 NClLst=     1 CellRange=     0.0.
 One-electron integrals computed using PRISM.
 One-electron integral symmetry used in STVInt
 NBasis=    44 RedAO= T EigKep=  3.40D-03  NBF=    32    12
 NBsUse=    44 1.00D-06 EigRej= -1.00D+00 NBFU=    32    12
 Precomputing XC quadrature grid using
 IXCGrd= 4 IRadAn=           5 IRanWt=          -1 IRanGd=           0 AccXCQ= 0.00D+00.
 Generated NRdTot=       0 NPtTot=           0 NUsed=           0 NTot=          32
 NSgBfM=    47    47    47    47    47 MxSgAt=     4 MxSgA2=     4.
 Leave Link  302 at Wed Oct  7 14:49:02 2020, MaxMem=  2684354560 cpu:               4.7 elap:               0.7
 (Enter /udrive/faculty/rpeverati/g16/g16/l303.exe)
 DipDrv:  MaxL=1.
 Leave Link  303 at Wed Oct  7 14:49:02 2020, MaxMem=  2684354560 cpu:               2.2 elap:               0.7
 (Enter /udrive/faculty/rpeverati/g16/g16/l401.exe)
 Initial guess from the checkpoint file:  "MN_68_n2ohts_BH76_BLYP_631Gs.chk"
 SCF N**3 symmetry information disabled.
 B after Tr=     0.000000    0.000000   -0.000000
         Rot=    0.999903    0.000000    0.000000    0.013953 Ang=   1.60 deg.
 Guess basis will be translated and rotated to current coordinates.
 JPrj=2 DoOrth=T DoCkMO=T.
 Initial guess orbital symmetries:
 Alpha Orbitals:
       Occupied  (A') (A') (A') (A') (A') (A') (A') (A") (A') (A')
                 (A") (A')
       Virtual   (A') (A") (A') (A') (A') (A") (A') (A') (A') (A")
                 (A') (A') (A") (A') (A') (A') (A") (A') (A") (A')
                 (A") (A') (A') (A") (A') (A") (A') (A') (A') (A')
                 (A") (A')
 Beta  Orbitals:
       Occupied  (A') (A') (A') (A') (A') (A') (A") (A') (A') (A')
                 (A")
       Virtual   (A') (A") (A') (A') (A') (A") (A') (A') (A') (A')
                 (A") (A') (A') (A") (A') (A') (A') (A") (A') (A")
                 (A') (A") (A') (A') (A") (A') (A") (A') (A') (A')
                 (A') (A") (A')
 The electronic state of the initial guess is 2-A'.
 Initial guess <Sx>= 0.0000 <Sy>= 0.0000 <Sz>= 0.5000 <S**2>= 0.7583 S= 0.5042
 Generating alternative initial guess.
 ExpMin= 1.61D-01 ExpMax= 5.48D+03 ExpMxC= 8.25D+02 IAcc=2 IRadAn=         4 AccDes= 0.00D+00
 Harris functional with IExCor=  402 and IRadAn=       4 diagonalized for initial guess.
 HarFok:  IExCor=  402 AccDes= 0.00D+00 IRadAn=         4 IDoV= 1 UseB2=F ITyADJ=14
 ICtDFT=  3500011 ScaDFX=  1.000000  1.000000  1.000000  1.000000
 FoFCou: FMM=F IPFlag=           0 FMFlag=      100000 FMFlg1=           0
         NFxFlg=           0 DoJE=T BraDBF=F KetDBF=T FulRan=T
         wScrn=  0.000000 ICntrl=       500 IOpCl=  0 I1Cent=   200000004 NGrid=           0
         NMat0=    1 NMatS0=      1 NMatT0=    0 NMatD0=    1 NMtDS0=    0 NMtDT0=    0
 Petite list used in FoFCou.
 Harris En= -185.106029488741    
 Leave Link  401 at Wed Oct  7 14:49:04 2020, MaxMem=  2684354560 cpu:              10.4 elap:               1.3
 (Enter /udrive/faculty/rpeverati/g16/g16/l502.exe)
 Keep J ints in memory in symmetry-blocked form, NReq=10900634.
 FoFCou: FMM=F IPFlag=           0 FMFlag=           0 FMFlg1=           0
         NFxFlg=           0 DoJE=F BraDBF=F KetDBF=F FulRan=T
         wScrn=  0.000000 ICntrl=       600 IOpCl=  0 I1Cent=           0 NGrid=           0
         NMat0=    1 NMatS0=    990 NMatT0=    0 NMatD0=    1 NMtDS0=    0 NMtDT0=    0
 Petite list used in FoFCou.
 UHF open shell SCF:
 Using DIIS extrapolation, IDIIS=  1040.
 NGot=  2684354560 LenX=  2684088460 LenY=  2684085810
 Requested convergence on RMS density matrix=1.00D-08 within 120 cycles.
 Requested convergence on MAX density matrix=1.00D-06.
 Requested convergence on             energy=1.00D-06.
 No special actions if energy rises.
 Integral accuracy reduced to 1.0D-05 until final iterations.

 Cycle   1  Pass 0  IDiag  1:
 E= -185.126984957289    
 DIIS: error= 3.49D-03 at cycle   1 NSaved=   1.
 NSaved= 1 IEnMin= 1 EnMin= -185.126984957289     IErMin= 1 ErrMin= 3.49D-03
 ErrMax= 3.49D-03  0.00D+00 EMaxC= 1.00D-01 BMatC= 3.54D-03 BMatP= 3.54D-03
 IDIUse=3 WtCom= 9.65D-01 WtEn= 3.49D-02
 Coeff-Com:  0.100D+01
 Coeff-En:   0.100D+01
 Coeff:      0.100D+01
 Gap=     0.110 Goal=   None    Shift=    0.000
 Gap=     0.173 Goal=   None    Shift=    0.000
 GapD=    0.110 DampG=1.000 DampE=1.000 DampFc=1.0000 IDamp=-1.
 RMSDP=1.84D-03 MaxDP=2.90D-02              OVMax= 4.11D-02

 Cycle   2  Pass 0  IDiag  1:
 E= -185.128168600683     Delta-E=       -0.001183643394 Rises=F Damp=F
 DIIS: error= 1.04D-03 at cycle   2 NSaved=   2.
 NSaved= 2 IEnMin= 2 EnMin= -185.128168600683     IErMin= 2 ErrMin= 1.04D-03
 ErrMax= 1.04D-03  0.00D+00 EMaxC= 1.00D-01 BMatC= 3.03D-04 BMatP= 3.54D-03
 IDIUse=3 WtCom= 9.90D-01 WtEn= 1.04D-02
 Coeff-Com:  0.146D+00 0.854D+00
 Coeff-En:   0.000D+00 0.100D+01
 Coeff:      0.144D+00 0.856D+00
 Gap=     0.109 Goal=   None    Shift=    0.000
 Gap=     0.169 Goal=   None    Shift=    0.000
 RMSDP=5.74D-04 MaxDP=7.24D-03 DE=-1.18D-03 OVMax= 1.49D-02

 Cycle   3  Pass 0  IDiag  1:
 E= -185.128221412008     Delta-E=       -0.000052811325 Rises=F Damp=F
 DIIS: error= 9.09D-04 at cycle   3 NSaved=   3.
 NSaved= 3 IEnMin= 3 EnMin= -185.128221412008     IErMin= 3 ErrMin= 9.09D-04
 ErrMax= 9.09D-04  0.00D+00 EMaxC= 1.00D-01 BMatC= 1.15D-04 BMatP= 3.03D-04
 IDIUse=3 WtCom= 9.91D-01 WtEn= 9.09D-03
 Coeff-Com:  0.406D-01 0.366D+00 0.593D+00
 Coeff-En:   0.000D+00 0.286D+00 0.714D+00
 Coeff:      0.402D-01 0.366D+00 0.594D+00
 Gap=     0.108 Goal=   None    Shift=    0.000
 Gap=     0.169 Goal=   None    Shift=    0.000
 RMSDP=5.07D-04 MaxDP=9.51D-03 DE=-5.28D-05 OVMax= 1.70D-02

 Cycle   4  Pass 0  IDiag  1:
 E= -185.128221608776     Delta-E=       -0.000000196767 Rises=F Damp=F
 DIIS: error= 7.84D-04 at cycle   4 NSaved=   4.
 NSaved= 4 IEnMin= 4 EnMin= -185.128221608776     IErMin= 4 ErrMin= 7.84D-04
 ErrMax= 7.84D-04  0.00D+00 EMaxC= 1.00D-01 BMatC= 1.65D-04 BMatP= 1.15D-04
 IDIUse=3 WtCom= 2.63D-01 WtEn= 7.37D-01
 Coeff-Com:  0.922D-02 0.237D+00 0.483D+00 0.271D+00
 Coeff-En:   0.000D+00 0.000D+00 0.499D+00 0.501D+00
 Coeff:      0.243D-02 0.623D-01 0.495D+00 0.440D+00
 Gap=     0.109 Goal=   None    Shift=    0.000
 Gap=     0.169 Goal=   None    Shift=    0.000
 RMSDP=3.06D-04 MaxDP=5.44D-03 DE=-1.97D-07 OVMax= 9.57D-03

 Cycle   5  Pass 0  IDiag  1:
 E= -185.128231813331     Delta-E=       -0.000010204556 Rises=F Damp=F
 DIIS: error= 9.13D-04 at cycle   5 NSaved=   5.
 NSaved= 5 IEnMin= 5 EnMin= -185.128231813331     IErMin= 4 ErrMin= 7.84D-04
 ErrMax= 9.13D-04  0.00D+00 EMaxC= 1.00D-01 BMatC= 1.92D-04 BMatP= 1.15D-04
 IDIUse=3 WtCom= 2.49D-01 WtEn= 7.51D-01
 EnCoef did     7 forward-backward iterations
 Coeff-Com: -0.282D-03 0.129D+00 0.363D+00 0.325D+00 0.183D+00
 Coeff-En:   0.000D+00 0.000D+00 0.187D+00 0.420D+00 0.393D+00
 Coeff:     -0.702D-04 0.321D-01 0.231D+00 0.396D+00 0.341D+00
 Gap=     0.109 Goal=   None    Shift=    0.000
 Gap=     0.169 Goal=   None    Shift=    0.000
 RMSDP=1.57D-04 MaxDP=1.71D-03 DE=-1.02D-05 OVMax= 3.53D-03

 Cycle   6  Pass 0  IDiag  1:
 E= -185.128261220805     Delta-E=       -0.000029407474 Rises=F Damp=F
 DIIS: error= 3.91D-04 at cycle   6 NSaved=   6.
 NSaved= 6 IEnMin= 6 EnMin= -185.128261220805     IErMin= 6 ErrMin= 3.91D-04
 ErrMax= 3.91D-04  0.00D+00 EMaxC= 1.00D-01 BMatC= 5.34D-05 BMatP= 1.15D-04
 IDIUse=3 WtCom= 9.96D-01 WtEn= 3.91D-03
 EnCoef did     6 forward-backward iterations
 Coeff-Com: -0.471D-03 0.382D-01 0.186D+00 0.263D+00 0.264D+00 0.249D+00
 Coeff-En:   0.000D+00 0.000D+00 0.000D+00 0.719D-01 0.290D+00 0.638D+00
 Coeff:     -0.470D-03 0.381D-01 0.185D+00 0.262D+00 0.264D+00 0.251D+00
 Gap=     0.109 Goal=   None    Shift=    0.000
 Gap=     0.169 Goal=   None    Shift=    0.000
 RMSDP=6.79D-05 MaxDP=9.28D-04 DE=-2.94D-05 OVMax= 1.21D-03

 Cycle   7  Pass 0  IDiag  1:
 E= -185.128272448051     Delta-E=       -0.000011227246 Rises=F Damp=F
 DIIS: error= 7.67D-05 at cycle   7 NSaved=   7.
 NSaved= 7 IEnMin= 7 EnMin= -185.128272448051     IErMin= 7 ErrMin= 7.67D-05
 ErrMax= 7.67D-05  0.00D+00 EMaxC= 1.00D-01 BMatC= 1.35D-06 BMatP= 5.34D-05
 IDIUse=1 WtCom= 1.00D+00 WtEn= 0.00D+00
 Coeff-Com: -0.743D-03-0.250D-01 0.119D-01 0.849D-01 0.163D+00 0.228D+00
 Coeff-Com:  0.538D+00
 Coeff:     -0.743D-03-0.250D-01 0.119D-01 0.849D-01 0.163D+00 0.228D+00
 Coeff:      0.538D+00
 Gap=     0.109 Goal=   None    Shift=    0.000
 Gap=     0.169 Goal=   None    Shift=    0.000
 RMSDP=1.08D-05 MaxDP=1.57D-04 DE=-1.12D-05 OVMax= 2.64D-04

 Cycle   8  Pass 0  IDiag  1:
 E= -185.128272681652     Delta-E=       -0.000000233601 Rises=F Damp=F
 DIIS: error= 2.17D-05 at cycle   8 NSaved=   8.
 NSaved= 8 IEnMin= 8 EnMin= -185.128272681652     IErMin= 8 ErrMin= 2.17D-05
 ErrMax= 2.17D-05  0.00D+00 EMaxC= 1.00D-01 BMatC= 1.12D-07 BMatP= 1.35D-06
 IDIUse=1 WtCom= 1.00D+00 WtEn= 0.00D+00
 Coeff-Com: -0.172D-03-0.136D-01-0.219D-01-0.296D-01 0.146D-01 0.391D-01
 Coeff-Com:  0.140D+00 0.871D+00
 Coeff:     -0.172D-03-0.136D-01-0.219D-01-0.296D-01 0.146D-01 0.391D-01
 Coeff:      0.140D+00 0.871D+00
 Gap=     0.109 Goal=   None    Shift=    0.000
 Gap=     0.169 Goal=   None    Shift=    0.000
 RMSDP=7.96D-06 MaxDP=1.39D-04 DE=-2.34D-07 OVMax= 2.10D-04

 Initial convergence to 1.0D-05 achieved.  Increase integral accuracy.
 Cycle   9  Pass 1  IDiag  1:
 E= -185.128269950939     Delta-E=        0.000002730713 Rises=F Damp=F
 DIIS: error= 5.55D-06 at cycle   1 NSaved=   1.
 NSaved= 1 IEnMin= 1 EnMin= -185.128269950939     IErMin= 1 ErrMin= 5.55D-06
 ErrMax= 5.55D-06  0.00D+00 EMaxC= 1.00D-01 BMatC= 6.94D-09 BMatP= 6.94D-09
 IDIUse=1 WtCom= 1.00D+00 WtEn= 0.00D+00
 Coeff-Com:  0.100D+01
 Coeff:      0.100D+01
 Gap=     0.109 Goal=   None    Shift=    0.000
 Gap=     0.169 Goal=   None    Shift=    0.000
 RMSDP=7.96D-06 MaxDP=1.39D-04 DE= 2.73D-06 OVMax= 1.43D-04

 Cycle  10  Pass 1  IDiag  1:
 E= -185.128269929136     Delta-E=        0.000000021803 Rises=F Damp=F
 DIIS: error= 2.21D-05 at cycle   2 NSaved=   2.
 NSaved= 2 IEnMin= 1 EnMin= -185.128269950939     IErMin= 1 ErrMin= 5.55D-06
 ErrMax= 2.21D-05  0.00D+00 EMaxC= 1.00D-01 BMatC= 9.92D-08 BMatP= 6.94D-09
 IDIUse=1 WtCom= 1.00D+00 WtEn= 0.00D+00
 Coeff-Com:  0.817D+00 0.183D+00
 Coeff:      0.817D+00 0.183D+00
 Gap=     0.109 Goal=   None    Shift=    0.000
 Gap=     0.169 Goal=   None    Shift=    0.000
 RMSDP=3.62D-06 MaxDP=5.14D-05 DE= 2.18D-08 OVMax= 1.05D-04

 Cycle  11  Pass 1  IDiag  1:
 E= -185.128269953346     Delta-E=       -0.000000024211 Rises=F Damp=F
 DIIS: error= 2.89D-06 at cycle   3 NSaved=   3.
 NSaved= 3 IEnMin= 3 EnMin= -185.128269953346     IErMin= 3 ErrMin= 2.89D-06
 ErrMax= 2.89D-06  0.00D+00 EMaxC= 1.00D-01 BMatC= 1.86D-09 BMatP= 6.94D-09
 IDIUse=1 WtCom= 1.00D+00 WtEn= 0.00D+00
 Coeff-Com:  0.306D+00 0.113D+00 0.581D+00
 Coeff:      0.306D+00 0.113D+00 0.581D+00
 Gap=     0.109 Goal=   None    Shift=    0.000
 Gap=     0.169 Goal=   None    Shift=    0.000
 RMSDP=8.17D-07 MaxDP=1.47D-05 DE=-2.42D-08 OVMax= 2.01D-05

 Cycle  12  Pass 1  IDiag  1:
 E= -185.128269953647     Delta-E=       -0.000000000300 Rises=F Damp=F
 DIIS: error= 1.48D-06 at cycle   4 NSaved=   4.
 NSaved= 4 IEnMin= 4 EnMin= -185.128269953647     IErMin= 4 ErrMin= 1.48D-06
 ErrMax= 1.48D-06  0.00D+00 EMaxC= 1.00D-01 BMatC= 5.68D-10 BMatP= 1.86D-09
 IDIUse=1 WtCom= 1.00D+00 WtEn= 0.00D+00
 Coeff-Com: -0.113D-01 0.408D-01 0.368D+00 0.603D+00
 Coeff:     -0.113D-01 0.408D-01 0.368D+00 0.603D+00
 Gap=     0.109 Goal=   None    Shift=    0.000
 Gap=     0.169 Goal=   None    Shift=    0.000
 RMSDP=6.07D-07 MaxDP=1.18D-05 DE=-3.00D-10 OVMax= 1.91D-05

 Cycle  13  Pass 1  IDiag  1:
 E= -185.128269953861     Delta-E=       -0.000000000215 Rises=F Damp=F
 DIIS: error= 7.00D-07 at cycle   5 NSaved=   5.
 NSaved= 5 IEnMin= 5 EnMin= -185.128269953861     IErMin= 5 ErrMin= 7.00D-07
 ErrMax= 7.00D-07  0.00D+00 EMaxC= 1.00D-01 BMatC= 6.71D-11 BMatP= 5.68D-10
 IDIUse=1 WtCom= 1.00D+00 WtEn= 0.00D+00
 Coeff-Com: -0.670D-01-0.678D-03 0.895D-01 0.294D+00 0.684D+00
 Coeff:     -0.670D-01-0.678D-03 0.895D-01 0.294D+00 0.684D+00
 Gap=     0.109 Goal=   None    Shift=    0.000
 Gap=     0.169 Goal=   None    Shift=    0.000
 RMSDP=2.27D-07 MaxDP=3.82D-06 DE=-2.15D-10 OVMax= 5.56D-06

 Cycle  14  Pass 1  IDiag  1:
 E= -185.128269953880     Delta-E=       -0.000000000019 Rises=F Damp=F
 DIIS: error= 5.76D-07 at cycle   6 NSaved=   6.
 NSaved= 6 IEnMin= 6 EnMin= -185.128269953880     IErMin= 6 ErrMin= 5.76D-07
 ErrMax= 5.76D-07  0.00D+00 EMaxC= 1.00D-01 BMatC= 5.86D-11 BMatP= 6.71D-11
 IDIUse=1 WtCom= 1.00D+00 WtEn= 0.00D+00
 Coeff-Com: -0.509D-01-0.905D-02-0.108D-01 0.113D+00 0.534D+00 0.424D+00
 Coeff:     -0.509D-01-0.905D-02-0.108D-01 0.113D+00 0.534D+00 0.424D+00
 Gap=     0.109 Goal=   None    Shift=    0.000
 Gap=     0.169 Goal=   None    Shift=    0.000
 RMSDP=1.22D-07 MaxDP=1.96D-06 DE=-1.88D-11 OVMax= 3.52D-06

 Cycle  15  Pass 1  IDiag  1:
 E= -185.128269953894     Delta-E=       -0.000000000014 Rises=F Damp=F
 DIIS: error= 2.54D-07 at cycle   7 NSaved=   7.
 NSaved= 7 IEnMin= 7 EnMin= -185.128269953894     IErMin= 7 ErrMin= 2.54D-07
 ErrMax= 2.54D-07  0.00D+00 EMaxC= 1.00D-01 BMatC= 8.70D-12 BMatP= 5.86D-11
 IDIUse=1 WtCom= 1.00D+00 WtEn= 0.00D+00
 Coeff-Com: -0.128D-02-0.650D-02-0.498D-01-0.722D-01 0.194D-01 0.311D+00
 Coeff-Com:  0.800D+00
 Coeff:     -0.128D-02-0.650D-02-0.498D-01-0.722D-01 0.194D-01 0.311D+00
 Coeff:      0.800D+00
 Gap=     0.109 Goal=   None    Shift=    0.000
 Gap=     0.169 Goal=   None    Shift=    0.000
 RMSDP=4.73D-08 MaxDP=8.80D-07 DE=-1.39D-11 OVMax= 1.10D-06

 Cycle  16  Pass 1  IDiag  1:
 E= -185.128269953897     Delta-E=       -0.000000000003 Rises=F Damp=F
 DIIS: error= 1.92D-08 at cycle   8 NSaved=   8.
 NSaved= 8 IEnMin= 8 EnMin= -185.128269953897     IErMin= 8 ErrMin= 1.92D-08
 ErrMax= 1.92D-08  0.00D+00 EMaxC= 1.00D-01 BMatC= 8.77D-14 BMatP= 8.70D-12
 IDIUse=1 WtCom= 1.00D+00 WtEn= 0.00D+00
 Coeff-Com:  0.504D-03-0.244D-02-0.174D-01-0.260D-01-0.719D-02 0.106D+00
 Coeff-Com:  0.277D+00 0.670D+00
 Coeff:      0.504D-03-0.244D-02-0.174D-01-0.260D-01-0.719D-02 0.106D+00
 Coeff:      0.277D+00 0.670D+00
 Gap=     0.109 Goal=   None    Shift=    0.000
 Gap=     0.169 Goal=   None    Shift=    0.000
 RMSDP=6.13D-09 MaxDP=9.21D-08 DE=-2.73D-12 OVMax= 1.70D-07

 SCF Done:  E(UB-LYP) =  -185.128269954     A.U. after   16 cycles
            NFock= 16  Conv=0.61D-08     -V/T= 2.0068
 <Sx>= 0.0000 <Sy>= 0.0000 <Sz>= 0.5000 <S**2>= 0.7601 S= 0.5050
 <L.S>= 0.000000000000E+00
 KE= 1.838743871772D+02 PE=-5.629410970873D+02 EE= 1.295023489768D+02
 Annihilation of the first spin contaminant:
 S**2 before annihilation     0.7601,   after     0.7500
 Leave Link  502 at Wed Oct  7 14:49:07 2020, MaxMem=  2684354560 cpu:              26.9 elap:               2.8
 (Enter /udrive/faculty/rpeverati/g16/g16/l508.exe)
 QCSCF skips out because SCF is already converged.
 Leave Link  508 at Wed Oct  7 14:49:08 2020, MaxMem=  2684354560 cpu:               0.3 elap:               0.4
 (Enter /udrive/faculty/rpeverati/g16/g16/l701.exe)
 ... and contract with generalized density number  0.
 Compute integral first derivatives.
 Leave Link  701 at Wed Oct  7 14:49:09 2020, MaxMem=  2684354560 cpu:               4.1 elap:               0.8
 (Enter /udrive/faculty/rpeverati/g16/g16/l702.exe)
 L702 exits ... SP integral derivatives will be done elsewhere.
 Leave Link  702 at Wed Oct  7 14:49:09 2020, MaxMem=  2684354560 cpu:               1.8 elap:               0.5
 (Enter /udrive/faculty/rpeverati/g16/g16/l703.exe)
 Integral derivatives from FoFJK, PRISM(SPDF).
 Compute integral first derivatives, UseDBF=F ICtDFT=           0.
 Calling FoFJK, ICntrl=      2527 FMM=F ISym2X=1 I1Cent= 0 IOpClX= 0 NMat=1 NMatS=1 NMatT=0.
 FoFJK:  IHMeth= 1 ICntrl=    2527 DoSepK=F KAlg= 0 I1Cent=           0 FoldK=F
 IRaf=         0 NMat=       1 IRICut=       1 DoRegI=T DoRafI=F ISym2E= 1 IDoP0=0 IntGTp=1.
 FoFCou: FMM=F IPFlag=           0 FMFlag=      100000 FMFlg1=         800
         NFxFlg=           0 DoJE=F BraDBF=F KetDBF=F FulRan=T
         wScrn=  0.000000 ICntrl=      2527 IOpCl=  0 I1Cent=           0 NGrid=           0
         NMat0=    1 NMatS0=      1 NMatT0=    0 NMatD0=    1 NMtDS0=    0 NMtDT0=    0
 Petite list used in FoFCou.
 Leave Link  703 at Wed Oct  7 14:49:11 2020, MaxMem=  2684354560 cpu:               7.6 elap:               1.0
 (Enter /udrive/faculty/rpeverati/g16/g16/l716.exe)
 Dipole        =-1.14874260D-01-1.75144117D-01 1.16840722D-33
 ***** Axes restored to original set *****
 -------------------------------------------------------------------
 Center     Atomic                   Forces (Hartrees/Bohr)
 Number     Number              X              Y              Z
 -------------------------------------------------------------------
      1        1          -0.003223149    0.005955738   -0.000000000
      2        8          -0.003251068   -0.020684145    0.000000000
      3        7          -0.011262041    0.011996316   -0.000000000
      4        7           0.017736257    0.002732090    0.000000000
 -------------------------------------------------------------------
 Cartesian Forces:  Max     0.020684145 RMS     0.009473855
 Leave Link  716 at Wed Oct  7 14:49:12 2020, MaxMem=  2684354560 cpu:               1.1 elap:               0.5
 (Enter /udrive/faculty/rpeverati/g16/g16/l103.exe)

 GradGradGradGradGradGradGradGradGradGradGradGradGradGradGradGradGradGrad
 Berny optimization.
 Optmz: redundant internal coordinate code flag= 1
 Red2BG:  D1=  1.98D-01 OD1=  3.39D-02 B2RMS=  0.00D+00 IAprox=0
 FormGI is forming the generalized inverse of G from B-inverse, IUseBI=4.
 Internal  Forces:  Max     0.017268460 RMS     0.010738265
 Search for a saddle point.
 Step number   2 out of a maximum of   50
 All quantities printed in internal units (Hartrees-Bohrs-Radians)
 Swapping is turned off.
 Update second derivatives using D2CorX and points    1    2
 The second derivative matrix:
                          R1        R2        R3        A1        A2
           R1           0.12145
           R2           0.05226   0.78673
           R3           0.06283  -0.14156   1.33041
           A1           0.01865  -0.02082  -0.02001   0.16908
           A2          -0.03534   0.08596   0.09881   0.01575   0.19036
           D1           0.00000  -0.00000  -0.00000  -0.00000   0.00000
                          D1
           D1           0.03542
 ITU=  0  0
 Eigenvectors of the second derivative matrix:
                           1         2         3         4         5
     Eigenvalues --     0.03542   0.07593   0.17513   0.19798   0.77711
   1         R1        -0.00000  -0.80341   0.40231   0.42879   0.08606
   2         R2         0.00000   0.14625   0.01237   0.08925   0.95978
   3         R3         0.00000   0.09966   0.00438   0.05635   0.20443
   4         A1         0.00000   0.29689   0.90935  -0.28942  -0.03257
   5         A2        -0.00000  -0.48484  -0.10518  -0.84926   0.16899
   6         D1         1.00000  -0.00000  -0.00000  -0.00000  -0.00000
                           6
     Eigenvalues --     1.37189
   1         R1         0.03760
   2         R2        -0.22205
   3         R3         0.97215
   4         A1        -0.01091
   5         A2         0.06387
   6         D1        -0.00000
 Eigenvalue     1 is   3.54D-02 should be less than     0.000000 Eigenvector:
                          D1        R1        A2        A1        R2
   1                    1.00000  -0.00000  -0.00000   0.00000   0.00000
                          R3
   1                    0.00000
 RLam0= 3.54D-02.
 Iter=   1 RLamda= 0.00000000D+00 Sum=-3.75911761D-03.
 Iter=   2 RLamda=-3.75911761D-03 Sum=-3.60928616D-03.
 Iter=   3 RLamda=-3.60928616D-03 Sum=-3.61499669D-03.
 Iter=   4 RLamda=-3.61499669D-03 Sum=-3.61477866D-03.
 Iter=   5 RLamda=-3.61477866D-03 Sum=-3.61478698D-03.
 RFO step:  Lambda0=3.542034317D-02 Lambda=-3.61477866D-03.
 Linear search not attempted -- option 19 set.
 Maximum step size (   0.100) exceeded in Quadratic search.
    -- Step size scaled by   0.509
 Iteration  1 RMS(Cart)=  0.03178202 RMS(Int)=  0.00494284
 Iteration  2 RMS(Cart)=  0.00196858 RMS(Int)=  0.00001036
 Iteration  3 RMS(Cart)=  0.00001380 RMS(Int)=  0.00000000
 Iteration  4 RMS(Cart)=  0.00000000 RMS(Int)=  0.00000000
 ITry= 1 IFail=0 DXMaxC= 3.72D-02 DCOld= 1.00D+10 DXMaxT= 1.00D-01 DXLimC= 3.00D+00 Rises=F
 ClnCor:  largest displacement from symmetrization is 2.68D-02 for atom     3.
 Variable       Old X    -DE/DX   Delta X   Delta X   Delta X     New X
                                 (Linear)    (Quad)   (Total)
    R1        2.69636  -0.00673   0.00000  -0.06756  -0.06766   2.62870
    R2        2.36316   0.01517   0.00000   0.02473   0.02431   2.38747
    R3        2.18984   0.01727   0.00000   0.01736   0.01699   2.20683
    A1        2.00010   0.00198   0.00000   0.02378   0.02407   2.02417
    A2        2.75308  -0.01069   0.00000  -0.06211  -0.06062   2.69246
    D1        0.00000  -0.00000   0.00000  -0.09950   0.00000   0.00000
         Item               Value     Threshold  Converged?
 Maximum Force            0.017268     0.000450     NO 
 RMS     Force            0.010738     0.000300     NO 
 Maximum Displacement     0.037231     0.001800     NO 
 RMS     Displacement     0.028647     0.001200     NO 
 Predicted change in Energy=-1.375924D-03
 Lowest energy point so far.  Saving SCF results.
 Largest change from initial coordinates is atom    1       0.059 Angstoms.
 GradGradGradGradGradGradGradGradGradGradGradGradGradGradGradGradGradGrad

 Leave Link  103 at Wed Oct  7 14:49:13 2020, MaxMem=  2684354560 cpu:               3.5 elap:               0.8
 (Enter /udrive/faculty/rpeverati/g16/g16/l202.exe)
                          Input orientation:                          
 ---------------------------------------------------------------------
 Center     Atomic      Atomic             Coordinates (Angstroms)
 Number     Number       Type             X           Y           Z
 ---------------------------------------------------------------------
      1          1           0       -0.320894   -1.941598    0.000000
      2          8           0       -0.854983   -0.657165    0.000000
      3          7           0       -0.018734    0.289857   -0.000000
      4          7           0        1.057651    0.742801   -0.000000
 ---------------------------------------------------------------------
                    Distance matrix (angstroms):
                    1          2          3          4
     1  H    0.000000
     2  O    1.391050   0.000000
     3  N    2.251820   1.263394   0.000000
     4  N    3.017679   2.370248   1.167803   0.000000
 Stoichiometry    HN2O(2)
 Framework group  CS[SG(HN2O)]
 Deg. of freedom     5
 Full point group                 CS      NOp   2
 RotChk:  IX=0 Diff= 6.61D-02
 Largest Abelian subgroup         CS      NOp   2
 Largest concise Abelian subgroup C1      NOp   1
                         Standard orientation:                         
 ---------------------------------------------------------------------
 Center     Atomic      Atomic             Coordinates (Angstroms)
 Number     Number       Type             X           Y           Z
 ---------------------------------------------------------------------
      1          1           0       -0.482958   -1.909890   -0.000000
      2          8           0       -0.910626   -0.586214   -0.000000
      3          7           0        0.000000    0.289529   -0.000000
      4          7           0        1.109709    0.653271    0.000000
 ---------------------------------------------------------------------
 Rotational constants (GHZ):         194.8290929          11.3860025          10.7573335
 Leave Link  202 at Wed Oct  7 14:49:13 2020, MaxMem=  2684354560 cpu:               1.4 elap:               0.6
 (Enter /udrive/faculty/rpeverati/g16/g16/l301.exe)
 Standard basis: 6-31G(d) (5D, 7F)
 Ernie: Thresh=  0.10000D-02 Tol=  0.10000D-05 Strict=F.
 There are    35 symmetry adapted cartesian basis functions of A'  symmetry.
 There are    12 symmetry adapted cartesian basis functions of A"  symmetry.
 There are    32 symmetry adapted basis functions of A'  symmetry.
 There are    12 symmetry adapted basis functions of A"  symmetry.
    44 basis functions,    88 primitive gaussians,    47 cartesian basis functions
    12 alpha electrons       11 beta electrons
       nuclear repulsion energy        64.0779123236 Hartrees.
 IExCor=  402 DFT=T Ex=B Corr=LYP ExCW=0 ScaHFX=  0.000000
 ScaDFX=  1.000000  1.000000  1.000000  1.000000 ScalE2=  1.000000  1.000000
 IRadAn=      5 IRanWt=     -1 IRanGd=            0 ICorTp=0 IEmpDi=  4
 NAtoms=    4 NActive=    4 NUniq=    4 SFac= 1.00D+00 NAtFMM=   60 NAOKFM=F Big=F
 Integral buffers will be    131072 words long.
 Raffenetti 2 integral format.
 Two-electron integral symmetry is turned on.
 Leave Link  301 at Wed Oct  7 14:49:14 2020, MaxMem=  2684354560 cpu:               2.2 elap:               0.5
 (Enter /udrive/faculty/rpeverati/g16/g16/l302.exe)
 NPDir=0 NMtPBC=     1 NCelOv=     1 NCel=       1 NClECP=     1 NCelD=      1
         NCelK=      1 NCelE2=     1 NClLst=     1 CellRange=     0.0.
 One-electron integrals computed using PRISM.
 One-electron integral symmetry used in STVInt
 NBasis=    44 RedAO= T EigKep=  3.87D-03  NBF=    32    12
 NBsUse=    44 1.00D-06 EigRej= -1.00D+00 NBFU=    32    12
 Precomputing XC quadrature grid using
 IXCGrd= 4 IRadAn=           5 IRanWt=          -1 IRanGd=           0 AccXCQ= 0.00D+00.
 Generated NRdTot=       0 NPtTot=           0 NUsed=           0 NTot=          32
 NSgBfM=    47    47    47    47    47 MxSgAt=     4 MxSgA2=     4.
 Leave Link  302 at Wed Oct  7 14:49:15 2020, MaxMem=  2684354560 cpu:               4.3 elap:               0.8
 (Enter /udrive/faculty/rpeverati/g16/g16/l303.exe)
 DipDrv:  MaxL=1.
 Leave Link  303 at Wed Oct  7 14:49:16 2020, MaxMem=  2684354560 cpu:               2.4 elap:               0.6
 (Enter /udrive/faculty/rpeverati/g16/g16/l401.exe)
 Initial guess from the checkpoint file:  "MN_68_n2ohts_BH76_BLYP_631Gs.chk"
 SCF N**3 symmetry information disabled.
 B after Tr=    -0.000000    0.000000   -0.000000
         Rot=    0.999749    0.000000    0.000000    0.022409 Ang=   2.57 deg.
 Guess basis will be translated and rotated to current coordinates.
 JPrj=2 DoOrth=T DoCkMO=T.
 Initial guess orbital symmetries:
 Alpha Orbitals:
       Occupied  (A') (A') (A') (A') (A') (A') (A') (A") (A') (A')
                 (A") (A')
       Virtual   (A') (A") (A') (A') (A') (A') (A") (A') (A') (A')
                 (A") (A') (A") (A') (A') (A') (A") (A') (A") (A')
                 (A") (A') (A') (A") (A') (A') (A") (A') (A') (A')
                 (A") (A')
 Beta  Orbitals:
       Occupied  (A') (A') (A') (A') (A') (A') (A") (A') (A') (A')
                 (A")
       Virtual   (A') (A") (A') (A') (A') (A') (A") (A') (A') (A')
                 (A") (A') (A') (A") (A') (A') (A') (A") (A') (A")
                 (A') (A") (A') (A') (A") (A') (A") (A') (A') (A')
                 (A') (A") (A')
 The electronic state of the initial guess is 2-A'.
 Initial guess <Sx>= 0.0000 <Sy>= 0.0000 <Sz>= 0.5000 <S**2>= 0.7599 S= 0.5050
 Generating alternative initial guess.
 ExpMin= 1.61D-01 ExpMax= 5.48D+03 ExpMxC= 8.25D+02 IAcc=2 IRadAn=         4 AccDes= 0.00D+00
 Harris functional with IExCor=  402 and IRadAn=       4 diagonalized for initial guess.
 HarFok:  IExCor=  402 AccDes= 0.00D+00 IRadAn=         4 IDoV= 1 UseB2=F ITyADJ=14
 ICtDFT=  3500011 ScaDFX=  1.000000  1.000000  1.000000  1.000000
 FoFCou: FMM=F IPFlag=           0 FMFlag=      100000 FMFlg1=           0
         NFxFlg=           0 DoJE=T BraDBF=F KetDBF=T FulRan=T
         wScrn=  0.000000 ICntrl=       500 IOpCl=  0 I1Cent=   200000004 NGrid=           0
         NMat0=    1 NMatS0=      1 NMatT0=    0 NMatD0=    1 NMtDS0=    0 NMtDT0=    0
 Petite list used in FoFCou.
 Harris En= -185.109492947530    
 Leave Link  401 at Wed Oct  7 14:49:18 2020, MaxMem=  2684354560 cpu:               8.8 elap:               1.2
 (Enter /udrive/faculty/rpeverati/g16/g16/l502.exe)
 Keep J ints in memory in symmetry-blocked form, NReq=10900634.
 FoFCou: FMM=F IPFlag=           0 FMFlag=           0 FMFlg1=           0
         NFxFlg=           0 DoJE=F BraDBF=F KetDBF=F FulRan=T
         wScrn=  0.000000 ICntrl=       600 IOpCl=  0 I1Cent=           0 NGrid=           0
         NMat0=    1 NMatS0=    990 NMatT0=    0 NMatD0=    1 NMtDS0=    0 NMtDT0=    0
 Petite list used in FoFCou.
 UHF open shell SCF:
 Using DIIS extrapolation, IDIIS=  1040.
 NGot=  2684354560 LenX=  2684088460 LenY=  2684085810
 Requested convergence on RMS density matrix=1.00D-08 within 120 cycles.
 Requested convergence on MAX density matrix=1.00D-06.
 Requested convergence on             energy=1.00D-06.
 No special actions if energy rises.
 Integral accuracy reduced to 1.0D-05 until final iterations.

 Cycle   1  Pass 0  IDiag  1:
 E= -185.128157022364    
 DIIS: error= 3.35D-03 at cycle   1 NSaved=   1.
 NSaved= 1 IEnMin= 1 EnMin= -185.128157022364     IErMin= 1 ErrMin= 3.35D-03
 ErrMax= 3.35D-03  0.00D+00 EMaxC= 1.00D-01 BMatC= 4.13D-03 BMatP= 4.13D-03
 IDIUse=3 WtCom= 9.66D-01 WtEn= 3.35D-02
 Coeff-Com:  0.100D+01
 Coeff-En:   0.100D+01
 Coeff:      0.100D+01
 Gap=     0.108 Goal=   None    Shift=    0.000
 Gap=     0.168 Goal=   None    Shift=    0.000
 GapD=    0.108 DampG=1.000 DampE=1.000 DampFc=1.0000 IDamp=-1.
 RMSDP=2.72D-03 MaxDP=5.40D-02              OVMax= 8.29D-02

 Cycle   2  Pass 0  IDiag  1:
 E= -185.129959150101     Delta-E=       -0.001802127737 Rises=F Damp=F
 DIIS: error= 2.34D-03 at cycle   2 NSaved=   2.
 NSaved= 2 IEnMin= 2 EnMin= -185.129959150101     IErMin= 2 ErrMin= 2.34D-03
 ErrMax= 2.34D-03  0.00D+00 EMaxC= 1.00D-01 BMatC= 1.13D-03 BMatP= 4.13D-03
 IDIUse=3 WtCom= 9.77D-01 WtEn= 2.34D-02
 Coeff-Com:  0.188D+00 0.812D+00
 Coeff-En:   0.000D+00 0.100D+01
 Coeff:      0.183D+00 0.817D+00
 Gap=     0.109 Goal=   None    Shift=    0.000
 Gap=     0.160 Goal=   None    Shift=    0.000
 RMSDP=2.02D-03 MaxDP=4.38D-02 DE=-1.80D-03 OVMax= 6.27D-02

 Cycle   3  Pass 0  IDiag  1:
 E= -185.129042306632     Delta-E=        0.000916843468 Rises=F Damp=F
 DIIS: error= 4.47D-03 at cycle   3 NSaved=   3.
 NSaved= 3 IEnMin= 2 EnMin= -185.129959150101     IErMin= 2 ErrMin= 2.34D-03
 ErrMax= 4.47D-03  0.00D+00 EMaxC= 1.00D-01 BMatC= 4.06D-03 BMatP= 1.13D-03
 IDIUse=3 WtCom= 1.30D-01 WtEn= 8.70D-01
 Coeff-Com:  0.241D-01 0.645D+00 0.331D+00
 Coeff-En:   0.000D+00 0.694D+00 0.306D+00
 Coeff:      0.314D-02 0.688D+00 0.309D+00
 Gap=     0.109 Goal=   None    Shift=    0.000
 Gap=     0.159 Goal=   None    Shift=    0.000
 RMSDP=1.18D-03 MaxDP=2.50D-02 DE= 9.17D-04 OVMax= 3.87D-02

 Cycle   4  Pass 0  IDiag  1:
 E= -185.130359694039     Delta-E=       -0.001317387407 Rises=F Damp=F
 DIIS: error= 1.01D-03 at cycle   4 NSaved=   4.
 NSaved= 4 IEnMin= 4 EnMin= -185.130359694039     IErMin= 4 ErrMin= 1.01D-03
 ErrMax= 1.01D-03  0.00D+00 EMaxC= 1.00D-01 BMatC= 3.51D-04 BMatP= 1.13D-03
 IDIUse=3 WtCom= 9.90D-01 WtEn= 1.01D-02
 Coeff-Com:  0.135D-03 0.463D+00 0.211D+00 0.326D+00
 Coeff-En:   0.000D+00 0.949D-01 0.000D+00 0.905D+00
 Coeff:      0.134D-03 0.459D+00 0.209D+00 0.332D+00
 Gap=     0.108 Goal=   None    Shift=    0.000
 Gap=     0.160 Goal=   None    Shift=    0.000
 RMSDP=2.26D-04 MaxDP=2.82D-03 DE=-1.32D-03 OVMax= 4.31D-03

 Cycle   5  Pass 0  IDiag  1:
 E= -185.130423986856     Delta-E=       -0.000064292817 Rises=F Damp=F
 DIIS: error= 5.68D-04 at cycle   5 NSaved=   5.
 NSaved= 5 IEnMin= 5 EnMin= -185.130423986856     IErMin= 5 ErrMin= 5.68D-04
 ErrMax= 5.68D-04  0.00D+00 EMaxC= 1.00D-01 BMatC= 7.83D-05 BMatP= 3.51D-04
 IDIUse=3 WtCom= 9.94D-01 WtEn= 5.68D-03
 Coeff-Com: -0.232D-02 0.230D+00 0.101D+00 0.271D+00 0.400D+00
 Coeff-En:   0.000D+00 0.000D+00 0.000D+00 0.182D+00 0.818D+00
 Coeff:     -0.231D-02 0.229D+00 0.101D+00 0.270D+00 0.402D+00
 Gap=     0.109 Goal=   None    Shift=    0.000
 Gap=     0.160 Goal=   None    Shift=    0.000
 RMSDP=1.86D-04 MaxDP=2.87D-03 DE=-6.43D-05 OVMax= 5.62D-03

 Cycle   6  Pass 0  IDiag  1:
 E= -185.130428066201     Delta-E=       -0.000004079345 Rises=F Damp=F
 DIIS: error= 4.73D-04 at cycle   6 NSaved=   6.
 NSaved= 6 IEnMin= 6 EnMin= -185.130428066201     IErMin= 6 ErrMin= 4.73D-04
 ErrMax= 4.73D-04  0.00D+00 EMaxC= 1.00D-01 BMatC= 5.92D-05 BMatP= 7.83D-05
 IDIUse=3 WtCom= 9.95D-01 WtEn= 4.73D-03
 Coeff-Com: -0.215D-02 0.563D-01 0.287D-01 0.113D+00 0.432D+00 0.372D+00
 Coeff-En:   0.000D+00 0.000D+00 0.000D+00 0.000D+00 0.459D+00 0.541D+00
 Coeff:     -0.214D-02 0.560D-01 0.285D-01 0.113D+00 0.432D+00 0.373D+00
 Gap=     0.109 Goal=   None    Shift=    0.000
 Gap=     0.160 Goal=   None    Shift=    0.000
 RMSDP=7.18D-05 MaxDP=9.28D-04 DE=-4.08D-06 OVMax= 1.87D-03

 Cycle   7  Pass 0  IDiag  1:
 E= -185.130442655889     Delta-E=       -0.000014589688 Rises=F Damp=F
 DIIS: error= 7.08D-05 at cycle   7 NSaved=   7.
 NSaved= 7 IEnMin= 7 EnMin= -185.130442655889     IErMin= 7 ErrMin= 7.08D-05
 ErrMax= 7.08D-05  0.00D+00 EMaxC= 1.00D-01 BMatC= 1.87D-06 BMatP= 5.92D-05
 IDIUse=1 WtCom= 1.00D+00 WtEn= 0.00D+00
 Coeff-Com: -0.135D-03-0.491D-01-0.330D-02-0.617D-01 0.295D-01 0.547D-01
 Coeff-Com:  0.103D+01
 Coeff:     -0.135D-03-0.491D-01-0.330D-02-0.617D-01 0.295D-01 0.547D-01
 Coeff:      0.103D+01
 Gap=     0.109 Goal=   None    Shift=    0.000
 Gap=     0.160 Goal=   None    Shift=    0.000
 RMSDP=2.03D-05 MaxDP=2.44D-04 DE=-1.46D-05 OVMax= 6.69D-04

 Cycle   8  Pass 0  IDiag  1:
 E= -185.130443260179     Delta-E=       -0.000000604290 Rises=F Damp=F
 DIIS: error= 1.74D-05 at cycle   8 NSaved=   8.
 NSaved= 8 IEnMin= 8 EnMin= -185.130443260179     IErMin= 8 ErrMin= 1.74D-05
[...]
     3   7    -0.05   0.12  -0.00    -0.07   0.06  -0.00    -0.00   0.00   0.42
     4   7     0.05  -0.04   0.00     0.00  -0.11   0.00    -0.00  -0.00  -0.21
                      4                      5                      6
                     A'                     A'                     A'
 Frequencies --    776.5403              1152.8213              2056.3905
 Red. masses --      2.5415                 5.6086                13.9478
 Frc consts  --      0.9030                 4.3916                34.7511
 IR Inten    --      0.2208                30.0132               206.1514
  Atom  AN      X      Y      Z        X      Y      Z        X      Y      Z
     1   1    -0.42  -0.84  -0.00    -0.40   0.72  -0.00     0.07  -0.06  -0.00
     2   8     0.15  -0.04   0.00     0.34   0.25   0.00    -0.12  -0.10   0.00
     3   7    -0.15   0.23  -0.00    -0.07  -0.18  -0.00     0.67   0.38  -0.00
     4   7     0.01  -0.13   0.00    -0.29  -0.15   0.00    -0.55  -0.26   0.00

 -------------------
 - Thermochemistry -
 -------------------
 Temperature   298.150 Kelvin.  Pressure   1.00000 Atm.
 Atom     1 has atomic number  1 and mass   1.00783
 Atom     2 has atomic number  8 and mass  15.99491
 Atom     3 has atomic number  7 and mass  14.00307
 Atom     4 has atomic number  7 and mass  14.00307
 Molecular mass:    45.00889 amu.
 Principal axes and moments of inertia in atomic units:
                           1         2         3
     Eigenvalues --     8.97111 160.37002 169.34113
           X            0.76986  -0.63822   0.00000
           Y            0.63822   0.76986   0.00000
           Z           -0.00000   0.00000   1.00000
 This molecule is an asymmetric top.
 Rotational symmetry number  1.
 Rotational temperatures (Kelvin)      9.65476     0.54009     0.51148
 Rotational constants (GHZ):         201.17254    11.25361    10.65743
    1 imaginary frequencies ignored.
 Zero-point vibrational energy      29771.2 (Joules/Mol)
                                    7.11548 (Kcal/Mol)
 Warning -- explicit consideration of   2 degrees of freedom as
           vibrations may cause significant error
 Vibrational temperatures:    650.09   776.60  1117.27  1658.65  2958.69
          (Kelvin)
 
 Zero-point correction=                           0.011339 (Hartree/Particle)
 Thermal correction to Energy=                    0.014737
 Thermal correction to Enthalpy=                  0.015681
 Thermal correction to Gibbs Free Energy=        -0.013054
 Sum of electronic and zero-point Energies=           -185.116310
 Sum of electronic and thermal Energies=              -185.112913
 Sum of electronic and thermal Enthalpies=            -185.111969
 Sum of electronic and thermal Free Energies=         -185.140704
 
                     E (Thermal)             CV                S
                      KCal/Mol        Cal/Mol-Kelvin    Cal/Mol-Kelvin
 Total                    9.247              9.418             60.477
 Electronic               0.000              0.000              1.377
 Translational            0.889              2.981             37.338
 Rotational               0.889              2.981             20.127
 Vibrational              7.470              3.457              1.635
 Vibration     1          0.810              1.357              0.790
 Vibration     2          0.895              1.162              0.566
                       Q            Log10(Q)             Ln(Q)
 Total Bot       0.101027D+07          6.004439         13.825732
 Total V=0       0.166006D+12         11.220124         25.835290
 Vib (Bot)       0.761721D-05         -5.118204        -11.785100
 Vib (Bot)    1  0.378971D+00         -0.421394         -0.970296
 Vib (Bot)    2  0.293589D+00         -0.532260         -1.225574
 Vib (V=0)       0.125164D+01          0.097481          0.224459
 Vib (V=0)    1  0.112739D+01          0.052074          0.119906
 Vib (V=0)    2  0.107982D+01          0.033353          0.076797
 Electronic      0.200000D+01          0.301030          0.693147
 Translational   0.118686D+08          7.074401         16.289411
 Rotational      0.558742D+04          3.747212          8.628273
 
                                                          TS search on BH76.
                                                             IR Spectrum
 
     2                                                       1                                                                       
     0                                                       1                       7             5     4                           
     5                                                       5                       7             4     5                           
     6                                                       3                       7             0     2                           
 
     X                                                       X                       X             X     X                           
     X                                                       X                                                                       
     X                                                       X                                                                       
     X                                                                                                                               
     X                                                                                                                               
     X                                                                                                                               
     X                                                                                                                               
     X                                                                                                                               
     X                                                                                                                               
     X                                                                                                                               
     X                                                                                                                               
     X                                                                                                                               
     X                                                                                                                               
     X                                                                                                                               
     X                                                                                                                               
     X                                                                                                                               
     X                                                                                                                               
     X                                                                                                                               
     X                                                                                                                               
     X                                                                                                                               
 
 ***** Axes restored to original set *****
 -------------------------------------------------------------------
 Center     Atomic                   Forces (Hartrees/Bohr)
 Number     Number              X              Y              Z
 -------------------------------------------------------------------
      1        1          -0.000003331    0.000015391   -0.000000000
      2        8          -0.000102418   -0.000120821    0.000000000
      3        7           0.000198831    0.000152125   -0.000000000
      4        7          -0.000093082   -0.000046696    0.000000000
 -------------------------------------------------------------------
 Cartesian Forces:  Max     0.000198831 RMS     0.000090763
 Force constants in Cartesian coordinates: 
                1             2             3             4             5 
      1  0.667657D-02
      2  0.885263D-02 -0.147136D-01
      3  0.000000D+00  0.000000D+00  0.170508D-02
      4 -0.281462D-01  0.109908D-01  0.000000D+00  0.352123D+00
      5 -0.261049D-01  0.868982D-01  0.000000D+00  0.235889D+00  0.686755D-01
      6  0.000000D+00  0.000000D+00 -0.766405D-02  0.000000D+00  0.000000D+00
      7  0.712858D-02  0.229086D-01  0.000000D+00 -0.285766D+00 -0.251197D+00
      8  0.193976D-01 -0.890774D-01  0.000000D+00 -0.186168D+00 -0.116894D+00
      9  0.000000D+00  0.000000D+00  0.117263D-01  0.000000D+00  0.000000D+00
     10  0.143410D-01 -0.427521D-01  0.000000D+00 -0.382107D-01  0.414129D-01
     11 -0.214525D-02  0.168928D-01  0.000000D+00 -0.607112D-01 -0.386795D-01
     12  0.000000D+00  0.000000D+00 -0.576732D-02  0.000000D+00  0.000000D+00
                6             7             8             9            10 
      6  0.344757D-01
      7  0.000000D+00  0.105340D+01
      8  0.000000D+00  0.577943D+00  0.417314D+00
      9 -0.528155D-01  0.000000D+00  0.000000D+00  0.809682D-01
     10  0.000000D+00 -0.774767D+00 -0.411172D+00  0.000000D+00  0.798637D+00
     11  0.000000D+00 -0.349655D+00 -0.211342D+00  0.000000D+00  0.412511D+00
     12  0.260039D-01  0.000000D+00  0.000000D+00 -0.398790D-01  0.000000D+00
               11            12 
     11  0.233129D+00
     12  0.000000D+00  0.196424D-01
 FormGI is forming the generalized inverse of G from B-inverse, IUseBI=4.
 Force constants in internal coordinates: 
                1             2             3             4             5 
      1 -0.179001D-01
      2  0.711625D-01  0.493084D+00
      3  0.331601D-01  0.418069D-01  0.101515D+01
      4  0.599456D-05 -0.972338D-02 -0.212502D-02  0.801954D-01
      5 -0.764565D-01  0.100047D+00  0.637821D-01 -0.235843D-01  0.800653D-01
      6  0.000000D+00  0.000000D+00  0.000000D+00  0.000000D+00  0.000000D+00
                6 
      6  0.111004D-01
 Leave Link  716 at Wed Oct  7 14:50:48 2020, MaxMem=  2684354560 cpu:               3.0 elap:               0.7
 (Enter /udrive/faculty/rpeverati/g16/g16/l103.exe)

 GradGradGradGradGradGradGradGradGradGradGradGradGradGradGradGradGradGrad
 Berny optimization.
 Optmz: redundant internal coordinate code flag= 1
 Red2BG:  D1=  1.90D-01 OD1=  4.97D-15 B2RMS=  0.00D+00 IAprox=1
 Red2BG is reusing G-inverse.
 Internal  Forces:  Max     0.000149149 RMS     0.000074626
 Search for a local minimum.
 Step number   1 out of a maximum of    2
 All quantities printed in internal units (Hartrees-Bohrs-Radians)
 Second derivative matrix not updated -- analytic derivatives used.
 The second derivative matrix:
                          R1        R2        R3        A1        A2
           R1          -0.01790
           R2           0.07116   0.49308
           R3           0.03316   0.04181   1.01515
           A1           0.00001  -0.00972  -0.00213   0.08020
           A2          -0.07646   0.10005   0.06378  -0.02358   0.08007
           D1          -0.00000   0.00000   0.00000   0.00000   0.00000
                          D1
           D1           0.01110
 ITU=  0
 Eigenvectors of the second derivative matrix:
                           1         2         3         4         5
     Eigenvalues --    -0.08467   0.01110   0.07240   0.12245   0.51530
   1         R1        -0.82600   0.00000  -0.26617  -0.48660  -0.09501
   2         R2         0.18816  -0.00000  -0.00557  -0.12050  -0.96992
   3         R3         0.04810  -0.00000  -0.00899  -0.03204   0.11200
   4         A1        -0.06340  -0.00000   0.91423  -0.39894   0.03151
   5         A2        -0.52534  -0.00000   0.30534   0.76715  -0.19156
   6         D1         0.00000   1.00000   0.00000   0.00000  -0.00000
                           6
     Eigenvalues --     1.02512
   1         R1         0.03265
   2         R2         0.09645
   3         R3         0.99199
   4         A1        -0.00509
   5         A2         0.07465
   6         D1         0.00000
 Eigenvalue     1 is  -8.47D-02 should be greater than     0.000000 Eigenvector:
                          R1        A2        R2        A1        R3
   1                   -0.82600  -0.52534   0.18816  -0.06340   0.04810
                          D1
   1                    0.00000
 Angle between quadratic step and forces=  44.07 degrees.
 Linear search not attempted -- first point.
 Iteration  1 RMS(Cart)=  0.00016846 RMS(Int)=  0.00000002
 Iteration  2 RMS(Cart)=  0.00000002 RMS(Int)=  0.00000000
 ITry= 1 IFail=0 DXMaxC= 2.08D-04 DCOld= 1.00D+10 DXMaxT= 3.00D-01 DXLimC= 3.00D+00 Rises=F
 ClnCor:  largest displacement from symmetrization is 3.83D-13 for atom     3.
 Variable       Old X    -DE/DX   Delta X   Delta X   Delta X     New X
                                 (Linear)    (Quad)   (Total)
    R1        2.85224  -0.00002   0.00000  -0.00030  -0.00030   2.85194
    R2        2.36001   0.00015   0.00000   0.00037   0.00037   2.36038
    R3        2.19882  -0.00010   0.00000  -0.00010  -0.00010   2.19872
    A1        2.03054  -0.00001   0.00000  -0.00005  -0.00005   2.03049
    A2        2.79216  -0.00000   0.00000  -0.00022  -0.00022   2.79194
    D1        0.00000   0.00000   0.00000  -0.00000   0.00000   0.00000
         Item               Value     Threshold  Converged?
 Maximum Force            0.000149     0.000450     YES
 RMS     Force            0.000075     0.000300     YES
 Maximum Displacement     0.000208     0.001800     YES
 RMS     Displacement     0.000168     0.001200     YES
 Predicted change in Energy=-5.129418D-08
 Optimization completed.
    -- Stationary point found.
                           ----------------------------
                           !   Optimized Parameters   !
                           ! (Angstroms and Degrees)  !
 --------------------------                            --------------------------
 ! Name  Definition              Value          Derivative Info.                !
 --------------------------------------------------------------------------------
 ! R1    R(1,2)                  1.5093         -DE/DX =    0.0                 !
 ! R2    R(2,3)                  1.2489         -DE/DX =    0.0001              !
 ! R3    R(3,4)                  1.1636         -DE/DX =   -0.0001              !
 ! A1    A(1,2,3)              116.3415         -DE/DX =    0.0                 !
 ! A2    A(2,3,4)              159.9791         -DE/DX =    0.0                 !
 ! D1    D(1,2,3,4)              0.0            -DE/DX =    0.0                 !
 --------------------------------------------------------------------------------
 GradGradGradGradGradGradGradGradGradGradGradGradGradGradGradGradGradGrad

 Leave Link  103 at Wed Oct  7 14:50:49 2020, MaxMem=  2684354560 cpu:               4.1 elap:               0.9
 (Enter /udrive/faculty/rpeverati/g16/g16/l9999.exe)

 ----------------------------------------------------------------------

 Electric dipole moment (input orientation):
 (Debye = 10**-18 statcoulomb cm , SI units = C m)
                  (au)            (Debye)         (10**-30 SI)
   Tot        0.113851D+00      0.289381D+00      0.965271D+00
   x         -0.849696D-01     -0.215971D+00     -0.720402D+00
   y         -0.757778D-01     -0.192608D+00     -0.642471D+00
   z          0.000000D+00      0.000000D+00      0.000000D+00

 Dipole polarizability, Alpha (input orientation).
 (esu units = cm**3 , SI units = C**2 m**2 J**-1)
 Alpha(0;0):
               (au)            (10**-24 esu)      (10**-40 SI)
   iso        0.228446D+02      0.338522D+01      0.376656D+01
   aniso      0.341471D+02      0.506007D+01      0.563009D+01
   xx         0.220822D+02      0.327225D+01      0.364087D+01
   yx         0.120135D+02      0.178021D+01      0.198075D+01
   yy         0.388436D+02      0.575602D+01      0.640444D+01
   zx         0.000000D+00      0.000000D+00      0.000000D+00
   zy         0.000000D+00      0.000000D+00      0.000000D+00
   zz         0.760799D+01      0.112739D+01      0.125439D+01

 ----------------------------------------------------------------------

 Dipole orientation:
     1          1.62176835         -1.81848687          3.04542085
     8         -0.13934282          0.15624493          1.98044027
     7         -0.26031730          0.29189347         -0.37255547
     7          0.13334429         -0.14951879         -2.49033750

 Electric dipole moment (dipole orientation):
 (Debye = 10**-18 statcoulomb cm , SI units = C m)
                  (au)            (Debye)         (10**-30 SI)
   Tot        0.113851D+00      0.289381D+00      0.965271D+00
   x          0.000000D+00      0.000000D+00      0.000000D+00
   y          0.000000D+00      0.000000D+00      0.000000D+00
   z          0.113851D+00      0.289381D+00      0.965271D+00

 Dipole polarizability, Alpha (dipole orientation).
 (esu units = cm**3 , SI units = C**2 m**2 J**-1)
 Alpha(0;0):
               (au)            (10**-24 esu)      (10**-40 SI)
   iso        0.228446D+02      0.338522D+01      0.376656D+01
   aniso      0.341471D+02      0.506007D+01      0.563009D+01
   xx         0.128687D+02      0.190695D+01      0.212176D+01
   yx        -0.589883D+01     -0.874116D+00     -0.972585D+00
   yy         0.142223D+02      0.210753D+01      0.234495D+01
   zx         0.645316D+01      0.956260D+00      0.106398D+01
   zy        -0.723592D+01     -0.107225D+01     -0.119304D+01
   zz         0.414427D+02      0.614118D+01      0.683298D+01

 ----------------------------------------------------------------------

 Test job not archived.
 1\1\GINC-NODE22\Freq\UBLYP\6-31G(d)\H1N2O1(2)\RPEVERATI\07-Oct-2020\0\
 \#P Freq BLYP/6-31G* 5D 7F Integral=UltraFineGrid SCF=(NoSymm,XQC,MaxC
 yc=120) IOp(1/33=1) Geom=Check Guess=Read\\TS search on BH76.\\0,2\H,-
 0.3445436492,-2.0349387646,0.\O,-0.8558843162,-0.6148556453,0.\N,0.009
 3816047,0.2856822682,0.\N,1.0540868316,0.7980074236,0.\\Version=ES64L-
 G16RevA.03\State=2-A'\HF=-185.1276496\S2=0.75962\S2-1=0.\S2A=0.75001\R
 MSD=1.032e-09\RMSF=9.076e-05\ZeroPoint=0.0113392\Thermal=0.0147365\Dip
 ole=-0.0849696,-0.0757778,0.\DipoleDeriv=0.0397403,0.2344445,0.,-0.124
 5698,-0.4601271,0.,0.,0.,0.0309509,-0.5298904,-0.3675855,0.,-0.3319619
 ,0.8490037,0.,0.,0.,-0.1016458,0.8464447,1.1617948,0.,0.541535,-0.1847
 487,0.,0.,0.,0.1874364,-0.3562946,-1.0286538,0.,-0.0850034,-0.204128,0
 .,0.,0.,-0.1167414\Polar=22.0822199,12.013454,38.8435572,0.,0.,7.60799
 46\Quadrupole=-0.9300977,0.0890204,0.8410773,-1.1222251,0.,0.\PG=CS [S
 G(H1N2O1)]\NImag=1\\0.00667657,0.00885263,-0.01471361,0.,0.,0.00170508
 ,-0.02814616,0.01099085,0.,0.35212299,-0.02610494,0.08689817,0.,0.2358
 8851,0.06867550,0.,0.,-0.00766405,0.,0.,0.03447566,0.00712858,0.022908
 60,0.,-0.28576608,-0.25119651,0.,1.05340469,0.01939756,-0.08907739,0.,
 -0.18616818,-0.11689414,0.,0.57794258,0.41731393,0.,0.,0.01172629,0.,0
 .,-0.05281549,0.,0.,0.08096817,0.01434101,-0.04275209,0.,-0.03821075,0
 .04141295,0.,-0.77476719,-0.41117197,0.,0.79863693,-0.00214525,0.01689
 283,0.,-0.06071119,-0.03867952,0.,-0.34965467,-0.21134240,0.,0.4125111
 1,0.23312909,0.,0.,-0.00576732,0.,0.,0.02600388,0.,0.,-0.03987897,0.,0
 .,0.01964241\\0.00000333,-0.00001539,0.,0.00010242,0.00012082,0.,-0.00
 019883,-0.00015213,0.,0.00009308,0.00004670,0.\\\@


 LIFE CAN ONLY BE UNDERSTOOD BACKWARD, BUT MUST
 BE LIVED FORWARD. -- KIRKEGAARD
 Job cpu time:       0 days  0 hours  2 minutes 38.1 seconds.
 Elapsed time:       0 days  0 hours  0 minutes 22.4 seconds.
 File lengths (MBytes):  RWF=      7 Int=      0 D2E=      0 Chk=      1 Scr=      1
 Normal termination of Gaussian 16 at Wed Oct  7 14:50:50 2020.
