 Entering Gaussian System, Link 0=g16
 Input=MN_73_oh-_BH76_BLYP_631Gs.in
 Output=MN_73_oh-_BH76_BLYP_631Gs.log
 Initial command:
 /udrive/faculty/rpeverati/g16/g16/l1.exe "/udrive/scratch-directories/gaussian09/rpeverati/Gau-34857.inp" -scrdir="/udrive/scratch-directories/gaussian09/rpeverati/"
 Entering Link 1 = /udrive/faculty/rpeverati/g16/g16/l1.exe PID=     34869.
  
 Copyright (c) 1988,1990,1992,1993,1995,1998,2003,2009,2016,
            Gaussian, Inc.  All Rights Reserved.
  
 This is part of the Gaussian(R) 16 program.  It is based on
 the Gaussian(R) 09 system (copyright 2009, Gaussian, Inc.),
 the Gaussian(R) 03 system (copyright 2003, Gaussian, Inc.),
 the Gaussian(R) 98 system (copyright 1998, Gaussian, Inc.),
 the Gaussian(R) 94 system (copyright 1995, Gaussian, Inc.),
 the Gaussian 92(TM) system (copyright 1992, Gaussian, Inc.),
 the Gaussian 90(TM) system (copyright 1990, Gaussian, Inc.),
 the Gaussian 88(TM) system (copyright 1988, Gaussian, Inc.),
 the Gaussian 86(TM) system (copyright 1986, Carnegie Mellon
 University), and the Gaussian 82(TM) system (copyright 1983,
 Carnegie Mellon University). Gaussian is a federally registered
 trademark of Gaussian, Inc.
  
 This software contains proprietary and confidential information,
 including trade secrets, belonging to Gaussian, Inc.
  
 This software is provided under written license and may be
 used, copied, transmitted, or stored only in accord with that
 written license.
  
 The following legend is applicable only to US Government
 contracts under FAR:
  
                    RESTRICTED RIGHTS LEGEND
  
 Use, reproduction and disclosure by the US Government is
 subject to restrictions as set forth in subparagraphs (a)
 and (c) of the Commercial Computer Software - Restricted
 Rights clause in FAR 52.227-19.
  
 Gaussian, Inc.
 340 Quinnipiac St., Bldg. 40, Wallingford CT 06492
  
  
 ---------------------------------------------------------------
 Warning -- This program may not be used in any manner that
 competes with the business of Gaussian, Inc. or will provide
 assistance to any competitor of Gaussian, Inc.  The licensee
 of this program is prohibited from giving any competitor of
 Gaussian, Inc. access to this program.  By using this program,
 the user acknowledges that Gaussian, Inc. is engaged in the
 business of creating and licensing software in the field of
 computational chemistry and represents and warrants to the
 licensee that it is not a competitor of Gaussian, Inc. and that
 it will not use this program in any manner prohibited above.
 ---------------------------------------------------------------
  

 Cite this work as:
 Gaussian 16, Revision A.03,
 M. J. Frisch, G. W. Trucks, H. B. Schlegel, G. E. Scuseria, 
 M. A. Robb, J. R. Cheeseman, G. Scalmani, V. Barone, 
 G. A. Petersson, H. Nakatsuji, X. Li, M. Caricato, A. V. Marenich, 
 J. Bloino, B. G. Janesko, R. Gomperts, B. Mennucci, H. P. Hratchian, 
 J. V. Ortiz, A. F. Izmaylov, J. L. Sonnenberg, D. Williams-Young, 
 F. Ding, F. Lipparini, F. Egidi, J. Goings, B. Peng, A. Petrone, 
 T. Henderson, D. Ranasinghe, V. G. Zakrzewski, J. Gao, N. Rega, 
 G. Zheng, W. Liang, M. Hada, M. Ehara, K. Toyota, R. Fukuda, 
 J. Hasegawa, M. Ishida, T. Nakajima, Y. Honda, O. Kitao, H. Nakai, 
 T. Vreven, K. Throssell, J. A. Montgomery, Jr., J. E. Peralta, 
 F. Ogliaro, M. J. Bearpark, J. J. Heyd, E. N. Brothers, K. N. Kudin, 
 V. N. Staroverov, T. A. Keith, R. Kobayashi, J. Normand, 
 K. Raghavachari, A. P. Rendell, J. C. Burant, S. S. Iyengar, 
 J. Tomasi, M. Cossi, J. M. Millam, M. Klene, C. Adamo, R. Cammi, 
 J. W. Ochterski, R. L. Martin, K. Morokuma, O. Farkas, 
 J. B. Foresman, and D. J. Fox, Gaussian, Inc., Wallingford CT, 2016.
 
 ******************************************
 Gaussian 16:  ES64L-G16RevA.03 25-Dec-2016
                 7-Oct-2020 
 ******************************************
 %NoSave
 %nproc=12
 Will use up to   12 processors via shared memory.
 %mem=20GB
 %chk=MN_73_oh-_BH76_BLYP_631Gs
 ----------------------------------------------------------------------
 #P Opt(MaxCyc=100) BLYP/6-31G* 5D 7F Integral=UltraFineGrid SCF=(NoSym
 m,XQC,MaxCyc=120) IOp(1/33=1)
 ----------------------------------------------------------------------
 1/6=100,18=20,19=15,26=4,33=1,38=1/1,3;
 2/9=110,12=2,17=6,18=5,40=1/2;
 3/5=1,6=6,7=1,8=11,11=2,25=1,30=1,71=1,74=402,75=-5/1,2,3;
 4/9=2/1;
 5/5=2,7=120,8=3,13=1,38=5/2,8;
 6/7=2,8=2,9=2,10=2,28=1/1;
 7//1,2,3,16;
 1/6=100,18=20,19=15,26=4,33=1/3(2);
 2/9=110/2;
 99//99;
 2/9=110/2;
 3/5=1,6=6,7=1,8=11,11=2,25=1,30=1,71=1,74=402,75=-5/1,2,3;
 4/5=5,9=2,16=3,69=1/1;
 5/5=2,7=120,8=3,13=1,38=5/2,8;
 7//1,2,3,16;
 1/6=100,18=20,19=15,26=4,33=1/3(-5);
 2/9=110/2;
 6/7=2,8=2,9=2,10=2,19=2,28=1/1;
 99/9=1/99;
 Leave Link    1 at Wed Oct  7 14:48:43 2020, MaxMem=  2684354560 cpu:               6.0 elap:               0.7
 (Enter /udrive/faculty/rpeverati/g16/g16/l101.exe)
 ONIOM data not found on unit 2.
 ------------------
 TS search on BH76.
 ------------------
 TstMul:  ICh=    -1
 TstMul:  Mul=     1
 TstMul:  ICh=    -1
 TstMul:  Mul=     1
 Symbolic Z-matrix:
 Charge = -1 Multiplicity = 1
 O                     0.        0.        0.10689 
 H                     0.        0.       -0.85515 
 
 RdStrC is calling ZToCFu for IStruc=1 NZ=     2.
 PrtBox:  NBox=     1 Levels=  0 BoxLen=    8.00 SMaxX=        1.82
          Shift=            0.000000            0.000000            1.616000
 Box      1 Number                   0 centers from      1 to      2:
 After GenITR:
 ITRead=  0  0
 MicOpt= -1 -1
 ITRead=  0  0
 MicOpt= -1 -1
 NAtoms=      2 NQM=        2 NQMF=       0 NMMI=      0 NMMIF=      0
                NMic=       0 NMicF=      0.
                    Isotopes and Nuclear Properties:
 (Nuclear quadrupole moments (NQMom) in fm**2, nuclear magnetic moments (NMagM)
  in nuclear magnetons)

  Atom         1           2
 IAtWgt=          16           1
 AtmWgt=  15.9949146   1.0078250
 NucSpn=           0           1
 AtZEff=   0.0000000   0.0000000
 NQMom=    0.0000000   0.0000000
 NMagM=    0.0000000   2.7928460
 AtZNuc=   8.0000000   1.0000000
 No MM parameters found.
 Leave Link  101 at Wed Oct  7 14:48:50 2020, MaxMem=  2684354560 cpu:              80.6 elap:               6.8
 (Enter /udrive/faculty/rpeverati/g16/g16/l103.exe)

 GradGradGradGradGradGradGradGradGradGradGradGradGradGradGradGradGradGrad
 Berny optimization.
 Optmz: redundant internal coordinate code flag= 1
 Initialization pass.
                           ----------------------------
                           !    Initial Parameters    !
                           ! (Angstroms and Degrees)  !
 --------------------------                            --------------------------
 ! Name  Definition              Value          Derivative Info.                !
 --------------------------------------------------------------------------------
 ! R1    R(1,2)                  0.962          estimate D2E/DX2                !
 --------------------------------------------------------------------------------
 Maximum allowed force set to 1.00D+20.
 Trust Radius=3.00D-01 FncErr=1.00D-07 GrdErr=1.00D-06 EigMax=2.50D+02 EigMin=1.00D-04
 Number of steps in this run=    100 maximum allowed number of steps=    100.
 GradGradGradGradGradGradGradGradGradGradGradGradGradGradGradGradGradGrad

 Leave Link  103 at Wed Oct  7 14:48:51 2020, MaxMem=  2684354560 cpu:               0.8 elap:               0.6
 (Enter /udrive/faculty/rpeverati/g16/g16/l202.exe)
                          Input orientation:                          
 ---------------------------------------------------------------------
 Center     Atomic      Atomic             Coordinates (Angstroms)
 Number     Number       Type             X           Y           Z
 ---------------------------------------------------------------------
      1          8           0        0.000000    0.000000    0.106894
      2          1           0        0.000000    0.000000   -0.855150
 ---------------------------------------------------------------------
 Stoichiometry    HO(1-)
 Framework group  C*V[C*(HO)]
 Deg. of freedom     1
 Full point group                 C*V     NOp   4
 Largest Abelian subgroup         C2V     NOp   4
 Largest concise Abelian subgroup C1      NOp   1
                         Standard orientation:                         
 ---------------------------------------------------------------------
 Center     Atomic      Atomic             Coordinates (Angstroms)
 Number     Number       Type             X           Y           Z
 ---------------------------------------------------------------------
      1          8           0        0.000000    0.000000    0.106894
      2          1           0        0.000000    0.000000   -0.855150
 ---------------------------------------------------------------------
 Rotational constants (GHZ):           0.0000000         575.9423468         575.9423468
 Leave Link  202 at Wed Oct  7 14:48:52 2020, MaxMem=  2684354560 cpu:               0.9 elap:               0.4
 (Enter /udrive/faculty/rpeverati/g16/g16/l301.exe)
 Standard basis: 6-31G(d) (5D, 7F)
 Ernie: Thresh=  0.10000D-02 Tol=  0.10000D-05 Strict=F.
 There are    10 symmetry adapted cartesian basis functions of A1  symmetry.
 There are     1 symmetry adapted cartesian basis functions of A2  symmetry.
 There are     3 symmetry adapted cartesian basis functions of B1  symmetry.
 There are     3 symmetry adapted cartesian basis functions of B2  symmetry.
 There are     9 symmetry adapted basis functions of A1  symmetry.
 There are     1 symmetry adapted basis functions of A2  symmetry.
 There are     3 symmetry adapted basis functions of B1  symmetry.
 There are     3 symmetry adapted basis functions of B2  symmetry.
    16 basis functions,    32 primitive gaussians,    17 cartesian basis functions
     5 alpha electrons        5 beta electrons
       nuclear repulsion energy         4.4004400447 Hartrees.
 IExCor=  402 DFT=T Ex=B Corr=LYP ExCW=0 ScaHFX=  0.000000
 ScaDFX=  1.000000  1.000000  1.000000  1.000000 ScalE2=  1.000000  1.000000
 IRadAn=      5 IRanWt=     -1 IRanGd=            0 ICorTp=0 IEmpDi=  4
 NAtoms=    2 NActive=    2 NUniq=    2 SFac= 1.00D+00 NAtFMM=   60 NAOKFM=F Big=F
 Integral buffers will be    131072 words long.
 Raffenetti 2 integral format.
 Two-electron integral symmetry is turned on.
 Leave Link  301 at Wed Oct  7 14:48:52 2020, MaxMem=  2684354560 cpu:               2.1 elap:               0.5
 (Enter /udrive/faculty/rpeverati/g16/g16/l302.exe)
 NPDir=0 NMtPBC=     1 NCelOv=     1 NCel=       1 NClECP=     1 NCelD=      1
         NCelK=      1 NCelE2=     1 NClLst=     1 CellRange=     0.0.
 One-electron integrals computed using PRISM.
 One-electron integral symmetry used in STVInt
 NBasis=    16 RedAO= T EigKep=  7.68D-02  NBF=     9     1     3     3
 NBsUse=    16 1.00D-06 EigRej= -1.00D+00 NBFU=     9     1     3     3
 Precomputing XC quadrature grid using
 IXCGrd= 4 IRadAn=           5 IRanWt=          -1 IRanGd=           0 AccXCQ= 0.00D+00.
 Generated NRdTot=       0 NPtTot=           0 NUsed=           0 NTot=          32
 NSgBfM=    17    17    17    17    17 MxSgAt=     2 MxSgA2=     2.
 Leave Link  302 at Wed Oct  7 14:48:53 2020, MaxMem=  2684354560 cpu:               3.6 elap:               0.6
 (Enter /udrive/faculty/rpeverati/g16/g16/l303.exe)
 DipDrv:  MaxL=1.
 Leave Link  303 at Wed Oct  7 14:48:54 2020, MaxMem=  2684354560 cpu:               1.4 elap:               0.6
 (Enter /udrive/faculty/rpeverati/g16/g16/l401.exe)
 SCF N**3 symmetry information disabled.
 ExpMin= 1.61D-01 ExpMax= 5.48D+03 ExpMxC= 8.25D+02 IAcc=3 IRadAn=         5 AccDes= 0.00D+00
 Harris functional with IExCor=  402 and IRadAn=       5 diagonalized for initial guess.
 HarFok:  IExCor=  402 AccDes= 0.00D+00 IRadAn=         5 IDoV= 1 UseB2=F ITyADJ=14
 ICtDFT=  3500011 ScaDFX=  1.000000  1.000000  1.000000  1.000000
 FoFCou: FMM=F IPFlag=           0 FMFlag=      100000 FMFlg1=           0
         NFxFlg=           0 DoJE=T BraDBF=F KetDBF=T FulRan=T
         wScrn=  0.000000 ICntrl=       500 IOpCl=  0 I1Cent=   200000004 NGrid=           0
         NMat0=    1 NMatS0=      1 NMatT0=    0 NMatD0=    1 NMtDS0=    0 NMtDT0=    0
 Petite list used in FoFCou.
 Harris En= -76.0399660949745    
 JPrj=0 DoOrth=F DoCkMO=F.
 Initial guess orbital symmetries:
       Occupied  (SG) (SG) (SG) (PI) (PI)
       Virtual   (SG) (SG) (PI) (PI) (SG) (SG) (PI) (PI) (DLTA)
                 (DLTA) (SG)
 The electronic state of the initial guess is 1-SG.
 Leave Link  401 at Wed Oct  7 14:48:55 2020, MaxMem=  2684354560 cpu:               4.2 elap:               0.8
 (Enter /udrive/faculty/rpeverati/g16/g16/l502.exe)
 Keep J ints in memory in symmetry-blocked form, NReq=10348527.
 FoFCou: FMM=F IPFlag=           0 FMFlag=           0 FMFlg1=           0
         NFxFlg=           0 DoJE=F BraDBF=F KetDBF=F FulRan=T
         wScrn=  0.000000 ICntrl=       600 IOpCl=  0 I1Cent=           0 NGrid=           0
         NMat0=    1 NMatS0=    136 NMatT0=    0 NMatD0=    1 NMtDS0=    0 NMtDT0=    0
 Petite list used in FoFCou.
 Closed shell SCF:
 Using DIIS extrapolation, IDIIS=  1040.
 NGot=  2684354560 LenX=  2684349303 LenY=  2684348421
 Requested convergence on RMS density matrix=1.00D-08 within 120 cycles.
 Requested convergence on MAX density matrix=1.00D-06.
 Requested convergence on             energy=1.00D-06.
 No special actions if energy rises.
 Integral accuracy reduced to 1.0D-05 until final iterations.

 Cycle   1  Pass 0  IDiag  1:
 E= -75.4963723937530    
 DIIS: error= 1.27D-01 at cycle   1 NSaved=   1.
 NSaved= 1 IEnMin= 1 EnMin= -75.4963723937530     IErMin= 1 ErrMin= 1.27D-01
 ErrMax= 1.27D-01  0.00D+00 EMaxC= 1.00D-01 BMatC= 2.53D-01 BMatP= 2.53D-01
 IDIUse=3 WtCom= 0.00D+00 WtEn= 1.00D+00
 Coeff-Com:  0.100D+01
 Coeff-En:   0.100D+01
 Coeff:      0.100D+01
 Gap=    -0.072 Goal=   None    Shift=    0.000
 GapD=   -0.072 DampG=0.250 DampE=0.250 DampFc=0.2500 IDamp=-1.
 Damping current iteration by 2.50D-01
 RMSDP=9.65D-02 MaxDP=6.79D-01              OVMax= 4.70D-01

 Cycle   2  Pass 0  IDiag  1:
 E= -75.5725863087206     Delta-E=       -0.076213914968 Rises=F Damp=T
 DIIS: error= 3.86D-02 at cycle   2 NSaved=   2.
 NSaved= 2 IEnMin= 2 EnMin= -75.5725863087206     IErMin= 2 ErrMin= 3.86D-02
 ErrMax= 3.86D-02  0.00D+00 EMaxC= 1.00D-01 BMatC= 2.41D-02 BMatP= 2.53D-01
 IDIUse=3 WtCom= 6.14D-01 WtEn= 3.86D-01
 Coeff-Com: -0.437D+00 0.144D+01
 Coeff-En:   0.000D+00 0.100D+01
 Coeff:     -0.268D+00 0.127D+01
 Gap=     0.113 Goal=   None    Shift=    0.000
 RMSDP=1.48D-02 MaxDP=7.31D-02 DE=-7.62D-02 OVMax= 3.20D-01

 Cycle   3  Pass 0  IDiag  1:
 E= -75.6861585535515     Delta-E=       -0.113572244831 Rises=F Damp=F
 DIIS: error= 2.58D-02 at cycle   3 NSaved=   3.
 NSaved= 3 IEnMin= 3 EnMin= -75.6861585535515     IErMin= 3 ErrMin= 2.58D-02
 ErrMax= 2.58D-02  0.00D+00 EMaxC= 1.00D-01 BMatC= 1.02D-02 BMatP= 2.41D-02
 IDIUse=3 WtCom= 7.42D-01 WtEn= 2.58D-01
 Coeff-Com:  0.144D+00 0.539D-01 0.803D+00
 Coeff-En:   0.000D+00 0.000D+00 0.100D+01
 Coeff:      0.107D+00 0.400D-01 0.853D+00
 Gap=     0.173 Goal=   None    Shift=    0.000
 RMSDP=6.62D-03 MaxDP=4.14D-02 DE=-1.14D-01 OVMax= 3.77D-02

 Cycle   4  Pass 0  IDiag  1:
 E= -75.6920936045916     Delta-E=       -0.005935051040 Rises=F Damp=F
 DIIS: error= 1.10D-02 at cycle   4 NSaved=   4.
 NSaved= 4 IEnMin= 4 EnMin= -75.6920936045916     IErMin= 4 ErrMin= 1.10D-02
 ErrMax= 1.10D-02  0.00D+00 EMaxC= 1.00D-01 BMatC= 1.88D-03 BMatP= 1.02D-02
 IDIUse=3 WtCom= 8.90D-01 WtEn= 1.10D-01
 Coeff-Com: -0.122D-01 0.433D-03 0.262D+00 0.749D+00
 Coeff-En:   0.000D+00 0.000D+00 0.193D+00 0.807D+00
 Coeff:     -0.108D-01 0.385D-03 0.255D+00 0.756D+00
 Gap=     0.164 Goal=   None    Shift=    0.000
 RMSDP=2.40D-03 MaxDP=1.48D-02 DE=-5.94D-03 OVMax= 1.45D-02

 Cycle   5  Pass 0  IDiag  1:
 E= -75.6934718200810     Delta-E=       -0.001378215489 Rises=F Damp=F
 DIIS: error= 9.04D-04 at cycle   5 NSaved=   5.
 NSaved= 5 IEnMin= 5 EnMin= -75.6934718200810     IErMin= 5 ErrMin= 9.04D-04
 ErrMax= 9.04D-04  0.00D+00 EMaxC= 1.00D-01 BMatC= 1.36D-05 BMatP= 1.88D-03
 IDIUse=3 WtCom= 9.91D-01 WtEn= 9.04D-03
 Coeff-Com:  0.560D-02-0.121D-01 0.545D-01 0.171D+00 0.781D+00
 Coeff-En:   0.000D+00 0.000D+00 0.000D+00 0.000D+00 0.100D+01
 Coeff:      0.555D-02-0.120D-01 0.540D-01 0.169D+00 0.783D+00
 Gap=     0.165 Goal=   None    Shift=    0.000
 RMSDP=2.23D-04 MaxDP=1.42D-03 DE=-1.38D-03 OVMax= 1.42D-03

 Cycle   6  Pass 0  IDiag  1:
 E= -75.6934824374176     Delta-E=       -0.000010617337 Rises=F Damp=F
 DIIS: error= 2.15D-05 at cycle   6 NSaved=   6.
 NSaved= 6 IEnMin= 6 EnMin= -75.6934824374176     IErMin= 6 ErrMin= 2.15D-05
 ErrMax= 2.15D-05  0.00D+00 EMaxC= 1.00D-01 BMatC= 1.05D-08 BMatP= 1.36D-05
 IDIUse=1 WtCom= 1.00D+00 WtEn= 0.00D+00
 Coeff-Com:  0.892D-03-0.214D-02 0.170D-01 0.482D-01 0.117D+00 0.819D+00
 Coeff:      0.892D-03-0.214D-02 0.170D-01 0.482D-01 0.117D+00 0.819D+00
 Gap=     0.165 Goal=   None    Shift=    0.000
 RMSDP=7.03D-06 MaxDP=5.16D-05 DE=-1.06D-05 OVMax= 4.30D-05

 Initial convergence to 1.0D-05 achieved.  Increase integral accuracy.
 Cycle   7  Pass 1  IDiag  1:
 E= -75.6934820971422     Delta-E=        0.000000340275 Rises=F Damp=F
 DIIS: error= 7.80D-06 at cycle   1 NSaved=   1.
 NSaved= 1 IEnMin= 1 EnMin= -75.6934820971422     IErMin= 1 ErrMin= 7.80D-06
 ErrMax= 7.80D-06  0.00D+00 EMaxC= 1.00D-01 BMatC= 1.36D-09 BMatP= 1.36D-09
 IDIUse=1 WtCom= 1.00D+00 WtEn= 0.00D+00
 Coeff-Com:  0.100D+01
 Coeff:      0.100D+01
 Gap=     0.165 Goal=   None    Shift=    0.000
 RMSDP=7.03D-06 MaxDP=5.16D-05 DE= 3.40D-07 OVMax= 5.20D-05

 Cycle   8  Pass 1  IDiag  1:
 E= -75.6934820946133     Delta-E=        0.000000002529 Rises=F Damp=F
 DIIS: error= 1.70D-05 at cycle   2 NSaved=   2.
 NSaved= 2 IEnMin= 1 EnMin= -75.6934820971422     IErMin= 1 ErrMin= 7.80D-06
 ErrMax= 1.70D-05  0.00D+00 EMaxC= 1.00D-01 BMatC= 4.99D-09 BMatP= 1.36D-09
 IDIUse=1 WtCom= 1.00D+00 WtEn= 0.00D+00
 Coeff-Com:  0.659D+00 0.341D+00
 Coeff:      0.659D+00 0.341D+00
 Gap=     0.165 Goal=   None    Shift=    0.000
 RMSDP=4.06D-06 MaxDP=2.72D-05 DE= 2.53D-09 OVMax= 2.56D-05

 Cycle   9  Pass 1  IDiag  1:
 E= -75.6934820984645     Delta-E=       -0.000000003851 Rises=F Damp=F
 DIIS: error= 8.99D-07 at cycle   3 NSaved=   3.
 NSaved= 3 IEnMin= 3 EnMin= -75.6934820984645     IErMin= 3 ErrMin= 8.99D-07
 ErrMax= 8.99D-07  0.00D+00 EMaxC= 1.00D-01 BMatC= 9.96D-12 BMatP= 1.36D-09
 IDIUse=1 WtCom= 1.00D+00 WtEn= 0.00D+00
 Coeff-Com:  0.185D+00 0.764D-01 0.738D+00
 Coeff:      0.185D+00 0.764D-01 0.738D+00
 Gap=     0.165 Goal=   None    Shift=    0.000
 RMSDP=3.94D-07 MaxDP=2.55D-06 DE=-3.85D-09 OVMax= 2.55D-06

 Cycle  10  Pass 1  IDiag  1:
 E= -75.6934820984765     Delta-E=       -0.000000000012 Rises=F Damp=F
 DIIS: error= 1.68D-07 at cycle   4 NSaved=   4.
 NSaved= 4 IEnMin= 4 EnMin= -75.6934820984765     IErMin= 4 ErrMin= 1.68D-07
 ErrMax= 1.68D-07  0.00D+00 EMaxC= 1.00D-01 BMatC= 4.32D-13 BMatP= 9.96D-12
 IDIUse=1 WtCom= 1.00D+00 WtEn= 0.00D+00
 Coeff-Com:  0.279D-01 0.507D-02 0.214D+00 0.753D+00
 Coeff:      0.279D-01 0.507D-02 0.214D+00 0.753D+00
 Gap=     0.165 Goal=   None    Shift=    0.000
 RMSDP=3.33D-08 MaxDP=2.28D-07 DE=-1.19D-11 OVMax= 1.92D-07

 Cycle  11  Pass 1  IDiag  1:
 E= -75.6934820984769     Delta-E=       -0.000000000000 Rises=F Damp=F
 DIIS: error= 1.18D-08 at cycle   5 NSaved=   5.
 NSaved= 5 IEnMin= 5 EnMin= -75.6934820984769     IErMin= 5 ErrMin= 1.18D-08
 ErrMax= 1.18D-08  0.00D+00 EMaxC= 1.00D-01 BMatC= 1.65D-15 BMatP= 4.32D-13
 IDIUse=1 WtCom= 1.00D+00 WtEn= 0.00D+00
 Coeff-Com:  0.244D-02 0.709D-03 0.236D-01 0.800D-01 0.893D+00
 Coeff:      0.244D-02 0.709D-03 0.236D-01 0.800D-01 0.893D+00
 Gap=     0.165 Goal=   None    Shift=    0.000
 RMSDP=4.91D-09 MaxDP=3.28D-08 DE=-4.26D-13 OVMax= 3.45D-08

 SCF Done:  E(RB-LYP) =  -75.6934820985     A.U. after   11 cycles
            NFock= 11  Conv=0.49D-08     -V/T= 2.0017
 KE= 7.556170593543D+01 PE=-1.928071301487D+02 EE= 3.715150207012D+01
 Leave Link  502 at Wed Oct  7 14:48:56 2020, MaxMem=  2684354560 cpu:               7.5 elap:               1.0
 (Enter /udrive/faculty/rpeverati/g16/g16/l508.exe)
 QCSCF skips out because SCF is already converged.
 Leave Link  508 at Wed Oct  7 14:48:57 2020, MaxMem=  2684354560 cpu:               0.3 elap:               0.3
 (Enter /udrive/faculty/rpeverati/g16/g16/l601.exe)
 Copying SCF densities to generalized density rwf, IOpCl= 0 IROHF=0.

 **********************************************************************

            Population analysis using the SCF density.

 **********************************************************************

 Orbital symmetries:
       Occupied  (SG) (SG) (SG) (PI) (PI)
       Virtual   (SG) (SG) (PI) (PI) (SG) (SG) (PI) (PI) (DLTA)
                 (DLTA) (SG)
 The electronic state is 1-SG.
 Alpha  occ. eigenvalues --  -18.29738  -0.38469   0.07267   0.23203   0.23203
 Alpha virt. eigenvalues --    0.39730   1.16416   1.25004   1.25004   1.28738
 Alpha virt. eigenvalues --    1.63403   2.15118   2.15118   2.21523   2.21523
 Alpha virt. eigenvalues --    2.82776
          Condensed to atoms (all electrons):
               1          2
     1  O    9.040804   0.108669
     2  H    0.108669   0.741857
 Mulliken charges:
               1
     1  O   -1.149473
     2  H    0.149473
 Sum of Mulliken charges =  -1.00000
 Mulliken charges with hydrogens summed into heavy atoms:
               1
     1  O   -1.000000
 Electronic spatial extent (au):  <R**2>=             19.7918
 Charge=             -1.0000 electrons
 Dipole moment (field-independent basis, Debye):
    X=              0.0000    Y=             -0.0000    Z=             -1.1724  Tot=              1.1724
 Quadrupole moment (field-independent basis, Debye-Ang):
   XX=             -7.9236   YY=             -7.9236   ZZ=             -6.8219
   XY=             -0.0000   XZ=              0.0000   YZ=              0.0000
 Traceless Quadrupole moment (field-independent basis, Debye-Ang):
   XX=             -0.3672   YY=             -0.3672   ZZ=              0.7344
   XY=             -0.0000   XZ=              0.0000   YZ=              0.0000
 Octapole moment (field-independent basis, Debye-Ang**2):
  XXX=              0.0000  YYY=             -0.0000  ZZZ=              0.0942  XYY=              0.0000
  XXY=              0.0000  XXZ=             -0.0299  XZZ=              0.0000  YZZ=             -0.0000
  YYZ=             -0.0299  XYZ=             -0.0000
 Hexadecapole moment (field-independent basis, Debye-Ang**3):
 XXXX=             -6.1697 YYYY=             -6.1697 ZZZZ=             -9.3088 XXXY=             -0.0000
 XXXZ=              0.0000 YYYX=             -0.0000 YYYZ=              0.0000 ZZZX=              0.0000
 ZZZY=              0.0000 XXYY=             -2.0566 XXZZ=             -2.6501 YYZZ=             -2.6501
 XXYZ=              0.0000 YYXZ=              0.0000 ZZXY=             -0.0000
 N-N= 4.400440044702D+00 E-N=-1.928071303857D+02  KE= 7.556170593543D+01
 No NMR shielding tensors so no spin-rotation constants.
 Leave Link  601 at Wed Oct  7 14:48:58 2020, MaxMem=  2684354560 cpu:               5.0 elap:               0.7
 (Enter /udrive/faculty/rpeverati/g16/g16/l701.exe)
 ... and contract with generalized density number  0.
 Compute integral first derivatives.
 Leave Link  701 at Wed Oct  7 14:48:59 2020, MaxMem=  2684354560 cpu:               3.0 elap:               0.6
 (Enter /udrive/faculty/rpeverati/g16/g16/l702.exe)
 L702 exits ... SP integral derivatives will be done elsewhere.
 Leave Link  702 at Wed Oct  7 14:49:00 2020, MaxMem=  2684354560 cpu:               2.1 elap:               0.6
 (Enter /udrive/faculty/rpeverati/g16/g16/l703.exe)
 Integral derivatives from FoFJK, PRISM(SPDF).
 Compute integral first derivatives, UseDBF=F ICtDFT=           0.
 Calling FoFJK, ICntrl=      2527 FMM=F ISym2X=1 I1Cent= 0 IOpClX= 0 NMat=1 NMatS=1 NMatT=0.
 FoFJK:  IHMeth= 1 ICntrl=    2527 DoSepK=F KAlg= 0 I1Cent=           0 FoldK=F
 IRaf=         0 NMat=       1 IRICut=       1 DoRegI=T DoRafI=F ISym2E= 1 IDoP0=0 IntGTp=1.
 FoFCou: FMM=F IPFlag=           0 FMFlag=      100000 FMFlg1=         800
         NFxFlg=           0 DoJE=F BraDBF=F KetDBF=F FulRan=T
         wScrn=  0.000000 ICntrl=      2527 IOpCl=  0 I1Cent=           0 NGrid=           0
         NMat0=    1 NMatS0=      1 NMatT0=    0 NMatD0=    1 NMtDS0=    0 NMtDT0=    0
 Petite list used in FoFCou.
 Leave Link  703 at Wed Oct  7 14:49:01 2020, MaxMem=  2684354560 cpu:               5.5 elap:               0.8
 (Enter /udrive/faculty/rpeverati/g16/g16/l716.exe)
 Dipole        = 0.00000000D+00-1.24348834D-32-4.61257914D-01
 ***** Axes restored to original set *****
 -------------------------------------------------------------------
 Center     Atomic                   Forces (Hartrees/Bohr)
 Number     Number              X              Y              Z
 -------------------------------------------------------------------
      1        8          -0.000000000   -0.000000000    0.033292741
      2        1           0.000000000    0.000000000   -0.033292741
 -------------------------------------------------------------------
 Cartesian Forces:  Max     0.033292741 RMS     0.019221573
 Leave Link  716 at Wed Oct  7 14:49:02 2020, MaxMem=  2684354560 cpu:               1.8 elap:               0.7
 (Enter /udrive/faculty/rpeverati/g16/g16/l103.exe)

 GradGradGradGradGradGradGradGradGradGradGradGradGradGradGradGradGradGrad
 Berny optimization.
 Optmz: redundant internal coordinate code flag= 1
 FormGI is forming the generalized inverse of G from B-inverse, IUseBI=4.
 Internal  Forces:  Max     0.033292741 RMS     0.033292741
 Search for a local minimum.
 Step number   1 out of a maximum of  100
 All quantities printed in internal units (Hartrees-Bohrs-Radians)
 RMS Force = .33293D-01 SwitMx=.10000D-02 MixMth= 1
 Mixed Optimization -- RFO/linear search
 Second derivative matrix not updated -- first step.
 The second derivative matrix:
                          R1
           R1           0.55036
 ITU=  0
 Eigenvectors of the second derivative matrix:
                           1
     Eigenvalues --     0.55036
   1         R1         1.00000
 RFO step:  Lambda=-2.00664864D-03 EMin= 5.50360406D-01
 Linear search not attempted -- first point.
 Iteration  1 RMS(Cart)=  0.04261935 RMS(Int)=  0.00000000
 Iteration  2 RMS(Cart)=  0.00000000 RMS(Int)=  0.00000000
 ITry= 1 IFail=0 DXMaxC= 3.01D-02 DCOld= 1.00D+10 DXMaxT= 3.00D-01 DXLimC= 3.00D+00 Rises=F
 ClnCor:  largest displacement from symmetrization is 0.00D+00 for atom     0.
 Variable       Old X    -DE/DX   Delta X   Delta X   Delta X     New X
                                 (Linear)    (Quad)   (Total)
    R1        1.81800   0.03329   0.00000   0.06027   0.06027   1.87827
         Item               Value     Threshold  Converged?
 Maximum Force            0.033293     0.000450     NO 
 RMS     Force            0.033293     0.000300     NO 
 Maximum Displacement     0.030136     0.001800     NO 
 RMS     Displacement     0.042619     0.001200     NO 
 Predicted change in Energy=-1.006969D-03
 Lowest energy point so far.  Saving SCF results.
 Largest change from initial coordinates is atom    1       0.016 Angstoms.
 GradGradGradGradGradGradGradGradGradGradGradGradGradGradGradGradGradGrad

 Leave Link  103 at Wed Oct  7 14:49:03 2020, MaxMem=  2684354560 cpu:               2.9 elap:               0.6
 (Enter /udrive/faculty/rpeverati/g16/g16/l202.exe)
                          Input orientation:                          
 ---------------------------------------------------------------------
 Center     Atomic      Atomic             Coordinates (Angstroms)
 Number     Number       Type             X           Y           Z
 ---------------------------------------------------------------------
      1          8           0        0.000000    0.000000    0.122841
      2          1           0        0.000000    0.000000   -0.871098
 ---------------------------------------------------------------------
 Stoichiometry    HO(1-)
 Framework group  C*V[C*(HO)]
 Deg. of freedom     1
 Full point group                 C*V     NOp   4
 RotChk:  IX=0 Diff= 0.00D+00
 Largest Abelian subgroup         C2V     NOp   4
 Largest concise Abelian subgroup C1      NOp   1
                         Standard orientation:                         
 ---------------------------------------------------------------------
 Center     Atomic      Atomic             Coordinates (Angstroms)
 Number     Number       Type             X           Y           Z
 ---------------------------------------------------------------------
      1          8           0        0.000000    0.000000    0.110438
      2          1           0        0.000000    0.000000   -0.883502
 ---------------------------------------------------------------------
 Rotational constants (GHZ):           0.0000000         539.5719991         539.5719991
 Leave Link  202 at Wed Oct  7 14:49:04 2020, MaxMem=  2684354560 cpu:               1.3 elap:               0.7
 (Enter /udrive/faculty/rpeverati/g16/g16/l301.exe)
 Standard basis: 6-31G(d) (5D, 7F)
 Ernie: Thresh=  0.10000D-02 Tol=  0.10000D-05 Strict=F.
 There are    10 symmetry adapted cartesian basis functions of A1  symmetry.
 There are     1 symmetry adapted cartesian basis functions of A2  symmetry.
 There are     3 symmetry adapted cartesian basis functions of B1  symmetry.
 There are     3 symmetry adapted cartesian basis functions of B2  symmetry.
 There are     9 symmetry adapted basis functions of A1  symmetry.
 There are     1 symmetry adapted basis functions of A2  symmetry.
 There are     3 symmetry adapted basis functions of B1  symmetry.
 There are     3 symmetry adapted basis functions of B2  symmetry.
    16 basis functions,    32 primitive gaussians,    17 cartesian basis functions
     5 alpha electrons        5 beta electrons
       nuclear repulsion energy         4.2592320748 Hartrees.
 IExCor=  402 DFT=T Ex=B Corr=LYP ExCW=0 ScaHFX=  0.000000
 ScaDFX=  1.000000  1.000000  1.000000  1.000000 ScalE2=  1.000000  1.000000
 IRadAn=      5 IRanWt=     -1 IRanGd=            0 ICorTp=0 IEmpDi=  4
 NAtoms=    2 NActive=    2 NUniq=    2 SFac= 1.00D+00 NAtFMM=   60 NAOKFM=F Big=F
 Integral buffers will be    131072 words long.
 Raffenetti 2 integral format.
 Two-electron integral symmetry is turned on.
 Leave Link  301 at Wed Oct  7 14:49:05 2020, MaxMem=  2684354560 cpu:               2.3 elap:               0.6
 (Enter /udrive/faculty/rpeverati/g16/g16/l302.exe)
 NPDir=0 NMtPBC=     1 NCelOv=     1 NCel=       1 NClECP=     1 NCelD=      1
         NCelK=      1 NCelE2=     1 NClLst=     1 CellRange=     0.0.
 One-electron integrals computed using PRISM.
 One-electron integral symmetry used in STVInt
 NBasis=    16 RedAO= T EigKep=  8.30D-02  NBF=     9     1     3     3
 NBsUse=    16 1.00D-06 EigRej= -1.00D+00 NBFU=     9     1     3     3
 Precomputing XC quadrature grid using
 IXCGrd= 4 IRadAn=           5 IRanWt=          -1 IRanGd=           0 AccXCQ= 0.00D+00.
 Generated NRdTot=       0 NPtTot=           0 NUsed=           0 NTot=          32
 NSgBfM=    17    17    17    17    17 MxSgAt=     2 MxSgA2=     2.
 Leave Link  302 at Wed Oct  7 14:49:06 2020, MaxMem=  2684354560 cpu:               3.8 elap:               0.6
 (Enter /udrive/faculty/rpeverati/g16/g16/l303.exe)
 DipDrv:  MaxL=1.
 Leave Link  303 at Wed Oct  7 14:49:06 2020, MaxMem=  2684354560 cpu:               1.5 elap:               0.5
 (Enter /udrive/faculty/rpeverati/g16/g16/l401.exe)
 Initial guess from the checkpoint file:  "MN_73_oh-_BH76_BLYP_631Gs.chk"
 SCF N**3 symmetry information disabled.
 B after Tr=     0.000000    0.000000    0.000000
         Rot=    1.000000    0.000000    0.000000    0.000000 Ang=   0.00 deg.
 Guess basis will be translated and rotated to current coordinates.
 JPrj=2 DoOrth=T DoCkMO=T.
 Initial guess orbital symmetries:
       Occupied  (SG) (SG) (SG) (PI) (PI)
       Virtual   (SG) (SG) (PI) (PI) (SG) (SG) (PI) (PI) (DLTA)
                 (DLTA) (SG)
 The electronic state of the initial guess is 1-SG.
 Generating alternative initial guess.
 ExpMin= 1.61D-01 ExpMax= 5.48D+03 ExpMxC= 8.25D+02 IAcc=2 IRadAn=         4 AccDes= 0.00D+00
 Harris functional with IExCor=  402 and IRadAn=       4 diagonalized for initial guess.
 HarFok:  IExCor=  402 AccDes= 0.00D+00 IRadAn=         4 IDoV= 1 UseB2=F ITyADJ=14
 ICtDFT=  3500011 ScaDFX=  1.000000  1.000000  1.000000  1.000000
 FoFCou: FMM=F IPFlag=           0 FMFlag=      100000 FMFlg1=           0
         NFxFlg=           0 DoJE=T BraDBF=F KetDBF=T FulRan=T
         wScrn=  0.000000 ICntrl=       500 IOpCl=  0 I1Cent=   200000004 NGrid=           0
         NMat0=    1 NMatS0=      1 NMatT0=    0 NMatD0=    1 NMtDS0=    0 NMtDT0=    0
 Petite list used in FoFCou.
 Harris En= -76.0357376794624    
 Leave Link  401 at Wed Oct  7 14:49:08 2020, MaxMem=  2684354560 cpu:               6.3 elap:               0.9
 (Enter /udrive/faculty/rpeverati/g16/g16/l502.exe)
 Keep J ints in memory in symmetry-blocked form, NReq=10348527.
 FoFCou: FMM=F IPFlag=           0 FMFlag=           0 FMFlg1=           0
         NFxFlg=           0 DoJE=F BraDBF=F KetDBF=F FulRan=T
         wScrn=  0.000000 ICntrl=       600 IOpCl=  0 I1Cent=           0 NGrid=           0
         NMat0=    1 NMatS0=    136 NMatT0=    0 NMatD0=    1 NMtDS0=    0 NMtDT0=    0
 Petite list used in FoFCou.
 Closed shell SCF:
 Using DIIS extrapolation, IDIIS=  1040.
 NGot=  2684354560 LenX=  2684349303 LenY=  2684348421
 Requested convergence on RMS density matrix=1.00D-08 within 120 cycles.
 Requested convergence on MAX density matrix=1.00D-06.
 Requested convergence on             energy=1.00D-06.
 No special actions if energy rises.
 Integral accuracy reduced to 1.0D-05 until final iterations.

 Cycle   1  Pass 0  IDiag  1:
 E= -75.6943040751277    
 DIIS: error= 4.12D-03 at cycle   1 NSaved=   1.
 NSaved= 1 IEnMin= 1 EnMin= -75.6943040751277     IErMin= 1 ErrMin= 4.12D-03
 ErrMax= 4.12D-03  0.00D+00 EMaxC= 1.00D-01 BMatC= 2.31D-04 BMatP= 2.31D-04
 IDIUse=3 WtCom= 9.59D-01 WtEn= 4.12D-02
 Coeff-Com:  0.100D+01
 Coeff-En:   0.100D+01
 Coeff:      0.100D+01
 Gap=     0.159 Goal=   None    Shift=    0.000
 GapD=    0.159 DampG=1.000 DampE=1.000 DampFc=1.0000 IDamp=-1.
 RMSDP=2.16D-03 MaxDP=1.73D-02              OVMax= 1.86D-02

 Cycle   2  Pass 0  IDiag  1:
 E= -75.6945007034878     Delta-E=       -0.000196628360 Rises=F Damp=F
 DIIS: error= 3.46D-03 at cycle   2 NSaved=   2.
 NSaved= 2 IEnMin= 2 EnMin= -75.6945007034878     IErMin= 2 ErrMin= 3.46D-03
 ErrMax= 3.46D-03  0.00D+00 EMaxC= 1.00D-01 BMatC= 1.76D-04 BMatP= 2.31D-04
 IDIUse=3 WtCom= 9.65D-01 WtEn= 3.46D-02
 Coeff-Com:  0.451D+00 0.549D+00
 Coeff-En:   0.116D+00 0.884D+00
 Coeff:      0.440D+00 0.560D+00
 Gap=     0.162 Goal=   None    Shift=    0.000
 RMSDP=1.30D-03 MaxDP=8.44D-03 DE=-1.97D-04 OVMax= 8.54D-03

 Cycle   3  Pass 0  IDiag  1:
 E= -75.6945929264318     Delta-E=       -0.000092222944 Rises=F Damp=F
 DIIS: error= 2.17D-03 at cycle   3 NSaved=   3.
 NSaved= 3 IEnMin= 3 EnMin= -75.6945929264318     IErMin= 3 ErrMin= 2.17D-03
 ErrMax= 2.17D-03  0.00D+00 EMaxC= 1.00D-01 BMatC= 7.61D-05 BMatP= 1.76D-04
 IDIUse=3 WtCom= 9.78D-01 WtEn= 2.17D-02
 Coeff-Com:  0.685D-01 0.383D+00 0.549D+00
 Coeff-En:   0.000D+00 0.310D+00 0.690D+00
 Coeff:      0.670D-01 0.381D+00 0.552D+00
 Gap=     0.161 Goal=   None    Shift=    0.000
 RMSDP=4.35D-04 MaxDP=3.12D-03 DE=-9.22D-05 OVMax= 2.72D-03

 Cycle   4  Pass 0  IDiag  1:
 E= -75.6946483578926     Delta-E=       -0.000055431461 Rises=F Damp=F
 DIIS: error= 1.06D-04 at cycle   4 NSaved=   4.
 NSaved= 4 IEnMin= 4 EnMin= -75.6946483578926     IErMin= 4 ErrMin= 1.06D-04
 ErrMax= 1.06D-04  0.00D+00 EMaxC= 1.00D-01 BMatC= 1.90D-07 BMatP= 7.61D-05
 IDIUse=3 WtCom= 9.99D-01 WtEn= 1.06D-03
 Coeff-Com:  0.165D-02 0.809D-01 0.124D+00 0.793D+00
 Coeff-En:   0.000D+00 0.000D+00 0.000D+00 0.100D+01
 Coeff:      0.165D-02 0.808D-01 0.124D+00 0.794D+00
 Gap=     0.161 Goal=   None    Shift=    0.000
 RMSDP=2.93D-05 MaxDP=2.30D-04 DE=-5.54D-05 OVMax= 1.65D-04

 Cycle   5  Pass 0  IDiag  1:
 E= -75.6946484953262     Delta-E=       -0.000000137434 Rises=F Damp=F
 DIIS: error= 2.96D-05 at cycle   5 NSaved=   5.
 NSaved= 5 IEnMin= 5 EnMin= -75.6946484953262     IErMin= 5 ErrMin= 2.96D-05
 ErrMax= 2.96D-05  0.00D+00 EMaxC= 1.00D-01 BMatC= 1.56D-08 BMatP= 1.90D-07
 IDIUse=1 WtCom= 1.00D+00 WtEn= 0.00D+00
 Coeff-Com:  0.111D-03 0.174D-01 0.193D-01 0.243D+00 0.720D+00
 Coeff:      0.111D-03 0.174D-01 0.193D-01 0.243D+00 0.720D+00
 Gap=     0.161 Goal=   None    Shift=    0.000
 RMSDP=1.46D-05 MaxDP=9.24D-05 DE=-1.37D-07 OVMax= 1.03D-04

 Cycle   6  Pass 0  IDiag  1:
 E= -75.6946485131921     Delta-E=       -0.000000017866 Rises=F Damp=F
 DIIS: error= 1.75D-06 at cycle   6 NSaved=   6.
 NSaved= 6 IEnMin= 6 EnMin= -75.6946485131921     IErMin= 6 ErrMin= 1.75D-06
 ErrMax= 1.75D-06  0.00D+00 EMaxC= 1.00D-01 BMatC= 4.07D-11 BMatP= 1.56D-08
 IDIUse=1 WtCom= 1.00D+00 WtEn= 0.00D+00
 Coeff-Com: -0.408D-04 0.228D-02 0.239D-02 0.353D-01 0.140D+00 0.820D+00
 Coeff:     -0.408D-04 0.228D-02 0.239D-02 0.353D-01 0.140D+00 0.820D+00
 Gap=     0.161 Goal=   None    Shift=    0.000
 RMSDP=5.97D-07 MaxDP=3.16D-06 DE=-1.79D-08 OVMax= 4.70D-06

 Initial convergence to 1.0D-05 achieved.  Increase integral accuracy.
 Cycle   7  Pass 1  IDiag  1:
 E= -75.6946480018405     Delta-E=        0.000000511352 Rises=F Damp=F
 DIIS: error= 1.33D-07 at cycle   1 NSaved=   1.
 NSaved= 1 IEnMin= 1 EnMin= -75.6946480018405     IErMin= 1 ErrMin= 1.33D-07
 ErrMax= 1.33D-07  0.00D+00 EMaxC= 1.00D-01 BMatC= 3.16D-13 BMatP= 3.16D-13
 IDIUse=1 WtCom= 1.00D+00 WtEn= 0.00D+00
 Coeff-Com:  0.100D+01
 Coeff:      0.100D+01
 Gap=     0.161 Goal=   None    Shift=    0.000
 RMSDP=5.97D-07 MaxDP=3.16D-06 DE= 5.11D-07 OVMax= 4.89D-07

 Cycle   8  Pass 1  IDiag  1:
 E= -75.6946480018408     Delta-E=       -0.000000000000 Rises=F Damp=F
 DIIS: error= 1.31D-07 at cycle   2 NSaved=   2.
 NSaved= 2 IEnMin= 2 EnMin= -75.6946480018408     IErMin= 2 ErrMin= 1.31D-07
 ErrMax= 1.31D-07  0.00D+00 EMaxC= 1.00D-01 BMatC= 2.58D-13 BMatP= 3.16D-13
 IDIUse=1 WtCom= 1.00D+00 WtEn= 0.00D+00
 Coeff-Com:  0.470D+00 0.530D+00
 Coeff:      0.470D+00 0.530D+00
 Gap=     0.161 Goal=   None    Shift=    0.000
 RMSDP=3.40D-08 MaxDP=2.25D-07 DE=-3.27D-13 OVMax= 2.04D-07

 Cycle   9  Pass 1  IDiag  1:
 E= -75.6946480018409     Delta-E=       -0.000000000000 Rises=F Damp=F
 DIIS: error= 5.88D-08 at cycle   3 NSaved=   3.
 NSaved= 3 IEnMin= 3 EnMin= -75.6946480018409     IErMin= 3 ErrMin= 5.88D-08
 ErrMax= 5.88D-08  0.00D+00 EMaxC= 1.00D-01 BMatC= 5.97D-14 BMatP= 2.58D-13
 IDIUse=1 WtCom= 1.00D+00 WtEn= 0.00D+00
 Coeff-Com:  0.366D-01 0.330D+00 0.634D+00
 Coeff:      0.366D-01 0.330D+00 0.634D+00
 Gap=     0.161 Goal=   None    Shift=    0.000
 RMSDP=2.08D-08 MaxDP=1.39D-07 DE=-1.14D-13 OVMax= 1.40D-07

 Cycle  10  Pass 1  IDiag  1:
 E= -75.6946480018410     Delta-E=       -0.000000000000 Rises=F Damp=F
 DIIS: error= 6.09D-09 at cycle   4 NSaved=   4.
 NSaved= 4 IEnMin= 4 EnMin= -75.6946480018410     IErMin= 4 ErrMin= 6.09D-09
 ErrMax= 6.09D-09  0.00D+00 EMaxC= 1.00D-01 BMatC= 9.02D-16 BMatP= 5.97D-14
 IDIUse=1 WtCom= 1.00D+00 WtEn= 0.00D+00
 Coeff-Com:  0.809D-02 0.759D-01 0.218D+00 0.699D+00
 Coeff:      0.809D-02 0.759D-01 0.218D+00 0.699D+00
 Gap=     0.161 Goal=   None    Shift=    0.000
 RMSDP=3.09D-09 MaxDP=1.94D-08 DE=-2.84D-14 OVMax= 2.19D-08

 SCF Done:  E(RB-LYP) =  -75.6946480018     A.U. after   10 cycles
            NFock= 10  Conv=0.31D-08     -V/T= 2.0024
 KE= 7.551112163663D+01 PE=-1.924747238266D+02 EE= 3.700972211338D+01
 Leave Link  502 at Wed Oct  7 14:49:09 2020, MaxMem=  2684354560 cpu:               8.2 elap:               1.1
 (Enter /udrive/faculty/rpeverati/g16/g16/l508.exe)
 QCSCF skips out because SCF is already converged.
 Leave Link  508 at Wed Oct  7 14:49:10 2020, MaxMem=  2684354560 cpu:               0.7 elap:               0.5
 (Enter /udrive/faculty/rpeverati/g16/g16/l701.exe)
 ... and contract with generalized density number  0.
 Compute integral first derivatives.
 Leave Link  701 at Wed Oct  7 14:49:11 2020, MaxMem=  2684354560 cpu:               3.4 elap:               0.6
 (Enter /udrive/faculty/rpeverati/g16/g16/l702.exe)
 L702 exits ... SP integral derivatives will be done elsewhere.
 Leave Link  702 at Wed Oct  7 14:49:11 2020, MaxMem=  2684354560 cpu:               1.4 elap:               0.5
 (Enter /udrive/faculty/rpeverati/g16/g16/l703.exe)
 Integral derivatives from FoFJK, PRISM(SPDF).
 Compute integral first derivatives, UseDBF=F ICtDFT=           0.
 Calling FoFJK, ICntrl=      2527 FMM=F ISym2X=1 I1Cent= 0 IOpClX= 0 NMat=1 NMatS=1 NMatT=0.
 FoFJK:  IHMeth= 1 ICntrl=    2527 DoSepK=F KAlg= 0 I1Cent=           0 FoldK=F
 IRaf=         0 NMat=       1 IRICut=       1 DoRegI=T DoRafI=F ISym2E= 1 IDoP0=0 IntGTp=1.
 FoFCou: FMM=F IPFlag=           0 FMFlag=      100000 FMFlg1=         800
         NFxFlg=           0 DoJE=F BraDBF=F KetDBF=F FulRan=T
         wScrn=  0.000000 ICntrl=      2527 IOpCl=  0 I1Cent=           0 NGrid=           0
         NMat0=    1 NMatS0=      1 NMatT0=    0 NMatD0=    1 NMtDS0=    0 NMtDT0=    0
 Petite list used in FoFCou.
 Leave Link  703 at Wed Oct  7 14:49:13 2020, MaxMem=  2684354560 cpu:               4.7 elap:               1.0
 (Enter /udrive/faculty/rpeverati/g16/g16/l716.exe)
 Dipole        = 0.00000000D+00-3.59098519D-32-4.29320930D-01
 ***** Axes restored to original set *****
 -------------------------------------------------------------------
 Center     Atomic                   Forces (Hartrees/Bohr)
 Number     Number              X              Y              Z
 -------------------------------------------------------------------
      1        8          -0.000000000   -0.000000000    0.006451696
      2        1           0.000000000    0.000000000   -0.006451696
 -------------------------------------------------------------------
 Cartesian Forces:  Max     0.006451696 RMS     0.003724889
 Leave Link  716 at Wed Oct  7 14:49:14 2020, MaxMem=  2684354560 cpu:               1.3 elap:               0.6
 (Enter /udrive/faculty/rpeverati/g16/g16/l103.exe)

 GradGradGradGradGradGradGradGradGradGradGradGradGradGradGradGradGradGrad
 Berny optimization.
 Optmz: redundant internal coordinate code flag= 1
 Using GEDIIS/GDIIS optimizer.
 Red2BG:  D1=  2.00D+00 OD1=  0.00D+00 B2RMS=  0.00D+00 IAprox=1
 Red2BG is reusing G-inverse.
 Internal  Forces:  Max     0.006451696 RMS     0.006451696
 Search for a local minimum.
 Step number   2 out of a maximum of  100
 All quantities printed in internal units (Hartrees-Bohrs-Radians)
 RMS Force = .64517D-02 SwitMx=.10000D-02 MixMth= 1
 Mixed Optimization -- RFO/linear search
 Update second derivatives using D2CorX and points    1    2
 DE= -1.17D-03 DEPred=-1.01D-03 R= 1.16D+00
 TightC=F SS=  1.41D+00  RLast= 6.03D-02 DXNew= 5.0454D-01 1.8082D-01
 Trust test= 1.16D+00 RLast= 6.03D-02 DXMaxT set to 3.00D-01
 The second derivative matrix:
                          R1
           R1           0.44533
 ITU=  1  0
 Use linear search instead of GDIIS.
 Eigenvectors of the second derivative matrix:
                           1
     Eigenvalues --     0.44533
   1         R1         1.00000
 RFO step:  Lambda= 0.00000000D+00 EMin= 4.45325568D-01
 Quartic linear search produced a step of  0.28171.
 Iteration  1 RMS(Cart)=  0.01200610 RMS(Int)=  0.00000000
 Iteration  2 RMS(Cart)=  0.00000000 RMS(Int)=  0.00000000
 ITry= 1 IFail=0 DXMaxC= 8.49D-03 DCOld= 1.00D+10 DXMaxT= 3.00D-01 DXLimC= 3.00D+00 Rises=F
 ClnCor:  largest displacement from symmetrization is 0.00D+00 for atom     0.
 Variable       Old X    -DE/DX   Delta X   Delta X   Delta X     New X
                                 (Linear)    (Quad)   (Total)
    R1        1.87827   0.00645   0.01698  -0.00000   0.01698   1.89525
         Item               Value     Threshold  Converged?
 Maximum Force            0.006452     0.000450     NO 
 RMS     Force            0.006452     0.000300     NO 
 Maximum Displacement     0.008490     0.001800     NO 
 RMS     Displacement     0.012006     0.001200     NO 
 Predicted change in Energy=-4.535247D-05
 Lowest energy point so far.  Saving SCF results.
 Largest change from initial coordinates is atom    2       0.033 Angstoms.
 GradGradGradGradGradGradGradGradGradGradGradGradGradGradGradGradGradGrad

 Leave Link  103 at Wed Oct  7 14:49:14 2020, MaxMem=  2684354560 cpu:               1.3 elap:               0.5
 (Enter /udrive/faculty/rpeverati/g16/g16/l202.exe)
                          Input orientation:                          
 ---------------------------------------------------------------------
 Center     Atomic      Atomic             Coordinates (Angstroms)
 Number     Number       Type             X           Y           Z
 ---------------------------------------------------------------------
      1          8           0        0.000000    0.000000    0.127334
      2          1           0        0.000000    0.000000   -0.875590
 ---------------------------------------------------------------------
 Stoichiometry    HO(1-)
 Framework group  C*V[C*(HO)]
 Deg. of freedom     1
 Full point group                 C*V     NOp   4
 RotChk:  IX=0 Diff= 0.00D+00
 Largest Abelian subgroup         C2V     NOp   4
 Largest concise Abelian subgroup C1      NOp   1
                         Standard orientation:                         
 ---------------------------------------------------------------------
 Center     Atomic      Atomic             Coordinates (Angstroms)
 Number     Number       Type             X           Y           Z
 ---------------------------------------------------------------------
      1          8           0        0.000000    0.000000    0.111436
      2          1           0        0.000000    0.000000   -0.891488
 ---------------------------------------------------------------------
 Rotational constants (GHZ):           0.0000000         529.9474639         529.9474639
 Leave Link  202 at Wed Oct  7 14:49:15 2020, MaxMem=  2684354560 cpu:               1.2 elap:               0.5
 (Enter /udrive/faculty/rpeverati/g16/g16/l301.exe)
 Standard basis: 6-31G(d) (5D, 7F)
 Ernie: Thresh=  0.10000D-02 Tol=  0.10000D-05 Strict=F.
 There are    10 symmetry adapted cartesian basis functions of A1  symmetry.
 There are     1 symmetry adapted cartesian basis functions of A2  symmetry.
 There are     3 symmetry adapted cartesian basis functions of B1  symmetry.
 There are     3 symmetry adapted cartesian basis functions of B2  symmetry.
 There are     9 symmetry adapted basis functions of A1  symmetry.
 There are     1 symmetry adapted basis functions of A2  symmetry.
 There are     3 symmetry adapted basis functions of B1  symmetry.
 There are     3 symmetry adapted basis functions of B2  symmetry.
    16 basis functions,    32 primitive gaussians,    17 cartesian basis functions
     5 alpha electrons        5 beta electrons
       nuclear repulsion energy         4.2210744426 Hartrees.
 IExCor=  402 DFT=T Ex=B Corr=LYP ExCW=0 ScaHFX=  0.000000
 ScaDFX=  1.000000  1.000000  1.000000  1.000000 ScalE2=  1.000000  1.000000
 IRadAn=      5 IRanWt=     -1 IRanGd=            0 ICorTp=0 IEmpDi=  4
 NAtoms=    2 NActive=    2 NUniq=    2 SFac= 1.00D+00 NAtFMM=   60 NAOKFM=F Big=F
 Integral buffers will be    131072 words long.
 Raffenetti 2 integral format.
 Two-electron integral symmetry is turned on.
 Leave Link  301 at Wed Oct  7 14:49:16 2020, MaxMem=  2684354560 cpu:               3.0 elap:               0.7
 (Enter /udrive/faculty/rpeverati/g16/g16/l302.exe)
 NPDir=0 NMtPBC=     1 NCelOv=     1 NCel=       1 NClECP=     1 NCelD=      1
         NCelK=      1 NCelE2=     1 NClLst=     1 CellRange=     0.0.
 One-electron integrals computed using PRISM.
 One-electron integral symmetry used in STVInt
 NBasis=    16 RedAO= T EigKep=  8.48D-02  NBF=     9     1     3     3
 NBsUse=    16 1.00D-06 EigRej= -1.00D+00 NBFU=     9     1     3     3
 Precomputing XC quadrature grid using
 IXCGrd= 4 IRadAn=           5 IRanWt=          -1 IRanGd=           0 AccXCQ= 0.00D+00.
 Generated NRdTot=       0 NPtTot=           0 NUsed=           0 NTot=          32
 NSgBfM=    17    17    17    17    17 MxSgAt=     2 MxSgA2=     2.
 Leave Link  302 at Wed Oct  7 14:49:17 2020, MaxMem=  2684354560 cpu:               3.8 elap:               0.7
 (Enter /udrive/faculty/rpeverati/g16/g16/l303.exe)
 DipDrv:  MaxL=1.
 Leave Link  303 at Wed Oct  7 14:49:18 2020, MaxMem=  2684354560 cpu:               1.3 elap:               0.4
 (Enter /udrive/faculty/rpeverati/g16/g16/l401.exe)
 Initial guess from the checkpoint file:  "MN_73_oh-_BH76_BLYP_631Gs.chk"
 SCF N**3 symmetry information disabled.
 B after Tr=     0.000000    0.000000    0.000000
         Rot=    1.000000    0.000000    0.000000    0.000000 Ang=   0.00 deg.
 Guess basis will be translated and rotated to current coordinates.
 JPrj=2 DoOrth=T DoCkMO=T.
 Initial guess orbital symmetries:
       Occupied  (SG) (SG) (SG) (PI) (PI)
       Virtual   (SG) (SG) (PI) (PI) (SG) (SG) (PI) (PI) (DLTA)
                 (DLTA) (SG)
 The electronic state of the initial guess is 1-SG.
 Leave Link  401 at Wed Oct  7 14:49:19 2020, MaxMem=  2684354560 cpu:               2.6 elap:               0.7
 (Enter /udrive/faculty/rpeverati/g16/g16/l502.exe)
 Keep J ints in memory in symmetry-blocked form, NReq=10348527.
 FoFCou: FMM=F IPFlag=           0 FMFlag=           0 FMFlg1=           0
         NFxFlg=           0 DoJE=F BraDBF=F KetDBF=F FulRan=T
         wScrn=  0.000000 ICntrl=       600 IOpCl=  0 I1Cent=           0 NGrid=           0
         NMat0=    1 NMatS0=    136 NMatT0=    0 NMatD0=    1 NMtDS0=    0 NMtDT0=    0
 Petite list used in FoFCou.
 Closed shell SCF:
 Using DIIS extrapolation, IDIIS=  1040.
 NGot=  2684354560 LenX=  2684349303 LenY=  2684348421
 Requested convergence on RMS density matrix=1.00D-08 within 120 cycles.
 Requested convergence on MAX density matrix=1.00D-06.
 Requested convergence on             energy=1.00D-06.
 No special actions if energy rises.

 Cycle   1  Pass 1  IDiag  1:
 E= -75.6946758647769    
 DIIS: error= 1.11D-03 at cycle   1 NSaved=   1.
 NSaved= 1 IEnMin= 1 EnMin= -75.6946758647769     IErMin= 1 ErrMin= 1.11D-03
 ErrMax= 1.11D-03  0.00D+00 EMaxC= 1.00D-01 BMatC= 1.72D-05 BMatP= 1.72D-05
 IDIUse=3 WtCom= 9.89D-01 WtEn= 1.11D-02
 Coeff-Com:  0.100D+01
 Coeff-En:   0.100D+01
 Coeff:      0.100D+01
 Gap=     0.159 Goal=   None    Shift=    0.000
 GapD=    0.159 DampG=1.000 DampE=1.000 DampFc=1.0000 IDamp=-1.
 RMSDP=5.81D-04 MaxDP=4.78D-03              OVMax= 5.11D-03

 Cycle   2  Pass 1  IDiag  1:
 E= -75.6946911796719     Delta-E=       -0.000015314895 Rises=F Damp=F
 DIIS: error= 9.34D-04 at cycle   2 NSaved=   2.
 NSaved= 2 IEnMin= 2 EnMin= -75.6946911796719     IErMin= 2 ErrMin= 9.34D-04
 ErrMax= 9.34D-04  0.00D+00 EMaxC= 1.00D-01 BMatC= 1.27D-05 BMatP= 1.72D-05
 IDIUse=3 WtCom= 9.91D-01 WtEn= 9.34D-03
 Coeff-Com:  0.444D+00 0.556D+00
 Coeff-En:   0.908D-01 0.909D+00
 Coeff:      0.441D+00 0.559D+00
 Gap=     0.160 Goal=   None    Shift=    0.000
 RMSDP=3.51D-04 MaxDP=2.30D-03 DE=-1.53D-05 OVMax= 2.34D-03

 Cycle   3  Pass 1  IDiag  1:
 E= -75.6946978285210     Delta-E=       -0.000006648849 Rises=F Damp=F
 DIIS: error= 5.87D-04 at cycle   3 NSaved=   3.
 NSaved= 3 IEnMin= 3 EnMin= -75.6946978285210     IErMin= 3 ErrMin= 5.87D-04
 ErrMax= 5.87D-04  0.00D+00 EMaxC= 1.00D-01 BMatC= 5.59D-06 BMatP= 1.27D-05
 IDIUse=3 WtCom= 9.94D-01 WtEn= 5.87D-03
 Coeff-Com:  0.692D-01 0.384D+00 0.546D+00
 Coeff-En:   0.000D+00 0.312D+00 0.688D+00
 Coeff:      0.688D-01 0.384D+00 0.547D+00
 Gap=     0.159 Goal=   None    Shift=    0.000
 RMSDP=1.17D-04 MaxDP=8.38D-04 DE=-6.65D-06 OVMax= 7.39D-04

 Cycle   4  Pass 1  IDiag  1:
 E= -75.6947019062760     Delta-E=       -0.000004077755 Rises=F Damp=F
 DIIS: error= 2.86D-05 at cycle   4 NSaved=   4.
 NSaved= 4 IEnMin= 4 EnMin= -75.6947019062760     IErMin= 4 ErrMin= 2.86D-05
 ErrMax= 2.86D-05  0.00D+00 EMaxC= 1.00D-01 BMatC= 1.40D-08 BMatP= 5.59D-06
 IDIUse=1 WtCom= 1.00D+00 WtEn= 0.00D+00
 Coeff-Com:  0.175D-02 0.818D-01 0.119D+00 0.797D+00
 Coeff:      0.175D-02 0.818D-01 0.119D+00 0.797D+00
 Gap=     0.159 Goal=   None    Shift=    0.000
 RMSDP=7.59D-06 MaxDP=5.81D-05 DE=-4.08D-06 OVMax= 4.13D-05

 Cycle   5  Pass 1  IDiag  1:
 E= -75.6947019163782     Delta-E=       -0.000000010102 Rises=F Damp=F
 DIIS: error= 8.30D-06 at cycle   5 NSaved=   5.
 NSaved= 5 IEnMin= 5 EnMin= -75.6947019163782     IErMin= 5 ErrMin= 8.30D-06
 ErrMax= 8.30D-06  0.00D+00 EMaxC= 1.00D-01 BMatC= 1.23D-09 BMatP= 1.40D-08
 IDIUse=1 WtCom= 1.00D+00 WtEn= 0.00D+00
 Coeff-Com:  0.148D-03 0.180D-01 0.182D-01 0.247D+00 0.717D+00
 Coeff:      0.148D-03 0.180D-01 0.182D-01 0.247D+00 0.717D+00
 Gap=     0.159 Goal=   None    Shift=    0.000
 RMSDP=4.07D-06 MaxDP=2.58D-05 DE=-1.01D-08 OVMax= 2.89D-05

 Cycle   6  Pass 1  IDiag  1:
 E= -75.6947019177943     Delta-E=       -0.000000001416 Rises=F Damp=F
 DIIS: error= 5.03D-07 at cycle   6 NSaved=   6.
 NSaved= 6 IEnMin= 6 EnMin= -75.6947019177943     IErMin= 6 ErrMin= 5.03D-07
 ErrMax= 5.03D-07  0.00D+00 EMaxC= 1.00D-01 BMatC= 3.31D-12 BMatP= 1.23D-09
 IDIUse=1 WtCom= 1.00D+00 WtEn= 0.00D+00
 Coeff-Com: -0.411D-04 0.237D-02 0.220D-02 0.359D-01 0.142D+00 0.818D+00
 Coeff:     -0.411D-04 0.237D-02 0.220D-02 0.359D-01 0.142D+00 0.818D+00
 Gap=     0.159 Goal=   None    Shift=    0.000
 RMSDP=1.71D-07 MaxDP=9.06D-07 DE=-1.42D-09 OVMax= 1.37D-06

 Cycle   7  Pass 1  IDiag  1:
 E= -75.6947019177987     Delta-E=       -0.000000000004 Rises=F Damp=F
 DIIS: error= 2.21D-08 at cycle   7 NSaved=   7.
 NSaved= 7 IEnMin= 7 EnMin= -75.6947019177987     IErMin= 7 ErrMin= 2.21D-08
 ErrMax= 2.21D-08  0.00D+00 EMaxC= 1.00D-01 BMatC= 7.97D-15 BMatP= 3.31D-12
 IDIUse=1 WtCom= 1.00D+00 WtEn= 0.00D+00
 Coeff-Com: -0.870D-06 0.418D-05 0.228D-04 0.418D-03 0.222D-02 0.131D-01
 Coeff-Com:  0.984D+00
 Coeff:     -0.870D-06 0.418D-05 0.228D-04 0.418D-03 0.222D-02 0.131D-01
 Coeff:      0.984D+00
 Gap=     0.159 Goal=   None    Shift=    0.000
 RMSDP=7.89D-09 MaxDP=5.76D-08 DE=-4.45D-12 OVMax= 5.28D-08

 SCF Done:  E(RB-LYP) =  -75.6947019178     A.U. after    7 cycles
            NFock=  7  Conv=0.79D-08     -V/T= 2.0026
 KE= 7.549794410146D+01 PE=-1.923844132811D+02 EE= 3.697069281927D+01
 Leave Link  502 at Wed Oct  7 14:49:20 2020, MaxMem=  2684354560 cpu:               7.9 elap:               1.2
 (Enter /udrive/faculty/rpeverati/g16/g16/l508.exe)
 QCSCF skips out because SCF is already converged.
 Leave Link  508 at Wed Oct  7 14:49:21 2020, MaxMem=  2684354560 cpu:               0.4 elap:               0.3
 (Enter /udrive/faculty/rpeverati/g16/g16/l701.exe)
 ... and contract with generalized density number  0.
 Compute integral first derivatives.
 Leave Link  701 at Wed Oct  7 14:49:22 2020, MaxMem=  2684354560 cpu:               3.2 elap:               0.7
 (Enter /udrive/faculty/rpeverati/g16/g16/l702.exe)
 L702 exits ... SP integral derivatives will be done elsewhere.
 Leave Link  702 at Wed Oct  7 14:49:23 2020, MaxMem=  2684354560 cpu:               1.9 elap:               0.7
 (Enter /udrive/faculty/rpeverati/g16/g16/l703.exe)
 Integral derivatives from FoFJK, PRISM(SPDF).
 Compute integral first derivatives, UseDBF=F ICtDFT=           0.
 Calling FoFJK, ICntrl=      2527 FMM=F ISym2X=1 I1Cent= 0 IOpClX= 0 NMat=1 NMatS=1 NMatT=0.
 FoFJK:  IHMeth= 1 ICntrl=    2527 DoSepK=F KAlg= 0 I1Cent=           0 FoldK=F
 IRaf=         0 NMat=       1 IRICut=       1 DoRegI=T DoRafI=F ISym2E= 1 IDoP0=0 IntGTp=1.
 FoFCou: FMM=F IPFlag=           0 FMFlag=      100000 FMFlg1=         800
         NFxFlg=           0 DoJE=F BraDBF=F KetDBF=F FulRan=T
         wScrn=  0.000000 ICntrl=      2527 IOpCl=  0 I1Cent=           0 NGrid=           0
         NMat0=    1 NMatS0=      1 NMatT0=    0 NMatD0=    1 NMtDS0=    0 NMtDT0=    0
 Petite list used in FoFCou.
 Leave Link  703 at Wed Oct  7 14:49:24 2020, MaxMem=  2684354560 cpu:               4.8 elap:               0.7
 (Enter /udrive/faculty/rpeverati/g16/g16/l716.exe)
 Dipole        = 0.00000000D+00 8.38743648D-33-4.20087454D-01
 ***** Axes restored to original set *****
 -------------------------------------------------------------------
 Center     Atomic                   Forces (Hartrees/Bohr)
 Number     Number              X              Y              Z
 -------------------------------------------------------------------
      1        8          -0.000000000   -0.000000000   -0.000028072
      2        1           0.000000000    0.000000000    0.000028072
 -------------------------------------------------------------------
 Cartesian Forces:  Max     0.000028072 RMS     0.000016207
 Leave Link  716 at Wed Oct  7 14:49:25 2020, MaxMem=  2684354560 cpu:               1.3 elap:               0.7
 (Enter /udrive/faculty/rpeverati/g16/g16/l103.exe)

 GradGradGradGradGradGradGradGradGradGradGradGradGradGradGradGradGradGrad
 Berny optimization.
 Optmz: redundant internal coordinate code flag= 1
 Using GEDIIS/GDIIS optimizer.
 Red2BG:  D1=  2.00D+00 OD1=  0.00D+00 B2RMS=  0.00D+00 IAprox=1
 Red2BG is reusing G-inverse.
 Internal  Forces:  Max     0.000028072 RMS     0.000028072
 Search for a local minimum.
 Step number   3 out of a maximum of  100
 All quantities printed in internal units (Hartrees-Bohrs-Radians)
 RMS Force = .28072D-04 SwitMx=.10000D-02 MixMth= 2
 Mixed Optimization -- En-DIIS/RFO-DIIS
 Update second derivatives using D2CorX and points    2    3
 DE= -5.39D-05 DEPred=-4.54D-05 R= 1.19D+00
 TightC=F SS=  1.41D+00  RLast= 1.70D-02 DXNew= 5.0454D-01 5.0938D-02
 Trust test= 1.19D+00 RLast= 1.70D-02 DXMaxT set to 3.00D-01
 The second derivative matrix:
                          R1
           R1           0.38163
 ITU=  1  1
 Use linear search instead of GDIIS.
 Eigenvectors of the second derivative matrix:
                           1
     Eigenvalues --     0.38163
   1         R1         1.00000
 RFO step:  Lambda= 0.00000000D+00 EMin= 3.81629900D-01
 Quartic linear search produced a step of -0.00448.
 Iteration  1 RMS(Cart)=  0.00005381 RMS(Int)=  0.00000000
 Iteration  2 RMS(Cart)=  0.00000000 RMS(Int)=  0.00000000
 ITry= 1 IFail=0 DXMaxC= 3.80D-05 DCOld= 1.00D+10 DXMaxT= 3.00D-01 DXLimC= 3.00D+00 Rises=F
 ClnCor:  largest displacement from symmetrization is 0.00D+00 for atom     0.
 Variable       Old X    -DE/DX   Delta X   Delta X   Delta X     New X
                                 (Linear)    (Quad)   (Total)
    R1        1.89525  -0.00003  -0.00008   0.00000  -0.00008   1.89518
         Item               Value     Threshold  Converged?
 Maximum Force            0.000028     0.000450     YES
 RMS     Force            0.000028     0.000300     YES
 Maximum Displacement     0.000038     0.001800     YES
 RMS     Displacement     0.000054     0.001200     YES
 Predicted change in Energy=-1.031238D-09
 Optimization completed.
    -- Stationary point found.
                           ----------------------------
                           !   Optimized Parameters   !
                           ! (Angstroms and Degrees)  !
 --------------------------                            --------------------------
 ! Name  Definition              Value          Derivative Info.                !
 --------------------------------------------------------------------------------
 ! R1    R(1,2)                  1.0029         -DE/DX =    0.0                 !
 --------------------------------------------------------------------------------
 Lowest energy point so far.  Saving SCF results.
 Largest change from initial coordinates is atom    2       0.036 Angstoms.
 GradGradGradGradGradGradGradGradGradGradGradGradGradGradGradGradGradGrad

 Leave Link  103 at Wed Oct  7 14:49:26 2020, MaxMem=  2684354560 cpu:               1.5 elap:               0.6
 (Enter /udrive/faculty/rpeverati/g16/g16/l202.exe)
                          Input orientation:                          
 ---------------------------------------------------------------------
 Center     Atomic      Atomic             Coordinates (Angstroms)
 Number     Number       Type             X           Y           Z
 ---------------------------------------------------------------------
      1          8           0        0.000000    0.000000    0.127334
      2          1           0        0.000000    0.000000   -0.875590
 ---------------------------------------------------------------------
 Stoichiometry    HO(1-)
 Framework group  C*V[C*(HO)]
 Deg. of freedom     1
 Full point group                 C*V     NOp   4
 RotChk:  IX=0 Diff= 0.00D+00
 Largest Abelian subgroup         C2V     NOp   4
 Largest concise Abelian subgroup C1      NOp   1
                         Standard orientation:                         
 ---------------------------------------------------------------------
 Center     Atomic      Atomic             Coordinates (Angstroms)
 Number     Number       Type             X           Y           Z
 ---------------------------------------------------------------------
      1          8           0        0.000000    0.000000    0.111436
      2          1           0        0.000000    0.000000   -0.891488
 ---------------------------------------------------------------------
 Rotational constants (GHZ):           0.0000000         529.9474639         529.9474639
 Leave Link  202 at Wed Oct  7 14:49:27 2020, MaxMem=  2684354560 cpu:               1.0 elap:               0.5
 (Enter /udrive/faculty/rpeverati/g16/g16/l601.exe)
 Copying SCF densities to generalized density rwf, IOpCl= 0 IROHF=0.

 **********************************************************************

            Population analysis using the SCF density.

 **********************************************************************

 Orbital symmetries:
       Occupied  (SG) (SG) (SG) (PI) (PI)
       Virtual   (SG) (SG) (PI) (PI) (SG) (SG) (PI) (PI) (DLTA)
                 (DLTA) (SG)
 The electronic state is 1-SG.
 Alpha  occ. eigenvalues --  -18.30550  -0.37733   0.06976   0.22983   0.22983
 Alpha virt. eigenvalues --    0.38906   1.12320   1.24710   1.24710   1.28906
 Alpha virt. eigenvalues --    1.62111   2.15294   2.15294   2.21330   2.21330
 Alpha virt. eigenvalues --    2.76302
          Condensed to atoms (all electrons):
               1          2
     1  O    9.019297   0.102733
     2  H    0.102733   0.775237
 Mulliken charges:
               1
     1  O   -1.122030
     2  H    0.122030
 Sum of Mulliken charges =  -1.00000
 Mulliken charges with hydrogens summed into heavy atoms:
               1
     1  O   -1.000000
 Electronic spatial extent (au):  <R**2>=             20.1909
 Charge=             -1.0000 electrons
 Dipole moment (field-independent basis, Debye):
    X=              0.0000    Y=              0.0000    Z=             -1.0678  Tot=              1.0678
 Quadrupole moment (field-independent basis, Debye-Ang):
   XX=             -7.9721   YY=             -7.9721   ZZ=             -6.9187
   XY=              0.0000   XZ=              0.0000   YZ=              0.0000
 Traceless Quadrupole moment (field-independent basis, Debye-Ang):
   XX=             -0.3511   YY=             -0.3511   ZZ=              0.7023
   XY=              0.0000   XZ=              0.0000   YZ=              0.0000
 Octapole moment (field-independent basis, Debye-Ang**2):
  XXX=              0.0000  YYY=              0.0000  ZZZ=              0.3698  XYY=              0.0000
  XXY=             -0.0000  XXZ=              0.0404  XZZ=              0.0000  YZZ=              0.0000
  YYZ=              0.0404  XYZ=              0.0000
 Hexadecapole moment (field-independent basis, Debye-Ang**3):
 XXXX=             -6.2365 YYYY=             -6.2365 ZZZZ=            -10.0527 XXXY=              0.0000
 XXXZ=              0.0000 YYYX=              0.0000 YYYZ=              0.0000 ZZZX=              0.0000
 ZZZY=              0.0000 XXYY=             -2.0788 XXZZ=             -2.7859 YYZZ=             -2.7859
 XXYZ=              0.0000 YYXZ=              0.0000 ZZXY=              0.0000
 N-N= 4.221074442572D+00 E-N=-1.923844138804D+02  KE= 7.549794410146D+01
 No NMR shielding tensors so no spin-rotation constants.
 Leave Link  601 at Wed Oct  7 14:49:28 2020, MaxMem=  2684354560 cpu:               3.7 elap:               0.7
 (Enter /udrive/faculty/rpeverati/g16/g16/l9999.exe)

 Test job not archived.
 1\1\GINC-NODE53\FOpt\RBLYP\6-31G(d)\H1O1(1-)\RPEVERATI\07-Oct-2020\0\\
 #P Opt(MaxCyc=100) BLYP/6-31G* 5D 7F Integral=UltraFineGrid SCF=(NoSym
 m,XQC,MaxCyc=120) IOp(1/33=1)\\TS search on BH76.\\-1,1\O,0.,0.,0.1273
 338095\H,0.,0.,-0.8755903856\\Version=ES64L-G16RevA.03\State=1-SG\HF=-
 75.6947019\RMSD=7.889e-09\RMSF=1.621e-05\Dipole=0.,0.,-0.4200875\Quadr
 upole=-0.2610558,-0.2610558,0.5221116,0.,0.,0.\PG=C*V [C*(H1O1)]\\@


 THOSE WHO ASPIRE NOT TO GUESS AND DIVINE,
 BUT TO DISCOVER AND KNOW, WHO PROPOSE NOT TO DEVISE 
 MIMIC AND FABULOUS WORLDS OF THEIR OWN, BUT TO 
 EXAMINE AND DISSECT THE NATURE OF THIS VERY WORLD 
 ITSELF, MUST GO TO THE FACTS THEMSELVES FOR EVERYTHING.

                               -- FRANCIS BACON, 1620
 Job cpu time:       0 days  0 hours  3 minutes 25.0 seconds.
 Elapsed time:       0 days  0 hours  0 minutes 34.2 seconds.
 File lengths (MBytes):  RWF=      5 Int=      0 D2E=      0 Chk=      1 Scr=      1
 Normal termination of Gaussian 16 at Wed Oct  7 14:49:30 2020.
