 Entering Gaussian System, Link 0=g16
 Input=MN_87_RKT11_BH76_BLYP_631Gs.in
 Output=MN_87_RKT11_BH76_BLYP_631Gs.log
 Initial command:
 /udrive/faculty/rpeverati/g16/g16/l1.exe "/udrive/scratch-directories/gaussian09/rpeverati/Gau-2752.inp" -scrdir="/udrive/scratch-directories/gaussian09/rpeverati/"
 Entering Link 1 = /udrive/faculty/rpeverati/g16/g16/l1.exe PID=      2765.
  
 Copyright (c) 1988,1990,1992,1993,1995,1998,2003,2009,2016,
            Gaussian, Inc.  All Rights Reserved.
  
 This is part of the Gaussian(R) 16 program.  It is based on
 the Gaussian(R) 09 system (copyright 2009, Gaussian, Inc.),
 the Gaussian(R) 03 system (copyright 2003, Gaussian, Inc.),
 the Gaussian(R) 98 system (copyright 1998, Gaussian, Inc.),
 the Gaussian(R) 94 system (copyright 1995, Gaussian, Inc.),
 the Gaussian 92(TM) system (copyright 1992, Gaussian, Inc.),
 the Gaussian 90(TM) system (copyright 1990, Gaussian, Inc.),
 the Gaussian 88(TM) system (copyright 1988, Gaussian, Inc.),
 the Gaussian 86(TM) system (copyright 1986, Carnegie Mellon
 University), and the Gaussian 82(TM) system (copyright 1983,
 Carnegie Mellon University). Gaussian is a federally registered
 trademark of Gaussian, Inc.
  
 This software contains proprietary and confidential information,
 including trade secrets, belonging to Gaussian, Inc.
  
 This software is provided under written license and may be
 used, copied, transmitted, or stored only in accord with that
 written license.
  
 The following legend is applicable only to US Government
 contracts under FAR:
  
                    RESTRICTED RIGHTS LEGEND
  
 Use, reproduction and disclosure by the US Government is
 subject to restrictions as set forth in subparagraphs (a)
 and (c) of the Commercial Computer Software - Restricted
 Rights clause in FAR 52.227-19.
  
 Gaussian, Inc.
 340 Quinnipiac St., Bldg. 40, Wallingford CT 06492
  
  
 ---------------------------------------------------------------
 Warning -- This program may not be used in any manner that
 competes with the business of Gaussian, Inc. or will provide
 assistance to any competitor of Gaussian, Inc.  The licensee
 of this program is prohibited from giving any competitor of
 Gaussian, Inc. access to this program.  By using this program,
 the user acknowledges that Gaussian, Inc. is engaged in the
 business of creating and licensing software in the field of
 computational chemistry and represents and warrants to the
 licensee that it is not a competitor of Gaussian, Inc. and that
 it will not use this program in any manner prohibited above.
 ---------------------------------------------------------------
  

 Cite this work as:
 Gaussian 16, Revision A.03,
 M. J. Frisch, G. W. Trucks, H. B. Schlegel, G. E. Scuseria, 
 M. A. Robb, J. R. Cheeseman, G. Scalmani, V. Barone, 
 G. A. Petersson, H. Nakatsuji, X. Li, M. Caricato, A. V. Marenich, 
 J. Bloino, B. G. Janesko, R. Gomperts, B. Mennucci, H. P. Hratchian, 
 J. V. Ortiz, A. F. Izmaylov, J. L. Sonnenberg, D. Williams-Young, 
 F. Ding, F. Lipparini, F. Egidi, J. Goings, B. Peng, A. Petrone, 
 T. Henderson, D. Ranasinghe, V. G. Zakrzewski, J. Gao, N. Rega, 
 G. Zheng, W. Liang, M. Hada, M. Ehara, K. Toyota, R. Fukuda, 
 J. Hasegawa, M. Ishida, T. Nakajima, Y. Honda, O. Kitao, H. Nakai, 
 T. Vreven, K. Throssell, J. A. Montgomery, Jr., J. E. Peralta, 
 F. Ogliaro, M. J. Bearpark, J. J. Heyd, E. N. Brothers, K. N. Kudin, 
 V. N. Staroverov, T. A. Keith, R. Kobayashi, J. Normand, 
 K. Raghavachari, A. P. Rendell, J. C. Burant, S. S. Iyengar, 
 J. Tomasi, M. Cossi, J. M. Millam, M. Klene, C. Adamo, R. Cammi, 
 J. W. Ochterski, R. L. Martin, K. Morokuma, O. Farkas, 
 J. B. Foresman, and D. J. Fox, Gaussian, Inc., Wallingford CT, 2016.
 
 ******************************************
 Gaussian 16:  ES64L-G16RevA.03 25-Dec-2016
                 7-Oct-2020 
 ******************************************
 %NoSave
 %nproc=12
 Will use up to   12 processors via shared memory.
 %mem=20GB
 %chk=MN_87_RKT11_BH76_BLYP_631Gs
 ----------------------------------------------------------------------
 #P Opt(TS,MaxCyc=50,NoEigenTest,MaxStep=10,AddRedundant) BLYP/6-31G* 5
 D 7F Integral=UltraFineGrid SCF=(NoSymm,XQC,MaxCyc=120) IOp(1/33=1)
 ----------------------------------------------------------------------
 1/5=1,6=50,8=10,11=1,18=120,26=4,33=1,38=1/1,3;
 2/9=110,12=2,17=6,18=5,40=1/2;
 3/5=1,6=6,7=1,8=11,11=2,25=1,30=1,71=1,74=402,75=-5/1,2,3;
 4/9=2/1;
 5/5=2,7=120,8=3,13=1,38=5/2,8;
 6/7=2,8=2,9=2,10=2,28=1/1;
 7//1,2,3,16;
 1/5=1,6=50,8=10,11=1,18=20,26=4,33=1/3(2);
 2/9=110/2;
 99//99;
 2/9=110/2;
 3/5=1,6=6,7=1,8=11,11=2,25=1,30=1,71=1,74=402,75=-5/1,2,3;
 4/5=5,9=2,16=3,69=1/1;
 5/5=2,7=120,8=3,13=1,38=5/2,8;
 7//1,2,3,16;
 1/5=1,6=50,8=10,11=1,18=20,26=4,33=1/3(-5);
 2/9=110/2;
 6/7=2,8=2,9=2,10=2,19=2,28=1/1;
 99/9=1/99;
 Leave Link    1 at Wed Oct  7 14:49:43 2020, MaxMem=  2684354560 cpu:               7.5 elap:               0.7
 (Enter /udrive/faculty/rpeverati/g16/g16/l101.exe)
 ONIOM data not found on unit 2.
 ------------------
 TS search on BH76.
 ------------------
 TstMul:  ICh=     0
 TstMul:  Mul=     3
 TstMul:  ICh=     0
 TstMul:  Mul=     3
 Symbolic Z-matrix:
 Charge =  0 Multiplicity = 3
 C                     0.00029  -1.14229   0. 
 H                    -1.05596  -1.38474   0. 
 H                     0.52017  -1.40739   0.91245 
 H                     0.52017  -1.40739  -0.91245 
 H                     0.01156   0.1601    0. 
 O                     0.00029   1.36164   0. 
 
 RdStrC is calling ZToCFu for IStruc=1 NZ=     6.
 PrtBox:  NBox=     1 Levels=  1 BoxLen=    8.00 SMaxX=        5.23
          Shift=            1.995470            2.659580            1.724280
 Box      1 Number                   0 centers from      1 to      6:
 After GenITR:
 ITRead=  0  0  0  0  0  0
 MicOpt= -1 -1 -1 -1 -1 -1
 Add virtual bond connecting atoms O6         and H5         Dist= 2.27D+00.
 Add virtual bond connecting atoms H5         and C1         Dist= 2.46D+00.
 The following ModRedundant input section has been read:
 
 ITRead=  0  0  0  0  0  0
 MicOpt= -1 -1 -1 -1 -1 -1
 NAtoms=      6 NQM=        6 NQMF=       0 NMMI=      0 NMMIF=      0
                NMic=       0 NMicF=      0.
                    Isotopes and Nuclear Properties:
 (Nuclear quadrupole moments (NQMom) in fm**2, nuclear magnetic moments (NMagM)
  in nuclear magnetons)

  Atom         1           2           3           4           5           6
 IAtWgt=          12           1           1           1           1          16
 AtmWgt=  12.0000000   1.0078250   1.0078250   1.0078250   1.0078250  15.9949146
 NucSpn=           0           1           1           1           1           0
 AtZEff=   0.0000000   0.0000000   0.0000000   0.0000000   0.0000000   0.0000000
 NQMom=    0.0000000   0.0000000   0.0000000   0.0000000   0.0000000   0.0000000
 NMagM=    0.0000000   2.7928460   2.7928460   2.7928460   2.7928460   0.0000000
 AtZNuc=   6.0000000   1.0000000   1.0000000   1.0000000   1.0000000   8.0000000
 No MM parameters found.
 Leave Link  101 at Wed Oct  7 14:49:44 2020, MaxMem=  2684354560 cpu:              13.5 elap:               1.2
 (Enter /udrive/faculty/rpeverati/g16/g16/l103.exe)

 GradGradGradGradGradGradGradGradGradGradGradGradGradGradGradGradGradGrad
 Berny optimization.
 Optmz: redundant internal coordinate code flag= 1
 Initialization pass.
                           ----------------------------
                           !    Initial Parameters    !
                           ! (Angstroms and Degrees)  !
 --------------------------                            --------------------------
 ! Name  Definition              Value          Derivative Info.                !
 --------------------------------------------------------------------------------
 ! R1    R(1,2)                  1.0837         estimate D2E/DX2                !
 ! R2    R(1,3)                  1.0831         estimate D2E/DX2                !
 ! R3    R(1,4)                  1.0831         estimate D2E/DX2                !
 ! R4    R(1,5)                  1.3024         estimate D2E/DX2                !
 ! R5    R(5,6)                  1.2016         estimate D2E/DX2                !
 ! A1    A(2,1,3)              114.3975         estimate D2E/DX2                !
 ! A2    A(2,1,4)              114.3975         estimate D2E/DX2                !
 ! A3    A(2,1,5)              103.4234         estimate D2E/DX2                !
 ! A4    A(3,1,4)              114.7971         estimate D2E/DX2                !
 ! A5    A(3,1,5)              103.9219         estimate D2E/DX2                !
 ! A6    A(4,1,5)              103.9219         estimate D2E/DX2                !
 ! A7    L(1,5,6,2,-1)         178.9668         estimate D2E/DX2                !
 ! A8    L(1,5,6,2,-2)         180.0            estimate D2E/DX2                !
 ! D1    D(2,1,4,3)           -135.1686         estimate D2E/DX2                !
 ! D2    D(2,1,5,3)            119.7805         estimate D2E/DX2                !
 ! D3    D(2,1,5,4)           -119.7805         estimate D2E/DX2                !
 ! D4    D(3,1,5,4)            120.4391         estimate D2E/DX2                !
 --------------------------------------------------------------------------------
 Maximum allowed force set to 1.00D+20.
 Trust Radius=1.00D-01 FncErr=1.00D-07 GrdErr=1.00D-06 EigMax=2.50D+02 EigMin=1.00D-04
 Number of steps in this run=     50 maximum allowed number of steps=    100.
 Search for a saddle point of order  1.
 GradGradGradGradGradGradGradGradGradGradGradGradGradGradGradGradGradGrad

 Leave Link  103 at Wed Oct  7 14:49:45 2020, MaxMem=  2684354560 cpu:               0.9 elap:               0.5
 (Enter /udrive/faculty/rpeverati/g16/g16/l202.exe)
                          Input orientation:                          
 ---------------------------------------------------------------------
 Center     Atomic      Atomic             Coordinates (Angstroms)
 Number     Number       Type             X           Y           Z
 ---------------------------------------------------------------------
      1          6           0        0.000290   -1.142287    0.000000
      2          1           0       -1.055957   -1.384735    0.000000
      3          1           0        0.520167   -1.407389    0.912450
      4          1           0        0.520167   -1.407389   -0.912450
      5          1           0        0.011560    0.160099    0.000000
      6          8           0        0.000290    1.361642    0.000000
 ---------------------------------------------------------------------
                    Distance matrix (angstroms):
                    1          2          3          4          5
     1  C    0.000000
     2  H    1.083715   0.000000
     3  H    1.083105   1.821331   0.000000
     4  H    1.083105   1.821331   1.824899   0.000000
     5  H    1.302435   1.877793   1.883684   1.883684   0.000000
     6  O    2.503929   2.942489   2.961481   2.961481   1.201596
                    6
     6  O    0.000000
 Stoichiometry    CH4O(3)
 Framework group  CS[SG(CH2O),X(H2)]
 Deg. of freedom     8
 Full point group                 CS      NOp   2
 Largest Abelian subgroup         CS      NOp   2
 Largest concise Abelian subgroup CS      NOp   2
                         Standard orientation:                         
 ---------------------------------------------------------------------
 Center     Atomic      Atomic             Coordinates (Angstroms)
 Number     Number       Type             X           Y           Z
 ---------------------------------------------------------------------
      1          6           0        0.000290   -1.142287    0.000000
      2          1           0       -1.055957   -1.384735    0.000000
      3          1           0        0.520168   -1.407389    0.912450
      4          1           0        0.520168   -1.407389   -0.912450
      5          1           0        0.011560    0.160099   -0.000000
      6          8           0        0.000290    1.361642   -0.000000
 ---------------------------------------------------------------------
 Rotational constants (GHZ):         150.9743796           9.6384202           9.6367904
 Leave Link  202 at Wed Oct  7 14:49:47 2020, MaxMem=  2684354560 cpu:               3.0 elap:               0.7
 (Enter /udrive/faculty/rpeverati/g16/g16/l301.exe)
 Standard basis: 6-31G(d) (5D, 7F)
 Ernie: Thresh=  0.10000D-02 Tol=  0.10000D-05 Strict=F.
 There are    28 symmetry adapted cartesian basis functions of A'  symmetry.
 There are    10 symmetry adapted cartesian basis functions of A"  symmetry.
 There are    26 symmetry adapted basis functions of A'  symmetry.
 There are    10 symmetry adapted basis functions of A"  symmetry.
    36 basis functions,    72 primitive gaussians,    38 cartesian basis functions
    10 alpha electrons        8 beta electrons
       nuclear repulsion energy        30.9103326491 Hartrees.
 IExCor=  402 DFT=T Ex=B Corr=LYP ExCW=0 ScaHFX=  0.000000
 ScaDFX=  1.000000  1.000000  1.000000  1.000000 ScalE2=  1.000000  1.000000
 IRadAn=      5 IRanWt=     -1 IRanGd=            0 ICorTp=0 IEmpDi=  4
 NAtoms=    6 NActive=    6 NUniq=    5 SFac= 1.44D+00 NAtFMM=   60 NAOKFM=F Big=F
 Integral buffers will be    131072 words long.
 Raffenetti 2 integral format.
 Two-electron integral symmetry is turned on.
 Leave Link  301 at Wed Oct  7 14:49:48 2020, MaxMem=  2684354560 cpu:               3.6 elap:               0.8
 (Enter /udrive/faculty/rpeverati/g16/g16/l302.exe)
 NPDir=0 NMtPBC=     1 NCelOv=     1 NCel=       1 NClECP=     1 NCelD=      1
         NCelK=      1 NCelE2=     1 NClLst=     1 CellRange=     0.0.
 One-electron integrals computed using PRISM.
 One-electron integral symmetry used in STVInt
 NBasis=    36 RedAO= T EigKep=  1.14D-02  NBF=    26    10
 NBsUse=    36 1.00D-06 EigRej= -1.00D+00 NBFU=    26    10
 Precomputing XC quadrature grid using
 IXCGrd= 4 IRadAn=           5 IRanWt=          -1 IRanGd=           0 AccXCQ= 0.00D+00.
 Generated NRdTot=       0 NPtTot=           0 NUsed=           0 NTot=          32
 NSgBfM=    38    38    38    38    38 MxSgAt=     6 MxSgA2=     6.
 Leave Link  302 at Wed Oct  7 14:49:49 2020, MaxMem=  2684354560 cpu:               4.5 elap:               0.8
 (Enter /udrive/faculty/rpeverati/g16/g16/l303.exe)
 DipDrv:  MaxL=1.
 Leave Link  303 at Wed Oct  7 14:49:50 2020, MaxMem=  2684354560 cpu:               1.8 elap:               0.5
 (Enter /udrive/faculty/rpeverati/g16/g16/l401.exe)
 SCF N**3 symmetry information disabled.
 ExpMin= 1.61D-01 ExpMax= 5.48D+03 ExpMxC= 8.25D+02 IAcc=3 IRadAn=         5 AccDes= 0.00D+00
 Harris functional with IExCor=  402 and IRadAn=       5 diagonalized for initial guess.
 HarFok:  IExCor=  402 AccDes= 0.00D+00 IRadAn=         5 IDoV= 1 UseB2=F ITyADJ=14
 ICtDFT=  3500011 ScaDFX=  1.000000  1.000000  1.000000  1.000000
 FoFCou: FMM=F IPFlag=           0 FMFlag=      100000 FMFlg1=           0
         NFxFlg=           0 DoJE=T BraDBF=F KetDBF=T FulRan=T
         wScrn=  0.000000 ICntrl=       500 IOpCl=  0 I1Cent=   200000004 NGrid=           0
         NMat0=    1 NMatS0=      1 NMatT0=    0 NMatD0=    1 NMtDS0=    0 NMtDT0=    0
 Petite list used in FoFCou.
 Harris En= -115.516734474111    
 JPrj=0 DoOrth=F DoCkMO=F.
 Initial guess orbital symmetries:
 Alpha Orbitals:
       Occupied  (A') (A') (A') (A') (A") (A') (A') (A") (A') (A')
       Virtual   (A') (A') (A") (A') (A') (A") (A') (A') (A') (A")
                 (A') (A') (A") (A') (A') (A") (A') (A') (A") (A')
                 (A') (A") (A') (A") (A') (A')
 Beta  Orbitals:
       Occupied  (A') (A') (A') (A') (A") (A') (A') (A")
       Virtual   (A') (A') (A') (A') (A") (A') (A') (A") (A') (A')
                 (A') (A") (A') (A') (A") (A') (A') (A") (A') (A')
                 (A") (A') (A') (A") (A') (A") (A') (A')
 The electronic state of the initial guess is 3-A'.
 Initial guess <Sx>= 0.0000 <Sy>= 0.0000 <Sz>= 1.0000 <S**2>= 2.0000 S= 1.0000
 Leave Link  401 at Wed Oct  7 14:49:51 2020, MaxMem=  2684354560 cpu:               5.1 elap:               0.8
 (Enter /udrive/faculty/rpeverati/g16/g16/l502.exe)
 Keep J ints in memory in symmetry-blocked form, NReq=10578875.
 FoFCou: FMM=F IPFlag=           0 FMFlag=           0 FMFlg1=           0
         NFxFlg=           0 DoJE=F BraDBF=F KetDBF=F FulRan=T
         wScrn=  0.000000 ICntrl=       600 IOpCl=  0 I1Cent=           0 NGrid=           0
         NMat0=    1 NMatS0=    666 NMatT0=    0 NMatD0=    1 NMtDS0=    0 NMtDT0=    0
 Petite list used in FoFCou.
 UHF open shell SCF:
 Using DIIS extrapolation, IDIIS=  1040.
 NGot=  2684354560 LenX=  2684232161 LenY=  2684230276
 Requested convergence on RMS density matrix=1.00D-08 within 120 cycles.
 Requested convergence on MAX density matrix=1.00D-06.
 Requested convergence on             energy=1.00D-06.
 No special actions if energy rises.
 Integral accuracy reduced to 1.0D-05 until final iterations.

 Cycle   1  Pass 0  IDiag  1:
 E= -115.458972274286    
 DIIS: error= 5.58D-02 at cycle   1 NSaved=   1.
 NSaved= 1 IEnMin= 1 EnMin= -115.458972274286     IErMin= 1 ErrMin= 5.58D-02
 ErrMax= 5.58D-02  0.00D+00 EMaxC= 1.00D-01 BMatC= 1.99D-01 BMatP= 1.99D-01
 IDIUse=3 WtCom= 4.42D-01 WtEn= 5.58D-01
 Coeff-Com:  0.100D+01
 Coeff-En:   0.100D+01
 Coeff:      0.100D+01
 Gap=     0.280 Goal=   None    Shift=    0.000
 Gap=     0.026 Goal=   None    Shift=    0.000
 GapD=    0.026 DampG=0.250 DampE=0.500 DampFc=0.2500 IDamp=-1.
 Damping current iteration by 2.50D-01
 RMSDP=1.31D-02 MaxDP=1.66D-01              OVMax= 1.96D-01

 Cycle   2  Pass 0  IDiag  1:
 E= -115.479567671798     Delta-E=       -0.020595397512 Rises=F Damp=T
 DIIS: error= 2.28D-02 at cycle   2 NSaved=   2.
 NSaved= 2 IEnMin= 2 EnMin= -115.479567671798     IErMin= 2 ErrMin= 2.28D-02
 ErrMax= 2.28D-02  0.00D+00 EMaxC= 1.00D-01 BMatC= 3.75D-02 BMatP= 1.99D-01
 IDIUse=3 WtCom= 7.72D-01 WtEn= 2.28D-01
 Coeff-Com: -0.601D+00 0.160D+01
 Coeff-En:   0.000D+00 0.100D+01
 Coeff:     -0.464D+00 0.146D+01
 Gap=     0.292 Goal=   None    Shift=    0.000
 Gap=     0.025 Goal=   None    Shift=    0.000
 RMSDP=3.89D-03 MaxDP=4.62D-02 DE=-2.06D-02 OVMax= 2.00D-01

 Cycle   3  Pass 0  IDiag  1:
 E= -115.510621244464     Delta-E=       -0.031053572666 Rises=F Damp=F
 DIIS: error= 1.71D-02 at cycle   3 NSaved=   3.
 NSaved= 3 IEnMin= 3 EnMin= -115.510621244464     IErMin= 3 ErrMin= 1.71D-02
 ErrMax= 1.71D-02  0.00D+00 EMaxC= 1.00D-01 BMatC= 1.82D-02 BMatP= 3.75D-02
 IDIUse=3 WtCom= 8.29D-01 WtEn= 1.71D-01
 Coeff-Com: -0.329D+00 0.904D+00 0.425D+00
 Coeff-En:   0.000D+00 0.000D+00 0.100D+01
 Coeff:     -0.273D+00 0.749D+00 0.524D+00
 Gap=     0.310 Goal=   None    Shift=    0.000
 Gap=     0.027 Goal=   None    Shift=    0.000
 RMSDP=2.19D-03 MaxDP=3.10D-02 DE=-3.11D-02 OVMax= 6.63D-02

 Cycle   4  Pass 0  IDiag  1:
 E= -115.514138580397     Delta-E=       -0.003517335933 Rises=F Damp=F
 DIIS: error= 7.79D-03 at cycle   4 NSaved=   4.
 NSaved= 4 IEnMin= 4 EnMin= -115.514138580397     IErMin= 4 ErrMin= 7.79D-03
 ErrMax= 7.79D-03  0.00D+00 EMaxC= 1.00D-01 BMatC= 3.29D-03 BMatP= 1.82D-02
 IDIUse=3 WtCom= 9.22D-01 WtEn= 7.79D-02
 Coeff-Com:  0.499D-01-0.779D-01 0.292D+00 0.736D+00
 Coeff-En:   0.000D+00 0.000D+00 0.166D+00 0.834D+00
 Coeff:      0.460D-01-0.719D-01 0.282D+00 0.744D+00
 Gap=     0.304 Goal=   None    Shift=    0.000
 Gap=     0.028 Goal=   None    Shift=    0.000
 RMSDP=6.54D-04 MaxDP=1.17D-02 DE=-3.52D-03 OVMax= 2.19D-02

 Cycle   5  Pass 0  IDiag  1:
 E= -115.514894202940     Delta-E=       -0.000755622543 Rises=F Damp=F
 DIIS: error= 6.67D-04 at cycle   5 NSaved=   5.
 NSaved= 5 IEnMin= 5 EnMin= -115.514894202940     IErMin= 5 ErrMin= 6.67D-04
 ErrMax= 6.67D-04  0.00D+00 EMaxC= 1.00D-01 BMatC= 3.40D-05 BMatP= 3.29D-03
 IDIUse=3 WtCom= 9.93D-01 WtEn= 6.67D-03
 Coeff-Com:  0.162D-01-0.414D-01 0.366D-01 0.170D+00 0.818D+00
 Coeff-En:   0.000D+00 0.000D+00 0.000D+00 0.000D+00 0.100D+01
 Coeff:      0.161D-01-0.411D-01 0.364D-01 0.169D+00 0.819D+00
 Gap=     0.305 Goal=   None    Shift=    0.000
 Gap=     0.028 Goal=   None    Shift=    0.000
 RMSDP=9.32D-05 MaxDP=9.75D-04 DE=-7.56D-04 OVMax= 1.64D-03

 Cycle   6  Pass 0  IDiag  1:
 E= -115.514902634277     Delta-E=       -0.000008431336 Rises=F Damp=F
 DIIS: error= 1.38D-04 at cycle   6 NSaved=   6.
 NSaved= 6 IEnMin= 6 EnMin= -115.514902634277     IErMin= 6 ErrMin= 1.38D-04
 ErrMax= 1.38D-04  0.00D+00 EMaxC= 1.00D-01 BMatC= 1.89D-06 BMatP= 3.40D-05
 IDIUse=3 WtCom= 9.99D-01 WtEn= 1.38D-03
 Coeff-Com: -0.295D-02 0.176D-02-0.196D-01-0.369D-01 0.189D+00 0.869D+00
 Coeff-En:   0.000D+00 0.000D+00 0.000D+00 0.000D+00 0.000D+00 0.100D+01
 Coeff:     -0.295D-02 0.175D-02-0.195D-01-0.369D-01 0.189D+00 0.869D+00
 Gap=     0.305 Goal=   None    Shift=    0.000
 Gap=     0.028 Goal=   None    Shift=    0.000
 RMSDP=2.61D-05 MaxDP=3.20D-04 DE=-8.43D-06 OVMax= 3.86D-04

 Cycle   7  Pass 0  IDiag  1:
 E= -115.514903230082     Delta-E=       -0.000000595805 Rises=F Damp=F
 DIIS: error= 3.43D-05 at cycle   7 NSaved=   7.
 NSaved= 7 IEnMin= 7 EnMin= -115.514903230082     IErMin= 7 ErrMin= 3.43D-05
 ErrMax= 3.43D-05  0.00D+00 EMaxC= 1.00D-01 BMatC= 6.69D-08 BMatP= 1.89D-06
 IDIUse=1 WtCom= 1.00D+00 WtEn= 0.00D+00
 Coeff-Com: -0.975D-03 0.174D-02-0.231D-02-0.456D-02-0.211D-01 0.254D-01
 Coeff-Com:  0.100D+01
 Coeff:     -0.975D-03 0.174D-02-0.231D-02-0.456D-02-0.211D-01 0.254D-01
 Coeff:      0.100D+01
 Gap=     0.305 Goal=   None    Shift=    0.000
 Gap=     0.028 Goal=   None    Shift=    0.000
 RMSDP=6.15D-06 MaxDP=6.45D-05 DE=-5.96D-07 OVMax= 1.91D-04

 Initial convergence to 1.0D-05 achieved.  Increase integral accuracy.
 Cycle   8  Pass 1  IDiag  1:
 E= -115.514901637667     Delta-E=        0.000001592415 Rises=F Damp=F
 DIIS: error= 7.45D-06 at cycle   1 NSaved=   1.
 NSaved= 1 IEnMin= 1 EnMin= -115.514901637667     IErMin= 1 ErrMin= 7.45D-06
 ErrMax= 7.45D-06  0.00D+00 EMaxC= 1.00D-01 BMatC= 5.19D-09 BMatP= 5.19D-09
 IDIUse=1 WtCom= 1.00D+00 WtEn= 0.00D+00
 Coeff-Com:  0.100D+01
 Coeff:      0.100D+01
 Gap=     0.305 Goal=   None    Shift=    0.000
 Gap=     0.028 Goal=   None    Shift=    0.000
 RMSDP=6.15D-06 MaxDP=6.45D-05 DE= 1.59D-06 OVMax= 9.92D-05

 Cycle   9  Pass 1  IDiag  1:
 E= -115.514901633372     Delta-E=        0.000000004295 Rises=F Damp=F
 DIIS: error= 1.73D-05 at cycle   2 NSaved=   2.
 NSaved= 2 IEnMin= 1 EnMin= -115.514901637667     IErMin= 1 ErrMin= 7.45D-06
 ErrMax= 1.73D-05  0.00D+00 EMaxC= 1.00D-01 BMatC= 2.29D-08 BMatP= 5.19D-09
 IDIUse=1 WtCom= 1.00D+00 WtEn= 0.00D+00
 Coeff-Com:  0.689D+00 0.311D+00
 Coeff:      0.689D+00 0.311D+00
 Gap=     0.305 Goal=   None    Shift=    0.000
 Gap=     0.028 Goal=   None    Shift=    0.000
 RMSDP=1.80D-06 MaxDP=2.82D-05 DE= 4.29D-09 OVMax= 6.76D-05

 Cycle  10  Pass 1  IDiag  1:
 E= -115.514901639475     Delta-E=       -0.000000006103 Rises=F Damp=F
 DIIS: error= 1.36D-06 at cycle   3 NSaved=   3.
 NSaved= 3 IEnMin= 3 EnMin= -115.514901639475     IErMin= 3 ErrMin= 1.36D-06
 ErrMax= 1.36D-06  0.00D+00 EMaxC= 1.00D-01 BMatC= 1.67D-10 BMatP= 5.19D-09
 IDIUse=1 WtCom= 1.00D+00 WtEn= 0.00D+00
 Coeff-Com:  0.156D+00 0.948D-01 0.749D+00
 Coeff:      0.156D+00 0.948D-01 0.749D+00
 Gap=     0.305 Goal=   None    Shift=    0.000
 Gap=     0.028 Goal=   None    Shift=    0.000
 RMSDP=2.27D-07 MaxDP=2.71D-06 DE=-6.10D-09 OVMax= 3.65D-06

 Cycle  11  Pass 1  IDiag  1:
 E= -115.514901639525     Delta-E=       -0.000000000051 Rises=F Damp=F
 DIIS: error= 3.55D-07 at cycle   4 NSaved=   4.
 NSaved= 4 IEnMin= 4 EnMin= -115.514901639525     IErMin= 4 ErrMin= 3.55D-07
 ErrMax= 3.55D-07  0.00D+00 EMaxC= 1.00D-01 BMatC= 1.39D-11 BMatP= 1.67D-10
 IDIUse=1 WtCom= 1.00D+00 WtEn= 0.00D+00
 Coeff-Com: -0.697D-01-0.198D-01 0.465D-01 0.104D+01
 Coeff:     -0.697D-01-0.198D-01 0.465D-01 0.104D+01
 Gap=     0.305 Goal=   None    Shift=    0.000
 Gap=     0.028 Goal=   None    Shift=    0.000
 RMSDP=1.01D-07 MaxDP=1.29D-06 DE=-5.08D-11 OVMax= 1.74D-06

 Cycle  12  Pass 1  IDiag  1:
 E= -115.514901639531     Delta-E=       -0.000000000005 Rises=F Damp=F
 DIIS: error= 2.81D-07 at cycle   5 NSaved=   5.
 NSaved= 5 IEnMin= 5 EnMin= -115.514901639531     IErMin= 5 ErrMin= 2.81D-07
 ErrMax= 2.81D-07  0.00D+00 EMaxC= 1.00D-01 BMatC= 4.91D-12 BMatP= 1.39D-11
 IDIUse=1 WtCom= 1.00D+00 WtEn= 0.00D+00
 Coeff-Com: -0.466D-01-0.135D-01-0.354D-01 0.497D+00 0.599D+00
 Coeff:     -0.466D-01-0.135D-01-0.354D-01 0.497D+00 0.599D+00
 Gap=     0.305 Goal=   None    Shift=    0.000
 Gap=     0.028 Goal=   None    Shift=    0.000
 RMSDP=3.21D-08 MaxDP=4.61D-07 DE=-5.31D-12 OVMax= 5.00D-07

 Cycle  13  Pass 1  IDiag  1:
 E= -115.514901639532     Delta-E=       -0.000000000002 Rises=F Damp=F
 DIIS: error= 4.06D-08 at cycle   6 NSaved=   6.
 NSaved= 6 IEnMin= 6 EnMin= -115.514901639532     IErMin= 6 ErrMin= 4.06D-08
 ErrMax= 4.06D-08  0.00D+00 EMaxC= 1.00D-01 BMatC= 1.80D-13 BMatP= 4.91D-12
 IDIUse=1 WtCom= 1.00D+00 WtEn= 0.00D+00
 Coeff-Com: -0.860D-02-0.179D-02-0.157D-01 0.615D-01 0.199D+00 0.765D+00
 Coeff:     -0.860D-02-0.179D-02-0.157D-01 0.615D-01 0.199D+00 0.765D+00
 Gap=     0.305 Goal=   None    Shift=    0.000
 Gap=     0.028 Goal=   None    Shift=    0.000
 RMSDP=6.52D-09 MaxDP=7.84D-08 DE=-1.59D-12 OVMax= 1.59D-07

 SCF Done:  E(UB-LYP) =  -115.514901640     A.U. after   13 cycles
            NFock= 13  Conv=0.65D-08     -V/T= 2.0052
 <Sx>= 0.0000 <Sy>= 0.0000 <Sz>= 1.0000 <S**2>= 2.0052 S= 1.0017
 <L.S>= 0.000000000000E+00
 KE= 1.149222963492D+02 PE=-3.330017983830D+02 EE= 7.165426774523D+01
 Annihilation of the first spin contaminant:
 S**2 before annihilation     2.0052,   after     2.0000
 Leave Link  502 at Wed Oct  7 14:49:54 2020, MaxMem=  2684354560 cpu:              24.3 elap:               2.5
 (Enter /udrive/faculty/rpeverati/g16/g16/l508.exe)
 QCSCF skips out because SCF is already converged.
 Leave Link  508 at Wed Oct  7 14:49:55 2020, MaxMem=  2684354560 cpu:               0.3 elap:               0.4
 (Enter /udrive/faculty/rpeverati/g16/g16/l601.exe)
 Copying SCF densities to generalized density rwf, IOpCl= 1 IROHF=0.

 **********************************************************************

            Population analysis using the SCF density.

 **********************************************************************

 Orbital symmetries:
 Alpha Orbitals:
       Occupied  (A') (A') (A') (A') (A') (A') (A") (A') (A") (A')
       Virtual   (A') (A') (A") (A') (A') (A") (A') (A') (A') (A')
                 (A") (A') (A") (A') (A') (A') (A") (A') (A') (A")
                 (A') (A") (A') (A") (A') (A')
 Beta  Orbitals:
       Occupied  (A') (A') (A') (A') (A") (A') (A') (A")
       Virtual   (A') (A') (A') (A') (A") (A') (A') (A") (A') (A')
                 (A') (A") (A') (A") (A') (A') (A') (A') (A") (A')
                 (A") (A') (A") (A') (A') (A") (A') (A')
 The electronic state is 3-A'.
 Alpha  occ. eigenvalues --  -18.85090  -9.93608  -0.86405  -0.64190  -0.40926
 Alpha  occ. eigenvalues --   -0.37928  -0.37873  -0.31993  -0.24798  -0.22465
 Alpha virt. eigenvalues --    0.07992   0.13256   0.13365   0.22874   0.46472
 Alpha virt. eigenvalues --    0.46915   0.49009   0.65703   0.79947   0.82655
 Alpha virt. eigenvalues --    0.82702   0.83506   0.84637   0.89589   1.11214
 Alpha virt. eigenvalues --    1.55800   1.55950   1.57011   1.66408   1.70922
 Alpha virt. eigenvalues --    1.70988   1.71175   1.81483   2.13522   2.13644
 Alpha virt. eigenvalues --    2.43574
  Beta  occ. eigenvalues --  -18.81743  -9.92814  -0.77996  -0.62051  -0.37271
  Beta  occ. eigenvalues --   -0.37253  -0.36152  -0.21354
  Beta virt. eigenvalues --   -0.18515  -0.15339   0.08669   0.13792   0.13877
  Beta virt. eigenvalues --    0.25405   0.47370   0.47456   0.52433   0.67302
  Beta virt. eigenvalues --    0.83191   0.83302   0.85195   0.86752   0.89079
  Beta virt. eigenvalues --    0.93346   1.13948   1.59366   1.59384   1.62018
  Beta virt. eigenvalues --    1.74760   1.75675   1.77257   1.78364   1.86180
  Beta virt. eigenvalues --    2.14914   2.15078   2.48579
          Condensed to atoms (all electrons):
               1          2          3          4          5          6
     1  C    5.307911   0.366932   0.364798   0.364798   0.239593  -0.054750
     2  H    0.366932   0.515732  -0.025199  -0.025199  -0.011773   0.000684
     3  H    0.364798  -0.025199   0.519555  -0.026710  -0.011296  -0.000244
     4  H    0.364798  -0.025199  -0.026710   0.519555  -0.011296  -0.000244
     5  H    0.239593  -0.011773  -0.011296  -0.011296   0.371191   0.064168
     6  O   -0.054750   0.000684  -0.000244  -0.000244   0.064168   8.297532
          Atomic-Atomic Spin Densities.
               1          2          3          4          5          6
     1  C    0.660646  -0.013453  -0.012908  -0.012908   0.049325  -0.086100
     2  H   -0.013453  -0.006047   0.002810   0.002810  -0.000592   0.002121
     3  H   -0.012908   0.002810  -0.009397   0.003741  -0.000732   0.002676
     4  H   -0.012908   0.002810   0.003741  -0.009397  -0.000732   0.002676
     5  H    0.049325  -0.000592  -0.000732  -0.000732  -0.042537  -0.053206
     6  O   -0.086100   0.002121   0.002676   0.002676  -0.053206   1.635676
 Mulliken charges and spin densities:
               1          2
     1  C   -0.589282   0.584603
     2  H    0.178822  -0.012350
     3  H    0.179097  -0.013810
     4  H    0.179097  -0.013810
     5  H    0.359412  -0.048474
     6  O   -0.307146   1.503842
 Sum of Mulliken charges =  -0.00000   2.00000
 Mulliken charges and spin densities with hydrogens summed into heavy atoms:
               1          2
     1  C   -0.052267   0.544632
     6  O    0.052267   1.455368
 Electronic spatial extent (au):  <R**2>=            144.2547
 Charge=             -0.0000 electrons
 Dipole moment (field-independent basis, Debye):
    X=              0.0000    Y=             -1.8914    Z=             -0.0000  Tot=              1.8914
 Quadrupole moment (field-independent basis, Debye-Ang):
   XX=            -12.3893   YY=            -14.9757   ZZ=            -13.5002
   XY=              0.0080   XZ=             -0.0000   YZ=              0.0000
 Traceless Quadrupole moment (field-independent basis, Debye-Ang):
   XX=              1.2324   YY=             -1.3540   ZZ=              0.1216
   XY=              0.0080   XZ=             -0.0000   YZ=              0.0000
 Octapole moment (field-independent basis, Debye-Ang**2):
  XXX=             -0.7431  YYY=              3.0704  ZZZ=             -0.0000  XYY=              0.0304
  XXY=              1.6703  XXZ=             -0.0000  XZZ=              0.7224  YZZ=              0.1056
  YYZ=             -0.0000  XYZ=              0.0000
 Hexadecapole moment (field-independent basis, Debye-Ang**3):
 XXXX=            -17.0440 YYYY=           -142.5522 ZZZZ=            -18.3215 XXXY=              1.0985
 XXXZ=             -0.0000 YYYX=             -0.0483 YYYZ=              0.0000 ZZZX=             -0.0000
 ZZZY=             -0.0000 XXYY=            -23.8268 XXZZ=             -5.9119 YYZZ=            -26.0041
 XXYZ=             -0.0000 YYXZ=             -0.0000 ZZXY=             -1.0841
 N-N= 3.091033264907D+01 E-N=-3.330017967922D+02  KE= 1.149222963492D+02
                          Isotropic Fermi Contact Couplings
        Atom                 a.u.       MegaHertz       Gauss      10(-4) cm-1
     1  C(13)              0.14421      81.06152      28.92477      27.03921
     2  H(1)              -0.00299      -6.67955      -2.38343      -2.22806
     3  H(1)              -0.00394      -8.80168      -3.14066      -2.93592
     4  H(1)              -0.00394      -8.80168      -3.14066      -2.93592
     5  H(1)              -0.02062     -46.08607     -16.44466     -15.37266
     6  O(17)              0.20631     -62.53276     -22.31324     -20.85868
 --------------------------------------------------------
       Center         ----  Spin Dipole Couplings  ----
                      3XX-RR        3YY-RR        3ZZ-RR
 --------------------------------------------------------
     1   Atom       -0.333047      0.672793     -0.339747
     2   Atom        0.038815      0.008592     -0.047407
     3   Atom       -0.025797      0.008503      0.017294
     4   Atom       -0.025797      0.008503      0.017294
     5   Atom       -0.156789      0.348709     -0.191920
     6   Atom        2.555242      0.285176     -2.840418
 --------------------------------------------------------
                        XY            XZ            YZ
 --------------------------------------------------------
     1   Atom        0.012540      0.000000     -0.000000
     2   Atom        0.020248     -0.000000     -0.000000
     3   Atom       -0.009796      0.036461     -0.018658
     4   Atom       -0.009796     -0.036461      0.018658
     5   Atom       -0.001874      0.000000     -0.000000
     6   Atom        0.023526     -0.000000     -0.000000
 --------------------------------------------------------


 ---------------------------------------------------------------------------------
              Anisotropic Spin Dipole Couplings in Principal Axis System
 ---------------------------------------------------------------------------------

       Atom             a.u.   MegaHertz   Gauss  10(-4) cm-1        Axes

              Baa    -0.3397   -45.591   -16.268   -15.207 -0.0000  0.0000  1.0000
     1 C(13)  Bbb    -0.3332   -44.713   -15.955   -14.915  0.9999 -0.0125  0.0000
              Bcc     0.6729    90.303    32.223    30.122  0.0125  0.9999 -0.0000
 
              Baa    -0.0474   -25.294    -9.026    -8.437  0.0000  0.0000  1.0000
     2 H(1)   Bbb    -0.0016    -0.833    -0.297    -0.278 -0.4483  0.8939  0.0000
              Bcc     0.0490    26.127     9.323     8.715  0.8939  0.4483  0.0000
 
              Baa    -0.0466   -24.871    -8.874    -8.296  0.8666 -0.0148 -0.4988
     3 H(1)   Bbb    -0.0024    -1.296    -0.462    -0.432  0.2414  0.8872  0.3931
              Bcc     0.0490    26.167     9.337     8.728  0.4367 -0.4611  0.7725
 
              Baa    -0.0466   -24.871    -8.874    -8.296  0.8666 -0.0148  0.4988
     4 H(1)   Bbb    -0.0024    -1.296    -0.462    -0.432  0.2414  0.8872 -0.3931
              Bcc     0.0490    26.167     9.337     8.728 -0.4367  0.4611  0.7725
 
              Baa    -0.1919  -102.399   -36.539   -34.157  0.0000  0.0000  1.0000
     5 H(1)   Bbb    -0.1568   -83.659   -29.852   -27.906  1.0000  0.0037  0.0000
              Bcc     0.3487   186.059    66.390    62.062 -0.0037  1.0000  0.0000
 
              Baa    -2.8404   205.531    73.338    68.558  0.0000  0.0000  1.0000
     6 O(17)  Bbb     0.2849   -20.617    -7.357    -6.877 -0.0104  0.9999 -0.0000
              Bcc     2.5555  -184.913   -65.982   -61.680  0.9999  0.0104  0.0000
 

 ---------------------------------------------------------------------------------

 No NMR shielding tensors so no spin-rotation constants.
 Leave Link  601 at Wed Oct  7 14:49:56 2020, MaxMem=  2684354560 cpu:               5.1 elap:               0.9
 (Enter /udrive/faculty/rpeverati/g16/g16/l701.exe)
 ... and contract with generalized density number  0.
 Compute integral first derivatives.
 Leave Link  701 at Wed Oct  7 14:49:58 2020, MaxMem=  2684354560 cpu:               4.8 elap:               0.8
 (Enter /udrive/faculty/rpeverati/g16/g16/l702.exe)
 L702 exits ... SP integral derivatives will be done elsewhere.
 Leave Link  702 at Wed Oct  7 14:49:59 2020, MaxMem=  2684354560 cpu:               2.2 elap:               0.8
 (Enter /udrive/faculty/rpeverati/g16/g16/l703.exe)
 Integral derivatives from FoFJK, PRISM(SPDF).
 Compute integral first derivatives, UseDBF=F ICtDFT=           0.
 Calling FoFJK, ICntrl=      2527 FMM=F ISym2X=1 I1Cent= 0 IOpClX= 0 NMat=1 NMatS=1 NMatT=0.
 FoFJK:  IHMeth= 1 ICntrl=    2527 DoSepK=F KAlg= 0 I1Cent=           0 FoldK=F
 IRaf=         0 NMat=       1 IRICut=       1 DoRegI=T DoRafI=F ISym2E= 1 IDoP0=0 IntGTp=1.
 FoFCou: FMM=F IPFlag=           0 FMFlag=      100000 FMFlg1=         800
         NFxFlg=           0 DoJE=F BraDBF=F KetDBF=F FulRan=T
         wScrn=  0.000000 ICntrl=      2527 IOpCl=  0 I1Cent=           0 NGrid=           0
         NMat0=    1 NMatS0=      1 NMatT0=    0 NMatD0=    1 NMtDS0=    0 NMtDT0=    0
 Petite list used in FoFCou.
 Leave Link  703 at Wed Oct  7 14:50:00 2020, MaxMem=  2684354560 cpu:               5.8 elap:               0.8
 (Enter /udrive/faculty/rpeverati/g16/g16/l716.exe)
 Dipole        = 1.57387931D-05-7.44136214D-01-2.22327686D-16
 ***** Axes restored to original set *****
 -------------------------------------------------------------------
 Center     Atomic                   Forces (Hartrees/Bohr)
 Number     Number              X              Y              Z
 -------------------------------------------------------------------
      1        6           0.000562995    0.007343704    0.000000000
      2        1          -0.008655897   -0.002878044   -0.000000000
      3        1           0.004151662   -0.003345644    0.007392707
      4        1           0.004151662   -0.003345644   -0.007392707
      5        1          -0.000063057   -0.010177700   -0.000000000
      6        8          -0.000147365    0.012403329    0.000000000
 -------------------------------------------------------------------
 Cartesian Forces:  Max     0.012403329 RMS     0.005583070
 Leave Link  716 at Wed Oct  7 14:50:01 2020, MaxMem=  2684354560 cpu:               2.1 elap:               0.5
 (Enter /udrive/faculty/rpeverati/g16/g16/l103.exe)

 GradGradGradGradGradGradGradGradGradGradGradGradGradGradGradGradGradGrad
 Berny optimization.
 Optmz: redundant internal coordinate code flag= 1
 FormGI is forming the generalized inverse of G from B-inverse, IUseBI=4.
 Internal  Forces:  Max     0.012404165 RMS     0.004901458
 Search for a saddle point.
 Step number   1 out of a maximum of   50
 All quantities printed in internal units (Hartrees-Bohrs-Radians)
 Swapping is turned off.
 Second derivative matrix not updated -- first step.
 The second derivative matrix:
                          R1        R2        R3        R4        R5
           R1           0.35549
           R2           0.00000   0.35622
           R3           0.00000   0.00000   0.35622
           R4           0.00000   0.00000   0.00000   0.18479
           R5           0.00000   0.00000   0.00000   0.00000   0.24549
           A1           0.00000   0.00000   0.00000   0.00000   0.00000
           A2           0.00000   0.00000   0.00000   0.00000   0.00000
           A3           0.00000   0.00000   0.00000   0.00000   0.00000
           A4           0.00000   0.00000   0.00000   0.00000   0.00000
           A5           0.00000   0.00000   0.00000   0.00000   0.00000
           A6           0.00000   0.00000   0.00000   0.00000   0.00000
           A7           0.00000   0.00000   0.00000   0.00000   0.00000
           A8           0.00000   0.00000   0.00000   0.00000   0.00000
           D1           0.00000   0.00000   0.00000   0.00000   0.00000
           D2           0.00000   0.00000   0.00000   0.00000   0.00000
           D3           0.00000   0.00000   0.00000   0.00000   0.00000
           D4           0.00000   0.00000   0.00000   0.00000   0.00000
                          A1        A2        A3        A4        A5
           A1           0.16000
           A2           0.00000   0.16000
           A3           0.00000   0.00000   0.16000
           A4           0.00000   0.00000   0.00000   0.16000
           A5           0.00000   0.00000   0.00000   0.00000   0.16000
           A6           0.00000   0.00000   0.00000   0.00000   0.00000
           A7           0.00000   0.00000   0.00000   0.00000   0.00000
           A8           0.00000   0.00000   0.00000   0.00000   0.00000
           D1           0.00000   0.00000   0.00000   0.00000   0.00000
           D2           0.00000   0.00000   0.00000   0.00000   0.00000
           D3           0.00000   0.00000   0.00000   0.00000   0.00000
           D4           0.00000   0.00000   0.00000   0.00000   0.00000
                          A6        A7        A8        D1        D2
           A6           0.16000
           A7           0.00000   0.00230
           A8           0.00000   0.00000   0.00230
           D1           0.00000   0.00000   0.00000   0.00326
           D2           0.00000   0.00000   0.00000   0.00000   0.00230
           D3           0.00000   0.00000   0.00000   0.00000   0.00000
           D4           0.00000   0.00000   0.00000   0.00000   0.00000
                          D3        D4
           D3           0.00230
           D4           0.00000   0.00230
 ITU=  0
 Eigenvectors of the second derivative matrix:
                           1         2         3         4         5
     Eigenvalues --     0.00230   0.00230   0.05311   0.06734   0.07512
   1         R1         0.00000  -0.00000   0.00000   0.00000  -0.00000
   2         R2        -0.00000  -0.00000   0.00000   0.00000   0.00000
   3         R3        -0.00000   0.00000   0.00000   0.00000   0.00000
   4         R4         0.00000  -0.00000   0.00000   0.00000  -0.00000
   5         R5         0.00000  -0.00000  -0.00000  -0.00000   0.00000
   6         A1         0.00000   0.00000   0.43611  -0.01564   0.24622
   7         A2        -0.00000   0.00000   0.02262   0.42622  -0.34222
   8         A3         0.00000  -0.00000  -0.16116   0.16834   0.28880
   9         A4         0.00000   0.00000   0.00145  -0.42140  -0.34524
  10         A5        -0.00000  -0.00000  -0.17119  -0.15682   0.28371
  11         A6         0.00000   0.00000  -0.27043   0.00684   0.00886
  12         A7        -0.99437   0.10601  -0.00000  -0.00000   0.00000
  13         A8        -0.10601  -0.99437   0.00000   0.00000  -0.00000
  14         D1         0.00000  -0.00000  -0.70815   0.01761   0.37823
  15         D2         0.00000  -0.00000   0.34529  -0.01168   0.51383
  16         D3         0.00000  -0.00000   0.15562  -0.54761   0.25472
  17         D4         0.00000  -0.00000  -0.18967  -0.53593  -0.25911
                           6         7         8         9        10
     Eigenvalues --     0.16000   0.16000   0.18479   0.24549   0.35549
   1         R1         0.00000   0.00000  -0.00000   0.00000  -1.00000
   2         R2        -0.00000   0.00000  -0.00000  -0.00000   0.00000
   3         R3         0.00000  -0.00000   0.00000  -0.00000   0.00000
   4         R4         0.00000   0.00000   1.00000   0.00000  -0.00000
   5         R5        -0.00000   0.00000  -0.00000   1.00000  -0.00000
   6         A1         0.15112  -0.20307  -0.00000   0.00000   0.00000
   7         A2        -0.30569  -0.01279   0.00000  -0.00000  -0.00000
   8         A3         0.32262   0.66519  -0.00000  -0.00000   0.00000
   9         A4         0.09356   0.29917  -0.00000  -0.00000   0.00000
  10         A5        -0.72969  -0.13227   0.00000  -0.00000  -0.00000
  11         A6         0.48830  -0.63963  -0.00000   0.00000   0.00000
  12         A7         0.00000   0.00000   0.00000   0.00000   0.00000
  13         A8         0.00000  -0.00000  -0.00000  -0.00000   0.00000
  14         D1         0.00000  -0.00000   0.00000  -0.00000  -0.00000
  15         D2         0.00000  -0.00000   0.00000  -0.00000  -0.00000
  16         D3         0.00000  -0.00000   0.00000   0.00000   0.00000
  17         D4        -0.00000  -0.00000  -0.00000   0.00000   0.00000
                          11        12
     Eigenvalues --     0.35622   0.35622
   1         R1         0.00000   0.00000
   2         R2         0.71014   0.70406
   3         R3         0.70406  -0.71014
   4         R4        -0.00000   0.00000
   5         R5         0.00000   0.00000
   6         A1        -0.00000   0.00000
   7         A2        -0.00000  -0.00000
   8         A3         0.00000   0.00000
   9         A4         0.00000  -0.00000
  10         A5        -0.00000  -0.00000
  11         A6         0.00000   0.00000
  12         A7        -0.00000  -0.00000
  13         A8         0.00000  -0.00000
  14         D1         0.00000  -0.00000
  15         D2        -0.00000   0.00000
  16         D3         0.00000   0.00000
  17         D4         0.00000  -0.00000
 Eigenvalue     1 is   2.30D-03 should be less than     0.000000 Eigenvector:
                          A7        A8        A3        A5        A6
   1                   -0.99437  -0.10601   0.00000  -0.00000   0.00000
                          D1        A2        R4        R1        R2
   1                    0.00000  -0.00000   0.00000   0.00000  -0.00000
 RLam0= 2.30D-03.
 Iter=   1 RLamda= 0.00000000D+00 Sum=-1.40089427D-03.
 Iter=   2 RLamda=-1.40089427D-03 Sum=-1.39315190D-03.
 Iter=   3 RLamda=-1.39315190D-03 Sum=-1.39319433D-03.
 Iter=   4 RLamda=-1.39319433D-03 Sum=-1.39319410D-03.
 RFO step:  Lambda0=2.302121254D-03 Lambda=-1.39319433D-03.
 Linear search not attempted -- option 19 set.
 Maximum step size (   0.100) exceeded in Quadratic search.
    -- Step size scaled by   0.980
 Iteration  1 RMS(Cart)=  0.02990701 RMS(Int)=  0.00078995
 Iteration  2 RMS(Cart)=  0.00088494 RMS(Int)=  0.00004745
 Iteration  3 RMS(Cart)=  0.00000092 RMS(Int)=  0.00004744
 ITry= 1 IFail=0 DXMaxC= 6.10D-02 DCOld= 1.00D+10 DXMaxT= 1.00D-01 DXLimC= 3.00D+00 Rises=F
 ClnCor:  largest displacement from symmetrization is 5.04D-03 for atom     4.
 Variable       Old X    -DE/DX   Delta X   Delta X   Delta X     New X
                                 (Linear)    (Quad)   (Total)
    R1        2.04793   0.00908   0.00000   0.02494   0.02494   2.07286
    R2        2.04677   0.00904   0.00000   0.02478   0.02528   2.07205
    R3        2.04677   0.00904   0.00000   0.02478   0.02528   2.07205
    R4        2.46125   0.00222   0.00000   0.01171   0.01170   2.47295
    R5        2.27069   0.01240   0.00000   0.04924   0.04923   2.31992
    A1        1.99661  -0.00016   0.00000  -0.00607  -0.00668   1.98993
    A2        1.99661  -0.00047   0.00000  -0.00636  -0.00668   1.98993
    A3        1.80508   0.00010   0.00000   0.00541   0.00543   1.81051
    A4        2.00359  -0.00057   0.00000  -0.00588  -0.00709   1.99650
    A5        1.81378   0.00068   0.00000   0.00930   0.01050   1.82428
    A6        1.81378   0.00080   0.00000   0.00931   0.01050   1.82428
    A7        3.12356  -0.00007   0.00000   0.07194   0.07196   3.19552
    A8        3.14159   0.00000   0.00000   0.00966   0.00000   3.14159
    D1       -2.35914   0.00141   0.00000   0.02306   0.02518  -2.33396
    D2        2.09056   0.00014   0.00000  -0.00058  -0.00067   2.08989
    D3       -2.09056   0.00015   0.00000   0.00091   0.00067  -2.08989
    D4        2.10206   0.00001   0.00000   0.00149   0.00135   2.10341
         Item               Value     Threshold  Converged?
 Maximum Force            0.012404     0.000450     NO 
 RMS     Force            0.004901     0.000300     NO 
 Maximum Displacement     0.060960     0.001800     NO 
 RMS     Displacement     0.030032     0.001200     NO 
 Predicted change in Energy=-6.885353D-04
 Lowest energy point so far.  Saving SCF results.
 Largest change from initial coordinates is atom    6       0.043 Angstoms.
 GradGradGradGradGradGradGradGradGradGradGradGradGradGradGradGradGradGrad

 Leave Link  103 at Wed Oct  7 14:50:02 2020, MaxMem=  2684354560 cpu:               6.4 elap:               0.9
 (Enter /udrive/faculty/rpeverati/g16/g16/l202.exe)
                          Input orientation:                          
 ---------------------------------------------------------------------
 Center     Atomic      Atomic             Coordinates (Angstroms)
 Number     Number       Type             X           Y           Z
 ---------------------------------------------------------------------
      1          6           0       -0.002912   -1.142651   -0.000000
      2          1           0       -1.064963   -1.416994   -0.000000
      3          1           0        0.527213   -1.410713    0.921621
      4          1           0        0.527213   -1.410713   -0.921621
      5          1           0       -0.020025    0.165866    0.000000
      6          8           0        0.030114    1.392489    0.000000
 ---------------------------------------------------------------------
                    Distance matrix (angstroms):
                    1          2          3          4          5
     1  C    0.000000
     2  H    1.096912   0.000000
     3  H    1.096483   1.839687   0.000000
     4  H    1.096483   1.839687   1.843241   0.000000
     5  H    1.308628   1.896665   1.906425   1.906425   0.000000
     6  O    2.535354   3.015358   2.992396   2.992396   1.227647
                    6
     6  O    0.000000
 Stoichiometry    CH4O(3)
 Framework group  CS[SG(CH2O),X(H2)]
 Deg. of freedom     8
 Full point group                 CS      NOp   2
 RotChk:  IX=0 Diff= 1.84D-02
 Largest Abelian subgroup         CS      NOp   2
 Largest concise Abelian subgroup CS      NOp   2
                         Standard orientation:                         
 ---------------------------------------------------------------------
 Center     Atomic      Atomic             Coordinates (Angstroms)
 Number     Number       Type             X           Y           Z
 ---------------------------------------------------------------------
      1          6           0        0.001411   -1.154478   -0.000000
      2          1           0       -1.056976   -1.442632   -0.000000
      3          1           0        0.534983   -1.415612    0.921621
      4          1           0        0.534983   -1.415612   -0.921621
      5          1           0       -0.032745    0.153705    0.000000
      6          8           0        0.001411    1.380877    0.000000
 ---------------------------------------------------------------------
 Rotational constants (GHZ):         147.9439836           9.3870705           9.3856571
 Leave Link  202 at Wed Oct  7 14:50:03 2020, MaxMem=  2684354560 cpu:               2.1 elap:               0.5
 (Enter /udrive/faculty/rpeverati/g16/g16/l301.exe)
 Standard basis: 6-31G(d) (5D, 7F)
 Ernie: Thresh=  0.10000D-02 Tol=  0.10000D-05 Strict=F.
 There are    28 symmetry adapted cartesian basis functions of A'  symmetry.
 There are    10 symmetry adapted cartesian basis functions of A"  symmetry.
 There are    26 symmetry adapted basis functions of A'  symmetry.
 There are    10 symmetry adapted basis functions of A"  symmetry.
    36 basis functions,    72 primitive gaussians,    38 cartesian basis functions
    10 alpha electrons        8 beta electrons
       nuclear repulsion energy        30.5090191076 Hartrees.
 IExCor=  402 DFT=T Ex=B Corr=LYP ExCW=0 ScaHFX=  0.000000
 ScaDFX=  1.000000  1.000000  1.000000  1.000000 ScalE2=  1.000000  1.000000
 IRadAn=      5 IRanWt=     -1 IRanGd=            0 ICorTp=0 IEmpDi=  4
 NAtoms=    6 NActive=    6 NUniq=    5 SFac= 1.44D+00 NAtFMM=   60 NAOKFM=F Big=F
 Integral buffers will be    131072 words long.
 Raffenetti 2 integral format.
 Two-electron integral symmetry is turned on.
 Leave Link  301 at Wed Oct  7 14:50:03 2020, MaxMem=  2684354560 cpu:               2.1 elap:               0.5
 (Enter /udrive/faculty/rpeverati/g16/g16/l302.exe)
 NPDir=0 NMtPBC=     1 NCelOv=     1 NCel=       1 NClECP=     1 NCelD=      1
         NCelK=      1 NCelE2=     1 NClLst=     1 CellRange=     0.0.
 One-electron integrals computed using PRISM.
 One-electron integral symmetry used in STVInt
 NBasis=    36 RedAO= T EigKep=  1.21D-02  NBF=    26    10
 NBsUse=    36 1.00D-06 EigRej= -1.00D+00 NBFU=    26    10
 Precomputing XC quadrature grid using
 IXCGrd= 4 IRadAn=           5 IRanWt=          -1 IRanGd=           0 AccXCQ= 0.00D+00.
 Generated NRdTot=       0 NPtTot=           0 NUsed=           0 NTot=          32
 NSgBfM=    38    38    38    38    38 MxSgAt=     6 MxSgA2=     6.
 Leave Link  302 at Wed Oct  7 14:50:04 2020, MaxMem=  2684354560 cpu:               3.5 elap:               0.7
 (Enter /udrive/faculty/rpeverati/g16/g16/l303.exe)
 DipDrv:  MaxL=1.
 Leave Link  303 at Wed Oct  7 14:50:05 2020, MaxMem=  2684354560 cpu:               1.5 elap:               0.6
 (Enter /udrive/faculty/rpeverati/g16/g16/l401.exe)
 Initial guess from the checkpoint file:  "MN_87_RKT11_BH76_BLYP_631Gs.chk"
 SCF N**3 symmetry information disabled.
 B after Tr=     0.000000    0.000000    0.000000
         Rot=    0.999999   -0.000000   -0.000000   -0.001557 Ang=  -0.18 deg.
 Guess basis will be translated and rotated to current coordinates.
 JPrj=2 DoOrth=T DoCkMO=T.
 Initial guess orbital symmetries:
 Alpha Orbitals:
       Occupied  (A') (A') (A') (A') (A') (A') (A") (A') (A") (A')
       Virtual   (A') (A') (A") (A') (A') (A") (A') (A') (A') (A')
                 (A") (A') (A") (A') (A') (A') (A") (A') (A') (A")
                 (A') (A") (A') (A") (A') (A')
 Beta  Orbitals:
       Occupied  (A') (A') (A') (A') (A") (A') (A') (A")
       Virtual   (A') (A') (A') (A') (A") (A') (A') (A") (A') (A')
                 (A') (A") (A') (A") (A') (A') (A') (A') (A") (A')
                 (A") (A') (A") (A') (A') (A") (A') (A')
 The electronic state of the initial guess is 3-A'.
 Initial guess <Sx>= 0.0000 <Sy>= 0.0000 <Sz>= 1.0000 <S**2>= 2.0053 S= 1.0018
 Generating alternative initial guess.
 ExpMin= 1.61D-01 ExpMax= 5.48D+03 ExpMxC= 8.25D+02 IAcc=2 IRadAn=         4 AccDes= 0.00D+00
 Harris functional with IExCor=  402 and IRadAn=       4 diagonalized for initial guess.
 HarFok:  IExCor=  402 AccDes= 0.00D+00 IRadAn=         4 IDoV= 1 UseB2=F ITyADJ=14
 ICtDFT=  3500011 ScaDFX=  1.000000  1.000000  1.000000  1.000000
 FoFCou: FMM=F IPFlag=           0 FMFlag=      100000 FMFlg1=           0
         NFxFlg=           0 DoJE=T BraDBF=F KetDBF=T FulRan=T
         wScrn=  0.000000 ICntrl=       500 IOpCl=  0 I1Cent=   200000004 NGrid=           0
         NMat0=    1 NMatS0=      1 NMatT0=    0 NMatD0=    1 NMtDS0=    0 NMtDT0=    0
 Petite list used in FoFCou.
 Harris En= -115.513569380920    
 Leave Link  401 at Wed Oct  7 14:50:07 2020, MaxMem=  2684354560 cpu:               7.0 elap:               1.0
 (Enter /udrive/faculty/rpeverati/g16/g16/l502.exe)
 Keep J ints in memory in symmetry-blocked form, NReq=10578875.
 FoFCou: FMM=F IPFlag=           0 FMFlag=           0 FMFlg1=           0
         NFxFlg=           0 DoJE=F BraDBF=F KetDBF=F FulRan=T
         wScrn=  0.000000 ICntrl=       600 IOpCl=  0 I1Cent=           0 NGrid=           0
         NMat0=    1 NMatS0=    666 NMatT0=    0 NMatD0=    1 NMtDS0=    0 NMtDT0=    0
 Petite list used in FoFCou.
 UHF open shell SCF:
 Using DIIS extrapolation, IDIIS=  1040.
 NGot=  2684354560 LenX=  2684232161 LenY=  2684230276
 Requested convergence on RMS density matrix=1.00D-08 within 120 cycles.
 Requested convergence on MAX density matrix=1.00D-06.
 Requested convergence on             energy=1.00D-06.
 No special actions if energy rises.
 Integral accuracy reduced to 1.0D-05 until final iterations.

 Cycle   1  Pass 0  IDiag  1:
 E= -115.515146279117    
 DIIS: error= 2.14D-03 at cycle   1 NSaved=   1.
 NSaved= 1 IEnMin= 1 EnMin= -115.515146279117     IErMin= 1 ErrMin= 2.14D-03
 ErrMax= 2.14D-03  0.00D+00 EMaxC= 1.00D-01 BMatC= 1.24D-03 BMatP= 1.24D-03
 IDIUse=3 WtCom= 9.79D-01 WtEn= 2.14D-02
 Coeff-Com:  0.100D+01
 Coeff-En:   0.100D+01
 Coeff:      0.100D+01
 Gap=     0.303 Goal=   None    Shift=    0.000
 Gap=     0.031 Goal=   None    Shift=    0.000
 GapD=    0.031 DampG=0.250 DampE=1.000 DampFc=0.2500 IDamp=-1.
 Damping current iteration by 2.50D-01
 RMSDP=1.09D-03 MaxDP=1.28D-02              OVMax= 2.42D-02

 Cycle   2  Pass 0  IDiag  1:
 E= -115.515285524927     Delta-E=       -0.000139245810 Rises=F Damp=T
 DIIS: error= 1.61D-03 at cycle   2 NSaved=   2.
 NSaved= 2 IEnMin= 2 EnMin= -115.515285524927     IErMin= 2 ErrMin= 1.61D-03
 ErrMax= 1.61D-03  0.00D+00 EMaxC= 1.00D-01 BMatC= 6.65D-04 BMatP= 1.24D-03
 IDIUse=3 WtCom= 9.84D-01 WtEn= 1.61D-02
 Coeff-Com: -0.221D+01 0.321D+01
 Coeff-En:   0.000D+00 0.100D+01
 Coeff:     -0.218D+01 0.318D+01
 Gap=     0.306 Goal=   None    Shift=    0.000
 Gap=     0.028 Goal=   None    Shift=    0.000
 RMSDP=8.04D-04 MaxDP=9.65D-03 DE=-1.39D-04 OVMax= 3.87D-03

 Cycle   3  Pass 0  IDiag  1:
 E= -115.515667608879     Delta-E=       -0.000382083952 Rises=F Damp=F
 DIIS: error= 1.09D-03 at cycle   3 NSaved=   3.
 NSaved= 3 IEnMin= 3 EnMin= -115.515667608879     IErMin= 3 ErrMin= 1.09D-03
 ErrMax= 1.09D-03  0.00D+00 EMaxC= 1.00D-01 BMatC= 1.25D-04 BMatP= 6.65D-04
 IDIUse=3 WtCom= 9.89D-01 WtEn= 1.09D-02
 Coeff-Com: -0.130D+01 0.174D+01 0.565D+00
 Coeff-En:   0.000D+00 0.000D+00 0.100D+01
 Coeff:     -0.129D+01 0.172D+01 0.570D+00
 Gap=     0.305 Goal=   None    Shift=    0.000
 Gap=     0.028 Goal=   None    Shift=    0.000
 RMSDP=1.33D-04 MaxDP=1.55D-03 DE=-3.82D-04 OVMax= 1.59D-03

 Cycle   4  Pass 0  IDiag  1:
 E= -115.515697962227     Delta-E=       -0.000030353347 Rises=F Damp=F
 DIIS: error= 4.60D-05 at cycle   4 NSaved=   4.
 NSaved= 4 IEnMin= 4 EnMin= -115.515697962227     IErMin= 4 ErrMin= 4.60D-05
 ErrMax= 4.60D-05  0.00D+00 EMaxC= 1.00D-01 BMatC= 4.23D-07 BMatP= 1.25D-04
 IDIUse=1 WtCom= 1.00D+00 WtEn= 0.00D+00
 Coeff-Com: -0.204D-01 0.213D-01 0.428D-01 0.956D+00
 Coeff:     -0.204D-01 0.213D-01 0.428D-01 0.956D+00
 Gap=     0.305 Goal=   None    Shift=    0.000
 Gap=     0.028 Goal=   None    Shift=    0.000
 RMSDP=1.11D-05 MaxDP=1.10D-04 DE=-3.04D-05 OVMax= 3.03D-04

 Cycle   5  Pass 0  IDiag  1:
 E= -115.515698086786     Delta-E=       -0.000000124560 Rises=F Damp=F
 DIIS: error= 2.66D-05 at cycle   5 NSaved=   5.
 NSaved= 5 IEnMin= 5 EnMin= -115.515698086786     IErMin= 5 ErrMin= 2.66D-05
 ErrMax= 2.66D-05  0.00D+00 EMaxC= 1.00D-01 BMatC= 5.38D-08 BMatP= 4.23D-07
 IDIUse=1 WtCom= 1.00D+00 WtEn= 0.00D+00
 Coeff-Com:  0.653D-01-0.881D-01-0.172D-01 0.267D+00 0.773D+00
 Coeff:      0.653D-01-0.881D-01-0.172D-01 0.267D+00 0.773D+00
 Gap=     0.305 Goal=   None    Shift=    0.000
 Gap=     0.028 Goal=   None    Shift=    0.000
 RMSDP=5.02D-06 MaxDP=5.45D-05 DE=-1.25D-07 OVMax= 7.81D-05

 Initial convergence to 1.0D-05 achieved.  Increase integral accuracy.
 Cycle   6  Pass 1  IDiag  1:
 E= -115.515697545212     Delta-E=        0.000000541574 Rises=F Damp=F
 DIIS: error= 1.45D-05 at cycle   1 NSaved=   1.
 NSaved= 1 IEnMin= 1 EnMin= -115.515697545212     IErMin= 1 ErrMin= 1.45D-05
 ErrMax= 1.45D-05  0.00D+00 EMaxC= 1.00D-01 BMatC= 1.81D-08 BMatP= 1.81D-08
 IDIUse=1 WtCom= 1.00D+00 WtEn= 0.00D+00
 Coeff-Com:  0.100D+01
 Coeff:      0.100D+01
 Gap=     0.305 Goal=   None    Shift=    0.000
 Gap=     0.028 Goal=   None    Shift=    0.000
 RMSDP=5.02D-06 MaxDP=5.45D-05 DE= 5.42D-07 OVMax= 1.72D-04

 Cycle   7  Pass 1  IDiag  1:
 E= -115.515697526245     Delta-E=        0.000000018967 Rises=F Damp=F
 DIIS: error= 3.63D-05 at cycle   2 NSaved=   2.
 NSaved= 2 IEnMin= 1 EnMin= -115.515697545212     IErMin= 1 ErrMin= 1.45D-05
 ErrMax= 3.63D-05  0.00D+00 EMaxC= 1.00D-01 BMatC= 9.08D-08 BMatP= 1.81D-08
 IDIUse=1 WtCom= 1.00D+00 WtEn= 0.00D+00
 Coeff-Com:  0.694D+00 0.306D+00
 Coeff:      0.694D+00 0.306D+00
 Gap=     0.305 Goal=   None    Shift=    0.000
 Gap=     0.028 Goal=   None    Shift=    0.000
 RMSDP=3.46D-06 MaxDP=5.19D-05 DE= 1.90D-08 OVMax= 1.27D-04

 Cycle   8  Pass 1  IDiag  1:
 E= -115.515697550019     Delta-E=       -0.000000023774 Rises=F Damp=F
 DIIS: error= 1.54D-06 at cycle   3 NSaved=   3.
 NSaved= 3 IEnMin= 3 EnMin= -115.515697550019     IErMin= 3 ErrMin= 1.54D-06
 ErrMax= 1.54D-06  0.00D+00 EMaxC= 1.00D-01 BMatC= 2.42D-10 BMatP= 1.81D-08
 IDIUse=1 WtCom= 1.00D+00 WtEn= 0.00D+00
 Coeff-Com:  0.203D+00 0.107D+00 0.690D+00
 Coeff:      0.203D+00 0.107D+00 0.690D+00
 Gap=     0.305 Goal=   None    Shift=    0.000
 Gap=     0.028 Goal=   None    Shift=    0.000
 RMSDP=2.58D-07 MaxDP=3.40D-06 DE=-2.38D-08 OVMax= 7.19D-06

 Cycle   9  Pass 1  IDiag  1:
 E= -115.515697550085     Delta-E=       -0.000000000067 Rises=F Damp=F
 DIIS: error= 6.84D-07 at cycle   4 NSaved=   4.
 NSaved= 4 IEnMin= 4 EnMin= -115.515697550085     IErMin= 4 ErrMin= 6.84D-07
 ErrMax= 6.84D-07  0.00D+00 EMaxC= 1.00D-01 BMatC= 3.59D-11 BMatP= 2.42D-10
 IDIUse=1 WtCom= 1.00D+00 WtEn= 0.00D+00
 Coeff-Com: -0.412D-01-0.126D-01 0.243D+00 0.811D+00
 Coeff:     -0.412D-01-0.126D-01 0.243D+00 0.811D+00
 Gap=     0.305 Goal=   None    Shift=    0.000
 Gap=     0.028 Goal=   None    Shift=    0.000
 RMSDP=9.85D-08 MaxDP=1.48D-06 DE=-6.65D-11 OVMax= 1.77D-06

 Cycle  10  Pass 1  IDiag  1:
 E= -115.515697550095     Delta-E=       -0.000000000009 Rises=F Damp=F
 DIIS: error= 3.44D-07 at cycle   5 NSaved=   5.
 NSaved= 5 IEnMin= 5 EnMin= -115.515697550095     IErMin= 5 ErrMin= 3.44D-07
 ErrMax= 3.44D-07  0.00D+00 EMaxC= 1.00D-01 BMatC= 7.41D-12 BMatP= 3.59D-11
 IDIUse=1 WtCom= 1.00D+00 WtEn= 0.00D+00
 Coeff-Com: -0.521D-01-0.253D-01 0.221D-01 0.360D+00 0.695D+00
 Coeff:     -0.521D-01-0.253D-01 0.221D-01 0.360D+00 0.695D+00
 Gap=     0.305 Goal=   None    Shift=    0.000
 Gap=     0.028 Goal=   None    Shift=    0.000
 RMSDP=4.07D-08 MaxDP=5.78D-07 DE=-9.32D-12 OVMax= 7.63D-07

 Cycle  11  Pass 1  IDiag  1:
 E= -115.515697550097     Delta-E=       -0.000000000003 Rises=F Damp=F
 DIIS: error= 5.68D-08 at cycle   6 NSaved=   6.
 NSaved= 6 IEnMin= 6 EnMin= -115.515697550097     IErMin= 6 ErrMin= 5.68D-08
 ErrMax= 5.68D-08  0.00D+00 EMaxC= 1.00D-01 BMatC= 2.17D-13 BMatP= 7.41D-12
 IDIUse=1 WtCom= 1.00D+00 WtEn= 0.00D+00
 Coeff-Com: -0.470D-02-0.369D-02-0.111D-01-0.833D-02 0.127D+00 0.901D+00
 Coeff:     -0.470D-02-0.369D-02-0.111D-01-0.833D-02 0.127D+00 0.901D+00
 Gap=     0.305 Goal=   None    Shift=    0.000
 Gap=     0.028 Goal=   None    Shift=    0.000
 RMSDP=1.15D-08 MaxDP=1.34D-07 DE=-2.53D-12 OVMax= 2.52D-07

 Cycle  12  Pass 1  IDiag  1:
 E= -115.515697550097     Delta-E=       -0.000000000000 Rises=F Damp=F
 DIIS: error= 1.83D-08 at cycle   7 NSaved=   7.
 NSaved= 7 IEnMin= 7 EnMin= -115.515697550097     IErMin= 7 ErrMin= 1.83D-08
 ErrMax= 1.83D-08  0.00D+00 EMaxC= 1.00D-01 BMatC= 1.54D-14 BMatP= 2.17D-13
 IDIUse=1 WtCom= 1.00D+00 WtEn= 0.00D+00
 Coeff-Com:  0.116D-02 0.696D-03-0.316D-02-0.105D-01-0.894D-02 0.111D+00
 Coeff-Com:  0.910D+00
 Coeff:      0.116D-02 0.696D-03-0.316D-02-0.105D-01-0.894D-02 0.111D+00
 Coeff:      0.910D+00
 Gap=     0.305 Goal=   None    Shift=    0.000
 Gap=     0.028 Goal=   None    Shift=    0.000
 RMSDP=2.21D-09 MaxDP=2.54D-08 DE=-2.84D-14 OVMax= 6.45D-08

 SCF Done:  E(UB-LYP) =  -115.515697550     A.U. after   12 cycles
            NFock= 12  Conv=0.22D-08     -V/T= 2.0058
 <Sx>= 0.0000 <Sy>= 0.0000 <Sz>= 1.0000 <S**2>= 2.0053 S= 1.0018
 <L.S>= 0.000000000000E+00
 KE= 1.148441019302D+02 PE=-3.321506968655D+02 EE= 7.128187827757D+01
 Annihilation of the first spin contaminant:
 S**2 before annihilation     2.0053,   after     2.0000
 Leave Link  502 at Wed Oct  7 14:50:10 2020, MaxMem=  2684354560 cpu:              28.2 elap:               2.9
 (Enter /udrive/faculty/rpeverati/g16/g16/l508.exe)
 QCSCF skips out because SCF is already converged.
 Leave Link  508 at Wed Oct  7 14:50:11 2020, MaxMem=  2684354560 cpu:               0.3 elap:               0.3
 (Enter /udrive/faculty/rpeverati/g16/g16/l701.exe)
 ... and contract with generalized density number  0.
 Compute integral first derivatives.
 Leave Link  701 at Wed Oct  7 14:50:12 2020, MaxMem=  2684354560 cpu:               4.3 elap:               0.8
 (Enter /udrive/faculty/rpeverati/g16/g16/l702.exe)
 L702 exits ... SP integral derivatives will be done elsewhere.
 Leave Link  702 at Wed Oct  7 14:50:13 2020, MaxMem=  2684354560 cpu:               1.8 elap:               0.8
 (Enter /udrive/faculty/rpeverati/g16/g16/l703.exe)
 Integral derivatives from FoFJK, PRISM(SPDF).
 Compute integral first derivatives, UseDBF=F ICtDFT=           0.
 Calling FoFJK, ICntrl=      2527 FMM=F ISym2X=1 I1Cent= 0 IOpClX= 0 NMat=1 NMatS=1 NMatT=0.
 FoFJK:  IHMeth= 1 ICntrl=    2527 DoSepK=F KAlg= 0 I1Cent=           0 FoldK=F
 IRaf=         0 NMat=       1 IRICut=       1 DoRegI=T DoRafI=F ISym2E= 1 IDoP0=0 IntGTp=1.
 FoFCou: FMM=F IPFlag=           0 FMFlag=      100000 FMFlg1=         800
         NFxFlg=           0 DoJE=F BraDBF=F KetDBF=F FulRan=T
         wScrn=  0.000000 ICntrl=      2527 IOpCl=  0 I1Cent=           0 NGrid=           0
         NMat0=    1 NMatS0=      1 NMatT0=    0 NMatD0=    1 NMtDS0=    0 NMtDT0=    0
 Petite list used in FoFCou.
 Leave Link  703 at Wed Oct  7 14:50:14 2020, MaxMem=  2684354560 cpu:               5.5 elap:               0.9
 (Enter /udrive/faculty/rpeverati/g16/g16/l716.exe)
 Dipole        =-1.07247922D-02-7.45029323D-01-3.50362411D-16
 ***** Axes restored to original set *****
 -------------------------------------------------------------------
 Center     Atomic                   Forces (Hartrees/Bohr)
 Number     Number              X              Y              Z
 -------------------------------------------------------------------
      1        6          -0.000646241    0.006074924   -0.000000000
      2        1          -0.000269347   -0.000794718    0.000000000
      3        1          -0.000025166   -0.000548137   -0.000043774
      4        1          -0.000025166   -0.000548137    0.000043774
      5        1           0.001479774   -0.011907300   -0.000000000
      6        8          -0.000513855    0.007723368    0.000000000
 -------------------------------------------------------------------
 Cartesian Forces:  Max     0.011907300 RMS     0.003670607
 Leave Link  716 at Wed Oct  7 14:50:15 2020, MaxMem=  2684354560 cpu:               1.5 elap:               0.6
 (Enter /udrive/faculty/rpeverati/g16/g16/l103.exe)

 GradGradGradGradGradGradGradGradGradGradGradGradGradGradGradGradGradGrad
 Berny optimization.
 Optmz: redundant internal coordinate code flag= 1
 Red2BG:  D1=  2.62D-01 OD1=  1.91D-01 B2RMS=  0.00D+00 IAprox=0
 FormGI is forming the generalized inverse of G from B-inverse, IUseBI=4.
 Internal  Forces:  Max     0.007695942 RMS     0.002195155
 Search for a saddle point.
 Step number   2 out of a maximum of   50
 All quantities printed in internal units (Hartrees-Bohrs-Radians)
 Swapping is turned off.
 Update second derivatives using D2CorX and points    1    2
 The second derivative matrix:
                          R1        R2        R3        R4        R5
           R1           0.35562
           R2           0.00057   0.35724
           R3           0.00057   0.00102   0.35724
           R4           0.00992   0.01003   0.01003   0.18892
           R5          -0.01530  -0.01427  -0.01427   0.02039   0.17181
           A1           0.00216   0.00202   0.00202  -0.00277   0.01024
           A2           0.00187   0.00173   0.00173  -0.00276   0.00943
           A3          -0.00265  -0.00253  -0.00253   0.00230  -0.01082
           A4           0.00165   0.00151   0.00151  -0.00291   0.00906
           A5          -0.00236  -0.00215  -0.00215   0.00430  -0.01320
           A6          -0.00225  -0.00204  -0.00204   0.00430  -0.01289
           A7           0.00576   0.00699   0.00699   0.02834  -0.02906
           A8           0.00000   0.00000   0.00000  -0.00000   0.00000
           D1           0.00188   0.00231   0.00231   0.00992  -0.01054
           D2           0.00001  -0.00000  -0.00000  -0.00027   0.00046
           D3           0.00027   0.00027   0.00027   0.00025   0.00032
           D4           0.00025   0.00028   0.00028   0.00052  -0.00014
                          A1        A2        A3        A4        A5
           A1           0.15858
           A2          -0.00131   0.15880
           A3           0.00150   0.00140   0.15846
           A4          -0.00126  -0.00115   0.00136   0.15890
           A5           0.00184   0.00168  -0.00198   0.00160   0.15768
           A6           0.00180   0.00164  -0.00194   0.00156  -0.00226
           A7           0.00417   0.00341  -0.00571   0.00275  -0.00386
           A8          -0.00000  -0.00000   0.00000  -0.00000   0.00000
           D1           0.00151   0.00124  -0.00205   0.00101  -0.00142
           D2          -0.00006  -0.00006   0.00008  -0.00005   0.00007
           D3          -0.00004  -0.00005   0.00002  -0.00005   0.00008
           D4           0.00002   0.00001  -0.00005  -0.00000   0.00001
                          A6        A7        A8        D1        D2
           A6           0.15780
           A7          -0.00357   0.03294
           A8           0.00000   0.00000   0.00230
           D1          -0.00132   0.01037   0.00000   0.00677
           D2           0.00007  -0.00012  -0.00000  -0.00004   0.00230
           D3           0.00008   0.00084   0.00000   0.00029  -0.00001
           D4           0.00001   0.00095   0.00000   0.00033  -0.00001
                          D3        D4
           D3           0.00231
           D4           0.00002   0.00232
 ITU=  0  0
 Eigenvectors of the second derivative matrix:
                           1         2         3         4         5
     Eigenvalues --     0.00230   0.02009   0.04652   0.06644   0.07206
   1         R1        -0.00000   0.00126   0.01662   0.00085   0.01246
   2         R2        -0.00000  -0.00310   0.01521   0.00098   0.01173
   3         R3        -0.00000  -0.00310   0.01521   0.00098   0.01173
   4         R4         0.00000  -0.19752  -0.06224   0.00763  -0.03398
   5         R5        -0.00000   0.23271   0.13826  -0.00425   0.09013
   6         A1         0.00000  -0.03550  -0.38704  -0.01639   0.30777
   7         A2         0.00000  -0.03115  -0.07523   0.42060  -0.33380
   8         A3        -0.00000   0.05386   0.18767   0.17348   0.25221
   9         A4         0.00000  -0.04177  -0.05505  -0.41728  -0.33802
  10         A5        -0.00000   0.04195   0.20344  -0.15796   0.25054
  11         A6        -0.00000   0.04243   0.26644   0.00684  -0.03589
  12         A7        -0.00000   0.93765  -0.19878  -0.01772  -0.10308
  13         A8         1.00000   0.00000   0.00000  -0.00000   0.00000
  14         D1        -0.00000   0.13062   0.72515   0.01999   0.23907
  15         D2         0.00000   0.00189  -0.26342  -0.01019   0.56239
  16         D3         0.00000  -0.00697  -0.11248  -0.54946   0.27838
  17         D4        -0.00000  -0.00886   0.15095  -0.53927  -0.28401
                           6         7         8         9        10
     Eigenvalues --     0.15873   0.16002   0.17213   0.20291   0.35564
   1         R1         0.02761  -0.00014  -0.09216   0.00376  -0.87556
   2         R2         0.02644  -0.00025  -0.08970   0.00821   0.34126
   3         R3         0.02644  -0.00025  -0.08970   0.00821   0.34126
   4         R4        -0.14447  -0.01983   0.45967  -0.84553  -0.00920
   5         R5         0.23836   0.00817  -0.75030  -0.53105   0.01934
   6         A1         0.22755  -0.12650   0.02495   0.00163   0.00007
   7         A2        -0.00357   0.31342  -0.05783  -0.00821  -0.00021
   8         A3        -0.61140  -0.39894  -0.12514   0.01061   0.00036
   9         A4        -0.26269  -0.13097  -0.14200  -0.00572  -0.00021
  10         A5         0.01444   0.73577   0.09578  -0.00345  -0.00005
  11         A6         0.64404  -0.40944   0.25148   0.00857   0.00014
  12         A7        -0.07812   0.00217   0.24285  -0.04931  -0.00339
  13         A8         0.00000   0.00000  -0.00000  -0.00000  -0.00000
  14         D1        -0.06609  -0.00047   0.17214   0.01219   0.00034
  15         D2        -0.00703  -0.00024   0.01424   0.00498   0.00022
  16         D3        -0.00483  -0.00004   0.01150   0.00085   0.00002
  17         D4         0.00221   0.00020  -0.00274  -0.00413  -0.00019
                          11        12
     Eigenvalues --     0.35622   0.36378
   1         R1         0.00000   0.47295
   2         R2        -0.70711   0.61184
   3         R3         0.70711   0.61184
   4         R4        -0.00000   0.09129
   5         R5         0.00000  -0.12794
   6         A1        -0.00000  -0.00273
   7         A2        -0.00000  -0.00052
   8         A3         0.00000  -0.00194
   9         A4        -0.00000  -0.00102
  10         A5         0.00000   0.00440
  11         A6         0.00000   0.00294
  12         A7        -0.00000   0.05323
  13         A8        -0.00000   0.00000
  14         D1         0.00000   0.00576
  15         D2         0.00000  -0.00201
  16         D3         0.00000   0.00017
  17         D4        -0.00000   0.00218
 Eigenvalue     1 is   2.30D-03 should be less than     0.000000 Eigenvector:
                          A8        A7        R5        D1        R4
   1                    1.00000  -0.00000  -0.00000  -0.00000   0.00000
                          A6        A1        A3        A5        A4
   1                   -0.00000   0.00000  -0.00000  -0.00000   0.00000
 RLam0= 2.30D-03.
 Iter=   1 RLamda= 0.00000000D+00 Sum=-6.39470485D-04.
 Iter=   2 RLamda=-6.39470485D-04 Sum=-6.34233994D-04.
 Iter=   3 RLamda=-6.34233994D-04 Sum=-6.34276223D-04.
 Iter=   4 RLamda=-6.34276223D-04 Sum=-6.34275882D-04.
 RFO step:  Lambda0=2.300010000D-03 Lambda=-6.34276223D-04.
 Linear search not attempted -- option 19 set.
 Maximum step size (   0.100) exceeded in Quadratic search.
    -- Step size scaled by   0.833
 Iteration  1 RMS(Cart)=  0.01755505 RMS(Int)=  0.00049234
 Iteration  2 RMS(Cart)=  0.00060099 RMS(Int)=  0.00009752
 Iteration  3 RMS(Cart)=  0.00000044 RMS(Int)=  0.00009752
 ITry= 1 IFail=0 DXMaxC= 3.25D-02 DCOld= 1.00D+10 DXMaxT= 1.00D-01 DXLimC= 3.00D+00 Rises=F
 ClnCor:  largest displacement from symmetrization is 3.84D-02 for atom     4.
 Variable       Old X    -DE/DX   Delta X   Delta X   Delta X     New X
                                 (Linear)    (Quad)   (Total)
    R1        2.07286   0.00046   0.00000   0.00401   0.00399   2.07685
    R2        2.07205   0.00009   0.00000   0.00285  -0.00123   2.07082
    R3        2.07205   0.00009   0.00000   0.00285  -0.00123   2.07082
    R4        2.47295  -0.00420   0.00000  -0.02966  -0.02981   2.44314
    R5        2.31992   0.00770   0.00000   0.05041   0.04957   2.36949
    A1        1.98993  -0.00013   0.00000  -0.01084  -0.00657   1.98336
    A2        1.98993  -0.00031   0.00000  -0.00856  -0.00657   1.98336
    A3        1.81051   0.00048   0.00000   0.01246   0.01246   1.82297
    A4        1.99650  -0.00025   0.00000  -0.00855  -0.00076   1.99574
    A5        1.82428   0.00017   0.00000   0.01157   0.00254   1.82682
    A6        1.82428   0.00025   0.00000   0.01157   0.00254   1.82682
    A7        3.19552  -0.00192   0.00000   0.01606   0.01729   3.21282
    A8        3.14159   0.00000   0.00000  -0.07477   0.00000   3.14159
    D1       -2.33396   0.00080   0.00000   0.03447   0.01748  -2.31648
    D2        2.08989   0.00013   0.00000  -0.00169  -0.00073   2.08916
    D3       -2.08989   0.00004   0.00000  -0.00085   0.00073  -2.08916
    D4        2.10341  -0.00009   0.00000   0.00084   0.00147   2.10487
         Item               Value     Threshold  Converged?
 Maximum Force            0.007696     0.000450     NO 
 RMS     Force            0.002195     0.000300     NO 
 Maximum Displacement     0.032484     0.001800     NO 
 RMS     Displacement     0.013140     0.001200     NO 
 Predicted change in Energy=-2.800889D-04
 Lowest energy point so far.  Saving SCF results.
 Largest change from initial coordinates is atom    2       0.038 Angstoms.
 GradGradGradGradGradGradGradGradGradGradGradGradGradGradGradGradGradGrad

 Leave Link  103 at Wed Oct  7 14:50:16 2020, MaxMem=  2684354560 cpu:               3.7 elap:               0.8
 (Enter /udrive/faculty/rpeverati/g16/g16/l202.exe)
                          Input orientation:                          
 ---------------------------------------------------------------------
 Center     Atomic      Atomic             Coordinates (Angstroms)
 Number     Number       Type             X           Y           Z
 ---------------------------------------------------------------------
      1          6           0       -0.003991   -1.135088   -0.000000
      2          1           0       -1.063031   -1.428835   -0.000000
      3          1           0        0.526262   -1.402884    0.920847
      4          1           0        0.526262   -1.402884   -0.920847
      5          1           0       -0.027771    0.157547   -0.000000
      6          8           0        0.038442    1.409678    0.000000
 ---------------------------------------------------------------------
                    Distance matrix (angstroms):
                    1          2          3          4          5
     1  C    0.000000
     2  H    1.099024   0.000000
     3  H    1.095830   1.836978   0.000000
     4  H    1.095830   1.836978   1.841694   0.000000
     5  H    1.292854   1.894300   1.894692   1.894692   0.000000
     6  O    2.545120   3.044734   2.999406   2.999406   1.253881
                    6
     6  O    0.000000
 Stoichiometry    CH4O(3)
 Framework group  CS[SG(CH2O),X(H2)]
 Deg. of freedom     8
 Full point group                 CS      NOp   2
 RotChk:  IX=0 Diff= 5.16D-03
 Largest Abelian subgroup         CS      NOp   2
 Largest concise Abelian subgroup CS      NOp   2
                         Standard orientation:                         
 ---------------------------------------------------------------------
 Center     Atomic      Atomic             Coordinates (Angstroms)
 Number     Number       Type             X           Y           Z
 ---------------------------------------------------------------------
      1          6           0        0.001669   -1.156879   -0.000000
      2          1           0       -1.052327   -1.468242   -0.000000
      3          1           0        0.536313   -1.415797    0.920847
      4          1           0        0.536313   -1.415797   -0.920847
      5          1           0       -0.043659    0.135180    0.000000
      6          8           0        0.001669    1.388241    0.000000
 ---------------------------------------------------------------------
 Rotational constants (GHZ):         148.3365832           9.3099246           9.3079690
 Leave Link  202 at Wed Oct  7 14:50:17 2020, MaxMem=  2684354560 cpu:               2.3 elap:               0.6
 (Enter /udrive/faculty/rpeverati/g16/g16/l301.exe)
 Standard basis: 6-31G(d) (5D, 7F)
 Ernie: Thresh=  0.10000D-02 Tol=  0.10000D-05 Strict=F.
 There are    28 symmetry adapted cartesian basis functions of A'  symmetry.
 There are    10 symmetry adapted cartesian basis functions of A"  symmetry.
 There are    26 symmetry adapted basis functions of A'  symmetry.
 There are    10 symmetry adapted basis functions of A"  symmetry.
    36 basis functions,    72 primitive gaussians,    38 cartesian basis functions
    10 alpha electrons        8 beta electrons
       nuclear repulsion energy        30.4106413837 Hartrees.
 IExCor=  402 DFT=T Ex=B Corr=LYP ExCW=0 ScaHFX=  0.000000
 ScaDFX=  1.000000  1.000000  1.000000  1.000000 ScalE2=  1.000000  1.000000
 IRadAn=      5 IRanWt=     -1 IRanGd=            0 ICorTp=0 IEmpDi=  4
 NAtoms=    6 NActive=    6 NUniq=    5 SFac= 1.44D+00 NAtFMM=   60 NAOKFM=F Big=F
 Integral buffers will be    131072 words long.
 Raffenetti 2 integral format.
 Two-electron integral symmetry is turned on.
 Leave Link  301 at Wed Oct  7 14:50:18 2020, MaxMem=  2684354560 cpu:               2.3 elap:               0.6
 (Enter /udrive/faculty/rpeverati/g16/g16/l302.exe)
 NPDir=0 NMtPBC=     1 NCelOv=     1 NCel=       1 NClECP=     1 NCelD=      1
         NCelK=      1 NCelE2=     1 NClLst=     1 CellRange=     0.0.
 One-electron integrals computed using PRISM.
 One-electron integral symmetry used in STVInt
 NBasis=    36 RedAO= T EigKep=  1.21D-02  NBF=    26    10
 NBsUse=    36 1.00D-06 EigRej= -1.00D+00 NBFU=    26    10
 Precomputing XC quadrature grid using
[...]
     11 -0.242371D-02 -0.208325D-02 -0.849608D-03  0.472281D-02 -0.940574D-03
     12 -0.127467D-02  0.704782D-03  0.704785D-03 -0.235206D-03 -0.669728D-04
     13  0.000000D+00 -0.124287D-02  0.124287D-02  0.000000D+00  0.000000D+00
     14 -0.462098D-02 -0.470094D-02 -0.386108D-02  0.118990D-01 -0.452428D-02
     15  0.220069D-02  0.188144D-02 -0.565653D-02  0.133253D-02 -0.840630D-03
     16 -0.307382D-02  0.487985D-02 -0.272257D-02  0.915809D-03 -0.142382D-04
     17 -0.527451D-02  0.299842D-02  0.293396D-02 -0.416716D-03  0.826392D-03
                6             7             8             9            10 
      6  0.157108D-01
      7 -0.850138D-02  0.210260D-01
      8 -0.491559D-02 -0.891335D-02  0.346191D-01
      9 -0.869035D-02 -0.623663D-02  0.955540D-02  0.215148D-01
     10 -0.378662D-02  0.861263D-02 -0.151142D-01 -0.909635D-02  0.340325D-01
     11  0.109504D-01 -0.883883D-02 -0.131046D-01 -0.103030D-01 -0.127006D-01
     12  0.287943D-03  0.281834D-03 -0.451898D-02 -0.681492D-03  0.232356D-02
     13 -0.602976D-04  0.686713D-04 -0.597819D-05  0.343282D-05  0.782226D-03
     14 -0.435681D-02 -0.498672D-02  0.769542D-02 -0.522027D-02  0.717778D-02
     15  0.138758D-01 -0.944713D-02  0.207394D-02 -0.912551D-02  0.239802D-02
     16  0.714331D-02 -0.163710D-01  0.154694D-02  0.689360D-02  0.743521D-03
     17 -0.673252D-02 -0.692385D-02 -0.527000D-03  0.160191D-01 -0.165449D-02
               11            12            13            14            15 
     11  0.377700D-01
     12  0.232564D-02  0.258250D-01
     13 -0.793548D-03  0.000000D+00  0.201290D-02
     14  0.648647D-02  0.311147D-04  0.846807D-05  0.211311D-01
     15  0.253193D-02 -0.529754D-03  0.210006D-03  0.661660D-03  0.166587D-01
     16  0.101180D-02  0.535639D-03  0.209355D-03  0.266543D-03  0.857845D-02
     17 -0.152014D-02  0.106539D-02  0.000000D+00 -0.395117D-03 -0.808025D-02
               16            17 
     16  0.168185D-01
     17  0.824000D-02  0.163203D-01
 Leave Link  716 at Wed Oct  7 14:52:27 2020, MaxMem=  2684354560 cpu:               3.1 elap:               0.7
 (Enter /udrive/faculty/rpeverati/g16/g16/l103.exe)

 GradGradGradGradGradGradGradGradGradGradGradGradGradGradGradGradGradGrad
 Berny optimization.
 Optmz: redundant internal coordinate code flag= 1
 Red2BG:  D1=  2.70D-01 OD1=  1.02D-14 B2RMS=  0.00D+00 IAprox=1
 Red2BG is reusing G-inverse.
 Internal  Forces:  Max     0.000071383 RMS     0.000026289
 Search for a local minimum.
 Step number   1 out of a maximum of    2
 All quantities printed in internal units (Hartrees-Bohrs-Radians)
 Second derivative matrix not updated -- analytic derivatives used.
 The second derivative matrix:
                          R1        R2        R3        R4        R5
           R1           0.34424
           R2           0.00062   0.34610
           R3           0.00062   0.00045   0.34610
           R4           0.00170   0.00117   0.00117   0.03529
           R5           0.00050   0.00013   0.00013   0.08582   0.14745
           A1           0.00250   0.00244  -0.00354  -0.00137   0.00052
           A2           0.00341  -0.00311   0.00370  -0.00370   0.00141
           A3           0.00065  -0.00207  -0.00266   0.00386  -0.00320
           A4          -0.00320   0.00348   0.00382  -0.00346   0.00132
           A5          -0.00211  -0.00000  -0.00236   0.00392  -0.00064
           A6          -0.00242  -0.00208  -0.00085   0.00472  -0.00094
           A7          -0.00127   0.00070   0.00070  -0.00024  -0.00007
           A8           0.00000  -0.00124   0.00124  -0.00000   0.00000
           D1          -0.00462  -0.00470  -0.00386   0.01190  -0.00452
           D2           0.00220   0.00188  -0.00566   0.00133  -0.00084
           D3          -0.00307   0.00488  -0.00272   0.00092  -0.00001
           D4          -0.00527   0.00300   0.00293  -0.00042   0.00083
                          A1        A2        A3        A4        A5
           A1           0.01571
           A2          -0.00850   0.02103
           A3          -0.00492  -0.00891   0.03462
           A4          -0.00869  -0.00624   0.00956   0.02151
           A5          -0.00379   0.00861  -0.01511  -0.00910   0.03403
           A6           0.01095  -0.00884  -0.01310  -0.01030  -0.01270
           A7           0.00029   0.00028  -0.00452  -0.00068   0.00232
           A8          -0.00006   0.00007  -0.00001   0.00000   0.00078
           D1          -0.00436  -0.00499   0.00770  -0.00522   0.00718
           D2           0.01388  -0.00945   0.00207  -0.00913   0.00240
           D3           0.00714  -0.01637   0.00155   0.00689   0.00074
           D4          -0.00673  -0.00692  -0.00053   0.01602  -0.00165
                          A6        A7        A8        D1        D2
           A6           0.03777
           A7           0.00233   0.02582
           A8          -0.00079   0.00000   0.00201
           D1           0.00649   0.00003   0.00001   0.02113
           D2           0.00253  -0.00053   0.00021   0.00066   0.01666
           D3           0.00101   0.00054   0.00021   0.00027   0.00858
           D4          -0.00152   0.00107  -0.00000  -0.00040  -0.00808
                          D3        D4
           D3           0.01682
           D4           0.00824   0.01632
 ITU=  0
 Eigenvectors of the second derivative matrix:
                           1         2         3         4         5
     Eigenvalues --    -0.01630   0.00197   0.02407   0.03315   0.03815
   1         R1         0.00773   0.00000   0.00364  -0.02218  -0.02042
   2         R2         0.00711   0.00393  -0.00035  -0.01523   0.02374
   3         R3         0.00756  -0.00393  -0.00076   0.00396   0.00061
   4         R4        -0.83786   0.00003   0.01052  -0.20314   0.03724
   5         R5         0.44988  -0.00002  -0.01156   0.12389  -0.01247
   6         A1        -0.05102  -0.00198  -0.03929   0.36854  -0.05156
   7         A2        -0.06256   0.00197  -0.03115   0.04023   0.27827
   8         A3         0.09363   0.00001  -0.20674  -0.04106   0.40785
   9         A4        -0.06023  -0.00000   0.04900  -0.02799  -0.27953
  10         A5         0.08001  -0.01776   0.11627  -0.12570  -0.41519
  11         A6         0.08126   0.01777   0.11892  -0.38753   0.09263
  12         A7        -0.00311  -0.00000  -0.94376  -0.16383  -0.24272
  13         A8        -0.00007   0.99959  -0.00019   0.00972  -0.01438
  14         D1         0.25181   0.00081   0.04448  -0.65515   0.09013
  15         D2         0.00761  -0.00845  -0.07757   0.33979  -0.05283
  16         D3         0.00446  -0.00844   0.06781   0.10904  -0.48495
  17         D4        -0.00315   0.00000   0.14539  -0.23075  -0.43212
                           6         7         8         9        10
     Eigenvalues --     0.04141   0.06310   0.06562   0.19394   0.34433
   1         R1        -0.00106   0.00652  -0.00915   0.00746   0.95204
   2         R2         0.00296  -0.00931   0.00829   0.00411  -0.20759
   3         R3         0.02751   0.01803   0.01273   0.00386  -0.22196
   4         R4         0.15770   0.05203   0.02040  -0.47662   0.00442
   5         R5        -0.08941  -0.03146  -0.02400  -0.87884   0.00404
   6         A1         0.08097   0.31984   0.25570   0.00045   0.00874
   7         A2        -0.18872  -0.49263   0.13125   0.00344   0.01027
   8         A3         0.39174   0.18568  -0.53457   0.00713   0.00473
   9         A4        -0.22233   0.01776  -0.49828   0.00415  -0.01575
  10         A5         0.44237  -0.45923   0.28293  -0.00875  -0.00420
  11         A6        -0.34626   0.50074   0.41657  -0.01007  -0.00499
  12         A7        -0.11226  -0.02017   0.10252   0.00050  -0.00495
  13         A8         0.01914  -0.01085  -0.00141   0.00000  -0.00005
  14         D1         0.40650   0.07829   0.04412  -0.01086  -0.00790
  15         D2         0.38922   0.25226   0.18048   0.00001   0.00973
  16         D3         0.18300   0.28790  -0.09298  -0.00278  -0.01111
  17         D4        -0.20622   0.03564  -0.27346  -0.00279  -0.02084
                          11        12
     Eigenvalues --     0.34600   0.34719
   1         R1        -0.00294   0.30406
   2         R2        -0.73603   0.64353
   3         R3         0.67609   0.70163
   4         R4        -0.00049   0.00675
   5         R5        -0.00014   0.00544
   6         A1        -0.01413  -0.00120
   7         A2         0.01632   0.00536
   8         A3        -0.00115  -0.00922
   9         A4         0.00022   0.01318
  10         A5        -0.00462  -0.00727
  11         A6         0.00223  -0.00906
  12         A7        -0.00012   0.00176
  13         A8         0.00507   0.00021
  14         D1         0.00244  -0.02258
  15         D2        -0.01738  -0.00728
  16         D3        -0.01806   0.00081
  17         D4        -0.00069   0.00809
 Eigenvalue     1 is  -1.63D-02 should be greater than     0.000000 Eigenvector:
                          R4        R5        D1        A3        A6
   1                   -0.83786   0.44988   0.25181   0.09363   0.08126
                          A5        A2        A4        A1        R1
   1                    0.08001  -0.06256  -0.06023  -0.05102   0.00773
 Angle between quadratic step and forces=  45.28 degrees.
 Linear search not attempted -- first point.
 Iteration  1 RMS(Cart)=  0.00069891 RMS(Int)=  0.00000042
 Iteration  2 RMS(Cart)=  0.00000035 RMS(Int)=  0.00000023
 ITry= 1 IFail=0 DXMaxC= 1.64D-03 DCOld= 1.00D+10 DXMaxT= 3.00D-01 DXLimC= 3.00D+00 Rises=F
 ClnCor:  largest displacement from symmetrization is 1.61D-05 for atom     4.
 Variable       Old X    -DE/DX   Delta X   Delta X   Delta X     New X
                                 (Linear)    (Quad)   (Total)
    R1        2.07053  -0.00004   0.00000  -0.00015  -0.00015   2.07037
    R2        2.06908  -0.00001   0.00000  -0.00004  -0.00004   2.06904
    R3        2.06908  -0.00001   0.00000  -0.00004  -0.00004   2.06904
    R4        2.76249  -0.00003   0.00000   0.00048   0.00048   2.76297
    R5        2.12417  -0.00007   0.00000  -0.00067  -0.00067   2.12349
    A1        2.01751   0.00001   0.00000   0.00035   0.00035   2.01786
    A2        2.01751   0.00001   0.00000   0.00037   0.00035   2.01786
    A3        1.76652   0.00003   0.00000   0.00078   0.00078   1.76729
    A4        2.02475  -0.00001   0.00000  -0.00024  -0.00024   2.02451
    A5        1.78944  -0.00002   0.00000  -0.00073  -0.00072   1.78872
    A6        1.78944  -0.00003   0.00000  -0.00073  -0.00072   1.78872
    A7        3.12166   0.00001   0.00000   0.00078   0.00078   3.12244
    A8        3.14159   0.00000   0.00000   0.00000   0.00000   3.14159
    D1       -2.44450  -0.00002   0.00000  -0.00077  -0.00077  -2.44527
    D2        2.08887   0.00001   0.00000   0.00040   0.00041   2.08928
    D3       -2.08887  -0.00001   0.00000  -0.00043  -0.00041  -2.08928
    D4        2.10545  -0.00003   0.00000  -0.00083  -0.00082   2.10463
         Item               Value     Threshold  Converged?
 Maximum Force            0.000071     0.000450     YES
 RMS     Force            0.000026     0.000300     YES
 Maximum Displacement     0.001637     0.001800     YES
 RMS     Displacement     0.000698     0.001200     YES
 Predicted change in Energy=-9.972096D-08
 Optimization completed.
    -- Stationary point found.
                           ----------------------------
                           !   Optimized Parameters   !
                           ! (Angstroms and Degrees)  !
 --------------------------                            --------------------------
 ! Name  Definition              Value          Derivative Info.                !
 --------------------------------------------------------------------------------
 ! R1    R(1,2)                  1.0957         -DE/DX =    0.0                 !
 ! R2    R(1,3)                  1.0949         -DE/DX =    0.0                 !
 ! R3    R(1,4)                  1.0949         -DE/DX =    0.0                 !
 ! R4    R(1,5)                  1.4618         -DE/DX =    0.0                 !
 ! R5    R(5,6)                  1.1241         -DE/DX =   -0.0001              !
 ! A1    A(2,1,3)              115.5947         -DE/DX =    0.0                 !
 ! A2    A(2,1,4)              115.5947         -DE/DX =    0.0                 !
 ! A3    A(2,1,5)              101.214          -DE/DX =    0.0                 !
 ! A4    A(3,1,4)              116.0096         -DE/DX =    0.0                 !
 ! A5    A(3,1,5)              102.5275         -DE/DX =    0.0                 !
 ! A6    A(4,1,5)              102.5275         -DE/DX =    0.0                 !
 ! A7    L(1,5,6,2,-1)         178.8579         -DE/DX =    0.0                 !
 ! A8    L(1,5,6,2,-2)         180.0            -DE/DX =    0.0                 !
 ! D1    D(2,1,4,3)           -140.0597         -DE/DX =    0.0                 !
 ! D2    D(2,1,5,3)            119.6833         -DE/DX =    0.0                 !
 ! D3    D(2,1,5,4)           -119.6833         -DE/DX =    0.0                 !
 ! D4    D(3,1,5,4)            120.6335         -DE/DX =    0.0                 !
 --------------------------------------------------------------------------------
 GradGradGradGradGradGradGradGradGradGradGradGradGradGradGradGradGradGrad

 Leave Link  103 at Wed Oct  7 14:52:28 2020, MaxMem=  2684354560 cpu:               1.8 elap:               0.7
 (Enter /udrive/faculty/rpeverati/g16/g16/l9999.exe)

 ----------------------------------------------------------------------

 Electric dipole moment (input orientation):
 (Debye = 10**-18 statcoulomb cm , SI units = C m)
                  (au)            (Debye)         (10**-30 SI)
   Tot        0.860313D+00      0.218670D+01      0.729404D+01
   x          0.360962D-02      0.917475D-02      0.306037D-01
   y         -0.860305D+00     -0.218668D+01     -0.729397D+01
   z          0.000000D+00      0.000000D+00      0.000000D+00

 Dipole polarizability, Alpha (input orientation).
 (esu units = cm**3 , SI units = C**2 m**2 J**-1)
 Alpha(0;0):
               (au)            (10**-24 esu)      (10**-40 SI)
   iso        0.196185D+02      0.290717D+01      0.323466D+01
   aniso      0.156554D+02      0.231989D+01      0.258122D+01
   xx         0.145263D+02      0.215258D+01      0.239506D+01
   yx        -0.149276D+00     -0.221204D-01     -0.246123D-01
   yy         0.300530D+02      0.445340D+01      0.495508D+01
   zx         0.000000D+00      0.000000D+00      0.000000D+00
   zy         0.000000D+00      0.000000D+00      0.000000D+00
   zz         0.142763D+02      0.211553D+01      0.235384D+01

 ----------------------------------------------------------------------

 Dipole orientation:
     6         -0.00371476         -0.00001559          2.25573946
     1         -2.03829861         -0.00855218          2.63977792
     1          0.98498231          1.75891666          2.71368385
     1          0.99970730         -1.75058941          2.71368385
     1          0.02159830          0.00009062         -0.50663703
     8         -0.00127832         -0.00000536         -2.63068052

 Electric dipole moment (dipole orientation):
 (Debye = 10**-18 statcoulomb cm , SI units = C m)
                  (au)            (Debye)         (10**-30 SI)
   Tot        0.860313D+00      0.218670D+01      0.729404D+01
   x          0.000000D+00      0.000000D+00      0.000000D+00
   y          0.000000D+00      0.000000D+00      0.000000D+00
   z          0.860313D+00      0.218670D+01      0.729404D+01

 Dipole polarizability, Alpha (dipole orientation).
 (esu units = cm**3 , SI units = C**2 m**2 J**-1)
 Alpha(0;0):
               (au)            (10**-24 esu)      (10**-40 SI)
   iso        0.196185D+02      0.290717D+01      0.323466D+01
   aniso      0.156554D+02      0.231989D+01      0.258122D+01
   xx         0.145253D+02      0.215243D+01      0.239490D+01
   yx         0.104481D-02      0.154824D-03      0.172265D-03
   yy         0.142763D+02      0.211553D+01      0.235384D+01
   zx         0.841248D-01      0.124660D-01      0.138703D-01
   zy         0.352949D-03      0.523017D-04      0.581935D-04
   zz         0.300540D+02      0.445355D+01      0.495524D+01

 ----------------------------------------------------------------------

 Test job not archived.
 1\1\GINC-NODE56\Freq\UBLYP\6-31G(d)\C1H4O1(3)\RPEVERATI\07-Oct-2020\0\
 \#P Freq BLYP/6-31G* 5D 7F Integral=UltraFineGrid SCF=(NoSymm,XQC,MaxC
 yc=120) IOp(1/33=1) Geom=Check Guess=Read\\TS search on BH76.\\0,3\C,0
 .0030425903,-1.1936836565,0.\H,-1.0727601424,-1.4014236433,0.\H,0.5311
 513766,-1.4338037137,0.9285834915\H,0.5311513766,-1.4338037137,-0.9285
 834915\H,0.0103044553,0.268146363,0.\O,-0.0065172905,1.3920810904,0.\\
 Version=ES64L-G16RevA.03\State=3-A'\HF=-115.5143191\S2=2.0057\S2-1=0.\
 S2A=2.000015\RMSD=1.238e-09\RMSF=3.504e-05\ZeroPoint=0.0378704\Thermal
 =0.0417684\Dipole=0.0036096,-0.8603054,0.\DipoleDeriv=0.0333163,-0.008
 5614,0.,-0.0144661,0.2929672,0.,0.,0.,0.0251276,-0.0594271,0.009176,0.
 ,-0.0446674,0.022433,0.,0.,0.,0.0642825,0.0361836,-0.0004728,-0.049507
 8,0.0283915,0.0195297,0.0523875,-0.0526303,-0.004201,-0.0249349,0.0361
 836,-0.0004728,0.0495078,0.0283915,0.0195297,-0.0523875,0.0526303,0.00
 4201,-0.0249349,0.2246481,0.0051905,0.,0.0054616,-0.2747128,0.,0.,0.,0
 .2262833,-0.2709044,-0.0048595,0.,-0.0031112,-0.0797468,0.,0.,0.,-0.26
 58235\Polar=14.5262976,-0.1492759,30.0530342,0.,0.,14.2762982\Quadrupo
 le=1.0462715,-1.2657617,0.2194903,0.0068272,0.,0.\PG=CS [SG(C1H2O1),X(
 H2)]\NImag=1\\0.56129550,-0.01080577,0.11252775,0.,0.,0.56573037,-0.31
 600545,-0.04959311,0.,0.33374864,-0.06270590,-0.03201278,0.,0.05732098
 ,0.03196244,0.,0.,-0.05280194,0.,0.,0.04450139,-0.11527047,0.03004295,
 -0.11186635,-0.00854830,0.00793739,-0.02370935,0.11440963,0.03598681,-
 0.03577275,0.06222661,-0.00385447,0.00442668,-0.00576363,-0.03359089,0
 .03522408,-0.11304657,0.05070699,-0.25147759,0.00241738,0.00026166,0.0
 0399423,0.12337353,-0.05742151,0.26192057,-0.11527047,0.03004295,0.111
 86637,-0.00854830,0.00793739,0.02370935,0.00950921,-0.00356711,-0.0126
 2146,0.11440963,0.03598681,-0.03577275,-0.06222660,-0.00385447,0.00442
 668,0.00576363,-0.00356711,0.00487809,0.00686270,-0.03359089,0.0352240
 8,0.11304657,-0.05070699,-0.25147759,-0.00241738,-0.00026166,0.0039942
 3,0.01262146,-0.00686270,-0.01408045,-0.12337353,0.05742151,0.26192057
 ,-0.02010422,-0.00129306,0.,-0.00105325,-0.01159037,0.,-0.00004813,0.0
 0569545,-0.00036732,-0.00004813,0.00569545,0.00036732,0.03270390,-0.00
 018472,0.08639822,-0.00000001,0.00124592,-0.01278941,0.,-0.00093369,-0
 .01153895,-0.00122549,-0.00093369,-0.01153895,0.00122549,0.00002454,0.
 01107443,0.,0.,-0.00856079,0.,0.,0.00030696,-0.00082849,0.00772839,-0.
 00138708,0.00082849,-0.00772839,-0.00138708,0.,0.,0.01315926,0.0053551
 0,0.00160604,0.,0.00040665,0.00110051,0.,-0.00005194,-0.00066978,0.000
 24443,-0.00005194,-0.00066978,-0.00024443,-0.01145017,0.00078164,0.,0.
 00579230,0.00172278,-0.09536768,0.,-0.00126484,0.00398640,0.,0.0001113
 4,0.00278285,0.00081565,0.00011134,0.00278285,-0.00081565,0.00146799,-
 0.06160533,0.,-0.00214862,0.14742092,0.,0.,-0.00141246,0.,0.,0.0000051
 2,0.00040921,0.00009285,0.00103031,-0.00040922,-0.00009285,0.00103031,
 0.,0.,-0.00213126,0.,0.,0.00147798\\0.00009976,0.00002502,0.,-0.000037
 07,-0.00000445,0.,-0.00002073,-0.00002442,0.00002105,-0.00002073,-0.00
 002442,-0.00002105,-0.00001452,-0.00004301,0.,-0.00000670,0.00007129,0
 .\\\@


 The impersonal hand of government can
 never replace the helping hand of a neighbor.
                        -- Hubert H. Humphrey
 Job cpu time:       0 days  0 hours  2 minutes 27.5 seconds.
 Elapsed time:       0 days  0 hours  0 minutes 22.4 seconds.
 File lengths (MBytes):  RWF=      5 Int=      0 D2E=      0 Chk=      1 Scr=      1
 Normal termination of Gaussian 16 at Wed Oct  7 14:52:29 2020.
