 Entering Gaussian System, Link 0=g16
 Input=MN_85_RKT09_BH76_BLYP_631Gs.in
 Output=MN_85_RKT09_BH76_BLYP_631Gs.log
 Initial command:
 /udrive/faculty/rpeverati/g16/g16/l1.exe "/udrive/scratch-directories/gaussian09/rpeverati/Gau-12770.inp" -scrdir="/udrive/scratch-directories/gaussian09/rpeverati/"
 Entering Link 1 = /udrive/faculty/rpeverati/g16/g16/l1.exe PID=     12787.
  
 Copyright (c) 1988,1990,1992,1993,1995,1998,2003,2009,2016,
            Gaussian, Inc.  All Rights Reserved.
  
 This is part of the Gaussian(R) 16 program.  It is based on
 the Gaussian(R) 09 system (copyright 2009, Gaussian, Inc.),
 the Gaussian(R) 03 system (copyright 2003, Gaussian, Inc.),
 the Gaussian(R) 98 system (copyright 1998, Gaussian, Inc.),
 the Gaussian(R) 94 system (copyright 1995, Gaussian, Inc.),
 the Gaussian 92(TM) system (copyright 1992, Gaussian, Inc.),
 the Gaussian 90(TM) system (copyright 1990, Gaussian, Inc.),
 the Gaussian 88(TM) system (copyright 1988, Gaussian, Inc.),
 the Gaussian 86(TM) system (copyright 1986, Carnegie Mellon
 University), and the Gaussian 82(TM) system (copyright 1983,
 Carnegie Mellon University). Gaussian is a federally registered
 trademark of Gaussian, Inc.
  
 This software contains proprietary and confidential information,
 including trade secrets, belonging to Gaussian, Inc.
  
 This software is provided under written license and may be
 used, copied, transmitted, or stored only in accord with that
 written license.
  
 The following legend is applicable only to US Government
 contracts under FAR:
  
                    RESTRICTED RIGHTS LEGEND
  
 Use, reproduction and disclosure by the US Government is
 subject to restrictions as set forth in subparagraphs (a)
 and (c) of the Commercial Computer Software - Restricted
 Rights clause in FAR 52.227-19.
  
 Gaussian, Inc.
 340 Quinnipiac St., Bldg. 40, Wallingford CT 06492
  
  
 ---------------------------------------------------------------
 Warning -- This program may not be used in any manner that
 competes with the business of Gaussian, Inc. or will provide
 assistance to any competitor of Gaussian, Inc.  The licensee
 of this program is prohibited from giving any competitor of
 Gaussian, Inc. access to this program.  By using this program,
 the user acknowledges that Gaussian, Inc. is engaged in the
 business of creating and licensing software in the field of
 computational chemistry and represents and warrants to the
 licensee that it is not a competitor of Gaussian, Inc. and that
 it will not use this program in any manner prohibited above.
 ---------------------------------------------------------------
  

 Cite this work as:
 Gaussian 16, Revision A.03,
 M. J. Frisch, G. W. Trucks, H. B. Schlegel, G. E. Scuseria, 
 M. A. Robb, J. R. Cheeseman, G. Scalmani, V. Barone, 
 G. A. Petersson, H. Nakatsuji, X. Li, M. Caricato, A. V. Marenich, 
 J. Bloino, B. G. Janesko, R. Gomperts, B. Mennucci, H. P. Hratchian, 
 J. V. Ortiz, A. F. Izmaylov, J. L. Sonnenberg, D. Williams-Young, 
 F. Ding, F. Lipparini, F. Egidi, J. Goings, B. Peng, A. Petrone, 
 T. Henderson, D. Ranasinghe, V. G. Zakrzewski, J. Gao, N. Rega, 
 G. Zheng, W. Liang, M. Hada, M. Ehara, K. Toyota, R. Fukuda, 
 J. Hasegawa, M. Ishida, T. Nakajima, Y. Honda, O. Kitao, H. Nakai, 
 T. Vreven, K. Throssell, J. A. Montgomery, Jr., J. E. Peralta, 
 F. Ogliaro, M. J. Bearpark, J. J. Heyd, E. N. Brothers, K. N. Kudin, 
 V. N. Staroverov, T. A. Keith, R. Kobayashi, J. Normand, 
 K. Raghavachari, A. P. Rendell, J. C. Burant, S. S. Iyengar, 
 J. Tomasi, M. Cossi, J. M. Millam, M. Klene, C. Adamo, R. Cammi, 
 J. W. Ochterski, R. L. Martin, K. Morokuma, O. Farkas, 
 J. B. Foresman, and D. J. Fox, Gaussian, Inc., Wallingford CT, 2016.
 
 ******************************************
 Gaussian 16:  ES64L-G16RevA.03 25-Dec-2016
                 7-Oct-2020 
 ******************************************
 %NoSave
 %nproc=12
 Will use up to   12 processors via shared memory.
 %mem=20GB
 %chk=MN_85_RKT09_BH76_BLYP_631Gs
 ----------------------------------------------------------------------
 #P Opt(TS,MaxCyc=250,NoEigenTest,MaxStep=10,AddRedundant) BLYP/6-31G* 
 5D 7F Integral=UltraFineGrid SCF=(NoSymm,XQC,MaxCyc=120) IOp(1/33=1)
 ----------------------------------------------------------------------
 1/5=1,6=250,8=10,11=1,18=120,26=4,33=1,38=1/1,3;
 2/9=110,12=2,17=6,18=5,40=1/2;
 3/5=1,6=6,7=1,8=11,11=2,25=1,30=1,71=1,74=402,75=-5/1,2,3;
 4/9=2/1;
 5/5=2,7=120,8=3,13=1,38=5/2,8;
 6/7=2,8=2,9=2,10=2,28=1/1;
 7//1,2,3,16;
 1/5=1,6=250,8=10,11=1,18=20,26=4,33=1/3(2);
 2/9=110/2;
 99//99;
 2/9=110/2;
 3/5=1,6=6,7=1,8=11,11=2,25=1,30=1,71=1,74=402,75=-5/1,2,3;
 4/5=5,9=2,16=3,69=1/1;
 5/5=2,7=120,8=3,13=1,38=5/2,8;
 7//1,2,3,16;
 1/5=1,6=250,8=10,11=1,18=20,26=4,33=1/3(-5);
 2/9=110/2;
 6/7=2,8=2,9=2,10=2,19=2,28=1/1;
 99/9=1/99;
 Leave Link    1 at Wed Oct  7 14:49:42 2020, MaxMem=  2684354560 cpu:               4.3 elap:               0.5
 (Enter /udrive/faculty/rpeverati/g16/g16/l101.exe)
 ONIOM data not found on unit 2.
 ------------------
 TS search on BH76.
 ------------------
 TstMul:  ICh=     0
 TstMul:  Mul=     2
 TstMul:  ICh=     0
 TstMul:  Mul=     2
 Symbolic Z-matrix:
 Charge =  0 Multiplicity = 2
 c
 c                    1    cc2
 o                    2    oc3      1    occ3
 h                    1    hc4      2    hcc4     3    dih4     0
 h                    1    hc5      2    hcc5     3    dih5     0
 h                    1    hc6      2    hcc6     3    dih6     0
 h                    2    hc7      1    hcc7     4    dih7     0
 h                    2    hc8      1    hcc8     4    dih8     0
 h                    2    hc9      1    hcc9     4    dih9     0
 h                    3    ho10     2    hoc10    1    dih10    0
       Variables:
  cc2                   1.51295                  
  oc3                   2.53353                  
  occ3                107.309                    
  hc4                   1.08907                  
  hcc4                111.175                    
  dih4                -59.149                    
  hc5                   1.08913                  
  hcc5                111.154                    
  dih5                 61.314                    
  hc6                   1.09244                  
  hcc6                110.551                    
  dih6               -178.958                    
  hc7                   1.08807                  
  hcc7                114.002                    
  dih7                 55.319                    
  hc8                   1.08782                  
  hcc8                114.311                    
  dih8               -175.832                    
  hc9                   1.20481                  
  hcc9                106.909                    
  dih9                -61.094                    
  ho10                  0.96689                  
  hoc10                95.556                    
  dih10               145.387                    
 
 RdStrC is calling ZToCFu for IStruc=1 NZ=    10.
 PrtBox:  NBox=     1 Levels=  1 BoxLen=    8.00 SMaxX=        6.51
          Shift=            1.932707            1.683884            0.743400
 Box      1 Number                   0 centers from      1 to     10:
 After GenITR:
 ITRead=  0  0  0  0  0  0  0  0  0  0
 MicOpt= -1 -1 -1 -1 -1 -1 -1 -1 -1 -1
 Add virtual bond connecting atoms H9         and O3         Dist= 2.51D+00.
 The following ModRedundant input section has been read:
 B       2       9 D                                                           
 B       3       9 D                                                           
 
 ITRead=  0  0  0  0  0  0  0  0  0  0
 MicOpt= -1 -1 -1 -1 -1 -1 -1 -1 -1 -1
 NAtoms=     10 NQM=       10 NQMF=       0 NMMI=      0 NMMIF=      0
                NMic=       0 NMicF=      0.
                    Isotopes and Nuclear Properties:
 (Nuclear quadrupole moments (NQMom) in fm**2, nuclear magnetic moments (NMagM)
  in nuclear magnetons)

  Atom         1           2           3           4           5           6           7           8           9          10
 IAtWgt=          12          12          16           1           1           1           1           1           1           1
 AtmWgt=  12.0000000  12.0000000  15.9949146   1.0078250   1.0078250   1.0078250   1.0078250   1.0078250   1.0078250   1.0078250
 NucSpn=           0           0           0           1           1           1           1           1           1           1
 AtZEff=   0.0000000   0.0000000   0.0000000   0.0000000   0.0000000   0.0000000   0.0000000   0.0000000   0.0000000   0.0000000
 NQMom=    0.0000000   0.0000000   0.0000000   0.0000000   0.0000000   0.0000000   0.0000000   0.0000000   0.0000000   0.0000000
 NMagM=    0.0000000   0.0000000   0.0000000   2.7928460   2.7928460   2.7928460   2.7928460   2.7928460   2.7928460   2.7928460
 AtZNuc=   6.0000000   6.0000000   8.0000000   1.0000000   1.0000000   1.0000000   1.0000000   1.0000000   1.0000000   1.0000000
 No MM parameters found.
 Leave Link  101 at Wed Oct  7 14:49:44 2020, MaxMem=  2684354560 cpu:              10.2 elap:               1.2
 (Enter /udrive/faculty/rpeverati/g16/g16/l103.exe)

 GradGradGradGradGradGradGradGradGradGradGradGradGradGradGradGradGradGrad
 Berny optimization.
 Optmz: redundant internal coordinate code flag= 1
 Initialization pass.
                           ----------------------------
                           !    Initial Parameters    !
                           ! (Angstroms and Degrees)  !
 --------------------------                            --------------------------
 ! Name  Definition              Value          Derivative Info.                !
 --------------------------------------------------------------------------------
 ! R1    R(1,2)                  1.5129         estimate D2E/DX2                !
 ! R2    R(1,4)                  1.0891         estimate D2E/DX2                !
 ! R3    R(1,5)                  1.0891         estimate D2E/DX2                !
 ! R4    R(1,6)                  1.0924         estimate D2E/DX2                !
 ! R5    R(2,7)                  1.0881         estimate D2E/DX2                !
 ! R6    R(2,8)                  1.0878         estimate D2E/DX2                !
 ! R7    R(2,9)                  1.2048         calc D2E/DXDY, step=    0.0026  !
 ! R8    R(3,9)                  1.33           calc D2E/DXDY, step=    0.0026  !
 ! R9    R(3,10)                 0.9669         estimate D2E/DX2                !
 ! A1    A(2,1,4)              111.175          estimate D2E/DX2                !
 ! A2    A(2,1,5)              111.154          estimate D2E/DX2                !
 ! A3    A(2,1,6)              110.551          estimate D2E/DX2                !
 ! A4    A(4,1,5)              108.0917         estimate D2E/DX2                !
 ! A5    A(4,1,6)              107.8932         estimate D2E/DX2                !
 ! A6    A(5,1,6)              107.8396         estimate D2E/DX2                !
 ! A7    A(1,2,7)              114.002          estimate D2E/DX2                !
 ! A8    A(1,2,8)              114.311          estimate D2E/DX2                !
 ! A9    A(1,2,9)              106.909          estimate D2E/DX2                !
 ! A10   A(7,2,8)              110.7784         estimate D2E/DX2                !
 ! A11   A(7,2,9)              105.6938         estimate D2E/DX2                !
 ! A12   A(8,2,9)              104.1897         estimate D2E/DX2                !
 ! A13   A(9,3,10)              96.8035         estimate D2E/DX2                !
 ! A14   L(2,9,3,4,-1)         179.1884         estimate D2E/DX2                !
 ! A15   L(2,9,3,4,-2)         175.9026         estimate D2E/DX2                !
 ! D1    D(4,1,2,7)             55.319          estimate D2E/DX2                !
 ! D2    D(4,1,2,8)           -175.832          estimate D2E/DX2                !
 ! D3    D(4,1,2,9)            -61.094          estimate D2E/DX2                !
 ! D4    D(5,1,2,7)            175.782          estimate D2E/DX2                !
 ! D5    D(5,1,2,8)            -55.369          estimate D2E/DX2                !
 ! D6    D(5,1,2,9)             59.369          estimate D2E/DX2                !
 ! D7    D(6,1,2,7)            -64.49           estimate D2E/DX2                !
 ! D8    D(6,1,2,8)             64.359          estimate D2E/DX2                !
 ! D9    D(6,1,2,9)            179.097          estimate D2E/DX2                !
 ! D10   D(1,2,3,10)           145.387          estimate D2E/DX2                !
 ! D11   D(7,2,3,10)            24.3206         estimate D2E/DX2                !
 ! D12   D(8,2,3,10)           -92.3109         estimate D2E/DX2                !
 --------------------------------------------------------------------------------
 Maximum allowed force set to 1.00D+20.
 Trust Radius=1.00D-01 FncErr=1.00D-07 GrdErr=1.00D-06 EigMax=2.50D+02 EigMin=1.00D-04
 Number of steps in this run=    100 maximum allowed number of steps=    100.
 Search for a saddle point of order  1.
 GradGradGradGradGradGradGradGradGradGradGradGradGradGradGradGradGradGrad

 Leave Link  103 at Wed Oct  7 14:49:45 2020, MaxMem=  2684354560 cpu:               0.9 elap:               0.5
 (Enter /udrive/faculty/rpeverati/g16/g16/l202.exe)
                          Input orientation:                          
 ---------------------------------------------------------------------
 Center     Atomic      Atomic             Coordinates (Angstroms)
 Number     Number       Type             X           Y           Z
 ---------------------------------------------------------------------
      1          6           0        0.000000    0.000000    0.000000
      2          6           0        0.000000    0.000000    1.512945
      3          8           0        2.418798    0.000000    2.266733
      4          1           0        0.520774    0.871840   -0.393390
      5          1           0        0.487565   -0.891073   -0.393042
      6          1           0       -1.022744    0.018602   -0.383490
      7          1           0       -0.411694    0.904719    1.955538
      8          1           0       -0.445172   -0.885781    1.960788
      9          1           0        1.152057   -0.039123    1.863366
     10          1           0        2.272526    0.546643    3.050738
 ---------------------------------------------------------------------
                    Distance matrix (angstroms):
                    1          2          3          4          5
     1  C    0.000000
     2  C    1.512945   0.000000
     3  O    3.314915   2.533531   0.000000
     4  H    1.089067   2.159960   3.382138   0.000000
     5  H    1.089134   2.159750   3.405595   1.763226   0.000000
     6  H    1.092436   2.154720   4.343759   1.763678   1.763132
     7  H    2.193658   1.088070   2.987816   2.527457   3.090204
     8  H    2.197152   1.087819   3.013392   3.092643   2.531906
     9  H    2.191095   1.204807   1.329988   2.514224   2.501748
    10  H    3.843201   2.797856   0.966891   3.877681   4.136754
                    6          7          8          9         10
     6  H    0.000000
     7  H    2.574808   0.000000
     8  H    2.578205   1.790821   0.000000
     9  H    3.127531   1.828838   1.810376   0.000000
    10  H    4.788690   2.921082   3.259710   1.734482   0.000000
 Stoichiometry    C2H7O(2)
 Framework group  C1[X(C2H7O)]
 Deg. of freedom    24
 Full point group                 C1      NOp   1
 Largest Abelian subgroup         C1      NOp   1
 Largest concise Abelian subgroup C1      NOp   1
                         Standard orientation:                         
 ---------------------------------------------------------------------
 Center     Atomic      Atomic             Coordinates (Angstroms)
 Number     Number       Type             X           Y           Z
 ---------------------------------------------------------------------
      1          6           0        1.458332   -0.446366    0.025478
      2          6           0        0.469423    0.697425   -0.027492
      3          8           0       -1.853035   -0.314660   -0.053055
      4          1           0        1.301774   -1.061082    0.910736
      5          1           0        1.366579   -1.086186   -0.851120
      6          1           0        2.482251   -0.066889    0.057145
      7          1           0        0.471084    1.325448    0.861035
      8          1           0        0.533513    1.303490   -0.928562
      9          1           0       -0.630239    0.207827   -0.078466
     10          1           0       -2.267210    0.388316    0.465754
 ---------------------------------------------------------------------
 Rotational constants (GHZ):          26.3585027           4.9397484           4.4113441
 Leave Link  202 at Wed Oct  7 14:49:45 2020, MaxMem=  2684354560 cpu:               0.9 elap:               0.4
 (Enter /udrive/faculty/rpeverati/g16/g16/l301.exe)
 Standard basis: 6-31G(d) (5D, 7F)
 Ernie: Thresh=  0.10000D-02 Tol=  0.10000D-05 Strict=F.
 There are    59 symmetry adapted cartesian basis functions of A   symmetry.
 There are    56 symmetry adapted basis functions of A   symmetry.
    56 basis functions,   112 primitive gaussians,    59 cartesian basis functions
    14 alpha electrons       13 beta electrons
       nuclear repulsion energy        76.6212813518 Hartrees.
 IExCor=  402 DFT=T Ex=B Corr=LYP ExCW=0 ScaHFX=  0.000000
 ScaDFX=  1.000000  1.000000  1.000000  1.000000 ScalE2=  1.000000  1.000000
 IRadAn=      5 IRanWt=     -1 IRanGd=            0 ICorTp=0 IEmpDi=  4
 NAtoms=   10 NActive=   10 NUniq=   10 SFac= 1.00D+00 NAtFMM=   60 NAOKFM=F Big=F
 Integral buffers will be    131072 words long.
 Raffenetti 2 integral format.
 Two-electron integral symmetry is turned on.
 Leave Link  301 at Wed Oct  7 14:49:46 2020, MaxMem=  2684354560 cpu:               2.7 elap:               0.6
 (Enter /udrive/faculty/rpeverati/g16/g16/l302.exe)
 NPDir=0 NMtPBC=     1 NCelOv=     1 NCel=       1 NClECP=     1 NCelD=      1
         NCelK=      1 NCelE2=     1 NClLst=     1 CellRange=     0.0.
 One-electron integrals computed using PRISM.
 One-electron integral symmetry used in STVInt
 NBasis=    56 RedAO= T EigKep=  7.11D-03  NBF=    56
 NBsUse=    56 1.00D-06 EigRej= -1.00D+00 NBFU=    56
 Precomputing XC quadrature grid using
 IXCGrd= 4 IRadAn=           5 IRanWt=          -1 IRanGd=           0 AccXCQ= 0.00D+00.
 Generated NRdTot=       0 NPtTot=           0 NUsed=           0 NTot=          32
 NSgBfM=    59    59    59    59    59 MxSgAt=    10 MxSgA2=    10.
 Leave Link  302 at Wed Oct  7 14:49:47 2020, MaxMem=  2684354560 cpu:               4.5 elap:               0.8
 (Enter /udrive/faculty/rpeverati/g16/g16/l303.exe)
 DipDrv:  MaxL=1.
 Leave Link  303 at Wed Oct  7 14:49:48 2020, MaxMem=  2684354560 cpu:               1.4 elap:               0.6
 (Enter /udrive/faculty/rpeverati/g16/g16/l401.exe)
 SCF N**3 symmetry information disabled.
 ExpMin= 1.61D-01 ExpMax= 5.48D+03 ExpMxC= 8.25D+02 IAcc=3 IRadAn=         5 AccDes= 0.00D+00
 Harris functional with IExCor=  402 and IRadAn=       5 diagonalized for initial guess.
 HarFok:  IExCor=  402 AccDes= 0.00D+00 IRadAn=         5 IDoV= 1 UseB2=F ITyADJ=14
 ICtDFT=  3500011 ScaDFX=  1.000000  1.000000  1.000000  1.000000
 FoFCou: FMM=F IPFlag=           0 FMFlag=      100000 FMFlg1=           0
         NFxFlg=           0 DoJE=T BraDBF=F KetDBF=T FulRan=T
         wScrn=  0.000000 ICntrl=       500 IOpCl=  0 I1Cent=   200000004 NGrid=           0
         NMat0=    1 NMatS0=      1 NMatT0=    0 NMatD0=    1 NMtDS0=    0 NMtDT0=    0
 Petite list used in FoFCou.
 Harris En= -155.578804631372    
 JPrj=0 DoOrth=F DoCkMO=F.
 Initial guess <Sx>= 0.0000 <Sy>= 0.0000 <Sz>= 0.5000 <S**2>= 0.7500 S= 0.5000
 Leave Link  401 at Wed Oct  7 14:49:50 2020, MaxMem=  2684354560 cpu:               9.9 elap:               1.3
 (Enter /udrive/faculty/rpeverati/g16/g16/l502.exe)
 Keep J ints in memory in canonical form, NReq=11833192.
 FoFCou: FMM=F IPFlag=           0 FMFlag=           0 FMFlg1=           0
         NFxFlg=           0 DoJE=F BraDBF=F KetDBF=F FulRan=T
         wScrn=  0.000000 ICntrl=       600 IOpCl=  0 I1Cent=           0 NGrid=           0
         NMat0=    1 NMatS0=   1596 NMatT0=    0 NMatD0=    1 NMtDS0=    0 NMtDT0=    0
 Symmetry not used in FoFCou.
 Two-electron integral symmetry not used.
 UHF open shell SCF:
 Using DIIS extrapolation, IDIIS=  1040.
 NGot=  2684354560 LenX=  2683071566 LenY=  2683067644
 Requested convergence on RMS density matrix=1.00D-08 within 120 cycles.
 Requested convergence on MAX density matrix=1.00D-06.
 Requested convergence on             energy=1.00D-06.
 No special actions if energy rises.
 Integral accuracy reduced to 1.0D-05 until final iterations.

 Cycle   1  Pass 0  IDiag  1:
 E= -155.339861661743    
 DIIS: error= 5.21D-02 at cycle   1 NSaved=   1.
 NSaved= 1 IEnMin= 1 EnMin= -155.339861661743     IErMin= 1 ErrMin= 5.21D-02
 ErrMax= 5.21D-02  0.00D+00 EMaxC= 1.00D-01 BMatC= 5.08D-01 BMatP= 5.08D-01
 IDIUse=3 WtCom= 4.79D-01 WtEn= 5.21D-01
 Coeff-Com:  0.100D+01
 Coeff-En:   0.100D+01
 Coeff:      0.100D+01
 Gap=     0.183 Goal=   None    Shift=    0.000
 Gap=     0.029 Goal=   None    Shift=    0.000
 GapD=    0.029 DampG=0.250 DampE=0.500 DampFc=0.2500 IDamp=-1.
 Damping current iteration by 2.50D-01
 RMSDP=1.65D-02 MaxDP=1.58D-01              OVMax= 2.44D-01

 Cycle   2  Pass 0  IDiag  1:
 E= -155.389558500529     Delta-E=       -0.049696838785 Rises=F Damp=T
 DIIS: error= 2.32D-02 at cycle   2 NSaved=   2.
 NSaved= 2 IEnMin= 2 EnMin= -155.389558500529     IErMin= 2 ErrMin= 2.32D-02
 ErrMax= 2.32D-02  0.00D+00 EMaxC= 1.00D-01 BMatC= 7.39D-02 BMatP= 5.08D-01
 IDIUse=3 WtCom= 7.68D-01 WtEn= 2.32D-01
 Coeff-Com: -0.539D+00 0.154D+01
 Coeff-En:   0.000D+00 0.100D+01
 Coeff:     -0.414D+00 0.141D+01
 Gap=     0.278 Goal=   None    Shift=    0.000
 Gap=     0.053 Goal=   None    Shift=    0.000
 RMSDP=3.73D-03 MaxDP=4.61D-02 DE=-4.97D-02 OVMax= 1.73D-01

 Cycle   3  Pass 0  IDiag  1:
 E= -155.464994981178     Delta-E=       -0.075436480650 Rises=F Damp=F
 DIIS: error= 1.30D-02 at cycle   3 NSaved=   3.
 NSaved= 3 IEnMin= 3 EnMin= -155.464994981178     IErMin= 3 ErrMin= 1.30D-02
 ErrMax= 1.30D-02  0.00D+00 EMaxC= 1.00D-01 BMatC= 2.36D-02 BMatP= 7.39D-02
 IDIUse=3 WtCom= 8.70D-01 WtEn= 1.30D-01
 Coeff-Com: -0.237D+00 0.795D+00 0.442D+00
 Coeff-En:   0.000D+00 0.000D+00 0.100D+01
 Coeff:     -0.206D+00 0.691D+00 0.515D+00
 Gap=     0.276 Goal=   None    Shift=    0.000
 Gap=     0.042 Goal=   None    Shift=    0.000
 RMSDP=1.98D-03 MaxDP=2.41D-02 DE=-7.54D-02 OVMax= 7.77D-02

 Cycle   4  Pass 0  IDiag  1:
 E= -155.468889770655     Delta-E=       -0.003894789477 Rises=F Damp=F
 DIIS: error= 7.39D-03 at cycle   4 NSaved=   4.
 NSaved= 4 IEnMin= 4 EnMin= -155.468889770655     IErMin= 4 ErrMin= 7.39D-03
 ErrMax= 7.39D-03  0.00D+00 EMaxC= 1.00D-01 BMatC= 1.08D-02 BMatP= 2.36D-02
 IDIUse=3 WtCom= 9.26D-01 WtEn= 7.39D-02
 Coeff-Com:  0.322D-01 0.362D-01 0.418D+00 0.514D+00
 Coeff-En:   0.000D+00 0.000D+00 0.329D+00 0.671D+00
 Coeff:      0.299D-01 0.335D-01 0.411D+00 0.525D+00
 Gap=     0.283 Goal=   None    Shift=    0.000
 Gap=     0.052 Goal=   None    Shift=    0.000
 RMSDP=8.93D-04 MaxDP=1.07D-02 DE=-3.89D-03 OVMax= 3.75D-02

 Cycle   5  Pass 0  IDiag  1:
 E= -155.471654327937     Delta-E=       -0.002764557282 Rises=F Damp=F
 DIIS: error= 6.25D-04 at cycle   5 NSaved=   5.
 NSaved= 5 IEnMin= 5 EnMin= -155.471654327937     IErMin= 5 ErrMin= 6.25D-04
 ErrMax= 6.25D-04  0.00D+00 EMaxC= 1.00D-01 BMatC= 6.13D-05 BMatP= 1.08D-02
 IDIUse=3 WtCom= 9.94D-01 WtEn= 6.25D-03
 Coeff-Com:  0.188D-01-0.399D-01 0.631D-01 0.134D+00 0.824D+00
 Coeff-En:   0.000D+00 0.000D+00 0.000D+00 0.000D+00 0.100D+01
 Coeff:      0.187D-01-0.397D-01 0.627D-01 0.133D+00 0.826D+00
 Gap=     0.274 Goal=   None    Shift=    0.000
 Gap=     0.052 Goal=   None    Shift=    0.000
 RMSDP=8.18D-05 MaxDP=1.11D-03 DE=-2.76D-03 OVMax= 2.79D-03

 Cycle   6  Pass 0  IDiag  1:
 E= -155.471670507627     Delta-E=       -0.000016179690 Rises=F Damp=F
 DIIS: error= 9.91D-05 at cycle   6 NSaved=   6.
 NSaved= 6 IEnMin= 6 EnMin= -155.471670507627     IErMin= 6 ErrMin= 9.91D-05
 ErrMax= 9.91D-05  0.00D+00 EMaxC= 1.00D-01 BMatC= 3.08D-06 BMatP= 6.13D-05
 IDIUse=1 WtCom= 1.00D+00 WtEn= 0.00D+00
 Coeff-Com:  0.967D-03-0.790D-02-0.103D-01 0.809D-03 0.177D+00 0.839D+00
 Coeff:      0.967D-03-0.790D-02-0.103D-01 0.809D-03 0.177D+00 0.839D+00
 Gap=     0.274 Goal=   None    Shift=    0.000
 Gap=     0.052 Goal=   None    Shift=    0.000
 RMSDP=2.31D-05 MaxDP=3.48D-04 DE=-1.62D-05 OVMax= 3.99D-04

 Cycle   7  Pass 0  IDiag  1:
 E= -155.471671245104     Delta-E=       -0.000000737477 Rises=F Damp=F
 DIIS: error= 6.64D-05 at cycle   7 NSaved=   7.
 NSaved= 7 IEnMin= 7 EnMin= -155.471671245104     IErMin= 7 ErrMin= 6.64D-05
 ErrMax= 6.64D-05  0.00D+00 EMaxC= 1.00D-01 BMatC= 9.94D-07 BMatP= 3.08D-06
 IDIUse=1 WtCom= 1.00D+00 WtEn= 0.00D+00
 Coeff-Com: -0.156D-02 0.659D-03-0.110D-01-0.131D-01-0.277D-02 0.403D+00
 Coeff-Com:  0.624D+00
 Coeff:     -0.156D-02 0.659D-03-0.110D-01-0.131D-01-0.277D-02 0.403D+00
 Coeff:      0.624D+00
 Gap=     0.274 Goal=   None    Shift=    0.000
 Gap=     0.052 Goal=   None    Shift=    0.000
 RMSDP=9.44D-06 MaxDP=1.38D-04 DE=-7.37D-07 OVMax= 2.03D-04

 Initial convergence to 1.0D-05 achieved.  Increase integral accuracy.
 Cycle   8  Pass 1  IDiag  1:
 E= -155.471678025479     Delta-E=       -0.000006780375 Rises=F Damp=F
 DIIS: error= 2.40D-05 at cycle   1 NSaved=   1.
 NSaved= 1 IEnMin= 1 EnMin= -155.471678025479     IErMin= 1 ErrMin= 2.40D-05
 ErrMax= 2.40D-05  0.00D+00 EMaxC= 1.00D-01 BMatC= 1.18D-07 BMatP= 1.18D-07
 IDIUse=1 WtCom= 1.00D+00 WtEn= 0.00D+00
 Coeff-Com:  0.100D+01
 Coeff:      0.100D+01
 Gap=     0.275 Goal=   None    Shift=    0.000
 Gap=     0.052 Goal=   None    Shift=    0.000
 RMSDP=9.44D-06 MaxDP=1.38D-04 DE=-6.78D-06 OVMax= 1.30D-04

 Cycle   9  Pass 1  IDiag  1:
 E= -155.471677998230     Delta-E=        0.000000027250 Rises=F Damp=F
 DIIS: error= 3.33D-05 at cycle   2 NSaved=   2.
 NSaved= 2 IEnMin= 1 EnMin= -155.471678025479     IErMin= 1 ErrMin= 2.40D-05
 ErrMax= 3.33D-05  0.00D+00 EMaxC= 1.00D-01 BMatC= 2.36D-07 BMatP= 1.18D-07
 IDIUse=1 WtCom= 1.00D+00 WtEn= 0.00D+00
 Coeff-Com:  0.588D+00 0.412D+00
 Coeff:      0.588D+00 0.412D+00
 Gap=     0.274 Goal=   None    Shift=    0.000
 Gap=     0.052 Goal=   None    Shift=    0.000
 RMSDP=3.87D-06 MaxDP=5.05D-05 DE= 2.72D-08 OVMax= 7.99D-05

 Cycle  10  Pass 1  IDiag  1:
 E= -155.471678057101     Delta-E=       -0.000000058871 Rises=F Damp=F
 DIIS: error= 3.19D-06 at cycle   3 NSaved=   3.
 NSaved= 3 IEnMin= 3 EnMin= -155.471678057101     IErMin= 3 ErrMin= 3.19D-06
 ErrMax= 3.19D-06  0.00D+00 EMaxC= 1.00D-01 BMatC= 1.83D-09 BMatP= 1.18D-07
 IDIUse=1 WtCom= 1.00D+00 WtEn= 0.00D+00
 Coeff-Com:  0.178D+00 0.145D+00 0.676D+00
 Coeff:      0.178D+00 0.145D+00 0.676D+00
 Gap=     0.274 Goal=   None    Shift=    0.000
 Gap=     0.052 Goal=   None    Shift=    0.000
 RMSDP=5.58D-07 MaxDP=6.18D-06 DE=-5.89D-08 OVMax= 2.30D-05

 Cycle  11  Pass 1  IDiag  1:
 E= -155.471678057347     Delta-E=       -0.000000000247 Rises=F Damp=F
 DIIS: error= 2.83D-06 at cycle   4 NSaved=   4.
 NSaved= 4 IEnMin= 4 EnMin= -155.471678057347     IErMin= 4 ErrMin= 2.83D-06
 ErrMax= 2.83D-06  0.00D+00 EMaxC= 1.00D-01 BMatC= 1.11D-09 BMatP= 1.83D-09
 IDIUse=1 WtCom= 1.00D+00 WtEn= 0.00D+00
 Coeff-Com:  0.233D-02 0.152D-01 0.442D+00 0.540D+00
 Coeff:      0.233D-02 0.152D-01 0.442D+00 0.540D+00
 Gap=     0.274 Goal=   None    Shift=    0.000
 Gap=     0.052 Goal=   None    Shift=    0.000
 RMSDP=4.12D-07 MaxDP=6.82D-06 DE=-2.47D-10 OVMax= 1.84D-05

 Cycle  12  Pass 1  IDiag  1:
 E= -155.471678057516     Delta-E=       -0.000000000169 Rises=F Damp=F
 DIIS: error= 1.78D-06 at cycle   5 NSaved=   5.
 NSaved= 5 IEnMin= 5 EnMin= -155.471678057516     IErMin= 5 ErrMin= 1.78D-06
 ErrMax= 1.78D-06  0.00D+00 EMaxC= 1.00D-01 BMatC= 5.16D-10 BMatP= 1.11D-09
 IDIUse=1 WtCom= 1.00D+00 WtEn= 0.00D+00
 Coeff-Com: -0.689D-01-0.441D-01 0.100D+00 0.468D+00 0.545D+00
 Coeff:     -0.689D-01-0.441D-01 0.100D+00 0.468D+00 0.545D+00
 Gap=     0.274 Goal=   None    Shift=    0.000
 Gap=     0.052 Goal=   None    Shift=    0.000
 RMSDP=1.95D-07 MaxDP=2.47D-06 DE=-1.69D-10 OVMax= 6.50D-06

 Cycle  13  Pass 1  IDiag  1:
 E= -155.471678057644     Delta-E=       -0.000000000128 Rises=F Damp=F
 DIIS: error= 1.08D-07 at cycle   6 NSaved=   6.
 NSaved= 6 IEnMin= 6 EnMin= -155.471678057644     IErMin= 6 ErrMin= 1.08D-07
 ErrMax= 1.08D-07  0.00D+00 EMaxC= 1.00D-01 BMatC= 3.02D-12 BMatP= 5.16D-10
 IDIUse=1 WtCom= 1.00D+00 WtEn= 0.00D+00
 Coeff-Com: -0.199D-01-0.133D-01 0.625D-02 0.118D+00 0.137D+00 0.772D+00
 Coeff:     -0.199D-01-0.133D-01 0.625D-02 0.118D+00 0.137D+00 0.772D+00
 Gap=     0.274 Goal=   None    Shift=    0.000
 Gap=     0.052 Goal=   None    Shift=    0.000
 RMSDP=2.40D-08 MaxDP=3.34D-07 DE=-1.28D-10 OVMax= 4.31D-07

 Cycle  14  Pass 1  IDiag  1:
 E= -155.471678057645     Delta-E=       -0.000000000001 Rises=F Damp=F
 DIIS: error= 8.20D-08 at cycle   7 NSaved=   7.
 NSaved= 7 IEnMin= 7 EnMin= -155.471678057645     IErMin= 7 ErrMin= 8.20D-08
 ErrMax= 8.20D-08  0.00D+00 EMaxC= 1.00D-01 BMatC= 1.14D-12 BMatP= 3.02D-12
 IDIUse=1 WtCom= 1.00D+00 WtEn= 0.00D+00
 Coeff-Com: -0.334D-02-0.248D-02-0.710D-02 0.149D-01 0.183D-01 0.421D+00
 Coeff-Com:  0.559D+00
 Coeff:     -0.334D-02-0.248D-02-0.710D-02 0.149D-01 0.183D-01 0.421D+00
 Coeff:      0.559D+00
 Gap=     0.274 Goal=   None    Shift=    0.000
 Gap=     0.052 Goal=   None    Shift=    0.000
 RMSDP=1.03D-08 MaxDP=1.39D-07 DE=-1.14D-12 OVMax= 1.51D-07

 Cycle  15  Pass 1  IDiag  1:
 E= -155.471678057646     Delta-E=       -0.000000000001 Rises=F Damp=F
 DIIS: error= 1.22D-08 at cycle   8 NSaved=   8.
 NSaved= 8 IEnMin= 8 EnMin= -155.471678057646     IErMin= 8 ErrMin= 1.22D-08
 ErrMax= 1.22D-08  0.00D+00 EMaxC= 1.00D-01 BMatC= 4.42D-14 BMatP= 1.14D-12
 IDIUse=1 WtCom= 1.00D+00 WtEn= 0.00D+00
 Coeff-Com:  0.700D-03 0.353D-03-0.302D-02-0.643D-02-0.579D-02 0.715D-01
 Coeff-Com:  0.207D+00 0.736D+00
 Coeff:      0.700D-03 0.353D-03-0.302D-02-0.643D-02-0.579D-02 0.715D-01
 Coeff:      0.207D+00 0.736D+00
 Gap=     0.274 Goal=   None    Shift=    0.000
 Gap=     0.052 Goal=   None    Shift=    0.000
 RMSDP=2.19D-09 MaxDP=2.70D-08 DE=-7.39D-13 OVMax= 3.66D-08

 SCF Done:  E(UB-LYP) =  -155.471678058     A.U. after   15 cycles
            NFock= 15  Conv=0.22D-08     -V/T= 2.0050
 <Sx>= 0.0000 <Sy>= 0.0000 <Sz>= 0.5000 <S**2>= 0.7530 S= 0.5015
 <L.S>= 0.000000000000E+00
 KE= 1.546910246896D+02 PE=-5.168116266395D+02 EE= 1.300276425405D+02
 Annihilation of the first spin contaminant:
 S**2 before annihilation     0.7530,   after     0.7500
 Leave Link  502 at Wed Oct  7 14:49:57 2020, MaxMem=  2684354560 cpu:              70.7 elap:               6.5
 (Enter /udrive/faculty/rpeverati/g16/g16/l508.exe)
 QCSCF skips out because SCF is already converged.
 Leave Link  508 at Wed Oct  7 14:49:58 2020, MaxMem=  2684354560 cpu:               0.7 elap:               0.6
 (Enter /udrive/faculty/rpeverati/g16/g16/l601.exe)
 Copying SCF densities to generalized density rwf, IOpCl= 1 IROHF=0.

 **********************************************************************

            Population analysis using the SCF density.

 **********************************************************************

 Orbital symmetries:
 Alpha Orbitals:
       Occupied  (A) (A) (A) (A) (A) (A) (A) (A) (A) (A) (A) (A)
                 (A) (A)
       Virtual   (A) (A) (A) (A) (A) (A) (A) (A) (A) (A) (A) (A)
                 (A) (A) (A) (A) (A) (A) (A) (A) (A) (A) (A) (A)
                 (A) (A) (A) (A) (A) (A) (A) (A) (A) (A) (A) (A)
                 (A) (A) (A) (A) (A) (A)
 Beta  Orbitals:
       Occupied  (A) (A) (A) (A) (A) (A) (A) (A) (A) (A) (A) (A)
                 (A)
       Virtual   (A) (A) (A) (A) (A) (A) (A) (A) (A) (A) (A) (A)
                 (A) (A) (A) (A) (A) (A) (A) (A) (A) (A) (A) (A)
                 (A) (A) (A) (A) (A) (A) (A) (A) (A) (A) (A) (A)
                 (A) (A) (A) (A) (A) (A) (A)
 The electronic state is 2-A.
 Alpha  occ. eigenvalues --  -18.78726  -9.92558  -9.91217  -0.86763  -0.68775
 Alpha  occ. eigenvalues --   -0.55924  -0.41981  -0.39733  -0.36045  -0.33942
 Alpha  occ. eigenvalues --   -0.32478  -0.30992  -0.21669  -0.20869
 Alpha virt. eigenvalues --    0.06579   0.09035   0.12248   0.12608   0.14316
 Alpha virt. eigenvalues --    0.16094   0.20228   0.27030   0.45966   0.49141
 Alpha virt. eigenvalues --    0.50432   0.55795   0.58669   0.61085   0.76423
 Alpha virt. eigenvalues --    0.79150   0.81731   0.82789   0.85494   0.87139
 Alpha virt. eigenvalues --    0.88833   0.90150   0.94972   1.03715   1.12252
 Alpha virt. eigenvalues --    1.38118   1.42773   1.46776   1.62565   1.68364
 Alpha virt. eigenvalues --    1.71825   1.73770   1.78689   1.88537   1.88770
 Alpha virt. eigenvalues --    1.99798   2.17469   2.23152   2.28170   2.35421
 Alpha virt. eigenvalues --    2.42072   2.54791
  Beta  occ. eigenvalues --  -18.77292  -9.91960  -9.91219  -0.83516  -0.67975
  Beta  occ. eigenvalues --   -0.55048  -0.40211  -0.39402  -0.35080  -0.33148
  Beta  occ. eigenvalues --   -0.30817  -0.30404  -0.20192
  Beta virt. eigenvalues --   -0.14969   0.07034   0.09376   0.12653   0.12834
  Beta virt. eigenvalues --    0.14535   0.16375   0.20710   0.28486   0.46302
  Beta virt. eigenvalues --    0.49301   0.51049   0.57692   0.58973   0.61575
  Beta virt. eigenvalues --    0.77523   0.79917   0.81981   0.83258   0.85987
  Beta virt. eigenvalues --    0.87766   0.89671   0.90872   0.96270   1.06357
  Beta virt. eigenvalues --    1.12928   1.39059   1.43846   1.47999   1.64658
  Beta virt. eigenvalues --    1.71764   1.72512   1.77010   1.81632   1.89272
  Beta virt. eigenvalues --    1.89947   2.01360   2.18079   2.23692   2.28612
  Beta virt. eigenvalues --    2.37116   2.43899   2.56402
          Condensed to atoms (all electrons):
               1          2          3          4          5          6
     1  C    4.968040   0.372809   0.000528   0.378641   0.383013   0.370019
     2  C    0.372809   5.236405  -0.065257  -0.031648  -0.033607  -0.031926
     3  O    0.000528  -0.065257   8.336465   0.000992   0.000347   0.000035
     4  H    0.378641  -0.031648   0.000992   0.567754  -0.031121  -0.031345
     5  H    0.383013  -0.033607   0.000347  -0.031121   0.565084  -0.032703
     6  H    0.370019  -0.031926   0.000035  -0.031345  -0.032703   0.584136
     7  H   -0.031396   0.359647   0.000041  -0.004426   0.004928  -0.003307
     8  H   -0.033453   0.360370  -0.000529   0.004906  -0.004343  -0.002576
     9  H   -0.017265   0.238231   0.118016  -0.003217  -0.003332   0.002758
    10  H   -0.000124   0.017799   0.204023   0.000006  -0.000019  -0.000003
               7          8          9         10
     1  C   -0.031396  -0.033453  -0.017265  -0.000124
     2  C    0.359647   0.360370   0.238231   0.017799
     3  O    0.000041  -0.000529   0.118016   0.204023
     4  H   -0.004426   0.004906  -0.003217   0.000006
     5  H    0.004928  -0.004343  -0.003332  -0.000019
     6  H   -0.003307  -0.002576   0.002758  -0.000003
     7  H    0.583534  -0.034976  -0.018288  -0.000715
     8  H   -0.034976   0.573618  -0.016429  -0.000223
     9  H   -0.018288  -0.016429   0.433000  -0.033276
    10  H   -0.000715  -0.000223  -0.033276   0.448752
          Atomic-Atomic Spin Densities.
               1          2          3          4          5          6
     1  C   -0.001026  -0.030655   0.004180   0.003686   0.003502   0.005928
     2  C   -0.030655   0.530110  -0.083556  -0.004498  -0.004050  -0.006254
     3  O    0.004180  -0.083556   0.733062   0.000584   0.000479  -0.000149
     4  H    0.003686  -0.004498   0.000584   0.005842   0.001221  -0.003903
     5  H    0.003502  -0.004050   0.000479   0.001221   0.004743  -0.003310
     6  H    0.005928  -0.006254  -0.000149  -0.003903  -0.003310   0.039785
     7  H    0.002907  -0.012521   0.002861   0.000777   0.000145  -0.001451
     8  H    0.003721  -0.015537   0.003125   0.000230   0.000785  -0.001797
     9  H   -0.000111   0.036229  -0.032873   0.000075   0.000143  -0.000238
    10  H   -0.000213   0.004950  -0.005174  -0.000042  -0.000017   0.000010
               7          8          9         10
     1  C    0.002907   0.003721  -0.000111  -0.000213
     2  C   -0.012521  -0.015537   0.036229   0.004950
     3  O    0.002861   0.003125  -0.032873  -0.005174
     4  H    0.000777   0.000230   0.000075  -0.000042
     5  H    0.000145   0.000785   0.000143  -0.000017
     6  H   -0.001451  -0.001797  -0.000238   0.000010
     7  H   -0.005788   0.003888   0.001447  -0.000369
     8  H    0.003888  -0.000845   0.001144  -0.000255
     9  H    0.001447   0.001144  -0.047024   0.003384
    10  H   -0.000369  -0.000255   0.003384  -0.015714
 Mulliken charges and spin densities:
               1          2
     1  C   -0.390811  -0.008082
     2  C   -0.422823   0.414220
     3  O   -0.594662   0.622540
     4  H    0.149458   0.003972
     5  H    0.151752   0.003640
     6  H    0.144911   0.028622
     7  H    0.144959  -0.008105
     8  H    0.153634  -0.005543
     9  H    0.299802  -0.037824
    10  H    0.363780  -0.013439
 Sum of Mulliken charges =  -0.00000   1.00000
 Mulliken charges and spin densities with hydrogens summed into heavy atoms:
               1          2
     1  C    0.055310   0.028151
     2  C    0.175572   0.362747
     3  O   -0.230882   0.609101
 Electronic spatial extent (au):  <R**2>=            301.1138
 Charge=             -0.0000 electrons
 Dipole moment (field-independent basis, Debye):
    X=              1.1534    Y=              1.5224    Z=              0.7778  Tot=              2.0622
 Quadrupole moment (field-independent basis, Debye-Ang):
   XX=            -20.3711   YY=            -20.4855   ZZ=            -20.2379
   XY=             -2.8563   XZ=             -2.0830   YZ=              0.4659
 Traceless Quadrupole moment (field-independent basis, Debye-Ang):
   XX=             -0.0062   YY=             -0.1207   ZZ=              0.1269
   XY=             -2.8563   XZ=             -2.0830   YZ=              0.4659
 Octapole moment (field-independent basis, Debye-Ang**2):
  XXX=            -10.0467  YYY=             -0.3532  ZZZ=              0.3652  XYY=             -2.3943
  XXY=              5.5033  XXZ=              4.8758  XZZ=             -2.2999  YZZ=              0.1456
  YYZ=             -0.0412  XYZ=             -1.0045
 Hexadecapole moment (field-independent basis, Debye-Ang**3):
 XXXX=           -248.5547 YYYY=            -70.5999 ZZZZ=            -32.9984 XXXY=             -8.7811
 XXXZ=            -11.6413 YYYX=              0.4242 YYYZ=              0.4798 ZZZX=             -1.4113
 ZZZY=              0.2367 XXYY=            -56.9718 XXZZ=            -50.5698 YYZZ=            -15.3639
 XXYZ=              2.2490 YYXZ=             -0.4255 ZZXY=             -0.4459
 N-N= 7.662128135176D+01 E-N=-5.168116257806D+02  KE= 1.546910246896D+02
                          Isotropic Fermi Contact Couplings
        Atom                 a.u.       MegaHertz       Gauss      10(-4) cm-1
     1  C(13)             -0.00625      -7.03054      -2.50867      -2.34513
     2  C(13)              0.11964     134.49822      47.99231      44.86378
     3  O(17)              0.10831     -65.65962     -23.42898     -21.90169
     4  H(1)               0.00210       9.40528       3.35604       3.13727
     5  H(1)               0.00204       9.11940       3.25403       3.04190
     6  H(1)               0.01582      70.72942      25.23802      23.59280
     7  H(1)              -0.00202      -9.04435      -3.22725      -3.01687
     8  H(1)              -0.00101      -4.49849      -1.60517      -1.50053
     9  H(1)              -0.00195      -8.70134      -3.10485      -2.90245
    10  H(1)              -0.00865     -38.65773     -13.79404     -12.89483
 --------------------------------------------------------
       Center         ----  Spin Dipole Couplings  ----
                      3XX-RR        3YY-RR        3ZZ-RR
 --------------------------------------------------------
     1   Atom        0.030545     -0.011082     -0.019463
     2   Atom        0.376766     -0.124960     -0.251806
     3   Atom        1.556835     -0.364099     -1.192736
     4   Atom        0.001604      0.001329     -0.002933
     5   Atom        0.002003      0.001753     -0.003756
     6   Atom        0.009111     -0.002043     -0.007068
     7   Atom       -0.007112     -0.005665      0.012777
     8   Atom       -0.007363     -0.007377      0.014741
     9   Atom        0.164960     -0.058821     -0.106139
    10   Atom        0.001693      0.027042     -0.028735
 --------------------------------------------------------
                        XY            XZ            YZ
 --------------------------------------------------------
     1   Atom       -0.008090      0.002019     -0.000472
     2   Atom        0.284338      0.012696      0.005992
     3   Atom        1.504968      0.144669      0.093396
     4   Atom       -0.005363      0.004374     -0.005877
     5   Atom       -0.005866     -0.003961      0.005348
     6   Atom       -0.000090      0.000551     -0.000134
     7   Atom        0.010648     -0.000599      0.029874
     8   Atom        0.011926     -0.000427     -0.028782
     9   Atom        0.114822      0.001139      0.001043
    10   Atom       -0.041411     -0.047101      0.076675
 --------------------------------------------------------


 ---------------------------------------------------------------------------------
              Anisotropic Spin Dipole Couplings in Principal Axis System
 ---------------------------------------------------------------------------------

       Atom             a.u.   MegaHertz   Gauss  10(-4) cm-1        Axes

              Baa    -0.0195    -2.623    -0.936    -0.875 -0.0370  0.0203  0.9991
     1 C(13)  Bbb    -0.0126    -1.690    -0.603    -0.564  0.1849  0.9827 -0.0132
              Bcc     0.0321     4.314     1.539     1.439  0.9821 -0.1842  0.0401
 
              Baa    -0.2533   -33.994   -12.130   -11.339 -0.4010  0.8969 -0.1863
     2 C(13)  Bbb    -0.2520   -33.819   -12.067   -11.281 -0.0932  0.1623  0.9823
              Bcc     0.5053    67.813    24.197    22.620  0.9113  0.4113  0.0185
 
              Baa    -1.2087    87.461    31.208    29.174  0.2195 -0.4848  0.8467
     3 O(17)  Bbb    -1.1812    85.473    30.499    28.511 -0.4298  0.7310  0.5300
              Bcc     2.3899  -172.934   -61.707   -57.685  0.8758  0.4802  0.0479
 
              Baa    -0.0071    -3.791    -1.353    -1.264 -0.1016  0.5244  0.8454
     4 H(1)   Bbb    -0.0036    -1.917    -0.684    -0.639  0.7896  0.5594 -0.2521
              Bcc     0.0107     5.708     2.037     1.904 -0.6051  0.6419 -0.4710
 
              Baa    -0.0070    -3.756    -1.340    -1.253  0.0668 -0.4856  0.8716
     5 H(1)   Bbb    -0.0037    -1.975    -0.705    -0.659  0.7743  0.5762  0.2617
              Bcc     0.0107     5.730     2.045     1.911 -0.6293  0.6574  0.4145
 
              Baa    -0.0071    -3.783    -1.350    -1.262 -0.0338  0.0259  0.9991
     6 H(1)   Bbb    -0.0020    -1.089    -0.389    -0.363  0.0094  0.9996 -0.0256
              Bcc     0.0091     4.872     1.738     1.625  0.9994 -0.0085  0.0340
 
              Baa    -0.0311   -16.594    -5.921    -5.535 -0.3552  0.7704 -0.5294
     7 H(1)   Bbb    -0.0045    -2.423    -0.865    -0.808  0.9244  0.2051 -0.3218
              Bcc     0.0356    19.017     6.786     6.343  0.1393  0.6036  0.7850
 
              Baa    -0.0311   -16.618    -5.930    -5.543 -0.3842  0.7837  0.4880
     8 H(1)   Bbb    -0.0046    -2.445    -0.872    -0.815  0.9078  0.2244  0.3543
              Bcc     0.0357    19.063     6.802     6.359 -0.1682 -0.5792  0.7977
 
              Baa    -0.1075   -57.335   -20.459   -19.125 -0.3599  0.8576 -0.3673
     9 H(1)   Bbb    -0.1059   -56.525   -20.169   -18.855 -0.1467  0.3368  0.9301
              Bcc     0.2134   113.860    40.628    37.980  0.9214  0.3887  0.0046
 
              Baa    -0.0858   -45.782   -16.336   -15.271  0.2210 -0.4913  0.8425
    10 H(1)   Bbb    -0.0283   -15.101    -5.388    -5.037  0.8490  0.5220  0.0817
              Bcc     0.1141    60.883    21.725    20.308 -0.4799  0.6972  0.5325
 

 ---------------------------------------------------------------------------------

 No NMR shielding tensors so no spin-rotation constants.
 Leave Link  601 at Wed Oct  7 14:49:59 2020, MaxMem=  2684354560 cpu:               7.6 elap:               1.2
 (Enter /udrive/faculty/rpeverati/g16/g16/l701.exe)
 ... and contract with generalized density number  0.
 Compute integral first derivatives.
 Leave Link  701 at Wed Oct  7 14:50:00 2020, MaxMem=  2684354560 cpu:               4.4 elap:               0.9
 (Enter /udrive/faculty/rpeverati/g16/g16/l702.exe)
 L702 exits ... SP integral derivatives will be done elsewhere.
 Leave Link  702 at Wed Oct  7 14:50:01 2020, MaxMem=  2684354560 cpu:               2.1 elap:               0.7
 (Enter /udrive/faculty/rpeverati/g16/g16/l703.exe)
 Integral derivatives from FoFJK, PRISM(SPDF).
 Compute integral first derivatives, UseDBF=F ICtDFT=           0.
 Calling FoFJK, ICntrl=      2527 FMM=F ISym2X=0 I1Cent= 0 IOpClX= 0 NMat=1 NMatS=1 NMatT=0.
 FoFJK:  IHMeth= 1 ICntrl=    2527 DoSepK=F KAlg= 0 I1Cent=           0 FoldK=F
 IRaf=         0 NMat=       1 IRICut=       1 DoRegI=T DoRafI=F ISym2E= 0 IDoP0=0 IntGTp=1.
 FoFCou: FMM=F IPFlag=           0 FMFlag=      100000 FMFlg1=         800
         NFxFlg=           0 DoJE=F BraDBF=F KetDBF=F FulRan=T
         wScrn=  0.000000 ICntrl=      2527 IOpCl=  0 I1Cent=           0 NGrid=           0
         NMat0=    1 NMatS0=      1 NMatT0=    0 NMatD0=    1 NMtDS0=    0 NMtDT0=    0
 Symmetry not used in FoFCou.
 Leave Link  703 at Wed Oct  7 14:50:03 2020, MaxMem=  2684354560 cpu:              17.7 elap:               2.0
 (Enter /udrive/faculty/rpeverati/g16/g16/l716.exe)
 Dipole        = 4.53776777D-01 5.98943416D-01 3.06009898D-01
 ***** Axes restored to original set *****
 -------------------------------------------------------------------
 Center     Atomic                   Forces (Hartrees/Bohr)
 Number     Number              X              Y              Z
 -------------------------------------------------------------------
      1        6           0.001858232   -0.000035576    0.003828533
      2        6          -0.002749492    0.000366609   -0.003350804
      3        8           0.003419402   -0.010324844   -0.014759608
      4        1           0.003812561    0.006923300   -0.003740043
      5        1           0.003436243   -0.007062803   -0.003805790
      6        1          -0.008721546    0.000208391   -0.003629365
      7        1          -0.003471300    0.007446443    0.003992540
      8        1          -0.003779217   -0.007222001    0.004026968
      9        1           0.007010035   -0.002157474   -0.000059314
     10        1          -0.000814918    0.011857956    0.017496882
 -------------------------------------------------------------------
 Cartesian Forces:  Max     0.017496882 RMS     0.006538087
 Leave Link  716 at Wed Oct  7 14:50:04 2020, MaxMem=  2684354560 cpu:               2.2 elap:               0.6
 (Enter /udrive/faculty/rpeverati/g16/g16/l103.exe)

 GradGradGradGradGradGradGradGradGradGradGradGradGradGradGradGradGradGrad
 Berny optimization.
 Optmz: redundant internal coordinate code flag= 1
 FormGI is forming the generalized inverse of G from B-inverse, IUseBI=4.
 Internal  Forces:  Max     0.021014484 RMS     0.005366882
 Numerically estimating second derivatives.
 Iteration  1 RMS(Cart)=  0.00114737 RMS(Int)=  0.00000270
 Iteration  2 RMS(Cart)=  0.00000019 RMS(Int)=  0.00000270
 Largest change from initial coordinates is atom    3       0.002 Angstoms.
 GradGradGradGradGradGradGradGradGradGradGradGradGradGradGradGradGradGrad

 Leave Link  103 at Wed Oct  7 14:50:05 2020, MaxMem=  2684354560 cpu:               4.5 elap:               0.8
 (Enter /udrive/faculty/rpeverati/g16/g16/l202.exe)
                          Input orientation:                          
 ---------------------------------------------------------------------
 Center     Atomic      Atomic             Coordinates (Angstroms)
 Number     Number       Type             X           Y           Z
 ---------------------------------------------------------------------
      1          6           0       -0.000497   -0.000027   -0.000342
      2          6           0       -0.000843    0.000007    1.512603
      3          8           0        2.420317    0.000065    2.267702
      4          1           0        0.520309    0.871839   -0.393633
      5          1           0        0.487217   -0.891076   -0.393252
      6          1           0       -1.023155    0.018499   -0.384066
      7          1           0       -0.412698    0.904711    1.955077
      8          1           0       -0.446059   -0.885790    1.960371
      9          1           0        1.153665   -0.039116    1.864060
     10          1           0        2.273853    0.546715    3.051666
 ---------------------------------------------------------------------
                    Distance matrix (angstroms):
                    1          2          3          4          5
     1  C    0.000000
     2  C    1.512945   0.000000
     3  O    3.317283   2.536177   0.000000
     4  H    1.089067   2.159960   3.384187   0.000000
     5  H    1.089134   2.159750   3.407593   1.763226   0.000000
     6  H    1.092436   2.154720   4.346230   1.763678   1.763132
     7  H    2.193655   1.088070   2.990334   2.527453   3.090202
     8  H    2.197156   1.087819   3.015842   3.092646   2.531911
     9  H    2.193083   1.207453   1.329988   2.515582   2.503088
    10  H    3.845302   2.800329   0.966891   3.879523   4.138451
                    6          7          8          9         10
     6  H    0.000000
     7  H    2.574805   0.000000
     8  H    2.578209   1.790820   0.000000
     9  H    3.129846   1.831008   1.812526   0.000000
    10  H    4.790984   2.923734   3.262042   1.734482   0.000000
 Stoichiometry    C2H7O(2)
 Framework group  C1[X(C2H7O)]
 Deg. of freedom    24
 Full point group                 C1      NOp   1
 RotChk:  IX=0 Diff= 4.03D-04
 Largest Abelian subgroup         C1      NOp   1
 Largest concise Abelian subgroup C1      NOp   1
                         Standard orientation:                         
 ---------------------------------------------------------------------
 Center     Atomic      Atomic             Coordinates (Angstroms)
 Number     Number       Type             X           Y           Z
 ---------------------------------------------------------------------
      1          6           0        1.458997   -0.446713    0.025478
      2          6           0        0.470674    0.697585   -0.027493
      3          8           0       -1.854716   -0.314393   -0.053043
      4          1           0        1.302166   -1.061310    0.910769
      5          1           0        1.366872   -1.086523   -0.851089
      6          1           0        2.483113   -0.067762    0.057079
      7          1           0        0.472705    1.325642    0.861010
      8          1           0        0.535028    1.303583   -0.928589
      9          1           0       -0.631658    0.207478   -0.078502
     10          1           0       -2.268524    0.388806    0.465755
 ---------------------------------------------------------------------
 Rotational constants (GHZ):          26.3500164           4.9323304           4.4051900
 Leave Link  202 at Wed Oct  7 14:50:06 2020, MaxMem=  2684354560 cpu:               0.9 elap:               0.4
 (Enter /udrive/faculty/rpeverati/g16/g16/l301.exe)
 Standard basis: 6-31G(d) (5D, 7F)
 Ernie: Thresh=  0.10000D-02 Tol=  0.10000D-05 Strict=F.
 There are    59 symmetry adapted cartesian basis functions of A   symmetry.
 There are    56 symmetry adapted basis functions of A   symmetry.
    56 basis functions,   112 primitive gaussians,    59 cartesian basis functions
    14 alpha electrons       13 beta electrons
       nuclear repulsion energy        76.5909449826 Hartrees.
 IExCor=  402 DFT=T Ex=B Corr=LYP ExCW=0 ScaHFX=  0.000000
 ScaDFX=  1.000000  1.000000  1.000000  1.000000 ScalE2=  1.000000  1.000000
 IRadAn=      5 IRanWt=     -1 IRanGd=            0 ICorTp=0 IEmpDi=  4
 NAtoms=   10 NActive=   10 NUniq=   10 SFac= 1.00D+00 NAtFMM=   60 NAOKFM=F Big=F
 Integral buffers will be    131072 words long.
 Raffenetti 2 integral format.
 Two-electron integral symmetry is turned on.
 Leave Link  301 at Wed Oct  7 14:50:06 2020, MaxMem=  2684354560 cpu:               1.5 elap:               0.5
 (Enter /udrive/faculty/rpeverati/g16/g16/l302.exe)
 NPDir=0 NMtPBC=     1 NCelOv=     1 NCel=       1 NClECP=     1 NCelD=      1
         NCelK=      1 NCelE2=     1 NClLst=     1 CellRange=     0.0.
 One-electron integrals computed using PRISM.
 One-electron integral symmetry used in STVInt
 NBasis=    56 RedAO= T EigKep=  7.13D-03  NBF=    56
 NBsUse=    56 1.00D-06 EigRej= -1.00D+00 NBFU=    56
 Precomputing XC quadrature grid using
 IXCGrd= 4 IRadAn=           5 IRanWt=          -1 IRanGd=           0 AccXCQ= 0.00D+00.
 Generated NRdTot=       0 NPtTot=           0 NUsed=           0 NTot=          32
 NSgBfM=    59    59    59    59    59 MxSgAt=    10 MxSgA2=    10.
 Leave Link  302 at Wed Oct  7 14:50:07 2020, MaxMem=  2684354560 cpu:               3.9 elap:               0.7
 (Enter /udrive/faculty/rpeverati/g16/g16/l303.exe)
 DipDrv:  MaxL=1.
 Leave Link  303 at Wed Oct  7 14:50:08 2020, MaxMem=  2684354560 cpu:               1.6 elap:               0.5
 (Enter /udrive/faculty/rpeverati/g16/g16/l401.exe)
 Initial guess from the checkpoint file:  "MN_85_RKT09_BH76_BLYP_631Gs.chk"
 SCF N**3 symmetry information disabled.
 B after Tr=    -0.000000   -0.000000   -0.000000
         Rot=    1.000000    0.000012   -0.000004    0.000150 Ang=   0.02 deg.
 Guess basis will be translated and rotated to current coordinates.
 JPrj=2 DoOrth=T DoCkMO=T.
 Initial guess <Sx>= 0.0000 <Sy>= 0.0000 <Sz>= 0.5000 <S**2>= 0.7530 S= 0.5015
 Generating alternative initial guess.
 ExpMin= 1.61D-01 ExpMax= 5.48D+03 ExpMxC= 8.25D+02 IAcc=2 IRadAn=         4 AccDes= 0.00D+00
 Harris functional with IExCor=  402 and IRadAn=       4 diagonalized for initial guess.
 HarFok:  IExCor=  402 AccDes= 0.00D+00 IRadAn=         4 IDoV= 1 UseB2=F ITyADJ=14
 ICtDFT=  3500011 ScaDFX=  1.000000  1.000000  1.000000  1.000000
 FoFCou: FMM=F IPFlag=           0 FMFlag=      100000 FMFlg1=           0
         NFxFlg=           0 DoJE=T BraDBF=F KetDBF=T FulRan=T
         wScrn=  0.000000 ICntrl=       500 IOpCl=  0 I1Cent=   200000004 NGrid=           0
         NMat0=    1 NMatS0=      1 NMatT0=    0 NMatD0=    1 NMtDS0=    0 NMtDT0=    0
 Petite list used in FoFCou.
 Harris En= -155.578579862936    
 Leave Link  401 at Wed Oct  7 14:50:09 2020, MaxMem=  2684354560 cpu:               7.4 elap:               1.0
 (Enter /udrive/faculty/rpeverati/g16/g16/l502.exe)
 Keep J ints in memory in canonical form, NReq=11833192.
 FoFCou: FMM=F IPFlag=           0 FMFlag=           0 FMFlg1=           0
         NFxFlg=           0 DoJE=F BraDBF=F KetDBF=F FulRan=T
         wScrn=  0.000000 ICntrl=       600 IOpCl=  0 I1Cent=           0 NGrid=           0
         NMat0=    1 NMatS0=   1596 NMatT0=    0 NMatD0=    1 NMtDS0=    0 NMtDT0=    0
 Symmetry not used in FoFCou.
 Two-electron integral symmetry not used.
 UHF open shell SCF:
 Using DIIS extrapolation, IDIIS=  1040.
 NGot=  2684354560 LenX=  2683071566 LenY=  2683067644
 Requested convergence on RMS density matrix=1.00D-08 within 120 cycles.
 Requested convergence on MAX density matrix=1.00D-06.
 Requested convergence on             energy=1.00D-06.
 No special actions if energy rises.
 Integral accuracy reduced to 1.0D-05 until final iterations.

 Cycle   1  Pass 0  IDiag  1:
 E= -155.471718123839    
 DIIS: error= 9.12D-05 at cycle   1 NSaved=   1.
 NSaved= 1 IEnMin= 1 EnMin= -155.471718123839     IErMin= 1 ErrMin= 9.12D-05
 ErrMax= 9.12D-05  0.00D+00 EMaxC= 1.00D-01 BMatC= 2.94D-06 BMatP= 2.94D-06
 IDIUse=1 WtCom= 1.00D+00 WtEn= 0.00D+00
 Coeff-Com:  0.100D+01
 Coeff:      0.100D+01
 Gap=     0.503 Goal=   None    Shift=    0.000
 Gap=     0.507 Goal=   None    Shift=    0.000
 RMSDP=3.82D-05 MaxDP=5.81D-04              OVMax= 1.64D-03

 Cycle   2  Pass 0  IDiag  1:
 E= -155.471718035770     Delta-E=        0.000000088069 Rises=F Damp=F
 DIIS: error= 1.78D-04 at cycle   2 NSaved=   2.
 NSaved= 2 IEnMin= 1 EnMin= -155.471718123839     IErMin= 1 ErrMin= 9.12D-05
 ErrMax= 1.78D-04  0.00D+00 EMaxC= 1.00D-01 BMatC= 5.04D-06 BMatP= 2.94D-06
 IDIUse=3 WtCom= 4.28D-01 WtEn= 5.72D-01
 Coeff-Com:  0.594D+00 0.406D+00
 Coeff-En:   0.523D+00 0.477D+00
 Coeff:      0.553D+00 0.447D+00
 Gap=     0.274 Goal=   None    Shift=    0.000
 Gap=     0.052 Goal=   None    Shift=    0.000
 RMSDP=2.88D-05 MaxDP=4.32D-04 DE= 8.81D-08 OVMax= 1.31D-03

 Cycle   3  Pass 0  IDiag  1:
 E= -155.471718845879     Delta-E=       -0.000000810108 Rises=F Damp=F
 DIIS: error= 1.26D-04 at cycle   3 NSaved=   3.
 NSaved= 3 IEnMin= 3 EnMin= -155.471718845879     IErMin= 1 ErrMin= 9.12D-05
 ErrMax= 1.26D-04  0.00D+00 EMaxC= 1.00D-01 BMatC= 2.21D-06 BMatP= 2.94D-06
 IDIUse=3 WtCom= 9.99D-01 WtEn= 1.26D-03
 Coeff-Com:  0.970D-01 0.374D+00 0.529D+00
 Coeff-En:   0.000D+00 0.333D+00 0.667D+00
 Coeff:      0.968D-01 0.374D+00 0.529D+00
 Gap=     0.274 Goal=   None    Shift=    0.000
 Gap=     0.052 Goal=   None    Shift=    0.000
 RMSDP=1.12D-05 MaxDP=1.81D-04 DE=-8.10D-07 OVMax= 5.03D-04

 Cycle   4  Pass 0  IDiag  1:
 E= -155.471719340753     Delta-E=       -0.000000494875 Rises=F Damp=F
 DIIS: error= 1.79D-05 at cycle   4 NSaved=   4.
 NSaved= 4 IEnMin= 4 EnMin= -155.471719340753     IErMin= 4 ErrMin= 1.79D-05
 ErrMax= 1.79D-05  0.00D+00 EMaxC= 1.00D-01 BMatC= 6.48D-08 BMatP= 2.21D-06
 IDIUse=1 WtCom= 1.00D+00 WtEn= 0.00D+00
 Coeff-Com:  0.130D-01 0.174D+00 0.272D+00 0.542D+00
 Coeff:      0.130D-01 0.174D+00 0.272D+00 0.542D+00
 Gap=     0.274 Goal=   None    Shift=    0.000
 Gap=     0.052 Goal=   None    Shift=    0.000
 RMSDP=2.60D-06 MaxDP=2.89D-05 DE=-4.95D-07 OVMax= 4.41D-05

 Initial convergence to 1.0D-05 achieved.  Increase integral accuracy.
 Cycle   5  Pass 1  IDiag  1:
 E= -155.471725871508     Delta-E=       -0.000006530754 Rises=F Damp=F
 DIIS: error= 4.74D-06 at cycle   1 NSaved=   1.
 NSaved= 1 IEnMin= 1 EnMin= -155.471725871508     IErMin= 1 ErrMin= 4.74D-06
 ErrMax= 4.74D-06  0.00D+00 EMaxC= 1.00D-01 BMatC= 5.70D-09 BMatP= 5.70D-09
 IDIUse=1 WtCom= 1.00D+00 WtEn= 0.00D+00
 Coeff-Com:  0.100D+01
 Coeff:      0.100D+01
 Gap=     0.274 Goal=   None    Shift=    0.000
 Gap=     0.052 Goal=   None    Shift=    0.000
 RMSDP=2.60D-06 MaxDP=2.89D-05 DE=-6.53D-06 OVMax= 3.57D-05

 Cycle   6  Pass 1  IDiag  1:
 E= -155.471725870576     Delta-E=        0.000000000932 Rises=F Damp=F
 DIIS: error= 8.48D-06 at cycle   2 NSaved=   2.
 NSaved= 2 IEnMin= 1 EnMin= -155.471725871508     IErMin= 1 ErrMin= 4.74D-06
 ErrMax= 8.48D-06  0.00D+00 EMaxC= 1.00D-01 BMatC= 1.13D-08 BMatP= 5.70D-09
 IDIUse=1 WtCom= 1.00D+00 WtEn= 0.00D+00
 Coeff-Com:  0.591D+00 0.409D+00
 Coeff:      0.591D+00 0.409D+00
 Gap=     0.274 Goal=   None    Shift=    0.000
 Gap=     0.052 Goal=   None    Shift=    0.000
 RMSDP=9.45D-07 MaxDP=1.10D-05 DE= 9.32D-10 OVMax= 2.64D-05

 Cycle   7  Pass 1  IDiag  1:
 E= -155.471725873012     Delta-E=       -0.000000002435 Rises=F Damp=F
 DIIS: error= 2.08D-06 at cycle   3 NSaved=   3.
 NSaved= 3 IEnMin= 3 EnMin= -155.471725873012     IErMin= 3 ErrMin= 2.08D-06
 ErrMax= 2.08D-06  0.00D+00 EMaxC= 1.00D-01 BMatC= 5.40D-10 BMatP= 5.70D-09
 IDIUse=1 WtCom= 1.00D+00 WtEn= 0.00D+00
 Coeff-Com:  0.236D+00 0.216D+00 0.548D+00
 Coeff:      0.236D+00 0.216D+00 0.548D+00
 Gap=     0.274 Goal=   None    Shift=    0.000
 Gap=     0.052 Goal=   None    Shift=    0.000
 RMSDP=2.96D-07 MaxDP=4.42D-06 DE=-2.44D-09 OVMax= 1.34D-05

 Cycle   8  Pass 1  IDiag  1:
 E= -155.471725873051     Delta-E=       -0.000000000040 Rises=F Damp=F
 DIIS: error= 1.33D-06 at cycle   4 NSaved=   4.
 NSaved= 4 IEnMin= 4 EnMin= -155.471725873051     IErMin= 4 ErrMin= 1.33D-06
 ErrMax= 1.33D-06  0.00D+00 EMaxC= 1.00D-01 BMatC= 3.34D-10 BMatP= 5.40D-10
 IDIUse=1 WtCom= 1.00D+00 WtEn= 0.00D+00
 Coeff-Com:  0.222D-01 0.533D-01 0.450D+00 0.474D+00
 Coeff:      0.222D-01 0.533D-01 0.450D+00 0.474D+00
 Gap=     0.274 Goal=   None    Shift=    0.000
 Gap=     0.052 Goal=   None    Shift=    0.000
 RMSDP=1.52D-07 MaxDP=2.17D-06 DE=-3.96D-11 OVMax= 6.33D-06

 Cycle   9  Pass 1  IDiag  1:
 E= -155.471725873135     Delta-E=       -0.000000000084 Rises=F Damp=F
 DIIS: error= 1.02D-07 at cycle   5 NSaved=   5.
 NSaved= 5 IEnMin= 5 EnMin= -155.471725873135     IErMin= 5 ErrMin= 1.02D-07
 ErrMax= 1.02D-07  0.00D+00 EMaxC= 1.00D-01 BMatC= 3.07D-12 BMatP= 3.34D-10
 IDIUse=1 WtCom= 1.00D+00 WtEn= 0.00D+00
 Coeff-Com: -0.844D-02 0.299D-02 0.976D-01 0.151D+00 0.757D+00
 Coeff:     -0.844D-02 0.299D-02 0.976D-01 0.151D+00 0.757D+00
 Gap=     0.274 Goal=   None    Shift=    0.000
 Gap=     0.052 Goal=   None    Shift=    0.000
 RMSDP=2.19D-08 MaxDP=2.30D-07 DE=-8.39D-11 OVMax= 7.30D-07

 Cycle  10  Pass 1  IDiag  1:
 E= -155.471725873136     Delta-E=       -0.000000000001 Rises=F Damp=F
 DIIS: error= 3.34D-08 at cycle   6 NSaved=   6.
 NSaved= 6 IEnMin= 6 EnMin= -155.471725873136     IErMin= 6 ErrMin= 3.34D-08
 ErrMax= 3.34D-08  0.00D+00 EMaxC= 1.00D-01 BMatC= 3.43D-13 BMatP= 3.07D-12
 IDIUse=1 WtCom= 1.00D+00 WtEn= 0.00D+00
 Coeff-Com: -0.493D-02-0.423D-02-0.109D-01-0.234D-02 0.225D+00 0.798D+00
 Coeff:     -0.493D-02-0.423D-02-0.109D-01-0.234D-02 0.225D+00 0.798D+00
 Gap=     0.274 Goal=   None    Shift=    0.000
 Gap=     0.052 Goal=   None    Shift=    0.000
 RMSDP=7.74D-09 MaxDP=1.17D-07 DE=-7.11D-13 OVMax= 1.67D-07

 SCF Done:  E(UB-LYP) =  -155.471725873     A.U. after   10 cycles
            NFock= 10  Conv=0.77D-08     -V/T= 2.0051
 <Sx>= 0.0000 <Sy>= 0.0000 <Sz>= 0.5000 <S**2>= 0.7530 S= 0.5015
 <L.S>= 0.000000000000E+00
 KE= 1.546881233437D+02 PE=-5.167490098335D+02 EE= 1.299982156341D+02
 Annihilation of the first spin contaminant:
 S**2 before annihilation     0.7530,   after     0.7500
 Leave Link  502 at Wed Oct  7 14:50:14 2020, MaxMem=  2684354560 cpu:              52.2 elap:               4.8
 (Enter /udrive/faculty/rpeverati/g16/g16/l508.exe)
 QCSCF skips out because SCF is already converged.
 Leave Link  508 at Wed Oct  7 14:50:15 2020, MaxMem=  2684354560 cpu:               0.0 elap:               0.5
 (Enter /udrive/faculty/rpeverati/g16/g16/l701.exe)
 ... and contract with generalized density number  0.
 Compute integral first derivatives.
 Leave Link  701 at Wed Oct  7 14:50:16 2020, MaxMem=  2684354560 cpu:               4.7 elap:               0.9
 (Enter /udrive/faculty/rpeverati/g16/g16/l702.exe)
 L702 exits ... SP integral derivatives will be done elsewhere.
 Leave Link  702 at Wed Oct  7 14:50:17 2020, MaxMem=  2684354560 cpu:               2.1 elap:               0.8
 (Enter /udrive/faculty/rpeverati/g16/g16/l703.exe)
 Integral derivatives from FoFJK, PRISM(SPDF).
 Compute integral first derivatives, UseDBF=F ICtDFT=           0.
 Calling FoFJK, ICntrl=      2527 FMM=F ISym2X=0 I1Cent= 0 IOpClX= 0 NMat=1 NMatS=1 NMatT=0.
 FoFJK:  IHMeth= 1 ICntrl=    2527 DoSepK=F KAlg= 0 I1Cent=           0 FoldK=F
 IRaf=         0 NMat=       1 IRICut=       1 DoRegI=T DoRafI=F ISym2E= 0 IDoP0=0 IntGTp=1.
 FoFCou: FMM=F IPFlag=           0 FMFlag=      100000 FMFlg1=         800
         NFxFlg=           0 DoJE=F BraDBF=F KetDBF=F FulRan=T
         wScrn=  0.000000 ICntrl=      2527 IOpCl=  0 I1Cent=           0 NGrid=           0
         NMat0=    1 NMatS0=      1 NMatT0=    0 NMatD0=    1 NMtDS0=    0 NMtDT0=    0
 Symmetry not used in FoFCou.
 Leave Link  703 at Wed Oct  7 14:50:20 2020, MaxMem=  2684354560 cpu:              17.8 elap:               2.0
 (Enter /udrive/faculty/rpeverati/g16/g16/l716.exe)
 Dipole        = 4.56559669D-01 5.99398570D-01 3.06017990D-01
 ***** Axes restored to original set *****
 -------------------------------------------------------------------
 Center     Atomic                   Forces (Hartrees/Bohr)
 Number     Number              X              Y              Z
 -------------------------------------------------------------------
      1        6           0.001928030   -0.000038785    0.003874243
      2        6          -0.002101505    0.000343488   -0.003190695
      3        8           0.003023570   -0.010327121   -0.014872433
      4        1           0.003808041    0.006924409   -0.003743782
      5        1           0.003432692   -0.007063141   -0.003809364
      6        1          -0.008732857    0.000208225   -0.003623988
      7        1          -0.003416383    0.007448762    0.004008881
      8        1          -0.003724764   -0.007227049    0.004041455
      9        1           0.006595905   -0.002120258   -0.000172937
     10        1          -0.000812728    0.011851471    0.017488619
 -------------------------------------------------------------------
 Cartesian Forces:  Max     0.017488619 RMS     0.006514538
 Leave Link  716 at Wed Oct  7 14:50:21 2020, MaxMem=  2684354560 cpu:               1.7 elap:               0.7
 (Enter /udrive/faculty/rpeverati/g16/g16/l103.exe)

 GradGradGradGradGradGradGradGradGradGradGradGradGradGradGradGradGradGrad
 Berny optimization.
 Optmz: redundant internal coordinate code flag= 1
 Red2BG:  D1=  6.02D-02 OD1=  4.00D-03 B2RMS=  0.00D+00 IAprox=0
 FormGI is forming the generalized inverse of G from B-inverse, IUseBI=4.
 Internal  Forces:  Max     0.021003294 RMS     0.005315079
 Numerically estimating second derivatives.
 Iteration  1 RMS(Cart)=  0.00101428 RMS(Int)=  0.00000165
 Iteration  2 RMS(Cart)=  0.00000013 RMS(Int)=  0.00000165
 Largest change from initial coordinates is atom    3       0.002 Angstoms.
 GradGradGradGradGradGradGradGradGradGradGradGradGradGradGradGradGradGrad

 Leave Link  103 at Wed Oct  7 14:50:22 2020, MaxMem=  2684354560 cpu:               4.2 elap:               0.9
 (Enter /udrive/faculty/rpeverati/g16/g16/l202.exe)
                          Input orientation:                          
 ---------------------------------------------------------------------
 Center     Atomic      Atomic             Coordinates (Angstroms)
 Number     Number       Type             X           Y           Z
 ---------------------------------------------------------------------
      1          6           0       -0.000306   -0.000035   -0.000245
      2          6           0       -0.000565   -0.000036    1.512700
      3          8           0        2.420624    0.000143    2.267704
      4          1           0        0.520496    0.871828   -0.393546
      5          1           0        0.487365   -0.891087   -0.393205
      6          1           0       -1.022986    0.018522   -0.383910
      7          1           0       -0.412374    0.904663    1.955225
      8          1           0       -0.445775   -0.885839    1.960463
      9          1           0        1.151433   -0.039111    1.863317
     10          1           0        2.274195    0.546779    3.051685
 ---------------------------------------------------------------------
                    Distance matrix (angstroms):
                    1          2          3          4          5
     1  C    0.000000
     2  C    1.512945   0.000000
     3  O    3.317303   2.536176   0.000000
     4  H    1.089067   2.159960   3.384165   0.000000
     5  H    1.089134   2.159750   3.407670   1.763226   0.000000
     6  H    1.092436   2.154720   4.346245   1.763678   1.763132
     7  H    2.193660   1.088070   2.990264   2.527459   3.090205
     8  H    2.197150   1.087819   3.015892   3.092642   2.531902
     9  H    2.191095   1.204807   1.332634   2.514224   2.501748
    10  H    3.845340   2.800360   0.966891   3.879527   4.138536
                    6          7          8          9         10
     6  H    0.000000
     7  H    2.574810   0.000000
     8  H    2.578202   1.790821   0.000000
     9  H    3.127531   1.828839   1.810376   0.000000
    10  H    4.791009   2.923690   3.262116   1.736686   0.000000
 Stoichiometry    C2H7O(2)
 Framework group  C1[X(C2H7O)]
 Deg. of freedom    24
 Full point group                 C1      NOp   1
 RotChk:  IX=0 Diff= 1.19D-04
 Largest Abelian subgroup         C1      NOp   1
 Largest concise Abelian subgroup C1      NOp   1
                         Standard orientation:                         
 ---------------------------------------------------------------------
 Center     Atomic      Atomic             Coordinates (Angstroms)
 Number     Number       Type             X           Y           Z
 ---------------------------------------------------------------------
      1          6           0        1.458921   -0.446740    0.025479
      2          6           0        0.470579    0.697540   -0.027486
      3          8           0       -1.854811   -0.314436   -0.053060
      4          1           0        1.302046   -1.061395    0.910722
      5          1           0        1.366868   -1.086498   -0.851134
      6          1           0        2.483028   -0.067770    0.057169
      7          1           0        0.472534    1.325547    0.861051
      8          1           0        0.534985    1.303588   -0.928546
      9          1           0       -0.629324    0.208486   -0.078489
     10          1           0       -2.268649    0.388733    0.465755
 ---------------------------------------------------------------------
 Rotational constants (GHZ):          26.3497579           4.9324089           4.4052460
 Leave Link  202 at Wed Oct  7 14:50:23 2020, MaxMem=  2684354560 cpu:               1.8 elap:               0.6
 (Enter /udrive/faculty/rpeverati/g16/g16/l301.exe)
 Standard basis: 6-31G(d) (5D, 7F)
 Ernie: Thresh=  0.10000D-02 Tol=  0.10000D-05 Strict=F.
 There are    59 symmetry adapted cartesian basis functions of A   symmetry.
 There are    56 symmetry adapted basis functions of A   symmetry.
    56 basis functions,   112 primitive gaussians,    59 cartesian basis functions
    14 alpha electrons       13 beta electrons
       nuclear repulsion energy        76.5922884414 Hartrees.
 IExCor=  402 DFT=T Ex=B Corr=LYP ExCW=0 ScaHFX=  0.000000
 ScaDFX=  1.000000  1.000000  1.000000  1.000000 ScalE2=  1.000000  1.000000
 IRadAn=      5 IRanWt=     -1 IRanGd=            0 ICorTp=0 IEmpDi=  4
 NAtoms=   10 NActive=   10 NUniq=   10 SFac= 1.00D+00 NAtFMM=   60 NAOKFM=F Big=F
 Integral buffers will be    131072 words long.
 Raffenetti 2 integral format.
 Two-electron integral symmetry is turned on.
 Leave Link  301 at Wed Oct  7 14:50:24 2020, MaxMem=  2684354560 cpu:               2.4 elap:               0.7
 (Enter /udrive/faculty/rpeverati/g16/g16/l302.exe)
 NPDir=0 NMtPBC=     1 NCelOv=     1 NCel=       1 NClECP=     1 NCelD=      1
         NCelK=      1 NCelE2=     1 NClLst=     1 CellRange=     0.0.
 One-electron integrals computed using PRISM.
 One-electron integral symmetry used in STVInt
 NBasis=    56 RedAO= T EigKep=  7.12D-03  NBF=    56
 NBsUse=    56 1.00D-06 EigRej= -1.00D+00 NBFU=    56
 Precomputing XC quadrature grid using
 IXCGrd= 4 IRadAn=           5 IRanWt=          -1 IRanGd=           0 AccXCQ= 0.00D+00.
 Generated NRdTot=       0 NPtTot=           0 NUsed=           0 NTot=          32
 NSgBfM=    59    59    59    59    59 MxSgAt=    10 MxSgA2=    10.
 Leave Link  302 at Wed Oct  7 14:50:25 2020, MaxMem=  2684354560 cpu:               4.3 elap:               0.8
 (Enter /udrive/faculty/rpeverati/g16/g16/l303.exe)
 DipDrv:  MaxL=1.
 Leave Link  303 at Wed Oct  7 14:50:25 2020, MaxMem=  2684354560 cpu:               1.2 elap:               0.5
 (Enter /udrive/faculty/rpeverati/g16/g16/l401.exe)
 Initial guess from the checkpoint file:  "MN_85_RKT09_BH76_BLYP_631Gs.chk"
 SCF N**3 symmetry information disabled.
 B after Tr=    -0.000000    0.000000   -0.000000
         Rot=    1.000000   -0.000019    0.000007    0.000005 Ang=  -0.00 deg.
 Guess basis will be translated and rotated to current coordinates.
 JPrj=2 DoOrth=T DoCkMO=T.
 Initial guess <Sx>= 0.0000 <Sy>= 0.0000 <Sz>= 0.5000 <S**2>= 0.7530 S= 0.5015
 Generating alternative initial guess.
 ExpMin= 1.61D-01 ExpMax= 5.48D+03 ExpMxC= 8.25D+02 IAcc=2 IRadAn=         4 AccDes= 0.00D+00
 Harris functional with IExCor=  402 and IRadAn=       4 diagonalized for initial guess.
 HarFok:  IExCor=  402 AccDes= 0.00D+00 IRadAn=         4 IDoV= 1 UseB2=F ITyADJ=14
 ICtDFT=  3500011 ScaDFX=  1.000000  1.000000  1.000000  1.000000
 FoFCou: FMM=F IPFlag=           0 FMFlag=      100000 FMFlg1=           0
         NFxFlg=           0 DoJE=T BraDBF=F KetDBF=T FulRan=T
         wScrn=  0.000000 ICntrl=       500 IOpCl=  0 I1Cent=   200000004 NGrid=           0
         NMat0=    1 NMatS0=      1 NMatT0=    0 NMatD0=    1 NMtDS0=    0 NMtDT0=    0
 Petite list used in FoFCou.
 Harris En= -155.578508459426    
 Leave Link  401 at Wed Oct  7 14:50:27 2020, MaxMem=  2684354560 cpu:               7.6 elap:               1.1
 (Enter /udrive/faculty/rpeverati/g16/g16/l502.exe)
 Keep J ints in memory in canonical form, NReq=11833192.
 FoFCou: FMM=F IPFlag=           0 FMFlag=           0 FMFlg1=           0
         NFxFlg=           0 DoJE=F BraDBF=F KetDBF=F FulRan=T
         wScrn=  0.000000 ICntrl=       600 IOpCl=  0 I1Cent=           0 NGrid=           0
         NMat0=    1 NMatS0=   1596 NMatT0=    0 NMatD0=    1 NMtDS0=    0 NMtDT0=    0
 Symmetry not used in FoFCou.
 Two-electron integral symmetry not used.
 UHF open shell SCF:
 Using DIIS extrapolation, IDIIS=  1040.
 NGot=  2684354560 LenX=  2683071566 LenY=  2683067644
 Requested convergence on RMS density matrix=1.00D-08 within 120 cycles.
 Requested convergence on MAX density matrix=1.00D-06.
 Requested convergence on             energy=1.00D-06.
 No special actions if energy rises.
 Integral accuracy reduced to 1.0D-05 until final iterations.

 Cycle   1  Pass 0  IDiag  1:
 E= -155.471684439441    
 DIIS: error= 1.44D-04 at cycle   1 NSaved=   1.
 NSaved= 1 IEnMin= 1 EnMin= -155.471684439441     IErMin= 1 ErrMin= 1.44D-04
 ErrMax= 1.44D-04  0.00D+00 EMaxC= 1.00D-01 BMatC= 5.67D-06 BMatP= 5.67D-06
 IDIUse=3 WtCom= 9.99D-01 WtEn= 1.44D-03
 Coeff-Com:  0.100D+01
 Coeff-En:   0.100D+01
 Coeff:      0.100D+01
 Gap=     0.503 Goal=   None    Shift=    0.000
 Gap=     0.506 Goal=   None    Shift=    0.000
 RMSDP=5.92D-05 MaxDP=1.05D-03              OVMax= 3.16D-03

 Cycle   2  Pass 0  IDiag  1:
 E= -155.471684057094     Delta-E=        0.000000382346 Rises=F Damp=F
 DIIS: error= 3.13D-04 at cycle   2 NSaved=   2.
 NSaved= 2 IEnMin= 1 EnMin= -155.471684439441     IErMin= 1 ErrMin= 1.44D-04
 ErrMax= 3.13D-04  0.00D+00 EMaxC= 1.00D-01 BMatC= 1.48D-05 BMatP= 5.67D-06
 IDIUse=3 WtCom= 3.61D-01 WtEn= 6.39D-01
 Coeff-Com:  0.666D+00 0.334D+00
 Coeff-En:   0.537D+00 0.463D+00
 Coeff:      0.584D+00 0.416D+00
 Gap=     0.275 Goal=   None    Shift=    0.000
 Gap=     0.052 Goal=   None    Shift=    0.000
 RMSDP=4.68D-05 MaxDP=6.91D-04 DE= 3.82D-07 OVMax= 2.07D-03

 Cycle   3  Pass 0  IDiag  1:
 E= -155.471686763080     Delta-E=       -0.000002705985 Rises=F Damp=F
 DIIS: error= 1.86D-04 at cycle   3 NSaved=   3.
 NSaved= 3 IEnMin= 3 EnMin= -155.471686763080     IErMin= 1 ErrMin= 1.44D-04
 ErrMax= 1.86D-04  0.00D+00 EMaxC= 1.00D-01 BMatC= 4.55D-06 BMatP= 5.67D-06
 IDIUse=3 WtCom= 9.98D-01 WtEn= 1.86D-03
 Coeff-Com:  0.668D-01 0.340D+00 0.594D+00
 Coeff-En:   0.000D+00 0.282D+00 0.718D+00
 Coeff:      0.667D-01 0.340D+00 0.594D+00
 Gap=     0.275 Goal=   None    Shift=    0.000
 Gap=     0.052 Goal=   None    Shift=    0.000
 RMSDP=1.56D-05 MaxDP=2.74D-04 DE=-2.71D-06 OVMax= 7.51D-04

 Cycle   4  Pass 0  IDiag  1:
 E= -155.471687790510     Delta-E=       -0.000001027430 Rises=F Damp=F
 DIIS: error= 2.44D-05 at cycle   4 NSaved=   4.
 NSaved= 4 IEnMin= 4 EnMin= -155.471687790510     IErMin= 4 ErrMin= 2.44D-05
 ErrMax= 2.44D-05  0.00D+00 EMaxC= 1.00D-01 BMatC= 1.12D-07 BMatP= 4.55D-06
 IDIUse=1 WtCom= 1.00D+00 WtEn= 0.00D+00
 Coeff-Com: -0.283D-02 0.138D+00 0.274D+00 0.591D+00
 Coeff:     -0.283D-02 0.138D+00 0.274D+00 0.591D+00
 Gap=     0.275 Goal=   None    Shift=    0.000
 Gap=     0.052 Goal=   None    Shift=    0.000
 RMSDP=3.69D-06 MaxDP=4.37D-05 DE=-1.03D-06 OVMax= 5.57D-05

 Initial convergence to 1.0D-05 achieved.  Increase integral accuracy.
 Cycle   5  Pass 1  IDiag  1:
 E= -155.471694330787     Delta-E=       -0.000006540278 Rises=F Damp=F
 DIIS: error= 7.38D-06 at cycle   1 NSaved=   1.
 NSaved= 1 IEnMin= 1 EnMin= -155.471694330787     IErMin= 1 ErrMin= 7.38D-06
 ErrMax= 7.38D-06  0.00D+00 EMaxC= 1.00D-01 BMatC= 1.70D-08 BMatP= 1.70D-08
 IDIUse=1 WtCom= 1.00D+00 WtEn= 0.00D+00
 Coeff-Com:  0.100D+01
 Coeff:      0.100D+01
 Gap=     0.275 Goal=   None    Shift=    0.000
 Gap=     0.052 Goal=   None    Shift=    0.000
 RMSDP=3.69D-06 MaxDP=4.37D-05 DE=-6.54D-06 OVMax= 4.36D-05

 Cycle   6  Pass 1  IDiag  1:
 E= -155.471694327451     Delta-E=        0.000000003337 Rises=F Damp=F
 DIIS: error= 1.05D-05 at cycle   2 NSaved=   2.
 NSaved= 2 IEnMin= 1 EnMin= -155.471694330787     IErMin= 1 ErrMin= 7.38D-06
 ErrMax= 1.05D-05  0.00D+00 EMaxC= 1.00D-01 BMatC= 3.27D-08 BMatP= 1.70D-08
 IDIUse=1 WtCom= 1.00D+00 WtEn= 0.00D+00
 Coeff-Com:  0.584D+00 0.416D+00
 Coeff:      0.584D+00 0.416D+00
 Gap=     0.275 Goal=   None    Shift=    0.000
 Gap=     0.052 Goal=   None    Shift=    0.000
 RMSDP=1.47D-06 MaxDP=2.04D-05 DE= 3.34D-09 OVMax= 2.48D-05

 Cycle   7  Pass 1  IDiag  1:
 E= -155.471694335365     Delta-E=       -0.000000007915 Rises=F Damp=F
 DIIS: error= 6.90D-07 at cycle   3 NSaved=   3.
 NSaved= 3 IEnMin= 3 EnMin= -155.471694335365     IErMin= 3 ErrMin= 6.90D-07
 ErrMax= 6.90D-07  0.00D+00 EMaxC= 1.00D-01 BMatC= 1.02D-10 BMatP= 1.70D-08
 IDIUse=1 WtCom= 1.00D+00 WtEn= 0.00D+00
 Coeff-Com:  0.390D-01 0.588D-01 0.902D+00
 Coeff:      0.390D-01 0.588D-01 0.902D+00
 Gap=     0.275 Goal=   None    Shift=    0.000
 Gap=     0.052 Goal=   None    Shift=    0.000
 RMSDP=1.44D-07 MaxDP=2.02D-06 DE=-7.91D-09 OVMax= 2.58D-06

 Cycle   8  Pass 1  IDiag  1:
 E= -155.471694335395     Delta-E=       -0.000000000029 Rises=F Damp=F
 DIIS: error= 2.71D-07 at cycle   4 NSaved=   4.
 NSaved= 4 IEnMin= 4 EnMin= -155.471694335395     IErMin= 4 ErrMin= 2.71D-07
 ErrMax= 2.71D-07  0.00D+00 EMaxC= 1.00D-01 BMatC= 1.83D-11 BMatP= 1.02D-10
 IDIUse=1 WtCom= 1.00D+00 WtEn= 0.00D+00
 Coeff-Com: -0.338D-01-0.142D-01 0.269D+00 0.779D+00
 Coeff:     -0.338D-01-0.142D-01 0.269D+00 0.779D+00
 Gap=     0.275 Goal=   None    Shift=    0.000
 Gap=     0.052 Goal=   None    Shift=    0.000
 RMSDP=6.66D-08 MaxDP=8.14D-07 DE=-2.93D-11 OVMax= 1.48D-06

 Cycle   9  Pass 1  IDiag  1:
 E= -155.471694335396     Delta-E=       -0.000000000001 Rises=F Damp=F
 DIIS: error= 2.77D-07 at cycle   5 NSaved=   5.
 NSaved= 5 IEnMin= 5 EnMin= -155.471694335396     IErMin= 4 ErrMin= 2.71D-07
 ErrMax= 2.77D-07  0.00D+00 EMaxC= 1.00D-01 BMatC= 1.55D-11 BMatP= 1.83D-11
 IDIUse=1 WtCom= 1.00D+00 WtEn= 0.00D+00
 Coeff-Com: -0.198D-01-0.116D-01 0.562D-01 0.531D+00 0.444D+00
 Coeff:     -0.198D-01-0.116D-01 0.562D-01 0.531D+00 0.444D+00
 Gap=     0.275 Goal=   None    Shift=    0.000
 Gap=     0.052 Goal=   None    Shift=    0.000
 RMSDP=4.28D-08 MaxDP=6.46D-07 DE=-1.42D-12 OVMax= 1.98D-06

 Cycle  10  Pass 1  IDiag  1:
 E= -155.471694335399     Delta-E=       -0.000000000004 Rises=F Damp=F
[...]
  17         A8        -0.00651   0.00407   0.00987   0.00112
  18         A9        -0.00019   0.01356  -0.00232  -0.00256
  19         A10        0.00066  -0.01559  -0.00681   0.00001
  20         A11        0.00713  -0.00309  -0.00853   0.00107
  21         A12       -0.00758  -0.00442  -0.00752  -0.00038
  22         A13        0.00431  -0.00044  -0.00224   0.00824
  23         A14       -0.00524  -0.00601  -0.00431   0.00046
  24         A15       -0.00638   0.00203   0.00216  -0.00565
  25         D1         0.00811   0.00648  -0.00919  -0.00071
  26         D2         0.00886  -0.00745   0.00060   0.00078
  27         D3        -0.00447  -0.00171  -0.00447  -0.00070
  28         D4         0.00794   0.00801  -0.00085  -0.00032
  29         D5         0.00869  -0.00592   0.00894   0.00117
  30         D6        -0.00465  -0.00018   0.00387  -0.00031
  31         D7        -0.00494   0.00768  -0.00429  -0.00053
  32         D8        -0.00419  -0.00625   0.00550   0.00096
  33         D9        -0.01752  -0.00050   0.00043  -0.00052
  34         D10        0.00616  -0.00047   0.00015  -0.00063
  35         D11       -0.00302  -0.01010  -0.00781  -0.00006
  36         D12       -0.00191   0.01121   0.00840   0.00042
 Eigenvalue     1 is  -1.18D-03 should be greater than     0.000000 Eigenvector:
                          R8        R7        A15       D5        D8
   1                   -0.91048   0.30837   0.11688   0.08621   0.08139
                          D2        D12       D1        D7        D4
   1                    0.07611  -0.07439  -0.07342  -0.06814  -0.06333
 Angle between quadratic step and forces=  66.46 degrees.
 Linear search not attempted -- first point.
 Iteration  1 RMS(Cart)=  0.00092161 RMS(Int)=  0.00000044
 Iteration  2 RMS(Cart)=  0.00000042 RMS(Int)=  0.00000007
 ITry= 1 IFail=0 DXMaxC= 2.57D-03 DCOld= 1.00D+10 DXMaxT= 3.00D-01 DXLimC= 3.00D+00 Rises=F
 Variable       Old X    -DE/DX   Delta X   Delta X   Delta X     New X
                                 (Linear)    (Quad)   (Total)
    R1        2.88618  -0.00000   0.00000   0.00015   0.00015   2.88633
    R2        2.08346   0.00000   0.00000   0.00001   0.00001   2.08346
    R3        2.08307  -0.00000   0.00000  -0.00000  -0.00000   2.08307
    R4        2.09167   0.00000   0.00000  -0.00003  -0.00003   2.09164
    R5        2.08328   0.00000   0.00000   0.00003   0.00003   2.08331
    R6        2.08341   0.00000   0.00000   0.00003   0.00003   2.08343
    R7        2.24222  -0.00001   0.00000  -0.00163  -0.00163   2.24059
    R8        2.72503   0.00000   0.00000   0.00468   0.00468   2.72971
    R9        1.87191   0.00000   0.00000   0.00005   0.00005   1.87197
    A1        1.94602   0.00000   0.00000  -0.00001  -0.00001   1.94600
    A2        1.94677  -0.00000   0.00000  -0.00001  -0.00001   1.94676
    A3        1.92824  -0.00000   0.00000   0.00002   0.00002   1.92825
    A4        1.88502   0.00000   0.00000  -0.00003  -0.00003   1.88499
    A5        1.87721   0.00000   0.00000   0.00000   0.00000   1.87721
    A6        1.87768   0.00000   0.00000   0.00004   0.00004   1.87771
    A7        1.97985  -0.00000   0.00000  -0.00025  -0.00025   1.97961
    A8        1.98782   0.00000   0.00000  -0.00023  -0.00023   1.98759
    A9        1.89393   0.00000   0.00000   0.00033   0.00033   1.89426
   A10        1.91544  -0.00000   0.00000  -0.00026  -0.00026   1.91518
   A11        1.85463  -0.00000   0.00000   0.00022   0.00022   1.85485
   A12        1.82015   0.00000   0.00000   0.00030   0.00030   1.82045
   A13        1.72069  -0.00002   0.00000  -0.00054  -0.00054   1.72014
   A14        3.09679   0.00000   0.00000   0.00006   0.00006   3.09685
   A15        2.95909  -0.00000   0.00000  -0.00063  -0.00063   2.95846
    D1        0.99675   0.00000   0.00000   0.00122   0.00122   0.99797
    D2       -3.07861   0.00000   0.00000   0.00043   0.00043  -3.07818
    D3       -1.06000   0.00000   0.00000   0.00088   0.00088  -1.05912
    D4        3.10579   0.00000   0.00000   0.00116   0.00116   3.10695
    D5       -0.96957   0.00000   0.00000   0.00037   0.00037  -0.96920
    D6        1.04904   0.00000   0.00000   0.00082   0.00082   1.04986
    D7       -1.08979   0.00000   0.00000   0.00121   0.00121  -1.08857
    D8        1.11804   0.00000   0.00000   0.00042   0.00042   1.11846
    D9        3.13665   0.00000   0.00000   0.00087   0.00087   3.13752
   D10        2.10006  -0.00000   0.00000  -0.00089  -0.00089   2.09917
   D11        0.00371  -0.00000   0.00000  -0.00072  -0.00072   0.00299
   D12       -2.00992   0.00000   0.00000  -0.00053  -0.00053  -2.01045
         Item               Value     Threshold  Converged?
 Maximum Force            0.000016     0.000450     YES
 RMS     Force            0.000003     0.000300     YES
 Maximum Displacement     0.002573     0.001800     NO 
 RMS     Displacement     0.000922     0.001200     YES
 Predicted change in Energy=-5.342303D-08
                           ----------------------------
                           ! Non-Optimized Parameters !
                           ! (Angstroms and Degrees)  !
 --------------------------                            --------------------------
 ! Name  Definition              Value          Derivative Info.                !
 --------------------------------------------------------------------------------
 ! R1    R(1,2)                  1.5274         -DE/DX =    0.0                 !
 ! R2    R(1,4)                  1.1025         -DE/DX =    0.0                 !
 ! R3    R(1,5)                  1.1023         -DE/DX =    0.0                 !
 ! R4    R(1,6)                  1.1068         -DE/DX =    0.0                 !
 ! R5    R(2,7)                  1.1024         -DE/DX =    0.0                 !
 ! R6    R(2,8)                  1.1025         -DE/DX =    0.0                 !
 ! R7    R(2,9)                  1.1857         -DE/DX =    0.0                 !
 ! R8    R(3,9)                  1.4445         -DE/DX =    0.0                 !
 ! R9    R(3,10)                 0.9906         -DE/DX =    0.0                 !
 ! A1    A(2,1,4)              111.4978         -DE/DX =    0.0                 !
 ! A2    A(2,1,5)              111.5411         -DE/DX =    0.0                 !
 ! A3    A(2,1,6)              110.4808         -DE/DX =    0.0                 !
 ! A4    A(4,1,5)              108.0021         -DE/DX =    0.0                 !
 ! A5    A(4,1,6)              107.5564         -DE/DX =    0.0                 !
 ! A6    A(5,1,6)              107.5851         -DE/DX =    0.0                 !
 ! A7    A(1,2,7)              113.4231         -DE/DX =    0.0                 !
 ! A8    A(1,2,8)              113.8803         -DE/DX =    0.0                 !
 ! A9    A(1,2,9)              108.5331         -DE/DX =    0.0                 !
 ! A10   A(7,2,8)              109.7315         -DE/DX =    0.0                 !
 ! A11   A(7,2,9)              106.275          -DE/DX =    0.0                 !
 ! A12   A(8,2,9)              104.3043         -DE/DX =    0.0                 !
 ! A13   A(9,3,10)              98.557          -DE/DX =    0.0                 !
 ! A14   L(2,9,3,4,-1)         177.4364         -DE/DX =    0.0                 !
 ! A15   L(2,9,3,4,-2)         169.5072         -DE/DX =    0.0                 !
 ! D1    D(4,1,2,7)             57.1794         -DE/DX =    0.0                 !
 ! D2    D(4,1,2,8)           -176.3666         -DE/DX =    0.0                 !
 ! D3    D(4,1,2,9)            -60.6831         -DE/DX =    0.0                 !
 ! D4    D(5,1,2,7)            178.015          -DE/DX =    0.0                 !
 ! D5    D(5,1,2,8)            -55.5311         -DE/DX =    0.0                 !
 ! D6    D(5,1,2,9)             60.1524         -DE/DX =    0.0                 !
 ! D7    D(6,1,2,7)            -62.3706         -DE/DX =    0.0                 !
 ! D8    D(6,1,2,8)             64.0833         -DE/DX =    0.0                 !
 ! D9    D(6,1,2,9)            179.7669         -DE/DX =    0.0                 !
 ! D10   D(1,2,3,10)           120.2739         -DE/DX =    0.0                 !
 ! D11   D(7,2,3,10)             0.1711         -DE/DX =    0.0                 !
 ! D12   D(8,2,3,10)          -115.1902         -DE/DX =    0.0                 !
 --------------------------------------------------------------------------------
 GradGradGradGradGradGradGradGradGradGradGradGradGradGradGradGradGradGrad

 Leave Link  103 at Wed Oct  7 14:57:48 2020, MaxMem=  2684354560 cpu:               2.4 elap:               0.5
 (Enter /udrive/faculty/rpeverati/g16/g16/l9999.exe)

 ----------------------------------------------------------------------

 Electric dipole moment (input orientation):
 (Debye = 10**-18 statcoulomb cm , SI units = C m)
                  (au)            (Debye)         (10**-30 SI)
   Tot        0.782941D+00      0.199004D+01      0.663805D+01
   x         -0.627855D+00     -0.159585D+01     -0.532318D+01
   y          0.467707D+00      0.118879D+01      0.396538D+01
   z          0.666843D-02      0.169495D-01      0.565373D-01

 Dipole polarizability, Alpha (input orientation).
 (esu units = cm**3 , SI units = C**2 m**2 J**-1)
 Alpha(0;0):
               (au)            (10**-24 esu)      (10**-40 SI)
   iso        0.359215D+02      0.532302D+01      0.592266D+01
   aniso      0.256857D+02      0.380623D+01      0.423500D+01
   xx         0.451395D+02      0.668898D+01      0.744249D+01
   yx         0.114214D+01      0.169247D+00      0.188313D+00
   yy         0.273947D+02      0.405948D+01      0.451678D+01
   zx         0.115775D+02      0.171561D+01      0.190887D+01
   zy         0.234493D+01      0.347483D+00      0.386627D+00
   zz         0.352304D+02      0.522061D+01      0.580871D+01

 ----------------------------------------------------------------------

 Dipole orientation:
     6         -0.00206621          0.02383314          0.01147144
     6          2.24736131         -1.78417920         -0.02319659
     8          5.27679633         -0.57224755         -3.74648185
     1          0.61667736          2.01046761          0.11748013
     1         -1.18360964         -0.19257315         -1.69038288
     1         -1.21496017         -0.34882357          1.67433165
     1          3.50787644         -1.57019809          1.62160785
     1          1.71728968         -3.78644315         -0.24803982
     1          3.49383794         -1.33526708         -1.83215576
     1          6.75400688         -0.25393133         -2.64168131

 Electric dipole moment (dipole orientation):
 (Debye = 10**-18 statcoulomb cm , SI units = C m)
                  (au)            (Debye)         (10**-30 SI)
   Tot        0.782941D+00      0.199004D+01      0.663805D+01
   x          0.000000D+00      0.000000D+00      0.000000D+00
   y          0.000000D+00      0.000000D+00      0.000000D+00
   z          0.782941D+00      0.199004D+01      0.663805D+01

 Dipole polarizability, Alpha (dipole orientation).
 (esu units = cm**3 , SI units = C**2 m**2 J**-1)
 Alpha(0;0):
               (au)            (10**-24 esu)      (10**-40 SI)
   iso        0.359215D+02      0.532302D+01      0.592266D+01
   aniso      0.256857D+02      0.380623D+01      0.423500D+01
   xx         0.436716D+02      0.647146D+01      0.720047D+01
   yx         0.227928D+01      0.337755D+00      0.375803D+00
   yy         0.265151D+02      0.392913D+01      0.437175D+01
   zx        -0.115672D+02     -0.171409D+01     -0.190718D+01
   zy        -0.229768D+01     -0.340481D+00     -0.378836D+00
   zz         0.375779D+02      0.556847D+01      0.619576D+01

 ----------------------------------------------------------------------

 Test job not archived.
 1\1\GINC-NODE37\Freq\UBLYP\6-31G(d)\C2H7O1(2)\RPEVERATI\07-Oct-2020\0\
 \#P Freq BLYP/6-31G* 5D 7F Integral=UltraFineGrid SCF=(NoSymm,XQC,MaxC
 yc=120) IOp(1/33=1) Geom=Check Guess=Read\\TS search on BH76.\\0,2\C,0
 .0007264701,0.0112562891,-0.0083591372\C,-0.0076908307,-0.0525100731,1
 .5175865635\O,2.4578385582,-0.0536255975,2.4032574057\H,0.573742738,0.
 8795900821,-0.3733194235\H,0.4419629781,-0.8977139034,-0.4490166093\H,
 -1.0311643043,0.1046178136,-0.3977621618\H,-0.4101844921,0.857446694,1
 .9922657554\H,-0.5172044647,-0.9414651431,1.9245805524\H,1.1118050362,
 -0.1575402327,1.8964766205\H,2.3522765244,0.7757712978,2.9344770566\\V
 ersion=ES64L-G16RevA.03\State=2-A\HF=-155.4731518\S2=0.752824\S2-1=0.\
 S2A=0.750005\RMSD=2.346e-09\RMSF=4.652e-06\ZeroPoint=0.0800562\Thermal
 =0.0857408\Dipole=-0.6278549,0.4677069,0.0066684\DipoleDeriv=-0.133035
 1,-0.0077074,-0.2097371,0.0233299,0.0973131,0.0233019,-0.0857346,0.003
 6927,-0.032462,0.6937534,0.0375901,0.3245427,-0.0699787,0.1278765,-0.0
 203009,0.3155177,0.0246901,0.3118615,-0.169817,-0.0078662,0.1060244,-0
 .0356581,-0.2185581,0.1433424,0.0502818,0.1495,-0.3293726,0.0376526,-0
 .0838071,0.0679188,-0.0892111,-0.0665542,0.0608394,0.0296543,0.046168,
 -0.0020275,0.0593444,0.0673771,0.0605882,0.0676892,-0.0739191,-0.07407
 4,0.0304094,-0.0567875,-0.012447,-0.0667491,0.018085,-0.0275397,0.0148
 113,0.0729451,0.0058026,-0.1184231,0.0044113,-0.0461611,-0.0646,0.0509
 067,-0.0064773,0.0459312,-0.0814541,-0.089701,-0.0066518,-0.0660227,-0
 .0587937,-0.0798136,-0.0930269,0.0090128,-0.0240092,-0.0587962,0.08680
 28,-0.0195427,0.0449645,-0.041343,-0.6059683,-0.0282313,-0.374872,-0.0
 317503,0.1185909,-0.0330225,-0.2709756,-0.0195345,-0.0377654,0.3292328
 ,0.0466799,0.0505391,0.0988459,0.082556,-0.1029907,0.0754646,-0.131081
 9,0.2485109\Polar=45.1394728,1.1421363,27.3947273,11.5774988,2.3449335
 ,35.2303975\Quadrupole=-1.6613186,0.7614525,0.899866,1.5344145,0.06491
 93,1.7579959\PG=C01 [X(C2H7O1)]\NImag=1\\0.52165707,0.00163362,0.54850
 280,-0.01074358,0.00584575,0.44735501,-0.06091191,-0.00156602,0.008061
 27,0.37395271,-0.00015137,-0.07970685,0.00444117,0.00904356,0.55027846
 ,0.00216904,0.00419447,-0.18896930,-0.05874603,0.00894115,0.43810225,0
 .00484502,-0.00041266,0.00367507,-0.06180507,0.00737058,-0.02194124,0.
 04322824,-0.00044330,-0.00020788,0.00018444,-0.00240063,-0.00006221,-0
 .00133800,-0.04724889,0.31753251,0.00097044,0.00016711,0.00159600,-0.0
 2223011,0.00196584,-0.00720344,-0.01820115,0.20026313,0.13189785,-0.11
 492470,-0.10391078,0.04355082,-0.00017297,0.00181499,-0.00118550,-0.00
 004899,-0.00008357,0.00026367,0.12113532,-0.10316542,-0.20483809,0.061
 53679,0.00066627,-0.00001120,0.00156658,0.00031089,0.00017500,-0.00030
 618,0.11493973,0.21962033,0.04213242,0.06136447,-0.07066486,0.01752971
 ,0.02770384,-0.01176741,-0.00020712,-0.00042307,0.00071585,-0.04648334
 ,-0.06946762,0.07922603,-0.08760112,0.08374647,0.04091348,-0.00067303,
 -0.00145191,-0.00133314,-0.00008058,0.00002996,0.00007747,0.00747160,-
 0.01439878,-0.00780366,0.09065089,0.08327416,-0.22122901,-0.07993230,-
 0.00175577,0.00295563,-0.00009024,-0.00028576,0.00004272,-0.00005570,0
 .01084465,-0.01993795,-0.00926152,-0.09287801,0.23748907,0.03964252,-0
 .07938768,-0.08287085,0.01300656,-0.02863044,-0.01416552,-0.00052247,0
 .00019006,0.00017329,-0.00545997,0.00825319,0.00412065,-0.04352198,0.0
 8864118,0.09291110,-0.25585753,0.01890624,-0.07400934,0.00025888,-0.00
 016638,-0.00190125,-0.00090088,0.00018529,-0.00013544,-0.01549125,0.00
 184667,-0.00506012,-0.01187732,0.00058878,-0.00372522,0.27997190,0.019
 35264,-0.04663643,0.00645356,0.00099069,-0.00130131,0.00084774,0.00003
 746,0.00006158,-0.00015314,-0.02408490,0.00258171,-0.00923470,0.025245
 85,-0.00186818,0.00957862,-0.02128130,0.04575182,-0.07898302,0.0067956
 6,-0.06948597,-0.02924569,0.00306366,-0.01562021,0.00013834,-0.0000827
 8,0.00017795,0.00955928,-0.00182343,0.00334325,0.01177402,-0.00004857,
 0.00424271,0.08547821,-0.00780162,0.07955828,0.00118134,-0.00219374,-0
 .00207062,-0.07365177,0.08022406,0.04507788,0.00139095,0.00055358,0.00
 096057,-0.00019996,0.00038120,-0.00026378,0.00143827,0.00025670,-0.000
 14251,0.00039894,0.00014602,0.00078195,0.07632380,-0.00083810,0.003257
 14,0.00097686,0.07528506,-0.22347213,-0.08634129,-0.00018137,0.0005861
 6,0.00049182,-0.00009437,0.00078090,-0.00061273,-0.00019506,0.00159499
 ,0.00098608,-0.00022308,0.00023362,-0.00017119,-0.08489285,0.23811480,
 0.01278830,-0.02778521,-0.01242003,0.04124269,-0.08484202,-0.08999302,
 0.00024810,0.00067974,0.00016503,0.00011926,0.00052733,0.00125235,-0.0
 0039754,0.00116815,-0.00644994,-0.00045401,0.00024340,0.00116090,-0.04
 490473,0.09605723,0.09815207,0.00242155,0.00263789,-0.00176239,-0.0946
 2283,-0.10119949,0.04914140,0.00270798,0.00055158,0.00027591,0.0013090
 1,-0.00021971,-0.00034100,-0.00024944,-0.00024372,-0.00014779,0.000167
 84,-0.00023894,0.00095397,0.00719423,0.01071211,-0.00446529,0.09832817
 ,-0.00042854,0.00102971,0.00025872,-0.09486657,-0.21403842,0.07026675,
 -0.00128730,0.00069552,-0.00091052,0.00027763,0.00170400,-0.00038414,0
 .00024276,0.00079002,0.00059007,0.00024964,0.00021961,-0.00009710,-0.0
 1315749,-0.01855982,0.00861769,0.10650926,0.22833787,0.01640110,0.0264
 8364,-0.00956111,0.04372762,0.06920398,-0.07859886,0.00166047,-0.00055
 051,0.00015221,-0.00053379,-0.00030387,-0.00655202,0.00001888,-0.00058
 099,0.00125608,-0.00050612,-0.00025448,0.00104329,-0.00625242,-0.01013
 356,0.00575444,-0.04896684,-0.07957176,0.08468880,-0.01039080,0.000916
 65,-0.00733796,-0.08289411,0.00670780,-0.01039570,0.03458784,-0.001338
 87,0.01155988,0.00089543,-0.00026329,0.00035084,0.00096277,0.00013371,
 0.00059405,0.00316356,-0.00016158,-0.00066882,-0.01430966,-0.00007760,
 -0.00447773,-0.01716902,0.00207631,-0.00524152,0.08510708,-0.00056972,
 -0.00014685,-0.00013117,0.01796221,-0.03566261,0.00219653,0.00572408,-
 0.00945220,-0.00244341,0.00036911,-0.00005380,0.00020211,-0.00026591,0
 .00014867,-0.00029953,0.00012419,0.00095825,-0.00015655,0.01855302,-0.
 00290695,0.00527211,-0.01882370,0.00003569,-0.00436206,-0.01312130,0.0
 4893621,-0.02459906,0.00255927,-0.01508097,-0.01157549,-0.00264378,-0.
 03005971,0.01839923,-0.00437951,-0.00029628,0.00025293,-0.00004386,0.0
 0056972,0.00027267,0.00004520,0.00064105,0.00031841,0.00026752,-0.0045
 5637,0.00676360,-0.00147581,0.00190862,0.00443945,0.00112974,0.0014220
 4,0.01253512,0.00480590,0.04664170,-0.00041892,0.00024233,-0.00027674,
 0.00052009,-0.00219184,-0.00088547,-0.02392451,0.05019485,0.02645876,0
 .00002653,-0.00009756,0.00014605,-0.00004205,0.00006527,0.00027681,0.0
 0016585,-0.00000594,0.00021177,0.00023386,0.00050525,0.00030095,-0.000
 08749,0.00038432,-0.00030738,0.00004692,-0.00995199,-0.00680686,0.0234
 7972,0.00133604,-0.00002453,0.00036617,-0.00335881,0.00102064,-0.00024
 370,0.03597297,-0.30937121,-0.19901895,-0.00007251,-0.00002090,0.00011
 336,-0.00007536,0.00001405,0.00007845,-0.00023004,-0.00000067,0.000321
 92,0.00012951,0.00037129,0.00006159,0.00031474,-0.00021417,0.00006959,
 0.00512816,-0.00185642,-0.00026467,-0.03914470,0.31008191,0.00022184,-
 0.00023750,0.00010208,-0.00177054,0.00079659,-0.00172479,0.01675078,-0
 .19454350,-0.12737846,-0.00008336,0.00006107,-0.00024356,-0.00000019,0
 .00011478,0.00014143,-0.00000513,0.00005312,0.00013617,0.00005007,0.00
 022259,0.00046958,0.00087258,0.00010054,0.00039514,0.00308183,-0.00508
 394,-0.00118981,-0.01911789,0.19851624,0.12929222\\0.00000026,-0.00000
 059,0.00000006,-0.00001225,0.00000294,-0.00000133,-0.00001119,0.000006
 75,0.00000046,-0.00000235,0.00000154,0.00000022,0.00000209,0.00000133,
 -0.00000037,0.00000007,-0.00000258,-0.00000059,0.00000345,0.00000029,0
 .00000008,-0.00000052,0.00000044,-0.00000093,0.00001178,-0.00000781,0.
 00000111,0.00000865,-0.00000232,0.00000130\\\@


 IF YOU GIVE EVERYONE A PIECE OF YOUR MIND,
 PRETTY SOON IT WILL BE ALL GONE.
 Job cpu time:       0 days  0 hours  6 minutes 33.5 seconds.
 Elapsed time:       0 days  0 hours  0 minutes 39.2 seconds.
 File lengths (MBytes):  RWF=     13 Int=      0 D2E=      0 Chk=      2 Scr=      1
 Normal termination of Gaussian 16 at Wed Oct  7 14:57:49 2020.
