 Entering Gaussian System, Link 0=g16
 Input=MN_16_c3h7_BH76_HF_631Gs.in
 Output=MN_16_c3h7_BH76_HF_631Gs.log
 Initial command:
 /udrive/faculty/rpeverati/g16/g16/l1.exe "/udrive/scratch-directories/gaussian09/rpeverati/Gau-34164.inp" -scrdir="/udrive/scratch-directories/gaussian09/rpeverati/"
 Entering Link 1 = /udrive/faculty/rpeverati/g16/g16/l1.exe PID=     34176.
  
 Copyright (c) 1988,1990,1992,1993,1995,1998,2003,2009,2016,
            Gaussian, Inc.  All Rights Reserved.
  
 This is part of the Gaussian(R) 16 program.  It is based on
 the Gaussian(R) 09 system (copyright 2009, Gaussian, Inc.),
 the Gaussian(R) 03 system (copyright 2003, Gaussian, Inc.),
 the Gaussian(R) 98 system (copyright 1998, Gaussian, Inc.),
 the Gaussian(R) 94 system (copyright 1995, Gaussian, Inc.),
 the Gaussian 92(TM) system (copyright 1992, Gaussian, Inc.),
 the Gaussian 90(TM) system (copyright 1990, Gaussian, Inc.),
 the Gaussian 88(TM) system (copyright 1988, Gaussian, Inc.),
 the Gaussian 86(TM) system (copyright 1986, Carnegie Mellon
 University), and the Gaussian 82(TM) system (copyright 1983,
 Carnegie Mellon University). Gaussian is a federally registered
 trademark of Gaussian, Inc.
  
 This software contains proprietary and confidential information,
 including trade secrets, belonging to Gaussian, Inc.
  
 This software is provided under written license and may be
 used, copied, transmitted, or stored only in accord with that
 written license.
  
 The following legend is applicable only to US Government
 contracts under FAR:
  
                    RESTRICTED RIGHTS LEGEND
  
 Use, reproduction and disclosure by the US Government is
 subject to restrictions as set forth in subparagraphs (a)
 and (c) of the Commercial Computer Software - Restricted
 Rights clause in FAR 52.227-19.
  
 Gaussian, Inc.
 340 Quinnipiac St., Bldg. 40, Wallingford CT 06492
  
  
 ---------------------------------------------------------------
 Warning -- This program may not be used in any manner that
 competes with the business of Gaussian, Inc. or will provide
 assistance to any competitor of Gaussian, Inc.  The licensee
 of this program is prohibited from giving any competitor of
 Gaussian, Inc. access to this program.  By using this program,
 the user acknowledges that Gaussian, Inc. is engaged in the
 business of creating and licensing software in the field of
 computational chemistry and represents and warrants to the
 licensee that it is not a competitor of Gaussian, Inc. and that
 it will not use this program in any manner prohibited above.
 ---------------------------------------------------------------
  

 Cite this work as:
 Gaussian 16, Revision A.03,
 M. J. Frisch, G. W. Trucks, H. B. Schlegel, G. E. Scuseria, 
 M. A. Robb, J. R. Cheeseman, G. Scalmani, V. Barone, 
 G. A. Petersson, H. Nakatsuji, X. Li, M. Caricato, A. V. Marenich, 
 J. Bloino, B. G. Janesko, R. Gomperts, B. Mennucci, H. P. Hratchian, 
 J. V. Ortiz, A. F. Izmaylov, J. L. Sonnenberg, D. Williams-Young, 
 F. Ding, F. Lipparini, F. Egidi, J. Goings, B. Peng, A. Petrone, 
 T. Henderson, D. Ranasinghe, V. G. Zakrzewski, J. Gao, N. Rega, 
 G. Zheng, W. Liang, M. Hada, M. Ehara, K. Toyota, R. Fukuda, 
 J. Hasegawa, M. Ishida, T. Nakajima, Y. Honda, O. Kitao, H. Nakai, 
 T. Vreven, K. Throssell, J. A. Montgomery, Jr., J. E. Peralta, 
 F. Ogliaro, M. J. Bearpark, J. J. Heyd, E. N. Brothers, K. N. Kudin, 
 V. N. Staroverov, T. A. Keith, R. Kobayashi, J. Normand, 
 K. Raghavachari, A. P. Rendell, J. C. Burant, S. S. Iyengar, 
 J. Tomasi, M. Cossi, J. M. Millam, M. Klene, C. Adamo, R. Cammi, 
 J. W. Ochterski, R. L. Martin, K. Morokuma, O. Farkas, 
 J. B. Foresman, and D. J. Fox, Gaussian, Inc., Wallingford CT, 2016.
 
 ******************************************
 Gaussian 16:  ES64L-G16RevA.03 25-Dec-2016
                 7-Oct-2020 
 ******************************************
 %NoSave
 %nproc=12
 Will use up to   12 processors via shared memory.
 %mem=20GB
 %chk=MN_16_c3h7_BH76_HF_631Gs
 ----------------------------------------------------------------------
 #P Opt(MaxCyc=100) HF/6-31G* 5D 7F Integral=UltraFineGrid SCF=(NoSymm,
 XQC,MaxCyc=120) IOp(1/33=1)
 ----------------------------------------------------------------------
 1/6=100,18=20,19=15,33=1,38=1/1,3;
 2/9=110,12=2,17=6,18=5,40=1/2;
 3/5=1,6=6,7=1,8=11,11=9,25=1,30=1,71=1,75=-5/1,2,3;
 4/9=2/1;
 5/5=2,7=120,8=3,13=1,38=5/2,8;
 6/7=2,8=2,9=2,10=2,28=1/1;
 7//1,2,3,16;
 1/6=100,18=20,19=15,33=1/3(2);
 2/9=110/2;
 99//99;
 2/9=110/2;
 3/5=1,6=6,7=1,8=11,11=9,25=1,30=1,71=1,75=-5/1,2,3;
 4/5=5,9=2,16=3,69=1/1;
 5/5=2,7=120,8=3,13=1,38=5/2,8;
 7//1,2,3,16;
 1/6=100,18=20,19=15,33=1/3(-5);
 2/9=110/2;
 6/7=2,8=2,9=2,10=2,19=2,28=1/1;
 99/9=1/99;
 Leave Link    1 at Wed Oct  7 12:34:29 2020, MaxMem=  2684354560 cpu:               9.6 elap:               1.1
 (Enter /udrive/faculty/rpeverati/g16/g16/l101.exe)
 ONIOM data not found on unit 2.
 ------------------
 TS search on BH76.
 ------------------
 TstMul:  ICh=     0
 TstMul:  Mul=     2
 TstMul:  ICh=     0
 TstMul:  Mul=     2
 Symbolic Z-matrix:
 Charge =  0 Multiplicity = 2
 C                     1.20844  -0.28719   0.00006 
 C                    -0.06536   0.57613  -0.00006 
 C                    -1.31479  -0.23952  -0.00001 
 H                     1.24137  -0.92839   0.88123 
 H                     1.2414   -0.92858  -0.88098 
 H                     2.10187   0.33873   0. 
 H                    -0.04822   1.22685  -0.87709 
 H                    -0.04827   1.22703   0.87684 
 H                    -1.72914  -0.61577   0.92444 
 H                    -1.72876  -0.61642  -0.92437 
 
 RdStrC is calling ZToCFu for IStruc=1 NZ=    10.
 PrtBox:  NBox=     1 Levels=  1 BoxLen=    8.00 SMaxX=        7.24
          Shift=            3.267610            1.754770            1.746800
 Box      1 Number                   0 centers from      1 to     10:
 After GenITR:
 ITRead=  0  0  0  0  0  0  0  0  0  0
 MicOpt= -1 -1 -1 -1 -1 -1 -1 -1 -1 -1
 ITRead=  0  0  0  0  0  0  0  0  0  0
 MicOpt= -1 -1 -1 -1 -1 -1 -1 -1 -1 -1
 NAtoms=     10 NQM=       10 NQMF=       0 NMMI=      0 NMMIF=      0
                NMic=       0 NMicF=      0.
                    Isotopes and Nuclear Properties:
 (Nuclear quadrupole moments (NQMom) in fm**2, nuclear magnetic moments (NMagM)
  in nuclear magnetons)

  Atom         1           2           3           4           5           6           7           8           9          10
 IAtWgt=          12          12          12           1           1           1           1           1           1           1
 AtmWgt=  12.0000000  12.0000000  12.0000000   1.0078250   1.0078250   1.0078250   1.0078250   1.0078250   1.0078250   1.0078250
 NucSpn=           0           0           0           1           1           1           1           1           1           1
 AtZEff=   0.0000000   0.0000000   0.0000000   0.0000000   0.0000000   0.0000000   0.0000000   0.0000000   0.0000000   0.0000000
 NQMom=    0.0000000   0.0000000   0.0000000   0.0000000   0.0000000   0.0000000   0.0000000   0.0000000   0.0000000   0.0000000
 NMagM=    0.0000000   0.0000000   0.0000000   2.7928460   2.7928460   2.7928460   2.7928460   2.7928460   2.7928460   2.7928460
 AtZNuc=   6.0000000   6.0000000   6.0000000   1.0000000   1.0000000   1.0000000   1.0000000   1.0000000   1.0000000   1.0000000
 No MM parameters found.
 Leave Link  101 at Wed Oct  7 12:34:31 2020, MaxMem=  2684354560 cpu:              11.3 elap:               1.4
 (Enter /udrive/faculty/rpeverati/g16/g16/l103.exe)

 GradGradGradGradGradGradGradGradGradGradGradGradGradGradGradGradGradGrad
 Berny optimization.
 Optmz: redundant internal coordinate code flag= 1
 Initialization pass.
                           ----------------------------
                           !    Initial Parameters    !
                           ! (Angstroms and Degrees)  !
 --------------------------                            --------------------------
 ! Name  Definition              Value          Derivative Info.                !
 --------------------------------------------------------------------------------
 ! R1    R(1,2)                  1.5388         estimate D2E/DX2                !
 ! R2    R(1,4)                  1.0903         estimate D2E/DX2                !
 ! R3    R(1,5)                  1.0903         estimate D2E/DX2                !
 ! R4    R(1,6)                  1.0909         estimate D2E/DX2                !
 ! R5    R(2,3)                  1.4921         estimate D2E/DX2                !
 ! R6    R(2,7)                  1.0922         estimate D2E/DX2                !
 ! R7    R(2,8)                  1.0922         estimate D2E/DX2                !
 ! R8    R(3,9)                  1.0807         estimate D2E/DX2                !
 ! R9    R(3,10)                 1.0807         estimate D2E/DX2                !
 ! A1    A(2,1,4)              110.7944         estimate D2E/DX2                !
 ! A2    A(2,1,5)              110.7943         estimate D2E/DX2                !
 ! A3    A(2,1,6)              110.8583         estimate D2E/DX2                !
 ! A4    A(4,1,5)              107.8313         estimate D2E/DX2                !
 ! A5    A(4,1,6)              108.2251         estimate D2E/DX2                !
 ! A6    A(5,1,6)              108.2249         estimate D2E/DX2                !
 ! A7    A(1,2,3)              112.7352         estimate D2E/DX2                !
 ! A8    A(1,2,7)              108.7431         estimate D2E/DX2                !
 ! A9    A(1,2,8)              108.7441         estimate D2E/DX2                !
 ! A10   A(3,2,7)              109.8068         estimate D2E/DX2                !
 ! A11   A(3,2,8)              109.8069         estimate D2E/DX2                !
 ! A12   A(7,2,8)              106.8214         estimate D2E/DX2                !
 ! A13   A(2,3,9)              120.7581         estimate D2E/DX2                !
 ! A14   A(2,3,10)             120.7566         estimate D2E/DX2                !
 ! A15   A(9,3,10)             117.6061         estimate D2E/DX2                !
 ! D1    D(4,1,2,3)            -59.8222         estimate D2E/DX2                !
 ! D2    D(4,1,2,7)            178.1619         estimate D2E/DX2                !
 ! D3    D(4,1,2,8)             62.1947         estimate D2E/DX2                !
 ! D4    D(5,1,2,3)             59.8203         estimate D2E/DX2                !
 ! D5    D(5,1,2,7)            -62.1957         estimate D2E/DX2                !
 ! D6    D(5,1,2,8)           -178.1628         estimate D2E/DX2                !
 ! D7    D(6,1,2,3)            179.9989         estimate D2E/DX2                !
 ! D8    D(6,1,2,7)             57.9829         estimate D2E/DX2                !
 ! D9    D(6,1,2,8)            -57.9842         estimate D2E/DX2                !
 ! D10   D(1,2,3,9)             84.5228         estimate D2E/DX2                !
 ! D11   D(1,2,3,10)           -84.4871         estimate D2E/DX2                !
 ! D12   D(7,2,3,9)           -154.0632         estimate D2E/DX2                !
 ! D13   D(7,2,3,10)            36.9269         estimate D2E/DX2                !
 ! D14   D(8,2,3,9)            -36.8927         estimate D2E/DX2                !
 ! D15   D(8,2,3,10)           154.0974         estimate D2E/DX2                !
 --------------------------------------------------------------------------------
 Maximum allowed force set to 1.00D+20.
 Trust Radius=3.00D-01 FncErr=1.00D-07 GrdErr=1.00D-07 EigMax=2.50D+02 EigMin=1.00D-04
 Number of steps in this run=    100 maximum allowed number of steps=    100.
 GradGradGradGradGradGradGradGradGradGradGradGradGradGradGradGradGradGrad

 Leave Link  103 at Wed Oct  7 12:34:32 2020, MaxMem=  2684354560 cpu:               1.5 elap:               0.5
 (Enter /udrive/faculty/rpeverati/g16/g16/l202.exe)
                          Input orientation:                          
 ---------------------------------------------------------------------
 Center     Atomic      Atomic             Coordinates (Angstroms)
 Number     Number       Type             X           Y           Z
 ---------------------------------------------------------------------
      1          6           0        1.208440   -0.287189    0.000057
      2          6           0       -0.065359    0.576131   -0.000057
      3          6           0       -1.314788   -0.239518   -0.000011
      4          1           0        1.241370   -0.928394    0.881234
      5          1           0        1.241397   -0.928584   -0.880980
      6          1           0        2.101871    0.338727    0.000000
      7          1           0       -0.048218    1.226850   -0.877090
      8          1           0       -0.048272    1.227035    0.876836
      9          1           0       -1.729145   -0.615772    0.924436
     10          1           0       -1.728764   -0.616417   -0.924367
 ---------------------------------------------------------------------
                    Distance matrix (angstroms):
                    1          2          3          4          5
     1  C    0.000000
     2  C    1.538794   0.000000
     3  C    2.523678   1.492098   0.000000
     4  H    1.090275   2.178947   2.790177   0.000000
     5  H    1.090275   2.178946   2.790161   1.762213   0.000000
     6  H    1.090867   2.180194   3.465246   1.767096   1.767093
     7  H    2.154272   1.092207   2.126900   3.065912   2.511776
     8  H    2.154284   1.092204   2.126900   2.511786   3.065918
     9  H    3.097070   2.245774   1.080675   2.987233   3.490199
    10  H    3.096791   2.245759   1.080677   3.489874   2.986835
                    6          7          8          9         10
     6  H    0.000000
     7  H    2.486148   0.000000
     8  H    2.486171   1.753926   0.000000
     9  H    4.054914   3.076729   2.494701   0.000000
    10  H    4.054691   2.494815   3.076800   1.848802   0.000000
 Stoichiometry    C3H7(2)
 Framework group  C1[X(C3H7)]
 Deg. of freedom    24
 Full point group                 C1      NOp   1
 Largest Abelian subgroup         C1      NOp   1
 Largest concise Abelian subgroup C1      NOp   1
                         Standard orientation:                         
 ---------------------------------------------------------------------
 Center     Atomic      Atomic             Coordinates (Angstroms)
 Number     Number       Type             X           Y           Z
 ---------------------------------------------------------------------
      1          6           0        1.208440   -0.287189    0.000057
      2          6           0       -0.065359    0.576132   -0.000057
      3          6           0       -1.314788   -0.239517   -0.000011
      4          1           0        1.241370   -0.928394    0.881233
      5          1           0        1.241397   -0.928584   -0.880980
      6          1           0        2.101871    0.338727   -0.000000
      7          1           0       -0.048217    1.226850   -0.877090
      8          1           0       -0.048271    1.227036    0.876836
      9          1           0       -1.729145   -0.615771    0.924435
     10          1           0       -1.728764   -0.616416   -0.924367
 ---------------------------------------------------------------------
 Rotational constants (GHZ):          31.3019043           8.9092631           7.9970612
 Leave Link  202 at Wed Oct  7 12:34:33 2020, MaxMem=  2684354560 cpu:               2.1 elap:               0.7
 (Enter /udrive/faculty/rpeverati/g16/g16/l301.exe)
 Standard basis: 6-31G(d) (5D, 7F)
 Ernie: Thresh=  0.10000D-02 Tol=  0.10000D-05 Strict=F.
 There are    59 symmetry adapted cartesian basis functions of A   symmetry.
 There are    56 symmetry adapted basis functions of A   symmetry.
    56 basis functions,   112 primitive gaussians,    59 cartesian basis functions
    13 alpha electrons       12 beta electrons
       nuclear repulsion energy        75.8616206006 Hartrees.
 IExCor=    0 DFT=F Ex=HF Corr=None ExCW=0 ScaHFX=  1.000000
 ScaDFX=  1.000000  1.000000  1.000000  1.000000 ScalE2=  1.000000  1.000000
 IRadAn=      5 IRanWt=     -1 IRanGd=            0 ICorTp=0 IEmpDi=  4
 NAtoms=   10 NActive=   10 NUniq=   10 SFac= 1.00D+00 NAtFMM=   60 NAOKFM=F Big=F
 Integral buffers will be    131072 words long.
 Raffenetti 2 integral format.
 Two-electron integral symmetry is turned on.
 Leave Link  301 at Wed Oct  7 12:34:34 2020, MaxMem=  2684354560 cpu:               1.6 elap:               0.6
 (Enter /udrive/faculty/rpeverati/g16/g16/l302.exe)
 NPDir=0 NMtPBC=     1 NCelOv=     1 NCel=       1 NClECP=     1 NCelD=      1
         NCelK=      1 NCelE2=     1 NClLst=     1 CellRange=     0.0.
 One-electron integrals computed using PRISM.
 One-electron integral symmetry used in STVInt
 NBasis=    56 RedAO= T EigKep=  7.29D-03  NBF=    56
 NBsUse=    56 1.00D-06 EigRej= -1.00D+00 NBFU=    56
 Leave Link  302 at Wed Oct  7 12:34:36 2020, MaxMem=  2684354560 cpu:              12.1 elap:               1.8
 (Enter /udrive/faculty/rpeverati/g16/g16/l303.exe)
 DipDrv:  MaxL=1.
 Leave Link  303 at Wed Oct  7 12:34:37 2020, MaxMem=  2684354560 cpu:               3.3 elap:               0.8
 (Enter /udrive/faculty/rpeverati/g16/g16/l401.exe)
 SCF N**3 symmetry information disabled.
 ExpMin= 1.61D-01 ExpMax= 3.05D+03 ExpMxC= 4.57D+02 IAcc=3 IRadAn=         5 AccDes= 0.00D+00
 Harris functional with IExCor=  205 and IRadAn=       5 diagonalized for initial guess.
 HarFok:  IExCor=  205 AccDes= 0.00D+00 IRadAn=         5 IDoV= 1 UseB2=F ITyADJ=14
 ICtDFT=  3500011 ScaDFX=  1.000000  1.000000  1.000000  1.000000
 FoFCou: FMM=F IPFlag=           0 FMFlag=      100000 FMFlg1=           0
         NFxFlg=           0 DoJE=T BraDBF=F KetDBF=T FulRan=T
         wScrn=  0.000000 ICntrl=       500 IOpCl=  0 I1Cent=   200000004 NGrid=           0
         NMat0=    1 NMatS0=      1 NMatT0=    0 NMatD0=    1 NMtDS0=    0 NMtDT0=    0
 Petite list used in FoFCou.
 Harris En= -117.903690327864    
 JPrj=0 DoOrth=F DoCkMO=F.
 Initial guess <Sx>= 0.0000 <Sy>= 0.0000 <Sz>= 0.5000 <S**2>= 0.7500 S= 0.5000
 Leave Link  401 at Wed Oct  7 12:34:39 2020, MaxMem=  2684354560 cpu:              12.0 elap:               1.6
 (Enter /udrive/faculty/rpeverati/g16/g16/l502.exe)
 Keep R1 and R2 ints in memory in canonical form, NReq=5057588.
 FoFCou: FMM=F IPFlag=           0 FMFlag=           0 FMFlg1=           0
         NFxFlg=           0 DoJE=F BraDBF=F KetDBF=F FulRan=T
         wScrn=  0.000000 ICntrl=       600 IOpCl=  0 I1Cent=           0 NGrid=           0
         NMat0=    1 NMatS0=   1596 NMatT0=    0 NMatD0=    1 NMtDS0=    0 NMtDT0=    0
 Symmetry not used in FoFCou.
 Two-electron integral symmetry not used.
 UHF open shell SCF:
 Using DIIS extrapolation, IDIIS=  1040.
 NGot=  2684354560 LenX=  2681797160 LenY=  2681793238
 Requested convergence on RMS density matrix=1.00D-08 within 120 cycles.
 Requested convergence on MAX density matrix=1.00D-06.
 Requested convergence on             energy=1.00D-06.
 No special actions if energy rises.

 Cycle   1  Pass 1  IDiag  1:
 E= -117.428901290396    
 DIIS: error= 6.48D-02 at cycle   1 NSaved=   1.
 NSaved= 1 IEnMin= 1 EnMin= -117.428901290396     IErMin= 1 ErrMin= 6.48D-02
 ErrMax= 6.48D-02  0.00D+00 EMaxC= 1.00D-01 BMatC= 7.71D-01 BMatP= 7.71D-01
 IDIUse=3 WtCom= 3.52D-01 WtEn= 6.48D-01
 Coeff-Com:  0.100D+01
 Coeff-En:   0.100D+01
 Coeff:      0.100D+01
 Gap=     0.523 Goal=   None    Shift=    0.000
 Gap=     0.677 Goal=   None    Shift=    0.000
 GapD=    0.523 DampG=2.000 DampE=0.500 DampFc=1.0000 IDamp=-1.
 RMSDP=9.05D-03 MaxDP=1.19D-01              OVMax= 1.29D-01

 Cycle   2  Pass 1  IDiag  1:
 E= -117.597821903394     Delta-E=       -0.168920612997 Rises=F Damp=F
 DIIS: error= 2.40D-02 at cycle   2 NSaved=   2.
 NSaved= 2 IEnMin= 2 EnMin= -117.597821903394     IErMin= 2 ErrMin= 2.40D-02
 ErrMax= 2.40D-02  0.00D+00 EMaxC= 1.00D-01 BMatC= 1.26D-01 BMatP= 7.71D-01
 IDIUse=3 WtCom= 7.60D-01 WtEn= 2.40D-01
 Coeff-Com:  0.257D+00 0.743D+00
 Coeff-En:   0.000D+00 0.100D+01
 Coeff:      0.195D+00 0.805D+00
 Gap=     0.592 Goal=   None    Shift=    0.000
 Gap=     0.675 Goal=   None    Shift=    0.000
 RMSDP=3.10D-03 MaxDP=3.35D-02 DE=-1.69D-01 OVMax= 5.42D-02

 Cycle   3  Pass 1  IDiag  1:
 E= -117.628789109965     Delta-E=       -0.030967206571 Rises=F Damp=F
 DIIS: error= 4.40D-03 at cycle   3 NSaved=   3.
 NSaved= 3 IEnMin= 3 EnMin= -117.628789109965     IErMin= 3 ErrMin= 4.40D-03
 ErrMax= 4.40D-03  0.00D+00 EMaxC= 1.00D-01 BMatC= 4.36D-03 BMatP= 1.26D-01
 IDIUse=3 WtCom= 9.56D-01 WtEn= 4.40D-02
 Coeff-Com: -0.301D-01 0.788D-01 0.951D+00
 Coeff-En:   0.000D+00 0.000D+00 0.100D+01
 Coeff:     -0.288D-01 0.753D-01 0.953D+00
 Gap=     0.588 Goal=   None    Shift=    0.000
 Gap=     0.626 Goal=   None    Shift=    0.000
 RMSDP=6.49D-04 MaxDP=7.88D-03 DE=-3.10D-02 OVMax= 1.05D-02

 Cycle   4  Pass 1  IDiag  1:
 E= -117.630310101833     Delta-E=       -0.001520991868 Rises=F Damp=F
 DIIS: error= 1.85D-03 at cycle   4 NSaved=   4.
 NSaved= 4 IEnMin= 4 EnMin= -117.630310101833     IErMin= 4 ErrMin= 1.85D-03
 ErrMax= 1.85D-03  0.00D+00 EMaxC= 1.00D-01 BMatC= 3.19D-04 BMatP= 4.36D-03
 IDIUse=3 WtCom= 9.81D-01 WtEn= 1.85D-02
 Coeff-Com: -0.484D-02-0.316D-01-0.704D-01 0.111D+01
 Coeff-En:   0.000D+00 0.000D+00 0.000D+00 0.100D+01
 Coeff:     -0.475D-02-0.310D-01-0.691D-01 0.110D+01
 Gap=     0.588 Goal=   None    Shift=    0.000
 Gap=     0.631 Goal=   None    Shift=    0.000
 RMSDP=2.53D-04 MaxDP=3.93D-03 DE=-1.52D-03 OVMax= 7.29D-03

 Cycle   5  Pass 1  IDiag  1:
 E= -117.630511394159     Delta-E=       -0.000201292326 Rises=F Damp=F
 DIIS: error= 4.74D-04 at cycle   5 NSaved=   5.
 NSaved= 5 IEnMin= 5 EnMin= -117.630511394159     IErMin= 5 ErrMin= 4.74D-04
 ErrMax= 4.74D-04  0.00D+00 EMaxC= 1.00D-01 BMatC= 7.93D-05 BMatP= 3.19D-04
 IDIUse=3 WtCom= 9.95D-01 WtEn= 4.74D-03
 Coeff-Com:  0.540D-02-0.989D-02-0.155D+00-0.142D+00 0.130D+01
 Coeff-En:   0.000D+00 0.000D+00 0.000D+00 0.000D+00 0.100D+01
 Coeff:      0.538D-02-0.985D-02-0.154D+00-0.141D+00 0.130D+01
 Gap=     0.591 Goal=   None    Shift=    0.000
 Gap=     0.631 Goal=   None    Shift=    0.000
 RMSDP=1.84D-04 MaxDP=2.95D-03 DE=-2.01D-04 OVMax= 3.32D-03

 Cycle   6  Pass 1  IDiag  1:
 E= -117.630576161635     Delta-E=       -0.000064767476 Rises=F Damp=F
 DIIS: error= 2.67D-04 at cycle   6 NSaved=   6.
 NSaved= 6 IEnMin= 6 EnMin= -117.630576161635     IErMin= 6 ErrMin= 2.67D-04
 ErrMax= 2.67D-04  0.00D+00 EMaxC= 1.00D-01 BMatC= 1.35D-05 BMatP= 7.93D-05
 IDIUse=3 WtCom= 9.97D-01 WtEn= 2.67D-03
 Coeff-Com: -0.126D-02 0.976D-02 0.737D-01-0.139D+00-0.494D+00 0.155D+01
 Coeff-En:   0.000D+00 0.000D+00 0.000D+00 0.000D+00 0.000D+00 0.100D+01
 Coeff:     -0.126D-02 0.974D-02 0.735D-01-0.138D+00-0.492D+00 0.155D+01
 Gap=     0.591 Goal=   None    Shift=    0.000
 Gap=     0.632 Goal=   None    Shift=    0.000
 RMSDP=9.23D-05 MaxDP=1.50D-03 DE=-6.48D-05 OVMax= 1.52D-03

 Cycle   7  Pass 1  IDiag  1:
 E= -117.630589202608     Delta-E=       -0.000013040973 Rises=F Damp=F
 DIIS: error= 9.23D-05 at cycle   7 NSaved=   7.
 NSaved= 7 IEnMin= 7 EnMin= -117.630589202608     IErMin= 7 ErrMin= 9.23D-05
 ErrMax= 9.23D-05  0.00D+00 EMaxC= 1.00D-01 BMatC= 1.31D-06 BMatP= 1.35D-05
 IDIUse=1 WtCom= 1.00D+00 WtEn= 0.00D+00
 Coeff-Com: -0.556D-03 0.839D-04 0.109D-01 0.460D-01-0.110D+00-0.286D+00
 Coeff-Com:  0.134D+01
 Coeff:     -0.556D-03 0.839D-04 0.109D-01 0.460D-01-0.110D+00-0.286D+00
 Coeff:      0.134D+01
 Gap=     0.591 Goal=   None    Shift=    0.000
 Gap=     0.632 Goal=   None    Shift=    0.000
 RMSDP=3.26D-05 MaxDP=5.36D-04 DE=-1.30D-05 OVMax= 5.06D-04

 Cycle   8  Pass 1  IDiag  1:
 E= -117.630590554294     Delta-E=       -0.000001351686 Rises=F Damp=F
 DIIS: error= 3.57D-05 at cycle   8 NSaved=   8.
 NSaved= 8 IEnMin= 8 EnMin= -117.630590554294     IErMin= 8 ErrMin= 3.57D-05
 ErrMax= 3.57D-05  0.00D+00 EMaxC= 1.00D-01 BMatC= 1.06D-07 BMatP= 1.31D-06
 IDIUse=1 WtCom= 1.00D+00 WtEn= 0.00D+00
 Coeff-Com:  0.308D-03-0.782D-03-0.981D-02-0.869D-02 0.792D-01 0.319D-02
 Coeff-Com: -0.545D+00 0.148D+01
 Coeff:      0.308D-03-0.782D-03-0.981D-02-0.869D-02 0.792D-01 0.319D-02
 Coeff:     -0.545D+00 0.148D+01
 Gap=     0.591 Goal=   None    Shift=    0.000
 Gap=     0.632 Goal=   None    Shift=    0.000
 RMSDP=8.93D-06 MaxDP=1.07D-04 DE=-1.35D-06 OVMax= 1.97D-04

 Cycle   9  Pass 1  IDiag  1:
 E= -117.630590661492     Delta-E=       -0.000000107198 Rises=F Damp=F
 DIIS: error= 8.36D-06 at cycle   9 NSaved=   9.
 NSaved= 9 IEnMin= 9 EnMin= -117.630590661492     IErMin= 9 ErrMin= 8.36D-06
 ErrMax= 8.36D-06  0.00D+00 EMaxC= 1.00D-01 BMatC= 1.56D-08 BMatP= 1.06D-07
 IDIUse=1 WtCom= 1.00D+00 WtEn= 0.00D+00
 Coeff-Com: -0.763D-04 0.314D-03 0.313D-02-0.105D-02-0.238D-01 0.285D-01
 Coeff-Com:  0.109D+00-0.664D+00 0.155D+01
 Coeff:     -0.763D-04 0.314D-03 0.313D-02-0.105D-02-0.238D-01 0.285D-01
 Coeff:      0.109D+00-0.664D+00 0.155D+01
 Gap=     0.591 Goal=   None    Shift=    0.000
 Gap=     0.632 Goal=   None    Shift=    0.000
 RMSDP=3.57D-06 MaxDP=4.20D-05 DE=-1.07D-07 OVMax= 5.78D-05

 Cycle  10  Pass 1  IDiag  1:
 E= -117.630590677312     Delta-E=       -0.000000015820 Rises=F Damp=F
 DIIS: error= 3.31D-06 at cycle  10 NSaved=  10.
 NSaved=10 IEnMin=10 EnMin= -117.630590677312     IErMin=10 ErrMin= 3.31D-06
 ErrMax= 3.31D-06  0.00D+00 EMaxC= 1.00D-01 BMatC= 2.94D-09 BMatP= 1.56D-08
 IDIUse=1 WtCom= 1.00D+00 WtEn= 0.00D+00
 Coeff-Com: -0.399D-04 0.881D-04 0.117D-02 0.169D-02-0.982D-02-0.601D-02
 Coeff-Com:  0.793D-01-0.139D+00-0.266D+00 0.134D+01
 Coeff:     -0.399D-04 0.881D-04 0.117D-02 0.169D-02-0.982D-02-0.601D-02
 Coeff:      0.793D-01-0.139D+00-0.266D+00 0.134D+01
 Gap=     0.591 Goal=   None    Shift=    0.000
 Gap=     0.632 Goal=   None    Shift=    0.000
 RMSDP=1.47D-06 MaxDP=1.84D-05 DE=-1.58D-08 OVMax= 2.67D-05

 Cycle  11  Pass 1  IDiag  1:
 E= -117.630590680192     Delta-E=       -0.000000002880 Rises=F Damp=F
 DIIS: error= 1.48D-06 at cycle  11 NSaved=  11.
 NSaved=11 IEnMin=11 EnMin= -117.630590680192     IErMin=11 ErrMin= 1.48D-06
 ErrMax= 1.48D-06  0.00D+00 EMaxC= 1.00D-01 BMatC= 5.54D-10 BMatP= 2.94D-09
 IDIUse=1 WtCom= 1.00D+00 WtEn= 0.00D+00
 Coeff-Com:  0.159D-04-0.627D-04-0.652D-03 0.229D-03 0.498D-02-0.607D-02
 Coeff-Com: -0.224D-01 0.139D+00-0.331D+00-0.158D-01 0.123D+01
 Coeff:      0.159D-04-0.627D-04-0.652D-03 0.229D-03 0.498D-02-0.607D-02
 Coeff:     -0.224D-01 0.139D+00-0.331D+00-0.158D-01 0.123D+01
 Gap=     0.591 Goal=   None    Shift=    0.000
 Gap=     0.632 Goal=   None    Shift=    0.000
 RMSDP=6.76D-07 MaxDP=8.44D-06 DE=-2.88D-09 OVMax= 1.05D-05

 Cycle  12  Pass 1  IDiag  1:
 E= -117.630590680734     Delta-E=       -0.000000000543 Rises=F Damp=F
 DIIS: error= 4.39D-07 at cycle  12 NSaved=  12.
 NSaved=12 IEnMin=12 EnMin= -117.630590680734     IErMin=12 ErrMin= 4.39D-07
 ErrMax= 4.39D-07  0.00D+00 EMaxC= 1.00D-01 BMatC= 7.08D-11 BMatP= 5.54D-10
 IDIUse=1 WtCom= 1.00D+00 WtEn= 0.00D+00
 Coeff-Com:  0.640D-06 0.510D-05 0.194D-04-0.335D-03 0.443D-04 0.269D-02
 Coeff-Com: -0.600D-02-0.168D-01 0.131D+00-0.203D+00-0.334D+00 0.143D+01
 Coeff:      0.640D-06 0.510D-05 0.194D-04-0.335D-03 0.443D-04 0.269D-02
 Coeff:     -0.600D-02-0.168D-01 0.131D+00-0.203D+00-0.334D+00 0.143D+01
 Gap=     0.591 Goal=   None    Shift=    0.000
 Gap=     0.632 Goal=   None    Shift=    0.000
 RMSDP=2.58D-07 MaxDP=2.92D-06 DE=-5.43D-10 OVMax= 3.52D-06

 Cycle  13  Pass 1  IDiag  1:
 E= -117.630590680806     Delta-E=       -0.000000000072 Rises=F Damp=F
 DIIS: error= 1.56D-07 at cycle  13 NSaved=  13.
 NSaved=13 IEnMin=13 EnMin= -117.630590680806     IErMin=13 ErrMin= 1.56D-07
 ErrMax= 1.56D-07  0.00D+00 EMaxC= 1.00D-01 BMatC= 9.36D-12 BMatP= 7.08D-11
 IDIUse=1 WtCom= 1.00D+00 WtEn= 0.00D+00
 Coeff-Com: -0.214D-05 0.334D-05 0.587D-04 0.213D-03-0.599D-03-0.121D-02
 Coeff-Com:  0.680D-02-0.343D-02-0.597D-01 0.153D+00 0.106D+00-0.105D+01
 Coeff-Com:  0.185D+01
 Coeff:     -0.214D-05 0.334D-05 0.587D-04 0.213D-03-0.599D-03-0.121D-02
 Coeff:      0.680D-02-0.343D-02-0.597D-01 0.153D+00 0.106D+00-0.105D+01
 Coeff:      0.185D+01
 Gap=     0.591 Goal=   None    Shift=    0.000
 Gap=     0.632 Goal=   None    Shift=    0.000
 RMSDP=1.07D-07 MaxDP=2.08D-06 DE=-7.18D-11 OVMax= 1.52D-06

 Cycle  14  Pass 1  IDiag  1:
 E= -117.630590680816     Delta-E=       -0.000000000010 Rises=F Damp=F
 DIIS: error= 5.17D-08 at cycle  14 NSaved=  14.
 NSaved=14 IEnMin=14 EnMin= -117.630590680816     IErMin=14 ErrMin= 5.17D-08
 ErrMax= 5.17D-08  0.00D+00 EMaxC= 1.00D-01 BMatC= 5.96D-13 BMatP= 9.36D-12
 IDIUse=1 WtCom= 1.00D+00 WtEn= 0.00D+00
 Coeff-Com:  0.102D-05-0.239D-05-0.316D-04-0.676D-04 0.292D-03 0.286D-03
 Coeff-Com: -0.263D-02 0.360D-02 0.144D-01-0.512D-01-0.166D-01 0.347D+00
 Coeff-Com: -0.832D+00 0.154D+01
 Coeff:      0.102D-05-0.239D-05-0.316D-04-0.676D-04 0.292D-03 0.286D-03
 Coeff:     -0.263D-02 0.360D-02 0.144D-01-0.512D-01-0.166D-01 0.347D+00
 Coeff:     -0.832D+00 0.154D+01
 Gap=     0.591 Goal=   None    Shift=    0.000
 Gap=     0.632 Goal=   None    Shift=    0.000
 RMSDP=2.41D-08 MaxDP=4.01D-07 DE=-9.98D-12 OVMax= 3.58D-07

 Cycle  15  Pass 1  IDiag  1:
 E= -117.630590680818     Delta-E=       -0.000000000002 Rises=F Damp=F
 DIIS: error= 1.67D-08 at cycle  15 NSaved=  15.
 NSaved=15 IEnMin=15 EnMin= -117.630590680818     IErMin=15 ErrMin= 1.67D-08
 ErrMax= 1.67D-08  0.00D+00 EMaxC= 1.00D-01 BMatC= 4.94D-14 BMatP= 5.96D-13
 IDIUse=1 WtCom= 1.00D+00 WtEn= 0.00D+00
 Coeff-Com: -0.157D-06 0.463D-06 0.515D-05 0.368D-05-0.397D-04 0.643D-05
 Coeff-Com:  0.250D-03-0.781D-03 0.270D-03 0.316D-02-0.254D-02-0.211D-01
 Coeff-Com:  0.998D-01-0.444D+00 0.136D+01
 Coeff:     -0.157D-06 0.463D-06 0.515D-05 0.368D-05-0.397D-04 0.643D-05
 Coeff:      0.250D-03-0.781D-03 0.270D-03 0.316D-02-0.254D-02-0.211D-01
 Coeff:      0.998D-01-0.444D+00 0.136D+01
 Gap=     0.591 Goal=   None    Shift=    0.000
 Gap=     0.632 Goal=   None    Shift=    0.000
 RMSDP=5.33D-09 MaxDP=7.05D-08 DE=-1.79D-12 OVMax= 7.40D-08

 SCF Done:  E(UHF) =  -117.630590681     A.U. after   15 cycles
            NFock= 15  Conv=0.53D-08     -V/T= 1.9991
 <Sx>= 0.0000 <Sy>= 0.0000 <Sz>= 0.5000 <S**2>= 0.7629 S= 0.5064
 <L.S>= 0.000000000000E+00
 KE= 1.177317853424D+02 PE=-4.251286711374D+02 EE= 1.139046745136D+02
 Annihilation of the first spin contaminant:
 S**2 before annihilation     0.7629,   after     0.7501
 Leave Link  502 at Wed Oct  7 12:34:48 2020, MaxMem=  2684354560 cpu:              80.6 elap:               8.3
 (Enter /udrive/faculty/rpeverati/g16/g16/l508.exe)
 QCSCF skips out because SCF is already converged.
 Leave Link  508 at Wed Oct  7 12:34:49 2020, MaxMem=  2684354560 cpu:               0.8 elap:               0.5
 (Enter /udrive/faculty/rpeverati/g16/g16/l601.exe)
 Copying SCF densities to generalized density rwf, IOpCl= 1 IROHF=0.

 **********************************************************************

            Population analysis using the SCF density.

 **********************************************************************

 Orbital symmetries:
 Alpha Orbitals:
       Occupied  (A) (A) (A) (A) (A) (A) (A) (A) (A) (A) (A) (A)
                 (A)
       Virtual   (A) (A) (A) (A) (A) (A) (A) (A) (A) (A) (A) (A)
                 (A) (A) (A) (A) (A) (A) (A) (A) (A) (A) (A) (A)
                 (A) (A) (A) (A) (A) (A) (A) (A) (A) (A) (A) (A)
                 (A) (A) (A) (A) (A) (A) (A)
 Beta  Orbitals:
       Occupied  (A) (A) (A) (A) (A) (A) (A) (A) (A) (A) (A) (A)
       Virtual   (A) (A) (A) (A) (A) (A) (A) (A) (A) (A) (A) (A)
                 (A) (A) (A) (A) (A) (A) (A) (A) (A) (A) (A) (A)
                 (A) (A) (A) (A) (A) (A) (A) (A) (A) (A) (A) (A)
                 (A) (A) (A) (A) (A) (A) (A) (A)
 The electronic state is 2-A.
 Alpha  occ. eigenvalues --  -11.22114 -11.21750 -11.20981  -1.05989  -0.92735
 Alpha  occ. eigenvalues --   -0.79918  -0.63449  -0.59186  -0.54997  -0.53074
 Alpha  occ. eigenvalues --   -0.49385  -0.47530  -0.34789
 Alpha virt. eigenvalues --    0.24327   0.28380   0.29391   0.30635   0.33076
 Alpha virt. eigenvalues --    0.33204   0.37150   0.40170   0.44728   0.71361
 Alpha virt. eigenvalues --    0.73634   0.74300   0.75932   0.80579   0.81510
 Alpha virt. eigenvalues --    0.91776   0.95495   1.08754   1.09364   1.14671
 Alpha virt. eigenvalues --    1.17412   1.17928   1.21306   1.22026   1.25455
 Alpha virt. eigenvalues --    1.29712   1.46979   1.70579   1.74255   1.89348
 Alpha virt. eigenvalues --    1.97751   2.04082   2.22626   2.27437   2.30241
 Alpha virt. eigenvalues --    2.41841   2.48313   2.54615   2.66641   2.72915
 Alpha virt. eigenvalues --    2.82543   2.92477   3.03113
  Beta  occ. eigenvalues --  -11.22082 -11.20720 -11.19602  -1.03821  -0.88407
  Beta  occ. eigenvalues --   -0.76805  -0.62712  -0.58180  -0.54216  -0.50555
  Beta  occ. eigenvalues --   -0.48498  -0.47259
  Beta virt. eigenvalues --    0.15912   0.25231   0.29674   0.30383   0.31113
  Beta virt. eigenvalues --    0.33369   0.33771   0.37850   0.41052   0.45927
  Beta virt. eigenvalues --    0.72060   0.73864   0.75965   0.80332   0.81920
  Beta virt. eigenvalues --    0.89745   0.93875   0.97691   1.09343   1.10924
  Beta virt. eigenvalues --    1.15155   1.18004   1.18298   1.22030   1.24157
  Beta virt. eigenvalues --    1.25626   1.29994   1.48384   1.72365   1.75361
  Beta virt. eigenvalues --    1.92278   2.04313   2.07799   2.24254   2.27701
  Beta virt. eigenvalues --    2.31424   2.47928   2.50219   2.55175   2.66811
  Beta virt. eigenvalues --    2.74132   2.83363   2.93268   3.03984
          Condensed to atoms (all electrons):
               1          2          3          4          5          6
     1  C    5.137306   0.332024  -0.068613   0.390278   0.390280   0.387504
     2  C    0.332024   5.055914   0.325213  -0.038686  -0.038687  -0.036344
     3  C   -0.068613   0.325213   5.403128  -0.001522  -0.001524   0.005132
     4  H    0.390278  -0.038686  -0.001522   0.542975  -0.029202  -0.028298
     5  H    0.390280  -0.038687  -0.001524  -0.029202   0.542978  -0.028299
     6  H    0.387504  -0.036344   0.005132  -0.028298  -0.028299   0.543408
     7  H   -0.044362   0.402979  -0.043136   0.004197  -0.002720  -0.002194
     8  H   -0.044355   0.402977  -0.043130  -0.002720   0.004197  -0.002194
     9  H    0.000741  -0.037270   0.386384   0.000891   0.000050  -0.000091
    10  H    0.000739  -0.037274   0.386381   0.000050   0.000892  -0.000091
               7          8          9         10
     1  C   -0.044362  -0.044355   0.000741   0.000739
     2  C    0.402979   0.402977  -0.037270  -0.037274
     3  C   -0.043136  -0.043130   0.386384   0.386381
     4  H    0.004197  -0.002720   0.000891   0.000050
     5  H   -0.002720   0.004197   0.000050   0.000892
     6  H   -0.002194  -0.002194  -0.000091  -0.000091
     7  H    0.546943  -0.029084   0.003077  -0.002860
     8  H   -0.029084   0.546934  -0.002862   0.003078
     9  H    0.003077  -0.002862   0.506798  -0.028141
    10  H   -0.002860   0.003078  -0.028141   0.506809
          Atomic-Atomic Spin Densities.
               1          2          3          4          5          6
     1  C    0.103710   0.020716  -0.034649  -0.004128  -0.004125  -0.011274
     2  C    0.020716  -0.136390  -0.063080   0.000562   0.000563  -0.001202
     3  C   -0.034649  -0.063080   1.407767   0.002067   0.002064   0.001820
     4  H   -0.004128   0.000562   0.002067  -0.004396   0.000879   0.001411
     5  H   -0.004125   0.000563   0.002064   0.000879  -0.004397   0.001410
     6  H   -0.011274  -0.001202   0.001820   0.001411   0.001410   0.014752
     7  H   -0.008701   0.008353  -0.008083   0.000137   0.000276   0.001191
     8  H   -0.008691   0.008347  -0.008073   0.000276   0.000137   0.001189
     9  H   -0.000066  -0.000546  -0.014828  -0.000044   0.000027   0.000012
    10  H   -0.000066  -0.000546  -0.014828   0.000027  -0.000044   0.000012
               7          8          9         10
     1  C   -0.008701  -0.008691  -0.000066  -0.000066
     2  C    0.008353   0.008347  -0.000546  -0.000546
     3  C   -0.008083  -0.008073  -0.014828  -0.014828
     4  H    0.000137   0.000276  -0.000044   0.000027
     5  H    0.000276   0.000137   0.000027  -0.000044
     6  H    0.001191   0.001189   0.000012   0.000012
     7  H    0.022092   0.001592  -0.000056   0.000866
     8  H    0.001592   0.022056   0.000866  -0.000057
     9  H   -0.000056   0.000866  -0.087528   0.003218
    10  H    0.000866  -0.000057   0.003218  -0.087527
 Mulliken charges and spin densities:
               1          2
     1  C   -0.481542   0.052726
     2  C   -0.330847  -0.163222
     3  C   -0.348312   1.270177
     4  H    0.162037  -0.003209
     5  H    0.162035  -0.003210
     6  H    0.161466   0.009321
     7  H    0.167161   0.017666
     8  H    0.167161   0.017642
     9  H    0.170423  -0.098946
    10  H    0.170417  -0.098944
 Sum of Mulliken charges =  -0.00000   1.00000
 Mulliken charges and spin densities with hydrogens summed into heavy atoms:
               1          2
     1  C    0.003996   0.055628
     2  C    0.003475  -0.127915
     3  C   -0.007472   1.072287
 Electronic spatial extent (au):  <R**2>=            211.1084
 Charge=             -0.0000 electrons
 Dipole moment (field-independent basis, Debye):
    X=              0.1347    Y=             -0.0304    Z=              0.0001  Tot=              0.1381
 Quadrupole moment (field-independent basis, Debye-Ang):
   XX=            -21.9099   YY=            -21.4589   ZZ=            -20.1981
   XY=              0.7623   XZ=             -0.0005   YZ=              0.0005
 Traceless Quadrupole moment (field-independent basis, Debye-Ang):
   XX=             -0.7209   YY=             -0.2699   ZZ=              0.9908
   XY=              0.7623   XZ=             -0.0005   YZ=              0.0005
 Octapole moment (field-independent basis, Debye-Ang**2):
  XXX=              1.6386  YYY=              0.6514  ZZZ=              0.0002  XYY=              0.5613
  XXY=             -0.8052  XXZ=              0.0012  XZZ=             -1.0520  YZZ=             -0.4715
  YYZ=             -0.0005  XYZ=             -0.0006
 Hexadecapole moment (field-independent basis, Debye-Ang**3):
 XXXX=           -191.7473 YYYY=            -64.3465 ZZZZ=            -41.1427 XXXY=              5.4107
 XXXZ=             -0.0045 YYYX=              0.0990 YYYZ=              0.0013 ZZZX=             -0.0016
 ZZZY=              0.0002 XXYY=            -41.8252 XXZZ=            -36.5474 YYZZ=            -15.8870
 XXYZ=              0.0007 YYXZ=              0.0003 ZZXY=              0.6282
 N-N= 7.586162060062D+01 E-N=-4.251286711896D+02  KE= 1.177317853424D+02
                          Isotropic Fermi Contact Couplings
        Atom                 a.u.       MegaHertz       Gauss      10(-4) cm-1
     1  C(13)              0.06538      73.50428      26.22816      24.51839
     2  C(13)             -0.05773     -64.89558     -23.15636     -21.64684
     3  C(13)              0.24920     280.14523      99.96278      93.44639
     4  H(1)              -0.00157      -7.03795      -2.51132      -2.34761
     5  H(1)              -0.00157      -7.03710      -2.51101      -2.34733
     6  H(1)               0.00233      10.40782       3.71377       3.47167
     7  H(1)               0.00807      36.06375      12.86844      12.02957
     8  H(1)               0.00806      36.00575      12.84775      12.01022
     9  H(1)              -0.02975    -132.97600     -47.44914     -44.35602
    10  H(1)              -0.02975    -132.97244     -47.44787     -44.35483
 --------------------------------------------------------
       Center         ----  Spin Dipole Couplings  ----
                      3XX-RR        3YY-RR        3ZZ-RR
 --------------------------------------------------------
     1   Atom        0.053445     -0.019925     -0.033521
     2   Atom       -0.001375     -0.000229      0.001605
     3   Atom        0.037763      0.488626     -0.526389
     4   Atom        0.007769     -0.004540     -0.003229
     5   Atom        0.007768     -0.004538     -0.003231
     6   Atom        0.008298     -0.002276     -0.006022
     7   Atom        0.006350      0.002305     -0.008655
     8   Atom        0.006346      0.002308     -0.008655
     9   Atom       -0.029228     -0.013839      0.043067
    10   Atom       -0.029273     -0.013772      0.043045
 --------------------------------------------------------
                        XY            XZ            YZ
 --------------------------------------------------------
     1   Atom       -0.036940      0.000002     -0.000001
     2   Atom       -0.004484      0.000003      0.000001
     3   Atom       -0.766773      0.000384     -0.000511
     4   Atom       -0.004768      0.007801     -0.005660
     5   Atom       -0.004770     -0.007800      0.005660
     6   Atom        0.004236     -0.000000     -0.000000
     7   Atom        0.012067     -0.008334     -0.003832
     8   Atom        0.012068      0.008334      0.003831
     9   Atom       -0.012346     -0.053409     -0.048103
    10   Atom       -0.012328      0.053387      0.048137
 --------------------------------------------------------


 ---------------------------------------------------------------------------------
              Anisotropic Spin Dipole Couplings in Principal Axis System
 ---------------------------------------------------------------------------------

       Atom             a.u.   MegaHertz   Gauss  10(-4) cm-1        Axes

              Baa    -0.0353    -4.737    -1.690    -1.580  0.3843  0.9232 -0.0001
     1 C(13)  Bbb    -0.0335    -4.498    -1.605    -1.500  0.0000  0.0001  1.0000
              Bcc     0.0688     9.235     3.295     3.081  0.9232 -0.3843  0.0000
 
              Baa    -0.0053    -0.714    -0.255    -0.238  0.7506  0.6608 -0.0005
     2 C(13)  Bbb     0.0016     0.215     0.077     0.072 -0.0001  0.0008  1.0000
              Bcc     0.0037     0.499     0.178     0.166 -0.6608  0.7506 -0.0007
 
              Baa    -0.5360   -71.930   -25.666   -23.993  0.8006  0.5991 -0.0001
     3 C(13)  Bbb    -0.5264   -70.636   -25.205   -23.562 -0.0002  0.0004  1.0000
              Bcc     1.0624   142.567    50.871    47.555 -0.5991  0.8006 -0.0004
 
              Baa    -0.0098    -5.246    -1.872    -1.750 -0.1501  0.6560  0.7397
     4 H(1)   Bbb    -0.0045    -2.406    -0.859    -0.803  0.5654  0.6707 -0.4800
              Bcc     0.0143     7.652     2.730     2.552  0.8110 -0.3462  0.4716
 
              Baa    -0.0098    -5.245    -1.872    -1.750  0.1501 -0.6558  0.7398
     5 H(1)   Bbb    -0.0045    -2.406    -0.859    -0.803  0.5655  0.6708  0.4799
              Bcc     0.0143     7.651     2.730     2.552  0.8110 -0.3463 -0.4716
 
              Baa    -0.0060    -3.213    -1.146    -1.072 -0.0000  0.0002  1.0000
     6 H(1)   Bbb    -0.0038    -2.008    -0.716    -0.670 -0.3314  0.9435 -0.0002
              Bcc     0.0098     5.221     1.863     1.742  0.9435  0.3314 -0.0000
 
              Baa    -0.0126    -6.731    -2.402    -2.245  0.4868 -0.1738  0.8561
     7 H(1)   Bbb    -0.0068    -3.605    -1.286    -1.202 -0.4564  0.7850  0.4189
              Bcc     0.0194    10.336     3.688     3.448  0.7448  0.5946 -0.3028
 
              Baa    -0.0126    -6.732    -2.402    -2.245 -0.4869  0.1740  0.8559
     8 H(1)   Bbb    -0.0068    -3.604    -1.286    -1.202 -0.4564  0.7849 -0.4192
              Bcc     0.0194    10.335     3.688     3.448  0.7447  0.5947  0.3028
 
              Baa    -0.0779   -41.566   -14.832   -13.865  0.6894  0.5152  0.5092
     9 H(1)   Bbb    -0.0081    -4.340    -1.549    -1.448 -0.6298  0.7736  0.0699
              Bcc     0.0860    45.907    16.381    15.313 -0.3579 -0.3689  0.8578
 
              Baa    -0.0779   -41.566   -14.832   -13.865  0.6896  0.5148 -0.5093
    10 H(1)   Bbb    -0.0081    -4.341    -1.549    -1.448 -0.6297  0.7736 -0.0707
              Bcc     0.0860    45.907    16.381    15.313  0.3576  0.3695  0.8577
 

 ---------------------------------------------------------------------------------

 No NMR shielding tensors so no spin-rotation constants.
 Leave Link  601 at Wed Oct  7 12:34:52 2020, MaxMem=  2684354560 cpu:              17.7 elap:               2.9
 (Enter /udrive/faculty/rpeverati/g16/g16/l701.exe)
 ... and contract with generalized density number  0.
 Compute integral first derivatives.
 Leave Link  701 at Wed Oct  7 12:34:53 2020, MaxMem=  2684354560 cpu:               9.6 elap:               1.3
 (Enter /udrive/faculty/rpeverati/g16/g16/l702.exe)
 L702 exits ... SP integral derivatives will be done elsewhere.
 Leave Link  702 at Wed Oct  7 12:34:54 2020, MaxMem=  2684354560 cpu:               1.1 elap:               0.6
 (Enter /udrive/faculty/rpeverati/g16/g16/l703.exe)
 Integral derivatives from FoFJK, PRISM(SPDF).
 Compute integral first derivatives, UseDBF=F ICtDFT=           0.
 Calling FoFJK, ICntrl=      2127 FMM=F ISym2X=0 I1Cent= 0 IOpClX= 1 NMat=1 NMatS=1 NMatT=0.
 FoFJK:  IHMeth= 1 ICntrl=    2127 DoSepK=F KAlg= 0 I1Cent=           0 FoldK=F
 IRaf=         0 NMat=       1 IRICut=       1 DoRegI=T DoRafI=F ISym2E= 0 IDoP0=0 IntGTp=1.
 FoFCou: FMM=F IPFlag=           0 FMFlag=      100000 FMFlg1=         800
         NFxFlg=           0 DoJE=F BraDBF=F KetDBF=F FulRan=T
         wScrn=  0.000000 ICntrl=      2127 IOpCl=  1 I1Cent=           0 NGrid=           0
         NMat0=    1 NMatS0=      1 NMatT0=    0 NMatD0=    1 NMtDS0=    0 NMtDT0=    0
 Symmetry not used in FoFCou.
 Leave Link  703 at Wed Oct  7 12:34:56 2020, MaxMem=  2684354560 cpu:              11.7 elap:               1.6
 (Enter /udrive/faculty/rpeverati/g16/g16/l716.exe)
 Dipole        = 5.30070304D-02-1.19579898D-02 2.36178034D-05
 ***** Axes restored to original set *****
 -------------------------------------------------------------------
 Center     Atomic                   Forces (Hartrees/Bohr)
 Number     Number              X              Y              Z
 -------------------------------------------------------------------
      1        6           0.001726923   -0.000669831    0.000000986
      2        6           0.005520650    0.004487629   -0.000001096
      3        6          -0.008310420   -0.003236919    0.000000050
      4        1           0.000435419    0.001913522   -0.002725498
      5        1           0.000435080    0.001913890    0.002724732
      6        1          -0.002506953   -0.002453945    0.000000360
      7        1          -0.000259203   -0.001702700    0.003264032
      8        1          -0.000258570   -0.001703629   -0.003263553
      9        1           0.001609395    0.000724648   -0.003549052
     10        1           0.001607680    0.000727336    0.003549040
 -------------------------------------------------------------------
 Cartesian Forces:  Max     0.008310420 RMS     0.002751432
 Leave Link  716 at Wed Oct  7 12:34:58 2020, MaxMem=  2684354560 cpu:               2.9 elap:               0.8
 (Enter /udrive/faculty/rpeverati/g16/g16/l103.exe)

 GradGradGradGradGradGradGradGradGradGradGradGradGradGradGradGradGradGrad
 Berny optimization.
 Optmz: redundant internal coordinate code flag= 1
 FormGI is forming the generalized inverse of G from B-inverse, IUseBI=4.
 Internal  Forces:  Max     0.005240711 RMS     0.001788549
 Search for a local minimum.
 Step number   1 out of a maximum of  100
 All quantities printed in internal units (Hartrees-Bohrs-Radians)
 RMS Force = .17885D-02 SwitMx=.10000D-02 MixMth= 1
 Mixed Optimization -- RFO/linear search
 Second derivative matrix not updated -- first step.
 The second derivative matrix:
                          R1        R2        R3        R4        R5
           R1           0.28626
           R2           0.00000   0.34781
           R3           0.00000   0.00000   0.34781
           R4           0.00000   0.00000   0.00000   0.34713
           R5           0.00000   0.00000   0.00000   0.00000   0.33221
           R6           0.00000   0.00000   0.00000   0.00000   0.00000
           R7           0.00000   0.00000   0.00000   0.00000   0.00000
           R8           0.00000   0.00000   0.00000   0.00000   0.00000
           R9           0.00000   0.00000   0.00000   0.00000   0.00000
           A1           0.00000   0.00000   0.00000   0.00000   0.00000
           A2           0.00000   0.00000   0.00000   0.00000   0.00000
           A3           0.00000   0.00000   0.00000   0.00000   0.00000
           A4           0.00000   0.00000   0.00000   0.00000   0.00000
           A5           0.00000   0.00000   0.00000   0.00000   0.00000
           A6           0.00000   0.00000   0.00000   0.00000   0.00000
           A7           0.00000   0.00000   0.00000   0.00000   0.00000
           A8           0.00000   0.00000   0.00000   0.00000   0.00000
           A9           0.00000   0.00000   0.00000   0.00000   0.00000
           A10          0.00000   0.00000   0.00000   0.00000   0.00000
           A11          0.00000   0.00000   0.00000   0.00000   0.00000
           A12          0.00000   0.00000   0.00000   0.00000   0.00000
           A13          0.00000   0.00000   0.00000   0.00000   0.00000
           A14          0.00000   0.00000   0.00000   0.00000   0.00000
           A15          0.00000   0.00000   0.00000   0.00000   0.00000
           D1           0.00000   0.00000   0.00000   0.00000   0.00000
           D2           0.00000   0.00000   0.00000   0.00000   0.00000
           D3           0.00000   0.00000   0.00000   0.00000   0.00000
           D4           0.00000   0.00000   0.00000   0.00000   0.00000
           D5           0.00000   0.00000   0.00000   0.00000   0.00000
           D6           0.00000   0.00000   0.00000   0.00000   0.00000
           D7           0.00000   0.00000   0.00000   0.00000   0.00000
           D8           0.00000   0.00000   0.00000   0.00000   0.00000
           D9           0.00000   0.00000   0.00000   0.00000   0.00000
           D10          0.00000   0.00000   0.00000   0.00000   0.00000
           D11          0.00000   0.00000   0.00000   0.00000   0.00000
           D12          0.00000   0.00000   0.00000   0.00000   0.00000
           D13          0.00000   0.00000   0.00000   0.00000   0.00000
           D14          0.00000   0.00000   0.00000   0.00000   0.00000
           D15          0.00000   0.00000   0.00000   0.00000   0.00000
                          R6        R7        R8        R9        A1
           R6           0.34559
           R7           0.00000   0.34559
           R8           0.00000   0.00000   0.35913
           R9           0.00000   0.00000   0.00000   0.35913
           A1           0.00000   0.00000   0.00000   0.00000   0.16000
           A2           0.00000   0.00000   0.00000   0.00000   0.00000
           A3           0.00000   0.00000   0.00000   0.00000   0.00000
           A4           0.00000   0.00000   0.00000   0.00000   0.00000
           A5           0.00000   0.00000   0.00000   0.00000   0.00000
           A6           0.00000   0.00000   0.00000   0.00000   0.00000
           A7           0.00000   0.00000   0.00000   0.00000   0.00000
           A8           0.00000   0.00000   0.00000   0.00000   0.00000
           A9           0.00000   0.00000   0.00000   0.00000   0.00000
           A10          0.00000   0.00000   0.00000   0.00000   0.00000
           A11          0.00000   0.00000   0.00000   0.00000   0.00000
           A12          0.00000   0.00000   0.00000   0.00000   0.00000
           A13          0.00000   0.00000   0.00000   0.00000   0.00000
           A14          0.00000   0.00000   0.00000   0.00000   0.00000
           A15          0.00000   0.00000   0.00000   0.00000   0.00000
           D1           0.00000   0.00000   0.00000   0.00000   0.00000
           D2           0.00000   0.00000   0.00000   0.00000   0.00000
           D3           0.00000   0.00000   0.00000   0.00000   0.00000
           D4           0.00000   0.00000   0.00000   0.00000   0.00000
           D5           0.00000   0.00000   0.00000   0.00000   0.00000
           D6           0.00000   0.00000   0.00000   0.00000   0.00000
           D7           0.00000   0.00000   0.00000   0.00000   0.00000
           D8           0.00000   0.00000   0.00000   0.00000   0.00000
           D9           0.00000   0.00000   0.00000   0.00000   0.00000
           D10          0.00000   0.00000   0.00000   0.00000   0.00000
           D11          0.00000   0.00000   0.00000   0.00000   0.00000
           D12          0.00000   0.00000   0.00000   0.00000   0.00000
           D13          0.00000   0.00000   0.00000   0.00000   0.00000
           D14          0.00000   0.00000   0.00000   0.00000   0.00000
           D15          0.00000   0.00000   0.00000   0.00000   0.00000
                          A2        A3        A4        A5        A6
           A2           0.16000
           A3           0.00000   0.16000
           A4           0.00000   0.00000   0.16000
           A5           0.00000   0.00000   0.00000   0.16000
           A6           0.00000   0.00000   0.00000   0.00000   0.16000
           A7           0.00000   0.00000   0.00000   0.00000   0.00000
           A8           0.00000   0.00000   0.00000   0.00000   0.00000
           A9           0.00000   0.00000   0.00000   0.00000   0.00000
           A10          0.00000   0.00000   0.00000   0.00000   0.00000
           A11          0.00000   0.00000   0.00000   0.00000   0.00000
           A12          0.00000   0.00000   0.00000   0.00000   0.00000
           A13          0.00000   0.00000   0.00000   0.00000   0.00000
           A14          0.00000   0.00000   0.00000   0.00000   0.00000
           A15          0.00000   0.00000   0.00000   0.00000   0.00000
           D1           0.00000   0.00000   0.00000   0.00000   0.00000
           D2           0.00000   0.00000   0.00000   0.00000   0.00000
           D3           0.00000   0.00000   0.00000   0.00000   0.00000
           D4           0.00000   0.00000   0.00000   0.00000   0.00000
           D5           0.00000   0.00000   0.00000   0.00000   0.00000
           D6           0.00000   0.00000   0.00000   0.00000   0.00000
           D7           0.00000   0.00000   0.00000   0.00000   0.00000
           D8           0.00000   0.00000   0.00000   0.00000   0.00000
           D9           0.00000   0.00000   0.00000   0.00000   0.00000
           D10          0.00000   0.00000   0.00000   0.00000   0.00000
           D11          0.00000   0.00000   0.00000   0.00000   0.00000
           D12          0.00000   0.00000   0.00000   0.00000   0.00000
           D13          0.00000   0.00000   0.00000   0.00000   0.00000
           D14          0.00000   0.00000   0.00000   0.00000   0.00000
           D15          0.00000   0.00000   0.00000   0.00000   0.00000
                          A7        A8        A9        A10       A11
           A7           0.25000
           A8           0.00000   0.16000
           A9           0.00000   0.00000   0.16000
           A10          0.00000   0.00000   0.00000   0.16000
           A11          0.00000   0.00000   0.00000   0.00000   0.16000
           A12          0.00000   0.00000   0.00000   0.00000   0.00000
           A13          0.00000   0.00000   0.00000   0.00000   0.00000
           A14          0.00000   0.00000   0.00000   0.00000   0.00000
           A15          0.00000   0.00000   0.00000   0.00000   0.00000
           D1           0.00000   0.00000   0.00000   0.00000   0.00000
           D2           0.00000   0.00000   0.00000   0.00000   0.00000
           D3           0.00000   0.00000   0.00000   0.00000   0.00000
           D4           0.00000   0.00000   0.00000   0.00000   0.00000
           D5           0.00000   0.00000   0.00000   0.00000   0.00000
           D6           0.00000   0.00000   0.00000   0.00000   0.00000
           D7           0.00000   0.00000   0.00000   0.00000   0.00000
           D8           0.00000   0.00000   0.00000   0.00000   0.00000
           D9           0.00000   0.00000   0.00000   0.00000   0.00000
           D10          0.00000   0.00000   0.00000   0.00000   0.00000
           D11          0.00000   0.00000   0.00000   0.00000   0.00000
           D12          0.00000   0.00000   0.00000   0.00000   0.00000
           D13          0.00000   0.00000   0.00000   0.00000   0.00000
           D14          0.00000   0.00000   0.00000   0.00000   0.00000
           D15          0.00000   0.00000   0.00000   0.00000   0.00000
                          A12       A13       A14       A15       D1
           A12          0.16000
           A13          0.00000   0.16000
           A14          0.00000   0.00000   0.16000
           A15          0.00000   0.00000   0.00000   0.16000
           D1           0.00000   0.00000   0.00000   0.00000   0.00253
           D2           0.00000   0.00000   0.00000   0.00000   0.00000
           D3           0.00000   0.00000   0.00000   0.00000   0.00000
           D4           0.00000   0.00000   0.00000   0.00000   0.00000
           D5           0.00000   0.00000   0.00000   0.00000   0.00000
           D6           0.00000   0.00000   0.00000   0.00000   0.00000
           D7           0.00000   0.00000   0.00000   0.00000   0.00000
           D8           0.00000   0.00000   0.00000   0.00000   0.00000
           D9           0.00000   0.00000   0.00000   0.00000   0.00000
           D10          0.00000   0.00000   0.00000   0.00000   0.00000
           D11          0.00000   0.00000   0.00000   0.00000   0.00000
           D12          0.00000   0.00000   0.00000   0.00000   0.00000
           D13          0.00000   0.00000   0.00000   0.00000   0.00000
           D14          0.00000   0.00000   0.00000   0.00000   0.00000
           D15          0.00000   0.00000   0.00000   0.00000   0.00000
                          D2        D3        D4        D5        D6
           D2           0.00253
           D3           0.00000   0.00253
           D4           0.00000   0.00000   0.00253
           D5           0.00000   0.00000   0.00000   0.00253
           D6           0.00000   0.00000   0.00000   0.00000   0.00253
           D7           0.00000   0.00000   0.00000   0.00000   0.00000
           D8           0.00000   0.00000   0.00000   0.00000   0.00000
           D9           0.00000   0.00000   0.00000   0.00000   0.00000
           D10          0.00000   0.00000   0.00000   0.00000   0.00000
           D11          0.00000   0.00000   0.00000   0.00000   0.00000
           D12          0.00000   0.00000   0.00000   0.00000   0.00000
           D13          0.00000   0.00000   0.00000   0.00000   0.00000
           D14          0.00000   0.00000   0.00000   0.00000   0.00000
           D15          0.00000   0.00000   0.00000   0.00000   0.00000
                          D7        D8        D9        D10       D11
           D7           0.00253
           D8           0.00000   0.00253
           D9           0.00000   0.00000   0.00253
           D10          0.00000   0.00000   0.00000   0.00870
           D11          0.00000   0.00000   0.00000   0.00000   0.00870
           D12          0.00000   0.00000   0.00000   0.00000   0.00000
           D13          0.00000   0.00000   0.00000   0.00000   0.00000
           D14          0.00000   0.00000   0.00000   0.00000   0.00000
           D15          0.00000   0.00000   0.00000   0.00000   0.00000
                          D12       D13       D14       D15
           D12          0.00870
           D13          0.00000   0.00870
           D14          0.00000   0.00000   0.00870
           D15          0.00000   0.00000   0.00000   0.00870
 ITU=  0
 Eigenvectors of the second derivative matrix:
                           1         2         3         4         5
     Eigenvalues --     0.00253   0.00870   0.00957   0.04110   0.05456
   1         R1        -0.00000   0.00000   0.00000   0.00000   0.00000
   2         R2        -0.00000   0.00000   0.00000   0.00000   0.00000
   3         R3         0.00000  -0.00000   0.00000   0.00000   0.00000
   4         R4         0.00000  -0.00000   0.00000   0.00000   0.00000
   5         R5         0.00000   0.00000   0.00000  -0.00000   0.00000
   6         R6         0.00000  -0.00000   0.00000  -0.00000  -0.00000
   7         R7        -0.00000   0.00000   0.00000  -0.00000   0.00000
   8         R8        -0.00000  -0.00000   0.00000  -0.00000  -0.00000
   9         R9         0.00000   0.00000   0.00000   0.00000  -0.00000
  10         A1        -0.00000   0.00000   0.00000  -0.00000  -0.00000
  11         A2         0.00000  -0.00000   0.00000  -0.00000  -0.00000
  12         A3         0.00000  -0.00000  -0.00000   0.00000   0.00000
  13         A4         0.00000   0.00000   0.00000  -0.00000  -0.00000
  14         A5        -0.00000   0.00000  -0.00000   0.00000   0.00000
  15         A6         0.00000  -0.00000  -0.00000  -0.00000   0.00000
  16         A7         0.00000   0.00000  -0.00000  -0.00001   0.14281
  17         A8        -0.00000  -0.00000  -0.00000   0.22024   0.01940
  18         A9         0.00000   0.00000   0.00000  -0.22024   0.01939
  19         A10       -0.00000   0.00000   0.00000   0.26124   0.14038
  20         A11        0.00000  -0.00000  -0.00000  -0.26124   0.14035
  21         A12        0.00000  -0.00000  -0.00000   0.00002  -0.50051
  22         A13       -0.00000  -0.00000  -0.04336  -0.00000   0.00000
  23         A14       -0.00000  -0.00000  -0.04336   0.00000  -0.00000
  24         A15       -0.00000  -0.00000  -0.04412   0.00000   0.00000
  25         D1         0.33333  -0.00000  -0.00000   0.32498   0.00001
  26         D2         0.33333  -0.00000  -0.00000  -0.16248  -0.28661
  27         D3         0.33333  -0.00000  -0.00000  -0.16250   0.28659
  28         D4         0.33333  -0.00000  -0.00000   0.32498   0.00001
  29         D5         0.33333  -0.00000  -0.00000  -0.16248  -0.28661
  30         D6         0.33333  -0.00000  -0.00000  -0.16250   0.28659
  31         D7         0.33333  -0.00000  -0.00000   0.32498   0.00001
  32         D8         0.33333  -0.00000  -0.00000  -0.16248  -0.28661
  33         D9         0.33333  -0.00000  -0.00000  -0.16250   0.28659
  34         D10        0.00000   0.40825  -0.40708  -0.31158  -0.00001
  35         D11        0.00000   0.40825   0.40708  -0.31158  -0.00001
  36         D12        0.00000   0.40825  -0.40708   0.15578   0.22142
  37         D13        0.00000   0.40825   0.40708   0.15578   0.22142
  38         D14       -0.00000   0.40825  -0.40708   0.15580  -0.22141
  39         D15        0.00000   0.40825   0.40708   0.15580  -0.22141
                           6         7         8         9        10
     Eigenvalues --     0.05468   0.05495   0.09404   0.12872   0.16000
   1         R1        -0.00000   0.00000   0.00000  -0.00000  -0.00000
   2         R2         0.00000   0.00000   0.00000   0.00000   0.00000
   3         R3        -0.00000   0.00000  -0.00000   0.00000   0.00000
   4         R4        -0.00000  -0.00000  -0.00000   0.00000  -0.00000
   5         R5         0.00000   0.00000  -0.00000   0.00000   0.00000
   6         R6        -0.00000  -0.00000   0.00000   0.00000   0.00000
   7         R7         0.00000  -0.00000  -0.00000  -0.00000  -0.00000
   8         R8         0.00000   0.00000   0.00000  -0.00000   0.00000
   9         R9         0.00000   0.00000  -0.00000   0.00000   0.00000
  10         A1         0.18940   0.10896   0.00000   0.00000   0.60702
  11         A2        -0.18948   0.10882  -0.00000  -0.00000   0.20381
  12         A3         0.00008  -0.21827   0.00000   0.00000  -0.40186
  13         A4        -0.00015   0.41864  -0.00000  -0.00000  -0.42250
  14         A5         0.36021  -0.20757  -0.00000  -0.00000  -0.10815
  15         A6        -0.36006  -0.20783   0.00000   0.00000   0.10395
  16         A7        -0.00000   0.00000   0.03694  -0.00000  -0.00000
  17         A8        -0.00000   0.00000   0.39368  -0.47513   0.00000
  18         A9        -0.00000   0.00000   0.39367   0.47515  -0.00000
  19         A10       -0.00000   0.00000  -0.34660   0.41517  -0.00000
  20         A11       -0.00000   0.00000  -0.34659  -0.41518   0.00000
  21         A12        0.00000  -0.00000  -0.12775   0.00000   0.00000
  22         A13       -0.00000   0.00000  -0.00000  -0.00000   0.22156
  23         A14       -0.00000  -0.00000  -0.00000   0.00000   0.17129
  24         A15        0.00000   0.00000   0.00000  -0.00000  -0.38608
  25         D1         0.19289  -0.33337  -0.00000   0.12790  -0.00000
  26         D2         0.19289  -0.33337   0.13780  -0.06395   0.00000
  27         D3         0.19289  -0.33337  -0.13780  -0.06395   0.00000
  28         D4         0.19264   0.33351  -0.00000   0.12790  -0.00000
  29         D5         0.19264   0.33351   0.13780  -0.06395   0.00000
  30         D6         0.19264   0.33351  -0.13780  -0.06395  -0.00000
  31         D7        -0.38553  -0.00014  -0.00000   0.12790  -0.00000
  32         D8        -0.38553  -0.00014   0.13780  -0.06395   0.00000
  33         D9        -0.38553  -0.00014  -0.13780  -0.06395   0.00000
  34         D10        0.00000  -0.00000  -0.00000   0.20827  -0.00000
  35         D11        0.00000  -0.00000  -0.00000   0.20827  -0.00000
  36         D12       -0.00000   0.00000   0.28203  -0.10413   0.00000
  37         D13       -0.00000   0.00000   0.28203  -0.10413   0.00000
  38         D14        0.00000  -0.00000  -0.28203  -0.10414   0.00000
  39         D15        0.00000  -0.00000  -0.28203  -0.10414   0.00000
                          11        12        13        14        15
     Eigenvalues --     0.16000   0.16000   0.16000   0.16000   0.21954
   1         R1         0.00000   0.00000  -0.00000   0.00000   0.00000
   2         R2         0.00000  -0.00000  -0.00000  -0.00000   0.00000
   3         R3        -0.00000   0.00000  -0.00000   0.00000  -0.00000
   4         R4         0.00000   0.00000  -0.00000   0.00000   0.00000
   5         R5        -0.00000   0.00000   0.00000  -0.00000   0.00000
   6         R6         0.00000   0.00000  -0.00000  -0.00000   0.00000
   7         R7        -0.00000   0.00000   0.00000  -0.00000  -0.00000
   8         R8         0.00000  -0.00000  -0.00000   0.00000   0.00000
   9         R9        -0.00000   0.00000   0.00000   0.00000  -0.00000
  10         A1        -0.38259   0.11859  -0.03196   0.39010   0.00000
  11         A2         0.11233  -0.05348   0.68555  -0.39385  -0.00000
  12         A3        -0.48072  -0.53318   0.03664   0.05377  -0.00000
  13         A4         0.14082  -0.03393  -0.34056   0.00195   0.00000
  14         A5         0.45384   0.21777  -0.00244  -0.23346  -0.00000
  15         A6         0.19350   0.30828  -0.37986   0.17892   0.00000
  16         A7         0.00000  -0.00000   0.00000  -0.00000   0.82115
  17         A8         0.00000  -0.00000  -0.00000   0.00000  -0.26240
  18         A9         0.00000   0.00000   0.00000  -0.00000  -0.26240
  19         A10       -0.00000   0.00000   0.00000  -0.00000  -0.26436
  20         A11       -0.00000  -0.00000  -0.00000   0.00000  -0.26437
  21         A12       -0.00000  -0.00000   0.00000   0.00000   0.20189
  22         A13       -0.26657  -0.01704  -0.38702  -0.63272   0.00000
  23         A14        0.48089  -0.52285   0.04054   0.36735  -0.00000
  24         A15       -0.21062   0.53059   0.34051   0.26079   0.00000
  25         D1        -0.00000   0.00000   0.00000  -0.00000  -0.00000
  26         D2         0.00000  -0.00000  -0.00000   0.00000  -0.02255
  27         D3        -0.00000  -0.00000  -0.00000   0.00000   0.02255
  28         D4         0.00000   0.00000   0.00000  -0.00000  -0.00000
  29         D5         0.00000  -0.00000  -0.00000   0.00000  -0.02255
  30         D6         0.00000  -0.00000  -0.00000   0.00000   0.02255
  31         D7        -0.00000   0.00000   0.00000  -0.00000  -0.00000
  32         D8        -0.00000   0.00000   0.00000   0.00000  -0.02255
  33         D9        -0.00000   0.00000   0.00000   0.00000   0.02255
  34         D10        0.00000   0.00000   0.00000  -0.00000  -0.00000
  35         D11        0.00000   0.00000  -0.00000  -0.00000  -0.00000
  36         D12        0.00000  -0.00000  -0.00000   0.00000   0.03320
  37         D13        0.00000  -0.00000  -0.00000  -0.00000   0.03320
  38         D14       -0.00000  -0.00000  -0.00000   0.00000  -0.03319
  39         D15       -0.00000  -0.00000  -0.00000   0.00000  -0.03319
                          16        17        18        19        20
     Eigenvalues --     0.28626   0.33221   0.34559   0.34559   0.34713
   1         R1        -1.00000   0.00000  -0.00000   0.00000  -0.00000
   2         R2        -0.00000   0.00000  -0.00000  -0.00000  -0.00000
   3         R3         0.00000   0.00000  -0.00000  -0.00000  -0.00000
   4         R4         0.00000  -0.00000   0.00000   0.00000  -1.00000
   5         R5         0.00000   1.00000  -0.00000   0.00000  -0.00000
   6         R6        -0.00000   0.00000   1.00000  -0.00000   0.00000
   7         R7        -0.00000   0.00000  -0.00000  -1.00000  -0.00000
   8         R8         0.00000  -0.00000   0.00000  -0.00000   0.00000
   9         R9         0.00000  -0.00000   0.00000  -0.00000   0.00000
  10         A1        -0.00000  -0.00000   0.00000   0.00000   0.00000
  11         A2        -0.00000  -0.00000  -0.00000   0.00000  -0.00000
  12         A3        -0.00000   0.00000   0.00000   0.00000  -0.00000
  13         A4         0.00000   0.00000  -0.00000   0.00000   0.00000
  14         A5         0.00000   0.00000   0.00000   0.00000   0.00000
  15         A6         0.00000   0.00000  -0.00000  -0.00000   0.00000
  16         A7         0.00000  -0.00000   0.00000  -0.00000   0.00000
  17         A8         0.00000   0.00000  -0.00000  -0.00000  -0.00000
  18         A9        -0.00000  -0.00000   0.00000  -0.00000  -0.00000
  19         A10       -0.00000  -0.00000   0.00000   0.00000   0.00000
  20         A11        0.00000   0.00000  -0.00000   0.00000   0.00000
  21         A12       -0.00000  -0.00000  -0.00000   0.00000   0.00000
  22         A13        0.00000   0.00000  -0.00000  -0.00000  -0.00000
  23         A14        0.00000   0.00000   0.00000  -0.00000   0.00000
  24         A15       -0.00000  -0.00000   0.00000   0.00000   0.00000
  25         D1        -0.00000  -0.00000   0.00000   0.00000   0.00000
  26         D2        -0.00000   0.00000  -0.00000  -0.00000   0.00000
  27         D3        -0.00000  -0.00000   0.00000   0.00000   0.00000
  28         D4        -0.00000  -0.00000   0.00000   0.00000  -0.00000
  29         D5         0.00000  -0.00000   0.00000   0.00000  -0.00000
  30         D6         0.00000   0.00000   0.00000   0.00000   0.00000
  31         D7        -0.00000   0.00000  -0.00000  -0.00000   0.00000
  32         D8        -0.00000   0.00000  -0.00000  -0.00000  -0.00000
  33         D9         0.00000   0.00000  -0.00000  -0.00000   0.00000
  34         D10       -0.00000   0.00000   0.00000  -0.00000  -0.00000
  35         D11        0.00000  -0.00000  -0.00000  -0.00000  -0.00000
  36         D12        0.00000   0.00000   0.00000  -0.00000  -0.00000
  37         D13        0.00000  -0.00000   0.00000  -0.00000  -0.00000
  38         D14        0.00000   0.00000   0.00000   0.00000   0.00000
  39         D15        0.00000  -0.00000  -0.00000   0.00000   0.00000
                          21        22        23        24
     Eigenvalues --     0.34781   0.34781   0.35913   0.35913
   1         R1        -0.00000  -0.00000   0.00000   0.00000
   2         R2         1.00000  -0.00000   0.00000   0.00000
   3         R3        -0.00000  -1.00000  -0.00000   0.00000
   4         R4        -0.00000   0.00000   0.00000   0.00000
   5         R5        -0.00000   0.00000   0.00000   0.00000
   6         R6         0.00000  -0.00000  -0.00000  -0.00000
   7         R7        -0.00000   0.00000  -0.00000  -0.00000
   8         R8        -0.00000   0.00000   0.00000   1.00000
   9         R9        -0.00000  -0.00000   1.00000  -0.00000
  10         A1         0.00000   0.00000  -0.00000  -0.00000
  11         A2        -0.00000  -0.00000  -0.00000   0.00000
  12         A3         0.00000   0.00000   0.00000   0.00000
  13         A4        -0.00000   0.00000   0.00000  -0.00000
  14         A5        -0.00000  -0.00000  -0.00000   0.00000
  15         A6         0.00000   0.00000   0.00000  -0.00000
  16         A7        -0.00000  -0.00000   0.00000  -0.00000
  17         A8         0.00000   0.00000   0.00000  -0.00000
  18         A9        -0.00000   0.00000   0.00000   0.00000
  19         A10       -0.00000  -0.00000   0.00000   0.00000
  20         A11        0.00000  -0.00000   0.00000  -0.00000
  21         A12        0.00000  -0.00000  -0.00000  -0.00000
  22         A13       -0.00000  -0.00000   0.00000   0.00000
  23         A14       -0.00000  -0.00000   0.00000  -0.00000
  24         A15        0.00000   0.00000  -0.00000   0.00000
  25         D1         0.00000   0.00000  -0.00000   0.00000
  26         D2        -0.00000  -0.00000  -0.00000   0.00000
  27         D3         0.00000   0.00000   0.00000   0.00000
  28         D4         0.00000  -0.00000  -0.00000   0.00000
  29         D5         0.00000  -0.00000  -0.00000   0.00000
  30         D6         0.00000  -0.00000  -0.00000  -0.00000
  31         D7         0.00000   0.00000  -0.00000   0.00000
  32         D8         0.00000   0.00000  -0.00000   0.00000
  33         D9         0.00000   0.00000   0.00000   0.00000
  34         D10       -0.00000  -0.00000  -0.00000   0.00000
  35         D11       -0.00000   0.00000  -0.00000   0.00000
  36         D12       -0.00000   0.00000   0.00000   0.00000
  37         D13       -0.00000  -0.00000  -0.00000  -0.00000
  38         D14        0.00000  -0.00000  -0.00000   0.00000
  39         D15        0.00000  -0.00000  -0.00000   0.00000
 Iter=   1 RLamda= 0.00000000D+00 Sum=-4.54062475D-04.
 Iter=   2 RLamda=-4.54062475D-04 Sum=-4.50240829D-04.
 Iter=   3 RLamda=-4.50240829D-04 Sum=-4.50271777D-04.
 Iter=   4 RLamda=-4.50271777D-04 Sum=-4.50271526D-04.
 RFO step:  Lambda=-4.50271777D-04 EMin= 2.52783275D-03
 Linear search not attempted -- first point.
 Iteration  1 RMS(Cart)=  0.00847160 RMS(Int)=  0.00022471
 Iteration  2 RMS(Cart)=  0.00015328 RMS(Int)=  0.00017171
 Iteration  3 RMS(Cart)=  0.00000002 RMS(Int)=  0.00017171
 ITry= 1 IFail=0 DXMaxC= 2.66D-02 DCOld= 1.00D+10 DXMaxT= 3.00D-01 DXLimC= 3.00D+00 Rises=F
 Variable       Old X    -DE/DX   Delta X   Delta X   Delta X     New X
                                 (Linear)    (Quad)   (Total)
    R1        2.90790  -0.00032   0.00000  -0.00112  -0.00112   2.90678
    R2        2.06032  -0.00332   0.00000  -0.00952  -0.00952   2.05080
    R3        2.06032  -0.00331   0.00000  -0.00952  -0.00952   2.05080
    R4        2.06144  -0.00346   0.00000  -0.00996  -0.00996   2.05148
    R5        2.81966   0.00524   0.00000   0.01575   0.01575   2.83541
    R6        2.06397  -0.00364   0.00000  -0.01052  -0.01052   2.05345
    R7        2.06397  -0.00364   0.00000  -0.01052  -0.01052   2.05345
    R8        2.04218  -0.00391   0.00000  -0.01086  -0.01086   2.03132
    R9        2.04218  -0.00391   0.00000  -0.01086  -0.01086   2.03132
    A1        1.93373   0.00050   0.00000   0.00340   0.00340   1.93712
    A2        1.93373   0.00050   0.00000   0.00340   0.00339   1.93712
    A3        1.93484   0.00054   0.00000   0.00275   0.00275   1.93759
    A4        1.88201  -0.00039   0.00000  -0.00128  -0.00129   1.88072
    A5        1.88888  -0.00061   0.00000  -0.00437  -0.00437   1.88452
    A6        1.88888  -0.00061   0.00000  -0.00436  -0.00437   1.88451
    A7        1.96760   0.00145   0.00000   0.00837   0.00835   1.97595
    A8        1.89792  -0.00016   0.00000   0.00093   0.00093   1.89885
    A9        1.89794  -0.00016   0.00000   0.00092   0.00092   1.89886
   A10        1.91649  -0.00051   0.00000  -0.00195  -0.00197   1.91452
   A11        1.91649  -0.00051   0.00000  -0.00195  -0.00197   1.91452
   A12        1.86439  -0.00018   0.00000  -0.00712  -0.00712   1.85726
   A13        2.10763   0.00017   0.00000  -0.00227  -0.00287   2.10475
   A14        2.10760   0.00017   0.00000  -0.00227  -0.00287   2.10473
   A15        2.05261  -0.00044   0.00000  -0.00612  -0.00675   2.04586
    D1       -1.04409  -0.00008   0.00000  -0.00142  -0.00142  -1.04551
    D2        3.10951  -0.00028   0.00000  -0.00514  -0.00515   3.10436
    D3        1.08550   0.00012   0.00000   0.00230   0.00230   1.08781
    D4        1.04406   0.00008   0.00000   0.00142   0.00143   1.04549
    D5       -1.08552  -0.00012   0.00000  -0.00230  -0.00230  -1.08782
    D6       -3.10953   0.00028   0.00000   0.00514   0.00515  -3.10438
    D7        3.14157   0.00000   0.00000   0.00000   0.00000   3.14158
    D8        1.01199  -0.00020   0.00000  -0.00372  -0.00373   1.00827
    D9       -1.01202   0.00020   0.00000   0.00372   0.00373  -1.00829
   D10        1.47520  -0.00033   0.00000  -0.03331  -0.03326   1.44194
   D11       -1.47458   0.00033   0.00000   0.03328   0.03323  -1.44134
   D12       -2.68891   0.00008   0.00000  -0.02783  -0.02779  -2.71670
   D13        0.64450   0.00075   0.00000   0.03876   0.03871   0.68320
   D14       -0.64390  -0.00075   0.00000  -0.03878  -0.03872  -0.68262
   D15        2.68951  -0.00008   0.00000   0.02781   0.02777   2.71728
         Item               Value     Threshold  Converged?
 Maximum Force            0.005241     0.000450     NO 
 RMS     Force            0.001789     0.000300     NO 
 Maximum Displacement     0.026616     0.001800     NO 
 RMS     Displacement     0.008462     0.001200     NO 
 Predicted change in Energy=-2.258826D-04
 Lowest energy point so far.  Saving SCF results.
 Largest change from initial coordinates is atom    3       0.011 Angstoms.
 GradGradGradGradGradGradGradGradGradGradGradGradGradGradGradGradGradGrad

 Leave Link  103 at Wed Oct  7 12:35:01 2020, MaxMem=  2684354560 cpu:              27.5 elap:               3.2
 (Enter /udrive/faculty/rpeverati/g16/g16/l202.exe)
                          Input orientation:                          
 ---------------------------------------------------------------------
 Center     Atomic      Atomic             Coordinates (Angstroms)
 Number     Number       Type             X           Y           Z
 ---------------------------------------------------------------------
      1          6           0        1.207551   -0.287011    0.000058
      2          6           0       -0.064143    0.578357   -0.000062
      3          6           0       -1.328873   -0.228962   -0.000017
      4          1           0        1.243052   -0.925674    0.876751
      5          1           0        1.243085   -0.925863   -0.876496
      6          1           0        2.099535    0.331768    0.000006
      7          1           0       -0.044937    1.228806   -0.870313
      8          1           0       -0.044990    1.228986    0.870051
      9          1           0       -1.726056   -0.623454    0.917639
     10          1           0       -1.725693   -0.624083   -0.917561
 ---------------------------------------------------------------------
                    Distance matrix (angstroms):
                    1          2          3          4          5
     1  C    0.000000
     2  C    1.538203   0.000000
     3  C    2.537088   1.500435   0.000000
     4  H    1.085238   2.177079   2.805161   0.000000
     5  H    1.085238   2.177076   2.805147   1.753247   0.000000
[...]
 ! D9    D(6,1,2,8)            -57.913          -DE/DX =    0.0                 !
 ! D10   D(1,2,3,9)             81.2249         -DE/DX =    0.0                 !
 ! D11   D(1,2,3,10)           -81.196          -DE/DX =    0.0                 !
 ! D12   D(7,2,3,9)           -157.0316         -DE/DX =    0.0                 !
 ! D13   D(7,2,3,10)            40.5475         -DE/DX =    0.0                 !
 ! D14   D(8,2,3,9)            -40.5193         -DE/DX =    0.0                 !
 ! D15   D(8,2,3,10)           157.0598         -DE/DX =    0.0                 !
 --------------------------------------------------------------------------------
 Lowest energy point so far.  Saving SCF results.
 Largest change from initial coordinates is atom    9       0.034 Angstoms.
 GradGradGradGradGradGradGradGradGradGradGradGradGradGradGradGradGradGrad

 Leave Link  103 at Wed Oct  7 12:36:15 2020, MaxMem=  2684354560 cpu:              19.7 elap:               2.2
 (Enter /udrive/faculty/rpeverati/g16/g16/l202.exe)
                          Input orientation:                          
 ---------------------------------------------------------------------
 Center     Atomic      Atomic             Coordinates (Angstroms)
 Number     Number       Type             X           Y           Z
 ---------------------------------------------------------------------
      1          6           0        1.202836   -0.287896    0.000062
      2          6           0       -0.063514    0.582689   -0.000067
      3          6           0       -1.331717   -0.220276   -0.000021
      4          1           0        1.236144   -0.926738    0.877285
      5          1           0        1.236184   -0.926935   -0.877017
      6          1           0        2.097133    0.328444    0.000012
      7          1           0       -0.044611    1.232412   -0.871243
      8          1           0       -0.044667    1.232602    0.870966
      9          1           0       -1.714787   -0.630428    0.918028
     10          1           0       -1.714469   -0.631004   -0.917946
 ---------------------------------------------------------------------
                    Distance matrix (angstroms):
                    1          2          3          4          5
     1  C    0.000000
     2  C    1.536737   0.000000
     3  C    2.535455   1.501030   0.000000
     4  H    1.085702   2.176517   2.804044   0.000000
     5  H    1.085702   2.176516   2.804033   1.754301   0.000000
     6  H    1.086114   2.175555   3.472478   1.756813   1.756812
     7  H    2.150961   1.086943   2.127433   3.059348   2.510627
     8  H    2.150965   1.086941   2.127432   2.510631   3.059350
     9  H    3.077745   2.245273   1.076002   2.966050   3.466747
    10  H    3.077519   2.245262   1.076003   3.466471   2.965738
                    6          7          8          9         10
     6  H    0.000000
     7  H    2.482602   0.000000
     8  H    2.482614   1.742209   0.000000
     9  H    4.036450   3.075898   2.502479   0.000000
    10  H    4.036272   2.502583   3.075950   1.835973   0.000000
 Stoichiometry    C3H7(2)
 Framework group  C1[X(C3H7)]
 Deg. of freedom    24
 Full point group                 C1      NOp   1
 RotChk:  IX=0 Diff= 3.16D-16
 Largest Abelian subgroup         C1      NOp   1
 Largest concise Abelian subgroup C1      NOp   1
                         Standard orientation:                         
 ---------------------------------------------------------------------
 Center     Atomic      Atomic             Coordinates (Angstroms)
 Number     Number       Type             X           Y           Z
 ---------------------------------------------------------------------
      1          6           0        1.208043   -0.288472    0.000064
      2          6           0       -0.061501    0.577448   -0.000064
      3          6           0       -1.326741   -0.230176   -0.000018
      4          1           0        1.243701   -0.927188    0.877287
      5          1           0        1.243742   -0.927384   -0.877014
      6          1           0        2.100067    0.331153    0.000015
      7          1           0       -0.044988    1.227236   -0.871240
      8          1           0       -0.045045    1.227427    0.870968
      9          1           0       -1.708301   -0.641735    0.918030
     10          1           0       -1.707980   -0.642309   -0.917943
 ---------------------------------------------------------------------
 Rotational constants (GHZ):          31.3560450           8.8840646           7.9655518
 Leave Link  202 at Wed Oct  7 12:36:16 2020, MaxMem=  2684354560 cpu:               1.9 elap:               0.7
 (Enter /udrive/faculty/rpeverati/g16/g16/l601.exe)
 Copying SCF densities to generalized density rwf, IOpCl= 1 IROHF=0.

 **********************************************************************

            Population analysis using the SCF density.

 **********************************************************************

 Orbital symmetries:
 Alpha Orbitals:
       Occupied  (A) (A) (A) (A) (A) (A) (A) (A) (A) (A) (A) (A)
                 (A)
       Virtual   (A) (A) (A) (A) (A) (A) (A) (A) (A) (A) (A) (A)
                 (A) (A) (A) (A) (A) (A) (A) (A) (A) (A) (A) (A)
                 (A) (A) (A) (A) (A) (A) (A) (A) (A) (A) (A) (A)
                 (A) (A) (A) (A) (A) (A) (A)
 Beta  Orbitals:
       Occupied  (A) (A) (A) (A) (A) (A) (A) (A) (A) (A) (A) (A)
       Virtual   (A) (A) (A) (A) (A) (A) (A) (A) (A) (A) (A) (A)
                 (A) (A) (A) (A) (A) (A) (A) (A) (A) (A) (A) (A)
                 (A) (A) (A) (A) (A) (A) (A) (A) (A) (A) (A) (A)
                 (A) (A) (A) (A) (A) (A) (A) (A)
 The electronic state is 2-A.
 Alpha  occ. eigenvalues --  -11.22113 -11.21660 -11.20838  -1.05937  -0.92882
 Alpha  occ. eigenvalues --   -0.80196  -0.63483  -0.59089  -0.55141  -0.53257
 Alpha  occ. eigenvalues --   -0.49292  -0.47672  -0.35079
 Alpha virt. eigenvalues --    0.24398   0.28504   0.29676   0.30699   0.33145
 Alpha virt. eigenvalues --    0.33418   0.36826   0.40171   0.44610   0.71397
 Alpha virt. eigenvalues --    0.73446   0.74146   0.75868   0.80491   0.81022
 Alpha virt. eigenvalues --    0.91889   0.95699   1.07577   1.09795   1.15134
 Alpha virt. eigenvalues --    1.17934   1.18251   1.21826   1.22448   1.26025
 Alpha virt. eigenvalues --    1.29063   1.47106   1.71034   1.74300   1.86173
 Alpha virt. eigenvalues --    2.01925   2.03471   2.22789   2.27594   2.29757
 Alpha virt. eigenvalues --    2.40707   2.48729   2.55609   2.67612   2.73192
 Alpha virt. eigenvalues --    2.81761   2.92503   3.02663
  Beta  occ. eigenvalues --  -11.21979 -11.20585 -11.19600  -1.03846  -0.88524
  Beta  occ. eigenvalues --   -0.77138  -0.62752  -0.58122  -0.54326  -0.50761
  Beta  occ. eigenvalues --   -0.48390  -0.47405
  Beta virt. eigenvalues --    0.15881   0.25226   0.29950   0.30492   0.31129
  Beta virt. eigenvalues --    0.33569   0.33834   0.37618   0.41102   0.45806
  Beta virt. eigenvalues --    0.72152   0.73673   0.76053   0.79681   0.81475
  Beta virt. eigenvalues --    0.89983   0.93897   0.97876   1.08279   1.11388
  Beta virt. eigenvalues --    1.15511   1.18564   1.18624   1.22493   1.24598
  Beta virt. eigenvalues --    1.26197   1.29469   1.48501   1.72737   1.75407
  Beta virt. eigenvalues --    1.89474   2.07273   2.07870   2.24431   2.27863
  Beta virt. eigenvalues --    2.30781   2.46587   2.50969   2.56220   2.67753
  Beta virt. eigenvalues --    2.74419   2.82616   2.93263   3.03535
          Condensed to atoms (all electrons):
               1          2          3          4          5          6
     1  C    5.134437   0.332006  -0.066446   0.390894   0.390895   0.388647
     2  C    0.332006   5.052806   0.329518  -0.038417  -0.038417  -0.036094
     3  C   -0.066446   0.329518   5.394618  -0.001641  -0.001642   0.004969
     4  H    0.390894  -0.038417  -0.001641   0.542337  -0.029514  -0.028758
     5  H    0.390895  -0.038417  -0.001642  -0.029514   0.542339  -0.028759
     6  H    0.388647  -0.036094   0.004969  -0.028758  -0.028759   0.542000
     7  H   -0.043942   0.403042  -0.042853   0.004234  -0.002809  -0.002283
     8  H   -0.043937   0.403041  -0.042848  -0.002809   0.004234  -0.002283
     9  H    0.000527  -0.037384   0.385650   0.001013   0.000047  -0.000091
    10  H    0.000525  -0.037388   0.385649   0.000047   0.001014  -0.000091
               7          8          9         10
     1  C   -0.043942  -0.043937   0.000527   0.000525
     2  C    0.403042   0.403041  -0.037384  -0.037388
     3  C   -0.042853  -0.042848   0.385650   0.385649
     4  H    0.004234  -0.002809   0.001013   0.000047
     5  H   -0.002809   0.004234   0.000047   0.001014
     6  H   -0.002283  -0.002283  -0.000091  -0.000091
     7  H    0.546689  -0.030247   0.003188  -0.002828
     8  H   -0.030247   0.546684  -0.002830   0.003189
     9  H    0.003188  -0.002830   0.510230  -0.029206
    10  H   -0.002828   0.003189  -0.029206   0.510238
          Atomic-Atomic Spin Densities.
               1          2          3          4          5          6
     1  C    0.100690   0.019379  -0.033161  -0.003907  -0.003904  -0.010831
     2  C    0.019379  -0.134364  -0.060491   0.000643   0.000644  -0.001157
     3  C   -0.033161  -0.060491   1.399697   0.001863   0.001861   0.001757
     4  H   -0.003907   0.000643   0.001863  -0.004318   0.000831   0.001343
     5  H   -0.003904   0.000644   0.001861   0.000831  -0.004320   0.001342
     6  H   -0.010831  -0.001157   0.001757   0.001343   0.001342   0.014250
     7  H   -0.008132   0.008362  -0.007837   0.000122   0.000246   0.001103
     8  H   -0.008124   0.008357  -0.007829   0.000246   0.000121   0.001102
     9  H   -0.000271  -0.000350  -0.015339  -0.000028   0.000033   0.000019
    10  H   -0.000270  -0.000350  -0.015339   0.000033  -0.000028   0.000019
               7          8          9         10
     1  C   -0.008132  -0.008124  -0.000271  -0.000270
     2  C    0.008362   0.008357  -0.000350  -0.000350
     3  C   -0.007837  -0.007829  -0.015339  -0.015339
     4  H    0.000122   0.000246  -0.000028   0.000033
     5  H    0.000246   0.000121   0.000033  -0.000028
     6  H    0.001103   0.001102   0.000019   0.000019
     7  H    0.019954   0.001401  -0.000029   0.000940
     8  H    0.001401   0.019927   0.000940  -0.000029
     9  H   -0.000029   0.000940  -0.084658   0.003601
    10  H    0.000940  -0.000029   0.003601  -0.084658
 Mulliken charges and spin densities:
               1          2
     1  C   -0.483605   0.051470
     2  C   -0.332713  -0.159327
     3  C   -0.344974   1.265183
     4  H    0.162615  -0.003174
     5  H    0.162613  -0.003175
     6  H    0.162743   0.008946
     7  H    0.167807   0.016130
     8  H    0.167806   0.016112
     9  H    0.168856  -0.096083
    10  H    0.168851  -0.096082
 Sum of Mulliken charges =  -0.00000   1.00000
 Mulliken charges and spin densities with hydrogens summed into heavy atoms:
               1          2
     1  C    0.004366   0.054068
     2  C    0.002900  -0.127084
     3  C   -0.007267   1.073017
 Electronic spatial extent (au):  <R**2>=            211.2155
 Charge=             -0.0000 electrons
 Dipole moment (field-independent basis, Debye):
    X=              0.1949    Y=             -0.0746    Z=              0.0001  Tot=              0.2087
 Quadrupole moment (field-independent basis, Debye-Ang):
   XX=            -22.0097   YY=            -21.3522   ZZ=            -20.2150
   XY=              0.8077   XZ=             -0.0004   YZ=              0.0004
 Traceless Quadrupole moment (field-independent basis, Debye-Ang):
   XX=             -0.8174   YY=             -0.1599   ZZ=              0.9773
   XY=              0.8077   XZ=             -0.0004   YZ=              0.0004
 Octapole moment (field-independent basis, Debye-Ang**2):
  XXX=              2.2132  YYY=              0.5483  ZZZ=              0.0003  XYY=              0.4989
  XXY=             -0.8989  XXZ=              0.0011  XZZ=             -0.9248  YZZ=             -0.5083
  YYZ=             -0.0004  XYZ=             -0.0005
 Hexadecapole moment (field-independent basis, Debye-Ang**3):
 XXXX=           -192.7214 YYYY=            -64.1829 ZZZZ=            -40.8787 XXXY=              5.3994
 XXXZ=             -0.0045 YYYX=              0.2409 YYYZ=              0.0015 ZZZX=             -0.0021
 ZZZY=              0.0003 XXYY=            -41.7387 XXZZ=            -36.7274 YYZZ=            -15.8011
 XXYZ=              0.0007 YYXZ=              0.0001 ZZXY=              0.6620
 N-N= 7.588355348766D+01 E-N=-4.251964561188D+02  KE= 1.177683703332D+02
                          Isotropic Fermi Contact Couplings
        Atom                 a.u.       MegaHertz       Gauss      10(-4) cm-1
     1  C(13)              0.06280      70.60180      25.19248      23.55022
     2  C(13)             -0.05555     -62.44732     -22.28276     -20.83018
     3  C(13)              0.25745     289.42642     103.27454      96.54226
     4  H(1)              -0.00152      -6.80645      -2.42871      -2.27039
     5  H(1)              -0.00152      -6.80580      -2.42848      -2.27017
     6  H(1)               0.00229      10.25132       3.65793       3.41947
     7  H(1)               0.00754      33.72474      12.03383      11.24936
     8  H(1)               0.00753      33.68017      12.01792      11.23449
     9  H(1)              -0.02862    -127.92327     -45.64620     -42.67061
    10  H(1)              -0.02862    -127.92087     -45.64535     -42.66981
 --------------------------------------------------------
       Center         ----  Spin Dipole Couplings  ----
                      3XX-RR        3YY-RR        3ZZ-RR
 --------------------------------------------------------
     1   Atom        0.052008     -0.019206     -0.032802
     2   Atom       -0.000326     -0.001815      0.002141
     3   Atom        0.070471      0.453556     -0.524026
     4   Atom        0.007489     -0.004329     -0.003160
     5   Atom        0.007489     -0.004326     -0.003162
     6   Atom        0.008199     -0.002246     -0.005953
     7   Atom        0.006862      0.001885     -0.008747
     8   Atom        0.006858      0.001888     -0.008746
     9   Atom       -0.030644     -0.011567      0.042211
    10   Atom       -0.030679     -0.011503      0.042182
 --------------------------------------------------------
                        XY            XZ            YZ
 --------------------------------------------------------
     1   Atom       -0.036484      0.000003     -0.000001
     2   Atom       -0.005725      0.000004      0.000000
     3   Atom       -0.770228      0.000345     -0.000439
     4   Atom       -0.004826      0.007448     -0.005559
     5   Atom       -0.004828     -0.007446      0.005559
     6   Atom        0.004086     -0.000000     -0.000000
     7   Atom        0.012209     -0.008681     -0.003936
     8   Atom        0.012209      0.008681      0.003935
     9   Atom       -0.012560     -0.049778     -0.051795
    10   Atom       -0.012547      0.049760      0.051824
 --------------------------------------------------------


 ---------------------------------------------------------------------------------
              Anisotropic Spin Dipole Couplings in Principal Axis System
 ---------------------------------------------------------------------------------

       Atom             a.u.   MegaHertz   Gauss  10(-4) cm-1        Axes

              Baa    -0.0346    -4.640    -1.656    -1.548  0.3883  0.9215 -0.0001
     1 C(13)  Bbb    -0.0328    -4.402    -1.571    -1.468  0.0000  0.0001  1.0000
              Bcc     0.0674     9.042     3.226     3.016  0.9215 -0.3883  0.0000
 
              Baa    -0.0068    -0.918    -0.328    -0.306  0.6599  0.7513 -0.0003
     2 C(13)  Bbb     0.0021     0.287     0.103     0.096 -0.0005  0.0008  1.0000
              Bcc     0.0047     0.631     0.225     0.211  0.7513 -0.6599  0.0009
 
              Baa    -0.5317   -71.346   -25.458   -23.798  0.7878  0.6159 -0.0001
     3 C(13)  Bbb    -0.5240   -70.319   -25.092   -23.456 -0.0001  0.0004  1.0000
              Bcc     1.0557   141.665    50.550    47.254 -0.6159  0.7878 -0.0004
 
              Baa    -0.0095    -5.082    -1.813    -1.695 -0.1342  0.6632  0.7363
     4 H(1)   Bbb    -0.0044    -2.350    -0.839    -0.784  0.5729  0.6582 -0.4884
              Bcc     0.0139     7.432     2.652     2.479  0.8086 -0.3563  0.4683
 
              Baa    -0.0095    -5.081    -1.813    -1.695  0.1342 -0.6630  0.7365
     5 H(1)   Bbb    -0.0044    -2.350    -0.839    -0.784  0.5729  0.6583  0.4883
              Bcc     0.0139     7.432     2.652     2.479  0.8086 -0.3564 -0.4682
 
              Baa    -0.0060    -3.176    -1.133    -1.059 -0.0000  0.0001  1.0000
     6 H(1)   Bbb    -0.0037    -1.950    -0.696    -0.650 -0.3259  0.9454 -0.0002
              Bcc     0.0096     5.126     1.829     1.710  0.9454  0.3259 -0.0000
 
              Baa    -0.0129    -6.860    -2.448    -2.288  0.4841 -0.1719  0.8579
     7 H(1)   Bbb    -0.0070    -3.719    -1.327    -1.240 -0.4449  0.7959  0.4105
              Bcc     0.0198    10.579     3.775     3.529  0.7534  0.5805 -0.3089
 
              Baa    -0.0129    -6.860    -2.448    -2.288 -0.4843  0.1721  0.8578
     8 H(1)   Bbb    -0.0070    -3.718    -1.327    -1.240 -0.4449  0.7958 -0.4108
              Bcc     0.0198    10.578     3.774     3.528  0.7534  0.5805  0.3088
 
              Baa    -0.0778   -41.486   -14.803   -13.838  0.6794  0.5278  0.5098
     9 H(1)   Bbb    -0.0081    -4.346    -1.551    -1.450 -0.6604  0.7427  0.1111
              Bcc     0.0859    45.833    16.354    15.288 -0.3200 -0.4121  0.8531
 
              Baa    -0.0778   -41.486   -14.803   -13.838  0.6795  0.5275 -0.5099
    10 H(1)   Bbb    -0.0081    -4.347    -1.551    -1.450 -0.6603  0.7426 -0.1118
              Bcc     0.0859    45.833    16.354    15.288  0.3197  0.4126  0.8530
 

 ---------------------------------------------------------------------------------

 No NMR shielding tensors so no spin-rotation constants.
 Leave Link  601 at Wed Oct  7 12:36:19 2020, MaxMem=  2684354560 cpu:              18.7 elap:               2.3
 (Enter /udrive/faculty/rpeverati/g16/g16/l9999.exe)

 Test job not archived.
 1\1\GINC-NODE53\FOpt\UHF\6-31G(d)\C3H7(2)\RPEVERATI\07-Oct-2020\0\\#P 
 Opt(MaxCyc=100) HF/6-31G* 5D 7F Integral=UltraFineGrid SCF=(NoSymm,XQC
 ,MaxCyc=120) IOp(1/33=1)\\TS search on BH76.\\0,2\C,1.2028359158,-0.28
 78960597,0.000061617\C,-0.0635144856,0.5826888355,-0.0000670389\C,-1.3
 317167284,-0.2202760952,-0.0000205486\H,1.2361436382,-0.9267384489,0.8
 772846153\H,1.2361840053,-0.9269352108,-0.8770168253\H,2.0971333438,0.
 3284437558,0.0000118403\H,-0.0446112953,1.2324115023,-0.8712432446\H,-
 0.0446669705,1.2326021369,0.8709655067\H,-1.714787392,-0.630428148,0.9
 180275005\H,-1.7144686396,-0.6310038464,-0.9179456292\\Version=ES64L-G
 16RevA.03\State=2-A\HF=-117.6308304\S2=0.762333\S2-1=0.\S2A=0.750102\R
 MSD=5.816e-09\RMSF=3.637e-05\Dipole=0.0765797,-0.0296513,0.0000289\Qua
 drupole=-0.6033121,-0.1233119,0.726624,0.6023113,-0.000323,0.0002859\P
 G=C01 [X(C3H7)]\\@


 THE MORE PROGRESS PHYSICAL SCIENCES MAKE, THE MORE THEY TEND TO ENTER
 THE DOMAIN OF MATHEMATICS, WHICH IS A KIND OF CENTRE TO WHICH THEY ALL
 CONVERGE.  WE MAY EVEN JUDGE THE DEGREE OF PERFECTION TO WHICH A 
 SCIENCE HAS ARRIVED BY THE FACILITY WITH WHICH IT MAY BE SUBMITTED
 TO CALCULATION.

                               -- ADOLPHE QUETELET, 1796-1874
 Job cpu time:       0 days  0 hours 10 minutes 59.8 seconds.
 Elapsed time:       0 days  0 hours  1 minutes 33.7 seconds.
 File lengths (MBytes):  RWF=      9 Int=      0 D2E=      0 Chk=      2 Scr=      1
 Normal termination of Gaussian 16 at Wed Oct  7 12:36:21 2020.
