 Entering Gaussian System, Link 0=g16
 Input=MN_18_C5H8_BH76_HF_631Gs.in
 Output=MN_18_C5H8_BH76_HF_631Gs.log
 Initial command:
 /udrive/faculty/rpeverati/g16/g16/l1.exe "/udrive/scratch-directories/gaussian09/rpeverati/Gau-12408.inp" -scrdir="/udrive/scratch-directories/gaussian09/rpeverati/"
 Entering Link 1 = /udrive/faculty/rpeverati/g16/g16/l1.exe PID=     12409.
  
 Copyright (c) 1988,1990,1992,1993,1995,1998,2003,2009,2016,
            Gaussian, Inc.  All Rights Reserved.
  
 This is part of the Gaussian(R) 16 program.  It is based on
 the Gaussian(R) 09 system (copyright 2009, Gaussian, Inc.),
 the Gaussian(R) 03 system (copyright 2003, Gaussian, Inc.),
 the Gaussian(R) 98 system (copyright 1998, Gaussian, Inc.),
 the Gaussian(R) 94 system (copyright 1995, Gaussian, Inc.),
 the Gaussian 92(TM) system (copyright 1992, Gaussian, Inc.),
 the Gaussian 90(TM) system (copyright 1990, Gaussian, Inc.),
 the Gaussian 88(TM) system (copyright 1988, Gaussian, Inc.),
 the Gaussian 86(TM) system (copyright 1986, Carnegie Mellon
 University), and the Gaussian 82(TM) system (copyright 1983,
 Carnegie Mellon University). Gaussian is a federally registered
 trademark of Gaussian, Inc.
  
 This software contains proprietary and confidential information,
 including trade secrets, belonging to Gaussian, Inc.
  
 This software is provided under written license and may be
 used, copied, transmitted, or stored only in accord with that
 written license.
  
 The following legend is applicable only to US Government
 contracts under FAR:
  
                    RESTRICTED RIGHTS LEGEND
  
 Use, reproduction and disclosure by the US Government is
 subject to restrictions as set forth in subparagraphs (a)
 and (c) of the Commercial Computer Software - Restricted
 Rights clause in FAR 52.227-19.
  
 Gaussian, Inc.
 340 Quinnipiac St., Bldg. 40, Wallingford CT 06492
  
  
 ---------------------------------------------------------------
 Warning -- This program may not be used in any manner that
 competes with the business of Gaussian, Inc. or will provide
 assistance to any competitor of Gaussian, Inc.  The licensee
 of this program is prohibited from giving any competitor of
 Gaussian, Inc. access to this program.  By using this program,
 the user acknowledges that Gaussian, Inc. is engaged in the
 business of creating and licensing software in the field of
 computational chemistry and represents and warrants to the
 licensee that it is not a competitor of Gaussian, Inc. and that
 it will not use this program in any manner prohibited above.
 ---------------------------------------------------------------
  

 Cite this work as:
 Gaussian 16, Revision A.03,
 M. J. Frisch, G. W. Trucks, H. B. Schlegel, G. E. Scuseria, 
 M. A. Robb, J. R. Cheeseman, G. Scalmani, V. Barone, 
 G. A. Petersson, H. Nakatsuji, X. Li, M. Caricato, A. V. Marenich, 
 J. Bloino, B. G. Janesko, R. Gomperts, B. Mennucci, H. P. Hratchian, 
 J. V. Ortiz, A. F. Izmaylov, J. L. Sonnenberg, D. Williams-Young, 
 F. Ding, F. Lipparini, F. Egidi, J. Goings, B. Peng, A. Petrone, 
 T. Henderson, D. Ranasinghe, V. G. Zakrzewski, J. Gao, N. Rega, 
 G. Zheng, W. Liang, M. Hada, M. Ehara, K. Toyota, R. Fukuda, 
 J. Hasegawa, M. Ishida, T. Nakajima, Y. Honda, O. Kitao, H. Nakai, 
 T. Vreven, K. Throssell, J. A. Montgomery, Jr., J. E. Peralta, 
 F. Ogliaro, M. J. Bearpark, J. J. Heyd, E. N. Brothers, K. N. Kudin, 
 V. N. Staroverov, T. A. Keith, R. Kobayashi, J. Normand, 
 K. Raghavachari, A. P. Rendell, J. C. Burant, S. S. Iyengar, 
 J. Tomasi, M. Cossi, J. M. Millam, M. Klene, C. Adamo, R. Cammi, 
 J. W. Ochterski, R. L. Martin, K. Morokuma, O. Farkas, 
 J. B. Foresman, and D. J. Fox, Gaussian, Inc., Wallingford CT, 2016.
 
 ******************************************
 Gaussian 16:  ES64L-G16RevA.03 25-Dec-2016
                 7-Oct-2020 
 ******************************************
 %NoSave
 %nproc=12
 Will use up to   12 processors via shared memory.
 %mem=20GB
 %chk=MN_18_C5H8_BH76_HF_631Gs
 ----------------------------------------------------------------------
 #P Opt(MaxCyc=100) HF/6-31G* 5D 7F Integral=UltraFineGrid SCF=(NoSymm,
 XQC,MaxCyc=120) IOp(1/33=1)
 ----------------------------------------------------------------------
 1/6=100,18=20,19=15,33=1,38=1/1,3;
 2/9=110,12=2,17=6,18=5,40=1/2;
 3/5=1,6=6,7=1,8=11,11=9,25=1,30=1,71=1,75=-5/1,2,3;
 4/9=2/1;
 5/5=2,7=120,8=3,13=1,38=5/2,8;
 6/7=2,8=2,9=2,10=2,28=1/1;
 7//1,2,3,16;
 1/6=100,18=20,19=15,33=1/3(2);
 2/9=110/2;
 99//99;
 2/9=110/2;
 3/5=1,6=6,7=1,8=11,11=9,25=1,30=1,71=1,75=-5/1,2,3;
 4/5=5,9=2,16=3,69=1/1;
 5/5=2,7=120,8=3,13=1,38=5/2,8;
 7//1,2,3,16;
 1/6=100,18=20,19=15,33=1/3(-5);
 2/9=110/2;
 6/7=2,8=2,9=2,10=2,19=2,28=1/1;
 99/9=1/99;
 Leave Link    1 at Wed Oct  7 12:34:32 2020, MaxMem=  2684354560 cpu:               8.6 elap:               1.0
 (Enter /udrive/faculty/rpeverati/g16/g16/l101.exe)
 ONIOM data not found on unit 2.
 ------------------
 TS search on BH76.
 ------------------
 TstMul:  ICh=     0
 TstMul:  Mul=     1
 TstMul:  ICh=     0
 TstMul:  Mul=     1
 Symbolic Z-matrix:
 Charge =  0 Multiplicity = 1
 C                    -2.05564  -0.61227   0.00001 
 C                    -1.2311    0.64045   0.00005 
 C                     0.10563   0.73428   0.00003 
 C                     1.05756  -0.37441  -0.00004 
 C                     2.38358  -0.19894  -0.00004 
 H                    -2.70509  -0.6416    0.87713 
 H                    -2.70513  -0.64151  -0.87709 
 H                    -1.45133  -1.51608  -0.00006 
 H                    -1.79367   1.56759   0.0001 
 H                     0.54576   1.72564   0.00006 
 H                     0.66526  -1.38324  -0.0001 
 H                     3.06469  -1.03772  -0.00009 
 H                     2.81928   0.79228   0.00002 
 
 RdStrC is calling ZToCFu for IStruc=1 NZ=    13.
 PrtBox:  NBox=     2 Levels=  2 BoxLen=    8.00 SMaxX=       10.90
          Shift=            5.111950            2.864980            1.657460
 Box      1 Number                   0 centers from      1 to     10:
 Box      2 Number                   4 centers from     11 to     13:
 After GenITR:
 ITRead=  0  0  0  0  0  0  0  0  0  0  0  0  0
 MicOpt= -1 -1 -1 -1 -1 -1 -1 -1 -1 -1 -1 -1 -1
 ITRead=  0  0  0  0  0  0  0  0  0  0  0  0  0
 MicOpt= -1 -1 -1 -1 -1 -1 -1 -1 -1 -1 -1 -1 -1
 NAtoms=     13 NQM=       13 NQMF=       0 NMMI=      0 NMMIF=      0
                NMic=       0 NMicF=      0.
                    Isotopes and Nuclear Properties:
 (Nuclear quadrupole moments (NQMom) in fm**2, nuclear magnetic moments (NMagM)
  in nuclear magnetons)

  Atom         1           2           3           4           5           6           7           8           9          10
 IAtWgt=          12          12          12          12          12           1           1           1           1           1
 AtmWgt=  12.0000000  12.0000000  12.0000000  12.0000000  12.0000000   1.0078250   1.0078250   1.0078250   1.0078250   1.0078250
 NucSpn=           0           0           0           0           0           1           1           1           1           1
 AtZEff=   0.0000000   0.0000000   0.0000000   0.0000000   0.0000000   0.0000000   0.0000000   0.0000000   0.0000000   0.0000000
 NQMom=    0.0000000   0.0000000   0.0000000   0.0000000   0.0000000   0.0000000   0.0000000   0.0000000   0.0000000   0.0000000
 NMagM=    0.0000000   0.0000000   0.0000000   0.0000000   0.0000000   2.7928460   2.7928460   2.7928460   2.7928460   2.7928460
 AtZNuc=   6.0000000   6.0000000   6.0000000   6.0000000   6.0000000   1.0000000   1.0000000   1.0000000   1.0000000   1.0000000

  Atom        11          12          13
 IAtWgt=           1           1           1
 AtmWgt=   1.0078250   1.0078250   1.0078250
 NucSpn=           1           1           1
 AtZEff=   0.0000000   0.0000000   0.0000000
 NQMom=    0.0000000   0.0000000   0.0000000
 NMagM=    2.7928460   2.7928460   2.7928460
 AtZNuc=   1.0000000   1.0000000   1.0000000
 No MM parameters found.
 Leave Link  101 at Wed Oct  7 12:34:34 2020, MaxMem=  2684354560 cpu:              13.6 elap:               1.5
 (Enter /udrive/faculty/rpeverati/g16/g16/l103.exe)

 GradGradGradGradGradGradGradGradGradGradGradGradGradGradGradGradGradGrad
 Berny optimization.
 Optmz: redundant internal coordinate code flag= 1
 Initialization pass.
                           ----------------------------
                           !    Initial Parameters    !
                           ! (Angstroms and Degrees)  !
 --------------------------                            --------------------------
 ! Name  Definition              Value          Derivative Info.                !
 --------------------------------------------------------------------------------
 ! R1    R(1,2)                  1.4997         estimate D2E/DX2                !
 ! R2    R(1,6)                  1.0918         estimate D2E/DX2                !
 ! R3    R(1,7)                  1.0918         estimate D2E/DX2                !
 ! R4    R(1,8)                  1.0872         estimate D2E/DX2                !
 ! R5    R(2,3)                  1.34           estimate D2E/DX2                !
 ! R6    R(2,9)                  1.0845         estimate D2E/DX2                !
 ! R7    R(3,4)                  1.4613         estimate D2E/DX2                !
 ! R8    R(3,10)                 1.0847         estimate D2E/DX2                !
 ! R9    R(4,5)                  1.3376         estimate D2E/DX2                !
 ! R10   R(4,11)                 1.0824         estimate D2E/DX2                !
 ! R11   R(5,12)                 1.0805         estimate D2E/DX2                !
 ! R12   R(5,13)                 1.0827         estimate D2E/DX2                !
 ! A1    A(2,1,6)              110.454          estimate D2E/DX2                !
 ! A2    A(2,1,7)              110.4539         estimate D2E/DX2                !
 ! A3    A(2,1,8)              112.8797         estimate D2E/DX2                !
 ! A4    A(6,1,7)              106.9071         estimate D2E/DX2                !
 ! A5    A(6,1,8)              107.96           estimate D2E/DX2                !
 ! A6    A(7,1,8)              107.9599         estimate D2E/DX2                !
 ! A7    A(1,2,3)              127.3679         estimate D2E/DX2                !
 ! A8    A(1,2,9)              115.3987         estimate D2E/DX2                !
 ! A9    A(3,2,9)              117.2333         estimate D2E/DX2                !
 ! A10   A(2,3,4)              126.6344         estimate D2E/DX2                !
 ! A11   A(2,3,10)             117.9542         estimate D2E/DX2                !
 ! A12   A(4,3,10)             115.4113         estimate D2E/DX2                !
 ! A13   A(3,4,5)              123.1115         estimate D2E/DX2                !
 ! A14   A(3,4,11)             118.1014         estimate D2E/DX2                !
 ! A15   A(5,4,11)             118.7871         estimate D2E/DX2                !
 ! A16   A(4,5,12)             121.5392         estimate D2E/DX2                !
 ! A17   A(4,5,13)             121.266          estimate D2E/DX2                !
 ! A18   A(12,5,13)            117.1948         estimate D2E/DX2                !
 ! D1    D(6,1,2,3)            120.9702         estimate D2E/DX2                !
 ! D2    D(6,1,2,9)            -59.0299         estimate D2E/DX2                !
 ! D3    D(7,1,2,3)           -120.9708         estimate D2E/DX2                !
 ! D4    D(7,1,2,9)             59.0292         estimate D2E/DX2                !
 ! D5    D(8,1,2,3)             -0.0004         estimate D2E/DX2                !
 ! D6    D(8,1,2,9)            179.9995         estimate D2E/DX2                !
 ! D7    D(1,2,3,4)             -0.0001         estimate D2E/DX2                !
 ! D8    D(1,2,3,10)          -180.0            estimate D2E/DX2                !
 ! D9    D(9,2,3,4)            180.0            estimate D2E/DX2                !
 ! D10   D(9,2,3,10)             0.0001         estimate D2E/DX2                !
 ! D11   D(2,3,4,5)           -179.9986         estimate D2E/DX2                !
 ! D12   D(2,3,4,11)             0.0014         estimate D2E/DX2                !
 ! D13   D(10,3,4,5)             0.0013         estimate D2E/DX2                !
 ! D14   D(10,3,4,11)         -179.9987         estimate D2E/DX2                !
 ! D15   D(3,4,5,12)           179.9999         estimate D2E/DX2                !
 ! D16   D(3,4,5,13)            -0.0001         estimate D2E/DX2                !
 ! D17   D(11,4,5,12)           -0.0001         estimate D2E/DX2                !
 ! D18   D(11,4,5,13)          179.9999         estimate D2E/DX2                !
 --------------------------------------------------------------------------------
 Maximum allowed force set to 1.00D+20.
 Trust Radius=3.00D-01 FncErr=1.00D-07 GrdErr=1.00D-07 EigMax=2.50D+02 EigMin=1.00D-04
 Number of steps in this run=    100 maximum allowed number of steps=    100.
 GradGradGradGradGradGradGradGradGradGradGradGradGradGradGradGradGradGrad

 Leave Link  103 at Wed Oct  7 12:34:35 2020, MaxMem=  2684354560 cpu:               2.5 elap:               0.7
 (Enter /udrive/faculty/rpeverati/g16/g16/l202.exe)
                          Input orientation:                          
 ---------------------------------------------------------------------
 Center     Atomic      Atomic             Coordinates (Angstroms)
 Number     Number       Type             X           Y           Z
 ---------------------------------------------------------------------
      1          6           0       -2.055637   -0.612274    0.000007
      2          6           0       -1.231099    0.640447    0.000049
      3          6           0        0.105634    0.734276    0.000026
      4          6           0        1.057555   -0.374407   -0.000044
      5          6           0        2.383583   -0.198936   -0.000036
      6          1           0       -2.705085   -0.641596    0.877132
      7          1           0       -2.705127   -0.641506   -0.877090
      8          1           0       -1.451332   -1.516082   -0.000055
      9          1           0       -1.793667    1.567587    0.000103
     10          1           0        0.545756    1.725642    0.000064
     11          1           0        0.665260   -1.383243   -0.000105
     12          1           0        3.064693   -1.037722   -0.000088
     13          1           0        2.819276    0.792284    0.000023
 ---------------------------------------------------------------------
                    Distance matrix (angstroms):
                    1          2          3          4          5
     1  C    0.000000
     2  C    1.499724   0.000000
     3  C    2.546426   1.340022   0.000000
     4  C    3.122266   2.503571   1.461278   0.000000
     5  C    4.458421   3.710862   2.461694   1.337588   0.000000
     6  H    1.091784   2.141388   3.249997   3.872763   5.182656
     7  H    1.091784   2.141386   3.249998   3.872768   5.182670
     8  H    1.087223   2.167746   2.736467   2.756436   4.054806
     9  H    2.195546   1.084468   2.074067   3.449755   4.535419
    10  H    3.497584   2.082033   1.084672   2.161514   2.661129
    11  H    2.828016   2.773355   2.190221   1.082425   2.086915
    12  H    5.137974   4.611950   3.449059   2.113903   1.080496
    13  H    5.073220   4.053220   2.714262   2.113014   1.082749
                    6          7          8          9         10
     6  H    0.000000
     7  H    1.754222   0.000000
     8  H    1.762408   1.762407   0.000000
     9  H    2.545653   2.545647   3.102613   0.000000
    10  H    4.115948   4.115948   3.807510   2.344757   0.000000
    11  H    3.560732   3.560729   2.120757   3.841057   3.111180
    12  H    5.849510   5.849525   4.541289   5.512830   3.739147
    13  H    5.774418   5.774436   4.854549   4.677643   2.457651
                   11         12         13
    11  H    0.000000
    12  H    2.424182   0.000000
    13  H    3.061487   1.846389   0.000000
 Stoichiometry    C5H8
 Framework group  C1[X(C5H8)]
 Deg. of freedom    33
 Full point group                 C1      NOp   1
 Largest Abelian subgroup         C1      NOp   1
 Largest concise Abelian subgroup C1      NOp   1
                         Standard orientation:                         
 ---------------------------------------------------------------------
 Center     Atomic      Atomic             Coordinates (Angstroms)
 Number     Number       Type             X           Y           Z
 ---------------------------------------------------------------------
      1          6           0       -2.055636   -0.612274    0.000007
      2          6           0       -1.231099    0.640447    0.000049
      3          6           0        0.105634    0.734276    0.000026
      4          6           0        1.057556   -0.374407   -0.000044
      5          6           0        2.383584   -0.198936   -0.000036
      6          1           0       -2.705085   -0.641596    0.877132
      7          1           0       -2.705127   -0.641506   -0.877090
      8          1           0       -1.451332   -1.516082   -0.000055
      9          1           0       -1.793668    1.567587    0.000103
     10          1           0        0.545756    1.725642    0.000064
     11          1           0        0.665261   -1.383243   -0.000105
     12          1           0        3.064693   -1.037721   -0.000088
     13          1           0        2.819276    0.792285    0.000023
 ---------------------------------------------------------------------
 Rotational constants (GHZ):          15.8794823           2.6528461           2.3052563
 Leave Link  202 at Wed Oct  7 12:34:36 2020, MaxMem=  2684354560 cpu:               2.6 elap:               0.7
 (Enter /udrive/faculty/rpeverati/g16/g16/l301.exe)
 Standard basis: 6-31G(d) (5D, 7F)
 Ernie: Thresh=  0.10000D-02 Tol=  0.10000D-05 Strict=F.
 There are    91 symmetry adapted cartesian basis functions of A   symmetry.
 There are    86 symmetry adapted basis functions of A   symmetry.
    86 basis functions,   172 primitive gaussians,    91 cartesian basis functions
    19 alpha electrons       19 beta electrons
       nuclear repulsion energy       155.8151495793 Hartrees.
 IExCor=    0 DFT=F Ex=HF Corr=None ExCW=0 ScaHFX=  1.000000
 ScaDFX=  1.000000  1.000000  1.000000  1.000000 ScalE2=  1.000000  1.000000
 IRadAn=      5 IRanWt=     -1 IRanGd=            0 ICorTp=0 IEmpDi=  4
 NAtoms=   13 NActive=   13 NUniq=   13 SFac= 1.00D+00 NAtFMM=   60 NAOKFM=F Big=F
 Integral buffers will be    131072 words long.
 Raffenetti 1 integral format.
 Two-electron integral symmetry is turned on.
 Leave Link  301 at Wed Oct  7 12:34:37 2020, MaxMem=  2684354560 cpu:               1.6 elap:               0.7
 (Enter /udrive/faculty/rpeverati/g16/g16/l302.exe)
 NPDir=0 NMtPBC=     1 NCelOv=     1 NCel=       1 NClECP=     1 NCelD=      1
         NCelK=      1 NCelE2=     1 NClLst=     1 CellRange=     0.0.
 One-electron integrals computed using PRISM.
 One-electron integral symmetry used in STVInt
 NBasis=    86 RedAO= T EigKep=  2.65D-03  NBF=    86
 NBsUse=    86 1.00D-06 EigRej= -1.00D+00 NBFU=    86
 Leave Link  302 at Wed Oct  7 12:34:39 2020, MaxMem=  2684354560 cpu:               9.9 elap:               1.6
 (Enter /udrive/faculty/rpeverati/g16/g16/l303.exe)
 DipDrv:  MaxL=1.
 Leave Link  303 at Wed Oct  7 12:34:40 2020, MaxMem=  2684354560 cpu:               4.1 elap:               0.9
 (Enter /udrive/faculty/rpeverati/g16/g16/l401.exe)
 SCF N**3 symmetry information disabled.
 ExpMin= 1.61D-01 ExpMax= 3.05D+03 ExpMxC= 4.57D+02 IAcc=3 IRadAn=         5 AccDes= 0.00D+00
 Harris functional with IExCor=  205 and IRadAn=       5 diagonalized for initial guess.
 HarFok:  IExCor=  205 AccDes= 0.00D+00 IRadAn=         5 IDoV= 1 UseB2=F ITyADJ=14
 ICtDFT=  3500011 ScaDFX=  1.000000  1.000000  1.000000  1.000000
 FoFCou: FMM=F IPFlag=           0 FMFlag=      100000 FMFlg1=           0
         NFxFlg=           0 DoJE=T BraDBF=F KetDBF=T FulRan=T
         wScrn=  0.000000 ICntrl=       500 IOpCl=  0 I1Cent=   200000004 NGrid=           0
         NMat0=    1 NMatS0=      1 NMatT0=    0 NMatD0=    1 NMtDS0=    0 NMtDT0=    0
 Petite list used in FoFCou.
 Harris En= -194.365624304446    
 JPrj=0 DoOrth=F DoCkMO=F.
 Leave Link  401 at Wed Oct  7 12:34:42 2020, MaxMem=  2684354560 cpu:              13.2 elap:               1.5
 (Enter /udrive/faculty/rpeverati/g16/g16/l502.exe)
 Integral symmetry usage will be decided dynamically.
 Closed shell SCF:
 Using DIIS extrapolation, IDIIS=  1040.
 NGot=  2684354560 LenX=  2684335663 LenY=  2684326941
 Requested convergence on RMS density matrix=1.00D-08 within 120 cycles.
 Requested convergence on MAX density matrix=1.00D-06.
 Requested convergence on             energy=1.00D-06.
 No special actions if energy rises.
 Fock matrices will be formed incrementally for  20 cycles.
 Integral accuracy reduced to 1.0D-05 until final iterations.

 Cycle   1  Pass 0  IDiag  1:
 FoFJK:  IHMeth= 1 ICntrl=       0 DoSepK=F KAlg= 0 I1Cent=           0 FoldK=F
 IRaf= 980000000 NMat=       1 IRICut=       1 DoRegI=T DoRafI=F ISym2E= 0 IDoP0=0 IntGTp=1.
 FoFCou: FMM=F IPFlag=           0 FMFlag=      100000 FMFlg1=           0
         NFxFlg=           0 DoJE=F BraDBF=F KetDBF=F FulRan=T
         wScrn=  0.000000 ICntrl=         0 IOpCl=  0 I1Cent=           0 NGrid=           0
         NMat0=    1 NMatS0=      1 NMatT0=    0 NMatD0=    1 NMtDS0=    0 NMtDT0=    0
 Symmetry not used in FoFCou.
 E= -193.674123148873    
 DIIS: error= 6.56D-02 at cycle   1 NSaved=   1.
 NSaved= 1 IEnMin= 1 EnMin= -193.674123148873     IErMin= 1 ErrMin= 6.56D-02
 ErrMax= 6.56D-02  0.00D+00 EMaxC= 1.00D-01 BMatC= 2.74D-01 BMatP= 2.74D-01
 IDIUse=3 WtCom= 3.44D-01 WtEn= 6.56D-01
 Coeff-Com:  0.100D+01
 Coeff-En:   0.100D+01
 Coeff:      0.100D+01
 Gap=     0.442 Goal=   None    Shift=    0.000
 GapD=    0.442 DampG=2.000 DampE=0.500 DampFc=1.0000 IDamp=-1.
 RMSDP=7.17D-03 MaxDP=1.15D-01              OVMax= 1.35D-01

 Cycle   2  Pass 0  IDiag  1:
 RMSU=  6.91D-03    CP:  9.44D-01
 E= -193.920747223385     Delta-E=       -0.246624074512 Rises=F Damp=F
 DIIS: error= 1.84D-02 at cycle   2 NSaved=   2.
 NSaved= 2 IEnMin= 2 EnMin= -193.920747223385     IErMin= 2 ErrMin= 1.84D-02
 ErrMax= 1.84D-02  0.00D+00 EMaxC= 1.00D-01 BMatC= 3.35D-02 BMatP= 2.74D-01
 IDIUse=3 WtCom= 8.16D-01 WtEn= 1.84D-01
 Coeff-Com:  0.222D+00 0.778D+00
 Coeff-En:   0.000D+00 0.100D+01
 Coeff:      0.181D+00 0.819D+00
 Gap=     0.439 Goal=   None    Shift=    0.000
 RMSDP=2.54D-03 MaxDP=3.03D-02 DE=-2.47D-01 OVMax= 3.78D-02

 Cycle   3  Pass 0  IDiag  1:
 RMSU=  2.05D-03    CP:  9.54D-01  7.89D-01
 E= -193.953732626590     Delta-E=       -0.032985403205 Rises=F Damp=F
 DIIS: error= 3.39D-03 at cycle   3 NSaved=   3.
 NSaved= 3 IEnMin= 3 EnMin= -193.953732626590     IErMin= 3 ErrMin= 3.39D-03
 ErrMax= 3.39D-03  0.00D+00 EMaxC= 1.00D-01 BMatC= 7.90D-04 BMatP= 3.35D-02
 IDIUse=3 WtCom= 9.66D-01 WtEn= 3.39D-02
 Coeff-Com: -0.243D-01 0.600D-01 0.964D+00
 Coeff-En:   0.000D+00 0.000D+00 0.100D+01
 Coeff:     -0.235D-01 0.580D-01 0.966D+00
 Gap=     0.439 Goal=   None    Shift=    0.000
 RMSDP=3.85D-04 MaxDP=5.35D-03 DE=-3.30D-02 OVMax= 1.19D-02

 Cycle   4  Pass 0  IDiag  1:
 RMSU=  2.38D-04    CP:  9.52D-01  8.28D-01  1.06D+00
 E= -193.954734456648     Delta-E=       -0.001001830057 Rises=F Damp=F
 DIIS: error= 8.41D-04 at cycle   4 NSaved=   4.
 NSaved= 4 IEnMin= 4 EnMin= -193.954734456648     IErMin= 4 ErrMin= 8.41D-04
 ErrMax= 8.41D-04  0.00D+00 EMaxC= 1.00D-01 BMatC= 5.36D-05 BMatP= 7.90D-04
 IDIUse=3 WtCom= 9.92D-01 WtEn= 8.41D-03
 Coeff-Com: -0.878D-02-0.605D-02 0.185D+00 0.830D+00
 Coeff-En:   0.000D+00 0.000D+00 0.000D+00 0.100D+01
 Coeff:     -0.871D-02-0.600D-02 0.183D+00 0.831D+00
 Gap=     0.440 Goal=   None    Shift=    0.000
 RMSDP=1.33D-04 MaxDP=1.74D-03 DE=-1.00D-03 OVMax= 4.12D-03

 Cycle   5  Pass 0  IDiag  1:
 RMSU=  8.50D-05    CP:  9.52D-01  8.29D-01  1.11D+00  9.69D-01
 E= -193.954805100638     Delta-E=       -0.000070643990 Rises=F Damp=F
 DIIS: error= 4.05D-04 at cycle   5 NSaved=   5.
 NSaved= 5 IEnMin= 5 EnMin= -193.954805100638     IErMin= 5 ErrMin= 4.05D-04
 ErrMax= 4.05D-04  0.00D+00 EMaxC= 1.00D-01 BMatC= 6.09D-06 BMatP= 5.36D-05
 IDIUse=3 WtCom= 9.96D-01 WtEn= 4.05D-03
 Coeff-Com:  0.207D-02-0.946D-02-0.105D+00 0.978D-01 0.101D+01
 Coeff-En:   0.000D+00 0.000D+00 0.000D+00 0.000D+00 0.100D+01
 Coeff:      0.206D-02-0.942D-02-0.105D+00 0.974D-01 0.101D+01
 Gap=     0.441 Goal=   None    Shift=    0.000
 RMSDP=5.57D-05 MaxDP=5.48D-04 DE=-7.06D-05 OVMax= 2.01D-03

 Cycle   6  Pass 0  IDiag  1:
 RMSU=  2.19D-05    CP:  9.52D-01  8.30D-01  1.12D+00  1.11D+00  1.18D+00
 E= -193.954816720441     Delta-E=       -0.000011619803 Rises=F Damp=F
 DIIS: error= 5.07D-05 at cycle   6 NSaved=   6.
 NSaved= 6 IEnMin= 6 EnMin= -193.954816720441     IErMin= 6 ErrMin= 5.07D-05
 ErrMax= 5.07D-05  0.00D+00 EMaxC= 1.00D-01 BMatC= 2.18D-07 BMatP= 6.09D-06
 IDIUse=1 WtCom= 1.00D+00 WtEn= 0.00D+00
 Coeff-Com:  0.494D-03-0.549D-03-0.152D-01-0.335D-01 0.639D-01 0.985D+00
 Coeff:      0.494D-03-0.549D-03-0.152D-01-0.335D-01 0.639D-01 0.985D+00
 Gap=     0.441 Goal=   None    Shift=    0.000
 RMSDP=1.23D-05 MaxDP=1.26D-04 DE=-1.16D-05 OVMax= 4.13D-04

 Cycle   7  Pass 0  IDiag  1:
 RMSU=  6.05D-06    CP:  9.52D-01  8.30D-01  1.13D+00  1.13D+00  1.26D+00
                    CP:  1.17D+00
 E= -193.954817297435     Delta-E=       -0.000000576994 Rises=F Damp=F
 DIIS: error= 2.26D-05 at cycle   7 NSaved=   7.
 NSaved= 7 IEnMin= 7 EnMin= -193.954817297435     IErMin= 7 ErrMin= 2.26D-05
 ErrMax= 2.26D-05  0.00D+00 EMaxC= 1.00D-01 BMatC= 2.38D-08 BMatP= 2.18D-07
 IDIUse=1 WtCom= 1.00D+00 WtEn= 0.00D+00
 Coeff-Com: -0.114D-03 0.590D-03 0.643D-02-0.723D-02-0.688D-01 0.453D-01
 Coeff-Com:  0.102D+01
 Coeff:     -0.114D-03 0.590D-03 0.643D-02-0.723D-02-0.688D-01 0.453D-01
 Coeff:      0.102D+01
 Gap=     0.441 Goal=   None    Shift=    0.000
 RMSDP=3.90D-06 MaxDP=7.11D-05 DE=-5.77D-07 OVMax= 1.69D-04

 Initial convergence to 1.0D-05 achieved.  Increase integral accuracy.
 Cycle   8  Pass 1  IDiag  1:
 E= -193.954817715687     Delta-E=       -0.000000418252 Rises=F Damp=F
 DIIS: error= 7.00D-06 at cycle   1 NSaved=   1.
 NSaved= 1 IEnMin= 1 EnMin= -193.954817715687     IErMin= 1 ErrMin= 7.00D-06
 ErrMax= 7.00D-06  0.00D+00 EMaxC= 1.00D-01 BMatC= 6.70D-09 BMatP= 6.70D-09
 IDIUse=1 WtCom= 1.00D+00 WtEn= 0.00D+00
 Coeff-Com:  0.100D+01
 Coeff:      0.100D+01
 Gap=     0.441 Goal=   None    Shift=    0.000
 RMSDP=3.90D-06 MaxDP=7.11D-05 DE=-4.18D-07 OVMax= 3.94D-05

 Cycle   9  Pass 1  IDiag  1:
 RMSU=  1.74D-06    CP:  1.00D+00
 E= -193.954817728542     Delta-E=       -0.000000012855 Rises=F Damp=F
 DIIS: error= 5.71D-06 at cycle   2 NSaved=   2.
 NSaved= 2 IEnMin= 2 EnMin= -193.954817728542     IErMin= 2 ErrMin= 5.71D-06
 ErrMax= 5.71D-06  0.00D+00 EMaxC= 1.00D-01 BMatC= 1.12D-09 BMatP= 6.70D-09
 IDIUse=1 WtCom= 1.00D+00 WtEn= 0.00D+00
 Coeff-Com:  0.371D-01 0.963D+00
 Coeff:      0.371D-01 0.963D+00
 Gap=     0.441 Goal=   None    Shift=    0.000
 RMSDP=7.27D-07 MaxDP=1.93D-05 DE=-1.29D-08 OVMax= 4.17D-05

 Cycle  10  Pass 1  IDiag  1:
 RMSU=  5.47D-07    CP:  1.00D+00  1.28D+00
 E= -193.954817732357     Delta-E=       -0.000000003815 Rises=F Damp=F
 DIIS: error= 2.47D-06 at cycle   3 NSaved=   3.
 NSaved= 3 IEnMin= 3 EnMin= -193.954817732357     IErMin= 3 ErrMin= 2.47D-06
 ErrMax= 2.47D-06  0.00D+00 EMaxC= 1.00D-01 BMatC= 6.97D-10 BMatP= 1.12D-09
 IDIUse=1 WtCom= 1.00D+00 WtEn= 0.00D+00
 Coeff-Com: -0.402D+00 0.110D+00 0.129D+01
 Coeff:     -0.402D+00 0.110D+00 0.129D+01
 Gap=     0.441 Goal=   None    Shift=    0.000
 RMSDP=9.19D-07 MaxDP=1.24D-05 DE=-3.82D-09 OVMax= 3.20D-05

 Cycle  11  Pass 1  IDiag  1:
 RMSU=  2.31D-07    CP:  1.00D+00  1.77D+00  1.42D+00
 E= -193.954817734190     Delta-E=       -0.000000001833 Rises=F Damp=F
 DIIS: error= 4.83D-07 at cycle   4 NSaved=   4.
 NSaved= 4 IEnMin= 4 EnMin= -193.954817734190     IErMin= 4 ErrMin= 4.83D-07
 ErrMax= 4.83D-07  0.00D+00 EMaxC= 1.00D-01 BMatC= 1.44D-11 BMatP= 6.97D-10
 IDIUse=1 WtCom= 1.00D+00 WtEn= 0.00D+00
 Coeff-Com: -0.453D-01-0.194D-01 0.892D-01 0.975D+00
 Coeff:     -0.453D-01-0.194D-01 0.892D-01 0.975D+00
 Gap=     0.441 Goal=   None    Shift=    0.000
 RMSDP=1.19D-07 MaxDP=2.06D-06 DE=-1.83D-09 OVMax= 5.07D-06

 Cycle  12  Pass 1  IDiag  1:
 RMSU=  4.72D-08    CP:  1.00D+00  1.82D+00  1.51D+00  1.23D+00
 E= -193.954817734235     Delta-E=       -0.000000000045 Rises=F Damp=F
 DIIS: error= 2.03D-07 at cycle   5 NSaved=   5.
 NSaved= 5 IEnMin= 5 EnMin= -193.954817734235     IErMin= 5 ErrMin= 2.03D-07
 ErrMax= 2.03D-07  0.00D+00 EMaxC= 1.00D-01 BMatC= 1.75D-12 BMatP= 1.44D-11
 IDIUse=1 WtCom= 1.00D+00 WtEn= 0.00D+00
 Coeff-Com:  0.335D-01-0.749D-02-0.123D+00 0.674D-01 0.103D+01
 Coeff:      0.335D-01-0.749D-02-0.123D+00 0.674D-01 0.103D+01
 Gap=     0.441 Goal=   None    Shift=    0.000
 RMSDP=3.70D-08 MaxDP=6.66D-07 DE=-4.46D-11 OVMax= 1.37D-06

 Cycle  13  Pass 1  IDiag  1:
 RMSU=  1.66D-08    CP:  1.00D+00  1.83D+00  1.53D+00  1.34D+00  1.21D+00
 E= -193.954817734237     Delta-E=       -0.000000000003 Rises=F Damp=F
 DIIS: error= 4.81D-08 at cycle   6 NSaved=   6.
 NSaved= 6 IEnMin= 6 EnMin= -193.954817734237     IErMin= 6 ErrMin= 4.81D-08
 ErrMax= 4.81D-08  0.00D+00 EMaxC= 1.00D-01 BMatC= 2.48D-13 BMatP= 1.75D-12
 IDIUse=1 WtCom= 1.00D+00 WtEn= 0.00D+00
 Coeff-Com:  0.197D-02 0.326D-02 0.935D-03-0.141D+00-0.200D-01 0.116D+01
 Coeff:      0.197D-02 0.326D-02 0.935D-03-0.141D+00-0.200D-01 0.116D+01
 Gap=     0.441 Goal=   None    Shift=    0.000
 RMSDP=1.39D-08 MaxDP=1.88D-07 DE=-2.73D-12 OVMax= 4.40D-07

 Cycle  14  Pass 1  IDiag  1:
 RMSU=  6.78D-09    CP:  1.00D+00  1.83D+00  1.54D+00  1.36D+00  1.38D+00
                    CP:  1.31D+00
 E= -193.954817734239     Delta-E=       -0.000000000001 Rises=F Damp=F
 DIIS: error= 2.03D-08 at cycle   7 NSaved=   7.
 NSaved= 7 IEnMin= 7 EnMin= -193.954817734239     IErMin= 7 ErrMin= 2.03D-08
 ErrMax= 2.03D-08  0.00D+00 EMaxC= 1.00D-01 BMatC= 1.61D-14 BMatP= 2.48D-13
 IDIUse=1 WtCom= 1.00D+00 WtEn= 0.00D+00
 Coeff-Com: -0.227D-02 0.130D-02 0.106D-01-0.316D-01-0.533D-01 0.157D+00
 Coeff-Com:  0.918D+00
 Coeff:     -0.227D-02 0.130D-02 0.106D-01-0.316D-01-0.533D-01 0.157D+00
 Coeff:      0.918D+00
 Gap=     0.441 Goal=   None    Shift=    0.000
 RMSDP=2.62D-09 MaxDP=5.30D-08 DE=-1.42D-12 OVMax= 1.41D-07

 SCF Done:  E(RHF) =  -193.954817734     A.U. after   14 cycles
            NFock= 14  Conv=0.26D-08     -V/T= 2.0001
 KE= 1.939407593346D+02 PE=-7.627626657227D+02 EE= 2.190519390746D+02
 Leave Link  502 at Wed Oct  7 12:34:52 2020, MaxMem=  2684354560 cpu:              91.9 elap:              10.0
 (Enter /udrive/faculty/rpeverati/g16/g16/l508.exe)
 QCSCF skips out because SCF is already converged.
 Leave Link  508 at Wed Oct  7 12:34:53 2020, MaxMem=  2684354560 cpu:               0.6 elap:               0.4
 (Enter /udrive/faculty/rpeverati/g16/g16/l601.exe)
 Copying SCF densities to generalized density rwf, IOpCl= 0 IROHF=0.

 **********************************************************************

            Population analysis using the SCF density.

 **********************************************************************

 Orbital symmetries:
       Occupied  (A) (A) (A) (A) (A) (A) (A) (A) (A) (A) (A) (A)
                 (A) (A) (A) (A) (A) (A) (A)
       Virtual   (A) (A) (A) (A) (A) (A) (A) (A) (A) (A) (A) (A)
                 (A) (A) (A) (A) (A) (A) (A) (A) (A) (A) (A) (A)
                 (A) (A) (A) (A) (A) (A) (A) (A) (A) (A) (A) (A)
                 (A) (A) (A) (A) (A) (A) (A) (A) (A) (A) (A) (A)
                 (A) (A) (A) (A) (A) (A) (A) (A) (A) (A) (A) (A)
                 (A) (A) (A) (A) (A) (A) (A)
 The electronic state is 1-A.
 Alpha  occ. eigenvalues --  -11.23071 -11.23056 -11.22427 -11.21973 -11.21873
 Alpha  occ. eigenvalues --   -1.09175  -1.02259  -0.93014  -0.80520  -0.72482
 Alpha  occ. eigenvalues --   -0.65395  -0.61266  -0.56839  -0.56369  -0.53427
 Alpha  occ. eigenvalues --   -0.52006  -0.47361  -0.42728  -0.30659
 Alpha virt. eigenvalues --    0.13423   0.24902   0.25542   0.26114   0.27867
 Alpha virt. eigenvalues --    0.31336   0.32736   0.33329   0.35292   0.39925
 Alpha virt. eigenvalues --    0.41755   0.50130   0.55410   0.62928   0.67636
 Alpha virt. eigenvalues --    0.72022   0.74006   0.80897   0.80972   0.84722
 Alpha virt. eigenvalues --    0.85142   0.86038   0.91081   0.92445   0.94234
 Alpha virt. eigenvalues --    0.96122   1.04625   1.12715   1.13705   1.15195
 Alpha virt. eigenvalues --    1.15581   1.18038   1.20183   1.22978   1.23417
 Alpha virt. eigenvalues --    1.27591   1.32866   1.36315   1.39373   1.53437
 Alpha virt. eigenvalues --    1.59581   1.60013   1.69981   1.74660   1.81834
 Alpha virt. eigenvalues --    1.82952   2.01408   2.05696   2.13883   2.18458
 Alpha virt. eigenvalues --    2.28782   2.31985   2.34419   2.37547   2.41317
 Alpha virt. eigenvalues --    2.51705   2.58940   2.64310   2.66656   2.75252
 Alpha virt. eigenvalues --    2.82267   2.85180   2.86842   3.02102   3.13018
 Alpha virt. eigenvalues --    3.33991   3.45510
          Condensed to atoms (all electrons):
               1          2          3          4          5          6
     1  C    5.107235   0.340037  -0.046954  -0.007497   0.000330   0.389927
     2  C    0.340037   4.981305   0.666371  -0.048708   0.000700  -0.040538
     3  C   -0.046954   0.666371   4.888765   0.411501  -0.049620  -0.000461
     4  C   -0.007497  -0.048708   0.411501   4.882993   0.635867   0.000233
     5  C    0.000330   0.000700  -0.049620   0.635867   5.074217   0.000002
     6  H    0.389927  -0.040538  -0.000461   0.000233   0.000002   0.533211
     7  H    0.389927  -0.040538  -0.000461   0.000233   0.000002  -0.033392
     8  H    0.394323  -0.041027  -0.000143  -0.000327   0.000024  -0.026214
     9  H   -0.041741   0.392531  -0.034373   0.002900  -0.000107  -0.000934
    10  H    0.003122  -0.034918   0.393099  -0.043777  -0.000238  -0.000100
    11  H   -0.000114   0.000103  -0.039212   0.391586  -0.035808  -0.000027
    12  H    0.000001  -0.000095   0.002304  -0.036225   0.394731  -0.000000
    13  H   -0.000000   0.000171  -0.002349  -0.045708   0.396192   0.000000
               7          8          9         10         11         12
     1  C    0.389927   0.394323  -0.041741   0.003122  -0.000114   0.000001
     2  C   -0.040538  -0.041027   0.392531  -0.034918   0.000103  -0.000095
     3  C   -0.000461  -0.000143  -0.034373   0.393099  -0.039212   0.002304
     4  C    0.000233  -0.000327   0.002900  -0.043777   0.391586  -0.036225
     5  C    0.000002   0.000024  -0.000107  -0.000238  -0.035808   0.394731
     6  H   -0.033392  -0.026214  -0.000934  -0.000100  -0.000027  -0.000000
     7  H    0.533212  -0.026214  -0.000934  -0.000100  -0.000026  -0.000000
     8  H   -0.026214   0.519003   0.002959   0.000043   0.001201   0.000006
     9  H   -0.000934   0.002959   0.502104  -0.004273  -0.000037   0.000002
    10  H   -0.000100   0.000043  -0.004273   0.495743   0.002685  -0.000000
    11  H   -0.000026   0.001201  -0.000037   0.002685   0.489408  -0.002886
    12  H   -0.000000   0.000006   0.000002  -0.000000  -0.002886   0.486567
    13  H    0.000000  -0.000001  -0.000010   0.003141   0.003058  -0.026967
              13
     1  C   -0.000000
     2  C    0.000171
     3  C   -0.002349
     4  C   -0.045708
     5  C    0.396192
     6  H    0.000000
     7  H    0.000000
     8  H   -0.000001
     9  H   -0.000010
    10  H    0.003141
    11  H    0.003058
    12  H   -0.026967
    13  H    0.493725
 Mulliken charges:
               1
     1  C   -0.528595
     2  C   -0.175394
     3  C   -0.188469
     4  C   -0.143069
     5  C   -0.416292
     6  H    0.178293
     7  H    0.178293
     8  H    0.176368
     9  H    0.181912
    10  H    0.185575
    11  H    0.190068
    12  H    0.182562
    13  H    0.178748
 Sum of Mulliken charges =  -0.00000
 Mulliken charges with hydrogens summed into heavy atoms:
               1
     1  C    0.004358
     2  C    0.006518
     3  C   -0.002893
     4  C    0.046999
     5  C   -0.054982
 Electronic spatial extent (au):  <R**2>=            555.9335
 Charge=             -0.0000 electrons
 Dipole moment (field-independent basis, Debye):
    X=             -0.4188    Y=             -0.1130    Z=              0.0000  Tot=              0.4338
 Quadrupole moment (field-independent basis, Debye-Ang):
   XX=            -29.2198   YY=            -29.7270   ZZ=            -35.1302
   XY=              0.0349   XZ=             -0.0001   YZ=              0.0003
 Traceless Quadrupole moment (field-independent basis, Debye-Ang):
   XX=              2.1392   YY=              1.6320   ZZ=             -3.7712
   XY=              0.0349   XZ=             -0.0001   YZ=              0.0003
 Octapole moment (field-independent basis, Debye-Ang**2):
  XXX=              1.4783  YYY=              0.9201  ZZZ=              0.0001  XYY=              1.9277
  XXY=              1.0580  XXZ=              0.0001  XZZ=             -3.6731  YZZ=             -0.8050
  YYZ=              0.0000  XYZ=              0.0003
 Hexadecapole moment (field-independent basis, Debye-Ang**3):
 XXXX=           -567.5070 YYYY=           -124.0475 ZZZZ=            -44.1182 XXXY=             -5.4140
 XXXZ=              0.0036 YYYX=             -2.7481 YYYZ=             -0.0012 ZZZX=              0.0045
 ZZZY=             -0.0025 XXYY=           -113.6905 XXZZ=           -111.5433 YYZZ=            -31.6925
 XXYZ=              0.0002 YYXZ=              0.0009 ZZXY=              2.0906
 N-N= 1.558151495793D+02 E-N=-7.627626665944D+02  KE= 1.939407593346D+02
 No NMR shielding tensors so no spin-rotation constants.
 Leave Link  601 at Wed Oct  7 12:34:55 2020, MaxMem=  2684354560 cpu:               9.3 elap:               1.4
 (Enter /udrive/faculty/rpeverati/g16/g16/l701.exe)
 ... and contract with generalized density number  0.
 Compute integral first derivatives.
 Leave Link  701 at Wed Oct  7 12:34:57 2020, MaxMem=  2684354560 cpu:               7.3 elap:               1.4
 (Enter /udrive/faculty/rpeverati/g16/g16/l702.exe)
 L702 exits ... SP integral derivatives will be done elsewhere.
 Leave Link  702 at Wed Oct  7 12:34:58 2020, MaxMem=  2684354560 cpu:               1.2 elap:               0.6
 (Enter /udrive/faculty/rpeverati/g16/g16/l703.exe)
 Integral derivatives from FoFJK, PRISM(SPDF).
 Compute integral first derivatives, UseDBF=F ICtDFT=           0.
 Calling FoFJK, ICntrl=      2127 FMM=F ISym2X=0 I1Cent= 0 IOpClX= 0 NMat=1 NMatS=1 NMatT=0.
 FoFJK:  IHMeth= 1 ICntrl=    2127 DoSepK=F KAlg= 0 I1Cent=           0 FoldK=F
 IRaf=         0 NMat=       1 IRICut=       1 DoRegI=T DoRafI=F ISym2E= 0 IDoP0=0 IntGTp=1.
 FoFCou: FMM=F IPFlag=           0 FMFlag=      100000 FMFlg1=         800
         NFxFlg=           0 DoJE=F BraDBF=F KetDBF=F FulRan=T
         wScrn=  0.000000 ICntrl=      2127 IOpCl=  0 I1Cent=           0 NGrid=           0
         NMat0=    1 NMatS0=      1 NMatT0=    0 NMatD0=    1 NMtDS0=    0 NMtDT0=    0
 Symmetry not used in FoFCou.
 Leave Link  703 at Wed Oct  7 12:35:00 2020, MaxMem=  2684354560 cpu:               7.1 elap:               1.2
 (Enter /udrive/faculty/rpeverati/g16/g16/l716.exe)
 Dipole        =-1.64774171D-01-4.44755156D-02 3.27880316D-07
 ***** Axes restored to original set *****
 -------------------------------------------------------------------
 Center     Atomic                   Forces (Hartrees/Bohr)
 Number     Number              X              Y              Z
 -------------------------------------------------------------------
      1        6          -0.003212573   -0.003529528   -0.000000472
      2        6           0.015457405    0.005958739   -0.000000148
      3        6          -0.016953654    0.005161678    0.000000638
      4        6           0.018628925   -0.003738310   -0.000000270
      5        6          -0.013413022   -0.001813700   -0.000000222
      6        1           0.001851486   -0.000132469   -0.002639279
      7        1           0.001851438   -0.000132812    0.002639243
      8        1          -0.003116453    0.003204829    0.000000396
      9        1           0.002253124   -0.004395766   -0.000000167
     10        1          -0.002292786   -0.004681969   -0.000000091
     11        1           0.002523448    0.005036812    0.000000421
     12        1          -0.002478418    0.003892016    0.000000225
     13        1          -0.001098920   -0.004829520   -0.000000274
 -------------------------------------------------------------------
 Cartesian Forces:  Max     0.018628925 RMS     0.005829716
 Leave Link  716 at Wed Oct  7 12:35:01 2020, MaxMem=  2684354560 cpu:               2.1 elap:               0.7
 (Enter /udrive/faculty/rpeverati/g16/g16/l103.exe)

 GradGradGradGradGradGradGradGradGradGradGradGradGradGradGradGradGradGrad
 Berny optimization.
 Optmz: redundant internal coordinate code flag= 1
 FormGI is forming the generalized inverse of G from B-inverse, IUseBI=4.
 Internal  Forces:  Max     0.017204443 RMS     0.003978486
 Search for a local minimum.
 Step number   1 out of a maximum of  100
 All quantities printed in internal units (Hartrees-Bohrs-Radians)
 RMS Force = .39785D-02 SwitMx=.10000D-02 MixMth= 1
 Mixed Optimization -- RFO/linear search
 Second derivative matrix not updated -- first step.
 The second derivative matrix:
                          R1        R2        R3        R4        R5
           R1           0.32406
           R2           0.00000   0.34607
           R3           0.00000   0.00000   0.34607
           R4           0.00000   0.00000   0.00000   0.35136
           R5           0.00000   0.00000   0.00000   0.00000   0.57200
           R6           0.00000   0.00000   0.00000   0.00000   0.00000
           R7           0.00000   0.00000   0.00000   0.00000   0.00000
           R8           0.00000   0.00000   0.00000   0.00000   0.00000
           R9           0.00000   0.00000   0.00000   0.00000   0.00000
           R10          0.00000   0.00000   0.00000   0.00000   0.00000
           R11          0.00000   0.00000   0.00000   0.00000   0.00000
           R12          0.00000   0.00000   0.00000   0.00000   0.00000
           A1           0.00000   0.00000   0.00000   0.00000   0.00000
           A2           0.00000   0.00000   0.00000   0.00000   0.00000
           A3           0.00000   0.00000   0.00000   0.00000   0.00000
           A4           0.00000   0.00000   0.00000   0.00000   0.00000
           A5           0.00000   0.00000   0.00000   0.00000   0.00000
           A6           0.00000   0.00000   0.00000   0.00000   0.00000
           A7           0.00000   0.00000   0.00000   0.00000   0.00000
           A8           0.00000   0.00000   0.00000   0.00000   0.00000
           A9           0.00000   0.00000   0.00000   0.00000   0.00000
           A10          0.00000   0.00000   0.00000   0.00000   0.00000
           A11          0.00000   0.00000   0.00000   0.00000   0.00000
           A12          0.00000   0.00000   0.00000   0.00000   0.00000
           A13          0.00000   0.00000   0.00000   0.00000   0.00000
           A14          0.00000   0.00000   0.00000   0.00000   0.00000
           A15          0.00000   0.00000   0.00000   0.00000   0.00000
           A16          0.00000   0.00000   0.00000   0.00000   0.00000
           A17          0.00000   0.00000   0.00000   0.00000   0.00000
           A18          0.00000   0.00000   0.00000   0.00000   0.00000
           D1           0.00000   0.00000   0.00000   0.00000   0.00000
           D2           0.00000   0.00000   0.00000   0.00000   0.00000
           D3           0.00000   0.00000   0.00000   0.00000   0.00000
           D4           0.00000   0.00000   0.00000   0.00000   0.00000
           D5           0.00000   0.00000   0.00000   0.00000   0.00000
           D6           0.00000   0.00000   0.00000   0.00000   0.00000
           D7           0.00000   0.00000   0.00000   0.00000   0.00000
           D8           0.00000   0.00000   0.00000   0.00000   0.00000
           D9           0.00000   0.00000   0.00000   0.00000   0.00000
           D10          0.00000   0.00000   0.00000   0.00000   0.00000
           D11          0.00000   0.00000   0.00000   0.00000   0.00000
           D12          0.00000   0.00000   0.00000   0.00000   0.00000
           D13          0.00000   0.00000   0.00000   0.00000   0.00000
           D14          0.00000   0.00000   0.00000   0.00000   0.00000
           D15          0.00000   0.00000   0.00000   0.00000   0.00000
           D16          0.00000   0.00000   0.00000   0.00000   0.00000
           D17          0.00000   0.00000   0.00000   0.00000   0.00000
           D18          0.00000   0.00000   0.00000   0.00000   0.00000
                          R6        R7        R8        R9        R10
           R6           0.35460
           R7           0.00000   0.36805
           R8           0.00000   0.00000   0.35436
           R9           0.00000   0.00000   0.00000   0.57749
           R10          0.00000   0.00000   0.00000   0.00000   0.35703
           R11          0.00000   0.00000   0.00000   0.00000   0.00000
           R12          0.00000   0.00000   0.00000   0.00000   0.00000
           A1           0.00000   0.00000   0.00000   0.00000   0.00000
           A2           0.00000   0.00000   0.00000   0.00000   0.00000
           A3           0.00000   0.00000   0.00000   0.00000   0.00000
           A4           0.00000   0.00000   0.00000   0.00000   0.00000
           A5           0.00000   0.00000   0.00000   0.00000   0.00000
           A6           0.00000   0.00000   0.00000   0.00000   0.00000
           A7           0.00000   0.00000   0.00000   0.00000   0.00000
           A8           0.00000   0.00000   0.00000   0.00000   0.00000
           A9           0.00000   0.00000   0.00000   0.00000   0.00000
           A10          0.00000   0.00000   0.00000   0.00000   0.00000
           A11          0.00000   0.00000   0.00000   0.00000   0.00000
           A12          0.00000   0.00000   0.00000   0.00000   0.00000
           A13          0.00000   0.00000   0.00000   0.00000   0.00000
           A14          0.00000   0.00000   0.00000   0.00000   0.00000
           A15          0.00000   0.00000   0.00000   0.00000   0.00000
           A16          0.00000   0.00000   0.00000   0.00000   0.00000
           A17          0.00000   0.00000   0.00000   0.00000   0.00000
           A18          0.00000   0.00000   0.00000   0.00000   0.00000
           D1           0.00000   0.00000   0.00000   0.00000   0.00000
           D2           0.00000   0.00000   0.00000   0.00000   0.00000
           D3           0.00000   0.00000   0.00000   0.00000   0.00000
           D4           0.00000   0.00000   0.00000   0.00000   0.00000
           D5           0.00000   0.00000   0.00000   0.00000   0.00000
           D6           0.00000   0.00000   0.00000   0.00000   0.00000
           D7           0.00000   0.00000   0.00000   0.00000   0.00000
           D8           0.00000   0.00000   0.00000   0.00000   0.00000
           D9           0.00000   0.00000   0.00000   0.00000   0.00000
           D10          0.00000   0.00000   0.00000   0.00000   0.00000
           D11          0.00000   0.00000   0.00000   0.00000   0.00000
           D12          0.00000   0.00000   0.00000   0.00000   0.00000
           D13          0.00000   0.00000   0.00000   0.00000   0.00000
           D14          0.00000   0.00000   0.00000   0.00000   0.00000
           D15          0.00000   0.00000   0.00000   0.00000   0.00000
           D16          0.00000   0.00000   0.00000   0.00000   0.00000
           D17          0.00000   0.00000   0.00000   0.00000   0.00000
           D18          0.00000   0.00000   0.00000   0.00000   0.00000
                          R11       R12       A1        A2        A3
           R11          0.35934
           R12          0.00000   0.35664
           A1           0.00000   0.00000   0.16000
           A2           0.00000   0.00000   0.00000   0.16000
           A3           0.00000   0.00000   0.00000   0.00000   0.16000
           A4           0.00000   0.00000   0.00000   0.00000   0.00000
           A5           0.00000   0.00000   0.00000   0.00000   0.00000
           A6           0.00000   0.00000   0.00000   0.00000   0.00000
           A7           0.00000   0.00000   0.00000   0.00000   0.00000
           A8           0.00000   0.00000   0.00000   0.00000   0.00000
           A9           0.00000   0.00000   0.00000   0.00000   0.00000
           A10          0.00000   0.00000   0.00000   0.00000   0.00000
           A11          0.00000   0.00000   0.00000   0.00000   0.00000
           A12          0.00000   0.00000   0.00000   0.00000   0.00000
           A13          0.00000   0.00000   0.00000   0.00000   0.00000
           A14          0.00000   0.00000   0.00000   0.00000   0.00000
           A15          0.00000   0.00000   0.00000   0.00000   0.00000
           A16          0.00000   0.00000   0.00000   0.00000   0.00000
           A17          0.00000   0.00000   0.00000   0.00000   0.00000
           A18          0.00000   0.00000   0.00000   0.00000   0.00000
           D1           0.00000   0.00000   0.00000   0.00000   0.00000
           D2           0.00000   0.00000   0.00000   0.00000   0.00000
           D3           0.00000   0.00000   0.00000   0.00000   0.00000
           D4           0.00000   0.00000   0.00000   0.00000   0.00000
           D5           0.00000   0.00000   0.00000   0.00000   0.00000
           D6           0.00000   0.00000   0.00000   0.00000   0.00000
           D7           0.00000   0.00000   0.00000   0.00000   0.00000
           D8           0.00000   0.00000   0.00000   0.00000   0.00000
           D9           0.00000   0.00000   0.00000   0.00000   0.00000
           D10          0.00000   0.00000   0.00000   0.00000   0.00000
           D11          0.00000   0.00000   0.00000   0.00000   0.00000
           D12          0.00000   0.00000   0.00000   0.00000   0.00000
           D13          0.00000   0.00000   0.00000   0.00000   0.00000
           D14          0.00000   0.00000   0.00000   0.00000   0.00000
           D15          0.00000   0.00000   0.00000   0.00000   0.00000
           D16          0.00000   0.00000   0.00000   0.00000   0.00000
           D17          0.00000   0.00000   0.00000   0.00000   0.00000
           D18          0.00000   0.00000   0.00000   0.00000   0.00000
                          A4        A5        A6        A7        A8
           A4           0.16000
           A5           0.00000   0.16000
           A6           0.00000   0.00000   0.16000
           A7           0.00000   0.00000   0.00000   0.25000
           A8           0.00000   0.00000   0.00000   0.00000   0.16000
           A9           0.00000   0.00000   0.00000   0.00000   0.00000
           A10          0.00000   0.00000   0.00000   0.00000   0.00000
           A11          0.00000   0.00000   0.00000   0.00000   0.00000
           A12          0.00000   0.00000   0.00000   0.00000   0.00000
           A13          0.00000   0.00000   0.00000   0.00000   0.00000
           A14          0.00000   0.00000   0.00000   0.00000   0.00000
           A15          0.00000   0.00000   0.00000   0.00000   0.00000
           A16          0.00000   0.00000   0.00000   0.00000   0.00000
           A17          0.00000   0.00000   0.00000   0.00000   0.00000
           A18          0.00000   0.00000   0.00000   0.00000   0.00000
           D1           0.00000   0.00000   0.00000   0.00000   0.00000
           D2           0.00000   0.00000   0.00000   0.00000   0.00000
           D3           0.00000   0.00000   0.00000   0.00000   0.00000
           D4           0.00000   0.00000   0.00000   0.00000   0.00000
           D5           0.00000   0.00000   0.00000   0.00000   0.00000
           D6           0.00000   0.00000   0.00000   0.00000   0.00000
           D7           0.00000   0.00000   0.00000   0.00000   0.00000
           D8           0.00000   0.00000   0.00000   0.00000   0.00000
           D9           0.00000   0.00000   0.00000   0.00000   0.00000
           D10          0.00000   0.00000   0.00000   0.00000   0.00000
           D11          0.00000   0.00000   0.00000   0.00000   0.00000
           D12          0.00000   0.00000   0.00000   0.00000   0.00000
           D13          0.00000   0.00000   0.00000   0.00000   0.00000
           D14          0.00000   0.00000   0.00000   0.00000   0.00000
           D15          0.00000   0.00000   0.00000   0.00000   0.00000
           D16          0.00000   0.00000   0.00000   0.00000   0.00000
           D17          0.00000   0.00000   0.00000   0.00000   0.00000
           D18          0.00000   0.00000   0.00000   0.00000   0.00000
                          A9        A10       A11       A12       A13
           A9           0.16000
           A10          0.00000   0.25000
           A11          0.00000   0.00000   0.16000
           A12          0.00000   0.00000   0.00000   0.16000
           A13          0.00000   0.00000   0.00000   0.00000   0.25000
           A14          0.00000   0.00000   0.00000   0.00000   0.00000
           A15          0.00000   0.00000   0.00000   0.00000   0.00000
           A16          0.00000   0.00000   0.00000   0.00000   0.00000
           A17          0.00000   0.00000   0.00000   0.00000   0.00000
           A18          0.00000   0.00000   0.00000   0.00000   0.00000
           D1           0.00000   0.00000   0.00000   0.00000   0.00000
           D2           0.00000   0.00000   0.00000   0.00000   0.00000
           D3           0.00000   0.00000   0.00000   0.00000   0.00000
           D4           0.00000   0.00000   0.00000   0.00000   0.00000
           D5           0.00000   0.00000   0.00000   0.00000   0.00000
           D6           0.00000   0.00000   0.00000   0.00000   0.00000
           D7           0.00000   0.00000   0.00000   0.00000   0.00000
           D8           0.00000   0.00000   0.00000   0.00000   0.00000
           D9           0.00000   0.00000   0.00000   0.00000   0.00000
           D10          0.00000   0.00000   0.00000   0.00000   0.00000
           D11          0.00000   0.00000   0.00000   0.00000   0.00000
           D12          0.00000   0.00000   0.00000   0.00000   0.00000
           D13          0.00000   0.00000   0.00000   0.00000   0.00000
           D14          0.00000   0.00000   0.00000   0.00000   0.00000
           D15          0.00000   0.00000   0.00000   0.00000   0.00000
           D16          0.00000   0.00000   0.00000   0.00000   0.00000
           D17          0.00000   0.00000   0.00000   0.00000   0.00000
           D18          0.00000   0.00000   0.00000   0.00000   0.00000
                          A14       A15       A16       A17       A18
           A14          0.16000
           A15          0.00000   0.16000
           A16          0.00000   0.00000   0.16000
           A17          0.00000   0.00000   0.00000   0.16000
           A18          0.00000   0.00000   0.00000   0.00000   0.16000
           D1           0.00000   0.00000   0.00000   0.00000   0.00000
           D2           0.00000   0.00000   0.00000   0.00000   0.00000
           D3           0.00000   0.00000   0.00000   0.00000   0.00000
           D4           0.00000   0.00000   0.00000   0.00000   0.00000
           D5           0.00000   0.00000   0.00000   0.00000   0.00000
           D6           0.00000   0.00000   0.00000   0.00000   0.00000
           D7           0.00000   0.00000   0.00000   0.00000   0.00000
           D8           0.00000   0.00000   0.00000   0.00000   0.00000
           D9           0.00000   0.00000   0.00000   0.00000   0.00000
           D10          0.00000   0.00000   0.00000   0.00000   0.00000
           D11          0.00000   0.00000   0.00000   0.00000   0.00000
           D12          0.00000   0.00000   0.00000   0.00000   0.00000
           D13          0.00000   0.00000   0.00000   0.00000   0.00000
           D14          0.00000   0.00000   0.00000   0.00000   0.00000
           D15          0.00000   0.00000   0.00000   0.00000   0.00000
           D16          0.00000   0.00000   0.00000   0.00000   0.00000
           D17          0.00000   0.00000   0.00000   0.00000   0.00000
           D18          0.00000   0.00000   0.00000   0.00000   0.00000
                          D1        D2        D3        D4        D5
           D1           0.00770
           D2           0.00000   0.00770
           D3           0.00000   0.00000   0.00770
           D4           0.00000   0.00000   0.00000   0.00770
           D5           0.00000   0.00000   0.00000   0.00000   0.00770
           D6           0.00000   0.00000   0.00000   0.00000   0.00000
           D7           0.00000   0.00000   0.00000   0.00000   0.00000
           D8           0.00000   0.00000   0.00000   0.00000   0.00000
           D9           0.00000   0.00000   0.00000   0.00000   0.00000
           D10          0.00000   0.00000   0.00000   0.00000   0.00000
           D11          0.00000   0.00000   0.00000   0.00000   0.00000
           D12          0.00000   0.00000   0.00000   0.00000   0.00000
           D13          0.00000   0.00000   0.00000   0.00000   0.00000
           D14          0.00000   0.00000   0.00000   0.00000   0.00000
           D15          0.00000   0.00000   0.00000   0.00000   0.00000
           D16          0.00000   0.00000   0.00000   0.00000   0.00000
           D17          0.00000   0.00000   0.00000   0.00000   0.00000
           D18          0.00000   0.00000   0.00000   0.00000   0.00000
                          D6        D7        D8        D9        D10
           D6           0.00770
           D7           0.00000   0.02882
           D8           0.00000   0.00000   0.02882
           D9           0.00000   0.00000   0.00000   0.02882
           D10          0.00000   0.00000   0.00000   0.00000   0.02882
           D11          0.00000   0.00000   0.00000   0.00000   0.00000
           D12          0.00000   0.00000   0.00000   0.00000   0.00000
           D13          0.00000   0.00000   0.00000   0.00000   0.00000
           D14          0.00000   0.00000   0.00000   0.00000   0.00000
           D15          0.00000   0.00000   0.00000   0.00000   0.00000
           D16          0.00000   0.00000   0.00000   0.00000   0.00000
           D17          0.00000   0.00000   0.00000   0.00000   0.00000
           D18          0.00000   0.00000   0.00000   0.00000   0.00000
                          D11       D12       D13       D14       D15
           D11          0.01278
           D12          0.00000   0.01278
           D13          0.00000   0.00000   0.01278
           D14          0.00000   0.00000   0.00000   0.01278
           D15          0.00000   0.00000   0.00000   0.00000   0.02914
           D16          0.00000   0.00000   0.00000   0.00000   0.00000
           D17          0.00000   0.00000   0.00000   0.00000   0.00000
           D18          0.00000   0.00000   0.00000   0.00000   0.00000
                          D16       D17       D18
           D16          0.02914
           D17          0.00000   0.02914
           D18          0.00000   0.00000   0.02914
 ITU=  0
 Eigenvectors of the second derivative matrix:
                           1         2         3         4         5
     Eigenvalues --     0.00770   0.01278   0.01631   0.02098   0.02102
   1         R1         0.00000   0.00000  -0.00000   0.00000  -0.00000
   2         R2         0.00000   0.00000   0.00000   0.00000  -0.00000
   3         R3         0.00000  -0.00000   0.00000   0.00000   0.00000
   4         R4         0.00000   0.00000  -0.00000   0.00000   0.00000
   5         R5         0.00000   0.00000   0.00000   0.00000   0.00000
   6         R6         0.00000  -0.00000  -0.00000  -0.00000  -0.00000
   7         R7         0.00000   0.00000  -0.00000   0.00000  -0.00000
   8         R8        -0.00000   0.00000   0.00000   0.00000  -0.00000
   9         R9        -0.00000   0.00000  -0.00000  -0.00000  -0.00000
  10         R10        0.00000  -0.00000   0.00000   0.00000   0.00000
  11         R11        0.00000   0.00000   0.00000  -0.00000  -0.00000
  12         R12       -0.00000  -0.00000   0.00000  -0.00000   0.00000
  13         A1         0.00000   0.00000  -0.00000  -0.00000  -0.00000
  14         A2        -0.00000  -0.00000   0.00000   0.00000   0.00000
  15         A3         0.00000  -0.00000   0.00000   0.00000  -0.00000
  16         A4         0.00000   0.00000  -0.00000  -0.00000  -0.00000
  17         A5         0.00000  -0.00000   0.00000  -0.00000  -0.00000
  18         A6        -0.00000   0.00000  -0.00000   0.00000   0.00000
  19         A7        -0.00000   0.00000   0.00000  -0.00000   0.00000
  20         A8        -0.00000  -0.00000   0.00000  -0.00000  -0.00000
  21         A9         0.00000  -0.00000   0.00000   0.00000   0.00000
  22         A10        0.00000  -0.00000  -0.00000   0.00000  -0.00000
  23         A11        0.00000   0.00000  -0.00000   0.00000   0.00000
  24         A12       -0.00000   0.00000   0.00000   0.00000  -0.00000
  25         A13       -0.00000   0.00000   0.00000  -0.00000  -0.00000
  26         A14        0.00000   0.00000  -0.00000   0.00000  -0.00000
  27         A15       -0.00000  -0.00000   0.00000  -0.00000  -0.00000
  28         A16       -0.00000   0.00000  -0.00000   0.00000   0.00000
  29         A17       -0.00000  -0.00000  -0.00000   0.00000  -0.00000
  30         A18        0.00000  -0.00000   0.00000  -0.00000   0.00000
  31         D1         0.40825   0.00000  -0.31421   0.00000   0.00000
  32         D2         0.40825   0.00000   0.31421  -0.00000  -0.00000
  33         D3         0.40825   0.00000  -0.31421   0.00000   0.00000
  34         D4         0.40825   0.00000   0.31421  -0.00000  -0.00000
  35         D5         0.40825   0.00000  -0.31421   0.00000   0.00000
  36         D6         0.40825   0.00000   0.31421  -0.00000  -0.00000
  37         D7         0.00000   0.00000   0.31923   0.35747   0.00000
  38         D8        -0.00000   0.00000   0.31923  -0.35747  -0.00000
  39         D9        -0.00000   0.00000  -0.31923   0.35747   0.00000
  40         D10       -0.00000   0.00000  -0.31923  -0.35747  -0.00000
  41         D11        0.00000  -0.50000  -0.00000  -0.34959   0.35241
  42         D12        0.00000  -0.50000  -0.00000  -0.34959  -0.35241
  43         D13        0.00000  -0.50000   0.00000   0.34959   0.35241
  44         D14        0.00000  -0.50000  -0.00000   0.34959  -0.35241
  45         D15        0.00000  -0.00000  -0.00000   0.00000  -0.35470
  46         D16        0.00000  -0.00000  -0.00000   0.00000  -0.35470
  47         D17        0.00000  -0.00000   0.00000  -0.00000   0.35470
  48         D18        0.00000   0.00000   0.00000  -0.00000   0.35470
                           6         7         8         9        10
     Eigenvalues --     0.02882   0.02914   0.02914   0.07004   0.07359
   1         R1        -0.00000  -0.00000  -0.00000   0.00000   0.00000
   2         R2        -0.00000   0.00000  -0.00000   0.00000  -0.00000
   3         R3        -0.00000  -0.00000  -0.00000  -0.00000  -0.00000
   4         R4         0.00000   0.00000   0.00000  -0.00000   0.00000
   5         R5         0.00000  -0.00000   0.00000   0.00000  -0.00000
   6         R6         0.00000  -0.00000   0.00000  -0.00000   0.00000
   7         R7         0.00000  -0.00000   0.00000  -0.00000   0.00000
   8         R8        -0.00000  -0.00000  -0.00000  -0.00000  -0.00000
   9         R9        -0.00000   0.00000   0.00000  -0.00000  -0.00000
  10         R10        0.00000  -0.00000   0.00000   0.00000   0.00000
  11         R11       -0.00000  -0.00000  -0.00000  -0.00000   0.00000
  12         R12        0.00000  -0.00000  -0.00000  -0.00000  -0.00000
  13         A1        -0.00000   0.00000   0.00000  -0.22017  -0.11924
  14         A2        -0.00000   0.00000  -0.00000   0.22018  -0.11923
  15         A3        -0.00000  -0.00000   0.00000  -0.00001   0.24467
  16         A4         0.00000  -0.00000  -0.00000   0.00001  -0.48989
  17         A5         0.00000  -0.00000   0.00000  -0.39522   0.22843
  18         A6         0.00000   0.00000  -0.00000   0.39521   0.22845
  19         A7        -0.00000  -0.00000   0.00000  -0.00000   0.00000
  20         A8         0.00000   0.00000  -0.00000  -0.00000  -0.00000
  21         A9        -0.00000  -0.00000   0.00000   0.00000   0.00000
  22         A10        0.00000   0.00000  -0.00000  -0.00000  -0.00000
  23         A11        0.00000   0.00000  -0.00000  -0.00000   0.00000
  24         A12       -0.00000  -0.00000   0.00000   0.00000  -0.00000
  25         A13        0.00000  -0.00000   0.00000  -0.00000  -0.00000
  26         A14       -0.00000  -0.00000  -0.00000  -0.00000   0.00000
  27         A15        0.00000  -0.00000  -0.00000   0.00000   0.00000
  28         A16       -0.00000   0.00000  -0.00000  -0.00000   0.00000
  29         A17        0.00000   0.00000  -0.00000  -0.00000  -0.00000
  30         A18       -0.00000   0.00000  -0.00000   0.00000  -0.00000
  31         D1        -0.00000   0.00000   0.00000  -0.22187   0.37661
  32         D2        -0.00000   0.00000   0.00000  -0.22187   0.37661
  33         D3        -0.00000   0.00000   0.00000  -0.22185  -0.37662
  34         D4        -0.00000   0.00000   0.00000  -0.22185  -0.37662
  35         D5        -0.00000   0.00000   0.00000   0.44372   0.00001
  36         D6        -0.00000   0.00000   0.00000   0.44372   0.00001
  37         D7        -0.50000  -0.00000   0.00000  -0.00000  -0.00000
  38         D8        -0.50000  -0.00000   0.00000   0.00000  -0.00000
  39         D9        -0.50000  -0.00000   0.00000  -0.00000   0.00000
  40         D10       -0.50000  -0.00000   0.00000   0.00000   0.00000
  41         D11       -0.00000   0.00000   0.00000   0.00000  -0.00000
  42         D12       -0.00000   0.00000   0.00000   0.00000  -0.00000
  43         D13       -0.00000   0.00000  -0.00000  -0.00000  -0.00000
  44         D14       -0.00000   0.00000  -0.00000  -0.00000  -0.00000
  45         D15        0.00000  -0.68954  -0.15666   0.00000   0.00000
  46         D16       -0.00000   0.15666  -0.68954  -0.00000  -0.00000
  47         D17        0.00000  -0.68954  -0.15666   0.00000   0.00000
  48         D18       -0.00000   0.15666  -0.68954  -0.00000  -0.00000
                          11        12        13        14        15
     Eigenvalues --     0.16000   0.16000   0.16000   0.16000   0.16000
   1         R1        -0.00000  -0.00000  -0.00000  -0.00000  -0.00000
   2         R2         0.00000   0.00000   0.00000  -0.00000  -0.00000
   3         R3         0.00000   0.00000  -0.00000  -0.00000  -0.00000
   4         R4        -0.00000  -0.00000   0.00000   0.00000   0.00000
   5         R5        -0.00000   0.00000   0.00000  -0.00000   0.00000
   6         R6        -0.00000   0.00000   0.00000  -0.00000   0.00000
   7         R7        -0.00000   0.00000   0.00000   0.00000   0.00000
   8         R8        -0.00000   0.00000   0.00000  -0.00000  -0.00000
   9         R9        -0.00000   0.00000  -0.00000   0.00000  -0.00000
  10         R10       -0.00000   0.00000  -0.00000  -0.00000   0.00000
  11         R11        0.00000  -0.00000   0.00000   0.00000  -0.00000
  12         R12        0.00000   0.00000   0.00000  -0.00000   0.00000
  13         A1        -0.00052  -0.00249   0.63647  -0.11152  -0.15991
  14         A2        -0.00125  -0.00260   0.29715  -0.12512  -0.14249
  15         A3         0.00078  -0.00411  -0.03508   0.00618   0.51476
  16         A4         0.00089   0.00256  -0.46978   0.11907   0.15216
  17         A5        -0.00013   0.00359  -0.33580   0.05882  -0.18657
  18         A6         0.00028   0.00365  -0.14676   0.06640  -0.19628
  19         A7         0.00000  -0.00000  -0.00000   0.00000  -0.00000
  20         A8        -0.00186  -0.70706  -0.00140   0.00486  -0.00040
  21         A9         0.00186   0.70706   0.00140  -0.00486   0.00040
  22         A10       -0.00000   0.00000  -0.00000  -0.00000   0.00000
  23         A11        0.70710  -0.00186   0.00064   0.00032  -0.00099
  24         A12       -0.70710   0.00186  -0.00064  -0.00032   0.00099
  25         A13       -0.00000  -0.00000  -0.00000  -0.00000  -0.00000
  26         A14        0.00075  -0.00261  -0.05471  -0.59228   0.29835
  27         A15       -0.00075   0.00261   0.05471   0.59228  -0.29835
  28         A16        0.00004   0.00295   0.16015   0.39805   0.50893
  29         A17       -0.00069  -0.00621  -0.31021  -0.27157  -0.36874
  30         A18        0.00065   0.00326   0.15007  -0.12648  -0.14019
  31         D1        -0.00000  -0.00000  -0.00000   0.00000  -0.00000
  32         D2         0.00000   0.00000   0.00000  -0.00000   0.00000
  33         D3        -0.00000  -0.00000  -0.00000   0.00000  -0.00000
  34         D4         0.00000   0.00000   0.00000  -0.00000   0.00000
  35         D5        -0.00000  -0.00000  -0.00000   0.00000  -0.00000
  36         D6         0.00000   0.00000   0.00000  -0.00000   0.00000
  37         D7        -0.00000  -0.00000  -0.00000   0.00000   0.00000
  38         D8         0.00000  -0.00000  -0.00000   0.00000  -0.00000
  39         D9        -0.00000   0.00000   0.00000  -0.00000   0.00000
  40         D10        0.00000   0.00000   0.00000  -0.00000  -0.00000
  41         D11       -0.00000   0.00000  -0.00000  -0.00000   0.00000
  42         D12       -0.00000   0.00000   0.00000   0.00000  -0.00000
  43         D13        0.00000  -0.00000  -0.00000  -0.00000   0.00000
  44         D14        0.00000  -0.00000   0.00000   0.00000  -0.00000
  45         D15        0.00000  -0.00000  -0.00000  -0.00000   0.00000
  46         D16        0.00000  -0.00000  -0.00000  -0.00000   0.00000
  47         D17       -0.00000   0.00000   0.00000   0.00000  -0.00000
  48         D18       -0.00000   0.00000   0.00000   0.00000  -0.00000
                          16        17        18        19        20
     Eigenvalues --     0.16000   0.16000   0.16000   0.22000   0.22000
   1         R1         0.00000  -0.00000  -0.00000  -0.00000   0.00000
   2         R2        -0.00000  -0.00000  -0.00000   0.00000  -0.00000
   3         R3         0.00000  -0.00000   0.00000   0.00000   0.00000
   4         R4         0.00000   0.00000   0.00000   0.00000  -0.00000
   5         R5         0.00000  -0.00000   0.00000  -0.00000   0.00000
   6         R6        -0.00000   0.00000  -0.00000   0.00000  -0.00000
   7         R7        -0.00000   0.00000   0.00000  -0.00000   0.00000
   8         R8        -0.00000  -0.00000   0.00000   0.00000   0.00000
   9         R9        -0.00000   0.00000   0.00000  -0.00000   0.00000
  10         R10       -0.00000  -0.00000   0.00000   0.00000   0.00000
  11         R11        0.00000   0.00000  -0.00000  -0.00000  -0.00000
  12         R12       -0.00000   0.00000  -0.00000   0.00000  -0.00000
  13         A1         0.38833   0.28476   0.00850  -0.00000   0.00000
  14         A2        -0.39840  -0.56715   0.26535  -0.00000   0.00000
  15         A3        -0.34335   0.43774   0.31929  -0.00000   0.00000
  16         A4         0.00507   0.14210  -0.13780   0.00000  -0.00000
  17         A5        -0.03247  -0.39306  -0.17572   0.00000  -0.00000
  18         A6         0.40582   0.08155  -0.31881   0.00000  -0.00000
  19         A7         0.00000  -0.00000  -0.00000  -0.00668   0.81647
  20         A8         0.00029  -0.00158  -0.00622   0.00334  -0.40823
  21         A9        -0.00029   0.00158   0.00622   0.00334  -0.40823
  22         A10       -0.00000   0.00000   0.00000  -0.00357  -0.00239
  23         A11        0.00003  -0.00066   0.00085   0.00179   0.00119
  24         A12       -0.00003   0.00066  -0.00085   0.00179   0.00119
  25         A13        0.00000   0.00000   0.00000  -0.81646  -0.00667
  26         A14        0.14559  -0.13675  -0.13153   0.40823   0.00333
  27         A15       -0.14559   0.13675   0.13153   0.40823   0.00333
  28         A16        0.31778  -0.34992   0.01088  -0.00000  -0.00000
  29         A17        0.16742   0.13482   0.56078   0.00000   0.00000
  30         A18       -0.48520   0.21510  -0.57166  -0.00000  -0.00000
  31         D1         0.00000  -0.00000  -0.00000   0.00000  -0.00000
  32         D2        -0.00000   0.00000   0.00000  -0.00000   0.00000
  33         D3         0.00000  -0.00000  -0.00000   0.00000  -0.00000
  34         D4        -0.00000   0.00000   0.00000  -0.00000   0.00000
  35         D5         0.00000  -0.00000  -0.00000   0.00000  -0.00000
  36         D6        -0.00000   0.00000   0.00000  -0.00000   0.00000
  37         D7         0.00000  -0.00000  -0.00000  -0.00000   0.00000
  38         D8         0.00000  -0.00000  -0.00000   0.00000   0.00000
  39         D9        -0.00000   0.00000   0.00000  -0.00000  -0.00000
  40         D10       -0.00000   0.00000   0.00000   0.00000  -0.00000
  41         D11        0.00000  -0.00000  -0.00000   0.00000   0.00000
  42         D12       -0.00000   0.00000   0.00000  -0.00000   0.00000
  43         D13        0.00000  -0.00000  -0.00000   0.00000  -0.00000
  44         D14       -0.00000   0.00000   0.00000  -0.00000  -0.00000
  45         D15        0.00000  -0.00000  -0.00000  -0.00000  -0.00000
  46         D16        0.00000  -0.00000  -0.00000  -0.00000  -0.00000
  47         D17       -0.00000   0.00000   0.00000   0.00000   0.00000
  48         D18       -0.00000   0.00000   0.00000   0.00000   0.00000
                          21        22        23        24        25
     Eigenvalues --     0.22000   0.32406   0.34607   0.34607   0.35136
   1         R1         0.00000   1.00000   0.00000  -0.00000   0.00000
   2         R2         0.00000  -0.00000   0.00000  -1.00000  -0.00000
   3         R3        -0.00000  -0.00000   1.00000   0.00000  -0.00000
   4         R4         0.00000   0.00000  -0.00000   0.00000  -1.00000
   5         R5         0.00000   0.00000   0.00000   0.00000  -0.00000
   6         R6         0.00000   0.00000   0.00000   0.00000  -0.00000
   7         R7        -0.00000   0.00000   0.00000  -0.00000   0.00000
   8         R8        -0.00000  -0.00000  -0.00000  -0.00000  -0.00000
   9         R9         0.00000  -0.00000   0.00000  -0.00000  -0.00000
  10         R10       -0.00000  -0.00000   0.00000  -0.00000  -0.00000
  11         R11        0.00000  -0.00000   0.00000   0.00000  -0.00000
  12         R12        0.00000   0.00000   0.00000   0.00000  -0.00000
  13         A1        -0.00000   0.00000   0.00000  -0.00000   0.00000
  14         A2         0.00000  -0.00000  -0.00000   0.00000  -0.00000
  15         A3        -0.00000   0.00000  -0.00000  -0.00000   0.00000
  16         A4         0.00000   0.00000  -0.00000  -0.00000  -0.00000
  17         A5         0.00000  -0.00000  -0.00000   0.00000  -0.00000
  18         A6         0.00000  -0.00000   0.00000  -0.00000  -0.00000
  19         A7         0.00236  -0.00000  -0.00000   0.00000  -0.00000
  20         A8        -0.00118  -0.00000   0.00000  -0.00000   0.00000
  21         A9        -0.00118   0.00000  -0.00000   0.00000   0.00000
  22         A10        0.81649  -0.00000   0.00000   0.00000   0.00000
  23         A11       -0.40824   0.00000  -0.00000   0.00000   0.00000
  24         A12       -0.40824  -0.00000   0.00000  -0.00000   0.00000
  25         A13       -0.00359  -0.00000   0.00000  -0.00000  -0.00000
  26         A14        0.00180  -0.00000  -0.00000   0.00000   0.00000
  27         A15        0.00180   0.00000  -0.00000   0.00000   0.00000
  28         A16        0.00000   0.00000   0.00000  -0.00000   0.00000
  29         A17       -0.00000  -0.00000  -0.00000  -0.00000  -0.00000
  30         A18        0.00000   0.00000   0.00000   0.00000  -0.00000
  31         D1        -0.00000  -0.00000   0.00000  -0.00000   0.00000
  32         D2         0.00000  -0.00000  -0.00000  -0.00000   0.00000
  33         D3        -0.00000   0.00000  -0.00000   0.00000   0.00000
  34         D4         0.00000   0.00000  -0.00000   0.00000  -0.00000
  35         D5        -0.00000  -0.00000  -0.00000  -0.00000  -0.00000
  36         D6         0.00000  -0.00000  -0.00000  -0.00000  -0.00000
  37         D7         0.00000  -0.00000  -0.00000   0.00000  -0.00000
  38         D8        -0.00000   0.00000  -0.00000  -0.00000   0.00000
  39         D9         0.00000  -0.00000  -0.00000  -0.00000   0.00000
  40         D10       -0.00000  -0.00000  -0.00000   0.00000  -0.00000
  41         D11       -0.00000   0.00000   0.00000   0.00000  -0.00000
  42         D12       -0.00000   0.00000  -0.00000   0.00000  -0.00000
  43         D13        0.00000  -0.00000  -0.00000  -0.00000  -0.00000
  44         D14        0.00000  -0.00000  -0.00000   0.00000  -0.00000
  45         D15       -0.00000  -0.00000  -0.00000  -0.00000  -0.00000
  46         D16       -0.00000  -0.00000  -0.00000   0.00000   0.00000
  47         D17        0.00000  -0.00000  -0.00000  -0.00000  -0.00000
  48         D18        0.00000   0.00000  -0.00000   0.00000   0.00000
                          26        27        28        29        30
     Eigenvalues --     0.35436   0.35460   0.35664   0.35703   0.35934
   1         R1        -0.00000  -0.00000   0.00000  -0.00000  -0.00000
   2         R2         0.00000   0.00000  -0.00000  -0.00000  -0.00000
   3         R3        -0.00000  -0.00000   0.00000  -0.00000   0.00000
   4         R4         0.00000  -0.00000   0.00000  -0.00000   0.00000
   5         R5        -0.00000  -0.00000  -0.00000  -0.00000   0.00000
   6         R6         0.00000   1.00000  -0.00000   0.00000  -0.00000
   7         R7        -0.00000  -0.00000   0.00000   0.00000   0.00000
   8         R8        -1.00000   0.00000  -0.00000  -0.00000   0.00000
   9         R9        -0.00000  -0.00000  -0.00000   0.00000  -0.00000
  10         R10       -0.00000  -0.00000  -0.00000   1.00000   0.00000
  11         R11       -0.00000  -0.00000   0.00000   0.00000  -1.00000
  12         R12        0.00000  -0.00000  -1.00000  -0.00000  -0.00000
  13         A1        -0.00000  -0.00000   0.00000   0.00000   0.00000
  14         A2         0.00000   0.00000  -0.00000  -0.00000  -0.00000
  15         A3         0.00000  -0.00000   0.00000  -0.00000  -0.00000
  16         A4        -0.00000  -0.00000   0.00000  -0.00000   0.00000
  17         A5        -0.00000   0.00000  -0.00000   0.00000   0.00000
  18         A6        -0.00000   0.00000  -0.00000   0.00000   0.00000
  19         A7         0.00000   0.00000  -0.00000  -0.00000  -0.00000
  20         A8        -0.00000  -0.00000  -0.00000   0.00000   0.00000
  21         A9        -0.00000  -0.00000   0.00000  -0.00000  -0.00000
  22         A10       -0.00000  -0.00000   0.00000   0.00000   0.00000
  23         A11       -0.00000   0.00000  -0.00000  -0.00000   0.00000
  24         A12        0.00000   0.00000   0.00000  -0.00000  -0.00000
  25         A13       -0.00000   0.00000  -0.00000   0.00000   0.00000
  26         A14        0.00000  -0.00000   0.00000  -0.00000  -0.00000
  27         A15        0.00000   0.00000  -0.00000  -0.00000   0.00000
  28         A16       -0.00000  -0.00000  -0.00000   0.00000   0.00000
  29         A17        0.00000   0.00000   0.00000  -0.00000  -0.00000
[...]
   A12        2.00672   0.00005  -0.00000   0.00020   0.00020   2.00692
   A13        2.15435  -0.00001   0.00001  -0.00004  -0.00003   2.15432
   A14        2.05647  -0.00000  -0.00007   0.00003  -0.00004   2.05643
   A15        2.07237   0.00001   0.00005   0.00001   0.00007   2.07243
   A16        2.12276   0.00002   0.00000   0.00011   0.00011   2.12288
   A17        2.12587  -0.00000   0.00004  -0.00002   0.00002   2.12589
   A18        2.03455  -0.00002  -0.00005  -0.00009  -0.00013   2.03442
    D1        2.11211   0.00000  -0.00001   0.00002   0.00001   2.11213
    D2       -1.02948   0.00000  -0.00001   0.00002   0.00001  -1.02947
    D3       -2.11212  -0.00000   0.00001  -0.00002  -0.00001  -2.11213
    D4        1.02947  -0.00000   0.00001  -0.00002  -0.00001   1.02946
    D5       -0.00000   0.00000   0.00000   0.00000   0.00000  -0.00000
    D6        3.14159   0.00000   0.00000   0.00000   0.00000   3.14159
    D7        0.00000   0.00000   0.00000   0.00000   0.00000   0.00000
    D8       -3.14159  -0.00000   0.00000  -0.00000  -0.00000  -3.14159
    D9        3.14159   0.00000   0.00000   0.00000   0.00000   3.14159
   D10        0.00000   0.00000   0.00000  -0.00000   0.00000   0.00000
   D11       -3.14159  -0.00000  -0.00000  -0.00000  -0.00000  -3.14159
   D12        0.00001  -0.00000  -0.00000  -0.00000  -0.00000   0.00000
   D13        0.00000  -0.00000  -0.00000  -0.00000  -0.00000   0.00000
   D14       -3.14159  -0.00000  -0.00000  -0.00000  -0.00000  -3.14159
   D15       -3.14159  -0.00000  -0.00000  -0.00000  -0.00000   3.14159
   D16       -0.00000   0.00000  -0.00000   0.00000   0.00000   0.00000
   D17       -0.00000   0.00000   0.00000   0.00000   0.00000  -0.00000
   D18        3.14159   0.00000   0.00000   0.00000   0.00000   3.14159
         Item               Value     Threshold  Converged?
 Maximum Force            0.000185     0.000450     YES
 RMS     Force            0.000031     0.000300     YES
 Maximum Displacement     0.000652     0.001800     YES
 RMS     Displacement     0.000234     0.001200     YES
 Predicted change in Energy=-4.789864D-08
 Optimization completed.
    -- Stationary point found.
                           ----------------------------
                           !   Optimized Parameters   !
                           ! (Angstroms and Degrees)  !
 --------------------------                            --------------------------
 ! Name  Definition              Value          Derivative Info.                !
 --------------------------------------------------------------------------------
 ! R1    R(1,2)                  1.5031         -DE/DX =    0.0                 !
 ! R2    R(1,6)                  1.0871         -DE/DX =    0.0                 !
 ! R3    R(1,7)                  1.0871         -DE/DX =    0.0                 !
 ! R4    R(1,8)                  1.0819         -DE/DX =    0.0                 !
 ! R5    R(2,3)                  1.327          -DE/DX =   -0.0002              !
 ! R6    R(2,9)                  1.0782         -DE/DX =    0.0                 !
 ! R7    R(3,4)                  1.468          -DE/DX =    0.0                 !
 ! R8    R(3,10)                 1.078          -DE/DX =    0.0                 !
 ! R9    R(4,5)                  1.3238         -DE/DX =    0.0                 !
 ! R10   R(4,11)                 1.0757         -DE/DX =    0.0                 !
 ! R11   R(5,12)                 1.0749         -DE/DX =    0.0                 !
 ! R12   R(5,13)                 1.0766         -DE/DX =    0.0                 !
 ! A1    A(2,1,6)              110.3714         -DE/DX =    0.0                 !
 ! A2    A(2,1,7)              110.3714         -DE/DX =    0.0                 !
 ! A3    A(2,1,8)              113.1742         -DE/DX =    0.0                 !
 ! A4    A(6,1,7)              106.9173         -DE/DX =    0.0                 !
 ! A5    A(6,1,8)              107.8831         -DE/DX =    0.0                 !
 ! A6    A(7,1,8)              107.8831         -DE/DX =    0.0                 !
 ! A7    A(1,2,3)              128.2609         -DE/DX =    0.0                 !
 ! A8    A(1,2,9)              114.6219         -DE/DX =    0.0                 !
 ! A9    A(3,2,9)              117.1172         -DE/DX =    0.0                 !
 ! A10   A(2,3,4)              127.286          -DE/DX =   -0.0001              !
 ! A11   A(2,3,10)             117.7371         -DE/DX =    0.0                 !
 ! A12   A(4,3,10)             114.9768         -DE/DX =    0.0                 !
 ! A13   A(3,4,5)              123.435          -DE/DX =    0.0                 !
 ! A14   A(3,4,11)             117.8272         -DE/DX =    0.0                 !
 ! A15   A(5,4,11)             118.7378         -DE/DX =    0.0                 !
 ! A16   A(4,5,12)             121.6254         -DE/DX =    0.0                 !
 ! A17   A(4,5,13)             121.8033         -DE/DX =    0.0                 !
 ! A18   A(12,5,13)            116.5713         -DE/DX =    0.0                 !
 ! D1    D(6,1,2,3)            121.0151         -DE/DX =    0.0                 !
 ! D2    D(6,1,2,9)            -58.9849         -DE/DX =    0.0                 !
 ! D3    D(7,1,2,3)           -121.0156         -DE/DX =    0.0                 !
 ! D4    D(7,1,2,9)             58.9845         -DE/DX =    0.0                 !
 ! D5    D(8,1,2,3)             -0.0002         -DE/DX =    0.0                 !
 ! D6    D(8,1,2,9)            179.9998         -DE/DX =    0.0                 !
 ! D7    D(1,2,3,4)              0.0            -DE/DX =    0.0                 !
 ! D8    D(1,2,3,10)          -180.0            -DE/DX =    0.0                 !
 ! D9    D(9,2,3,4)            180.0            -DE/DX =    0.0                 !
 ! D10   D(9,2,3,10)             0.0            -DE/DX =    0.0                 !
 ! D11   D(2,3,4,5)           -179.9997         -DE/DX =    0.0                 !
 ! D12   D(2,3,4,11)             0.0003         -DE/DX =    0.0                 !
 ! D13   D(10,3,4,5)             0.0003         -DE/DX =    0.0                 !
 ! D14   D(10,3,4,11)         -179.9997         -DE/DX =    0.0                 !
 ! D15   D(3,4,5,12)           180.0            -DE/DX =    0.0                 !
 ! D16   D(3,4,5,13)             0.0            -DE/DX =    0.0                 !
 ! D17   D(11,4,5,12)            0.0            -DE/DX =    0.0                 !
 ! D18   D(11,4,5,13)          180.0            -DE/DX =    0.0                 !
 --------------------------------------------------------------------------------
 Lowest energy point so far.  Saving SCF results.
 Largest change from initial coordinates is atom    8       0.005 Angstoms.
 GradGradGradGradGradGradGradGradGradGradGradGradGradGradGradGradGradGrad

 Leave Link  103 at Wed Oct  7 12:36:13 2020, MaxMem=  2684354560 cpu:              30.1 elap:               3.8
 (Enter /udrive/faculty/rpeverati/g16/g16/l202.exe)
                          Input orientation:                          
 ---------------------------------------------------------------------
 Center     Atomic      Atomic             Coordinates (Angstroms)
 Number     Number       Type             X           Y           Z
 ---------------------------------------------------------------------
      1          6           0       -2.065588   -0.611249    0.000003
      2          6           0       -1.221006    0.632079    0.000050
      3          6           0        0.102679    0.726335    0.000033
      4          6           0        1.072725   -0.375553   -0.000036
      5          6           0        2.383862   -0.193056   -0.000042
      6          1           0       -2.712581   -0.629259    0.873414
      7          1           0       -2.712615   -0.629170   -0.873386
      8          1           0       -1.482111   -1.522282   -0.000055
      9          1           0       -1.779373    1.554411    0.000104
     10          1           0        0.535365    1.713700    0.000075
     11          1           0        0.690496   -1.381048   -0.000084
     12          1           0        3.068267   -1.021847   -0.000093
     13          1           0        2.819690    0.791409    0.000004
 ---------------------------------------------------------------------
                    Distance matrix (angstroms):
                    1          2          3          4          5
     1  C    0.000000
     2  C    1.503058   0.000000
     3  C    2.547649   1.327037   0.000000
     4  C    3.147151   2.505298   1.468041   0.000000
     5  C    4.469060   3.698097   2.459487   1.323778   0.000000
     6  H    1.087094   2.139751   3.244398   3.893048   5.189117
     7  H    1.087093   2.139751   3.244401   3.893052   5.189123
     8  H    1.081864   2.170127   2.750971   2.800388   4.088103
     9  H    2.184491   1.078179   2.056169   3.443722   4.515105
    10  H    3.488602   2.062703   1.078011   2.157251   2.655684
    11  H    2.861572   2.776062   2.187828   1.075695   2.068529
    12  H    5.150248   4.597100   3.442506   2.097590   1.074851
    13  H    5.082656   4.043836   2.717790   2.100878   1.076623
                    6          7          8          9         10
     6  H    0.000000
     7  H    1.746801   0.000000
     8  H    1.753425   1.753425   0.000000
     9  H    2.530210   2.530208   3.091021   0.000000
    10  H    4.098943   4.098945   3.813370   2.320213   0.000000
    11  H    3.592926   3.592929   2.177192   3.836297   3.098634
    12  H    5.859637   5.859644   4.577813   5.489692   3.728111
    13  H    5.778163   5.778170   4.884532   4.661926   2.463486
                   11         12         13
    11  H    0.000000
    12  H    2.404749   0.000000
    13  H    3.041880   1.830215   0.000000
 Stoichiometry    C5H8
 Framework group  C1[X(C5H8)]
 Deg. of freedom    33
 Full point group                 C1      NOp   1
 RotChk:  IX=0 Diff= 4.23D-16
 Largest Abelian subgroup         C1      NOp   1
 Largest concise Abelian subgroup C1      NOp   1
                         Standard orientation:                         
 ---------------------------------------------------------------------
 Center     Atomic      Atomic             Coordinates (Angstroms)
 Number     Number       Type             X           Y           Z
 ---------------------------------------------------------------------
      1          6           0       -2.068415   -0.605900    0.000002
      2          6           0       -1.221453    0.635808    0.000049
      3          6           0        0.102411    0.727528    0.000033
      4          6           0        1.070343   -0.376216   -0.000036
      5          6           0        2.381828   -0.196231   -0.000043
      6          1           0       -2.715441   -0.622670    0.873414
      7          1           0       -2.715474   -0.622581   -0.873387
      8          1           0       -1.486684   -1.518049   -0.000056
      9          1           0       -1.778052    1.559208    0.000103
     10          1           0        0.536987    1.714063    0.000074
     11          1           0        0.686190   -1.380977   -0.000085
     12          1           0        3.064644   -1.026332   -0.000094
     13          1           0        2.819541    0.787397    0.000003
 ---------------------------------------------------------------------
 Rotational constants (GHZ):          16.1007040           2.6426741           2.3018734
 Leave Link  202 at Wed Oct  7 12:36:14 2020, MaxMem=  2684354560 cpu:               1.8 elap:               0.6
 (Enter /udrive/faculty/rpeverati/g16/g16/l601.exe)
 Copying SCF densities to generalized density rwf, IOpCl= 0 IROHF=0.

 **********************************************************************

            Population analysis using the SCF density.

 **********************************************************************

 Orbital symmetries:
       Occupied  (A) (A) (A) (A) (A) (A) (A) (A) (A) (A) (A) (A)
                 (A) (A) (A) (A) (A) (A) (A)
       Virtual   (A) (A) (A) (A) (A) (A) (A) (A) (A) (A) (A) (A)
                 (A) (A) (A) (A) (A) (A) (A) (A) (A) (A) (A) (A)
                 (A) (A) (A) (A) (A) (A) (A) (A) (A) (A) (A) (A)
                 (A) (A) (A) (A) (A) (A) (A) (A) (A) (A) (A) (A)
                 (A) (A) (A) (A) (A) (A) (A) (A) (A) (A) (A) (A)
                 (A) (A) (A) (A) (A) (A) (A)
 The electronic state is 1-A.
 Alpha  occ. eigenvalues --  -11.22791 -11.22781 -11.22170 -11.21686 -11.21631
 Alpha  occ. eigenvalues --   -1.09338  -1.02569  -0.93329  -0.80559  -0.72644
 Alpha  occ. eigenvalues --   -0.65599  -0.61410  -0.56928  -0.56732  -0.53366
 Alpha  occ. eigenvalues --   -0.52184  -0.47119  -0.42901  -0.31063
 Alpha virt. eigenvalues --    0.13839   0.24997   0.25666   0.26389   0.28041
 Alpha virt. eigenvalues --    0.31433   0.32813   0.33447   0.35504   0.39907
 Alpha virt. eigenvalues --    0.41705   0.50398   0.55526   0.63008   0.67325
 Alpha virt. eigenvalues --    0.72060   0.73838   0.80745   0.80968   0.84812
 Alpha virt. eigenvalues --    0.85056   0.86206   0.91264   0.92524   0.94513
 Alpha virt. eigenvalues --    0.96590   1.05002   1.13036   1.13990   1.15638
 Alpha virt. eigenvalues --    1.15959   1.18718   1.20749   1.23479   1.24003
 Alpha virt. eigenvalues --    1.27976   1.33295   1.36438   1.39556   1.53758
 Alpha virt. eigenvalues --    1.59700   1.60654   1.70463   1.75412   1.81956
 Alpha virt. eigenvalues --    1.82890   2.01643   2.05545   2.13831   2.19189
 Alpha virt. eigenvalues --    2.29969   2.32316   2.34406   2.37832   2.41396
 Alpha virt. eigenvalues --    2.52706   2.59802   2.64782   2.67737   2.76472
 Alpha virt. eigenvalues --    2.82982   2.86091   2.88074   3.03424   3.14380
 Alpha virt. eigenvalues --    3.35559   3.47189
          Condensed to atoms (all electrons):
               1          2          3          4          5          6
     1  C    5.104498   0.340793  -0.046180  -0.006983   0.000302   0.390762
     2  C    0.340793   4.974739   0.670738  -0.048197   0.000811  -0.040220
     3  C   -0.046180   0.670738   4.881006   0.412760  -0.049106  -0.000503
     4  C   -0.006983  -0.048197   0.412760   4.872737   0.640510   0.000217
     5  C    0.000302   0.000811  -0.049106   0.640510   5.067903   0.000002
     6  H    0.390762  -0.040220  -0.000503   0.000217   0.000002   0.532177
     7  H    0.390762  -0.040220  -0.000503   0.000217   0.000002  -0.033488
     8  H    0.394381  -0.040439   0.000161  -0.000126   0.000009  -0.026488
     9  H   -0.042884   0.393718  -0.035002   0.003028  -0.000115  -0.000992
    10  H    0.003264  -0.036068   0.394096  -0.044474  -0.000141  -0.000105
    11  H    0.000323   0.000085  -0.039295   0.392556  -0.037343  -0.000034
    12  H    0.000000  -0.000100   0.002395  -0.036503   0.395931  -0.000000
    13  H    0.000001   0.000176  -0.002703  -0.045484   0.396961   0.000000
               7          8          9         10         11         12
     1  C    0.390762   0.394381  -0.042884   0.003264   0.000323   0.000000
     2  C   -0.040220  -0.040439   0.393718  -0.036068   0.000085  -0.000100
     3  C   -0.000503   0.000161  -0.035002   0.394096  -0.039295   0.002395
     4  C    0.000217  -0.000126   0.003028  -0.044474   0.392556  -0.036503
     5  C    0.000002   0.000009  -0.000115  -0.000141  -0.037343   0.395931
     6  H   -0.033488  -0.026488  -0.000992  -0.000105  -0.000034  -0.000000
     7  H    0.532177  -0.026488  -0.000992  -0.000105  -0.000034  -0.000000
     8  H   -0.026488   0.517862   0.003028   0.000036   0.001236   0.000005
     9  H   -0.000992   0.003028   0.504437  -0.004838  -0.000041   0.000002
    10  H   -0.000105   0.000036  -0.004838   0.497946   0.002774  -0.000008
    11  H   -0.000034   0.001236  -0.000041   0.002774   0.490826  -0.003272
    12  H   -0.000000   0.000005   0.000002  -0.000008  -0.003272   0.487530
    13  H    0.000000  -0.000001  -0.000011   0.003207   0.003247  -0.027919
              13
     1  C    0.000001
     2  C    0.000176
     3  C   -0.002703
     4  C   -0.045484
     5  C    0.396961
     6  H    0.000000
     7  H    0.000000
     8  H   -0.000001
     9  H   -0.000011
    10  H    0.003207
    11  H    0.003247
    12  H   -0.027919
    13  H    0.493980
 Mulliken charges:
               1
     1  C   -0.529039
     2  C   -0.175816
     3  C   -0.187864
     4  C   -0.140259
     5  C   -0.415726
     6  H    0.178672
     7  H    0.178672
     8  H    0.176824
     9  H    0.180661
    10  H    0.184416
    11  H    0.188975
    12  H    0.181938
    13  H    0.178545
 Sum of Mulliken charges =  -0.00000
 Mulliken charges with hydrogens summed into heavy atoms:
               1
     1  C    0.005129
     2  C    0.004845
     3  C   -0.003448
     4  C    0.048716
     5  C   -0.055242
 Electronic spatial extent (au):  <R**2>=            556.3626
 Charge=             -0.0000 electrons
 Dipole moment (field-independent basis, Debye):
    X=             -0.4066    Y=             -0.1131    Z=              0.0000  Tot=              0.4220
 Quadrupole moment (field-independent basis, Debye-Ang):
   XX=            -29.1311   YY=            -29.7241   ZZ=            -35.0033
   XY=              0.0376   XZ=             -0.0001   YZ=              0.0003
 Traceless Quadrupole moment (field-independent basis, Debye-Ang):
   XX=              2.1551   YY=              1.5621   ZZ=             -3.7171
   XY=              0.0376   XZ=             -0.0001   YZ=              0.0003
 Octapole moment (field-independent basis, Debye-Ang**2):
  XXX=              1.6207  YYY=              0.8323  ZZZ=              0.0001  XYY=              1.8640
  XXY=              1.0157  XXZ=             -0.0001  XZZ=             -3.5900  YZZ=             -0.7710
  YYZ=              0.0001  XYZ=              0.0003
 Hexadecapole moment (field-independent basis, Debye-Ang**3):
 XXXX=           -568.1246 YYYY=           -122.6026 ZZZZ=            -43.7905 XXXY=             -5.1611
 XXXZ=              0.0033 YYYX=             -2.6043 YYYZ=             -0.0013 ZZZX=              0.0045
 ZZZY=             -0.0025 XXYY=           -113.9131 XXZZ=           -111.4966 YYZZ=            -31.2982
 XXYZ=              0.0000 YYXZ=              0.0009 ZZXY=              1.9948
 N-N= 1.561373945808D+02 E-N=-7.635242801429D+02  KE= 1.940743217246D+02
 No NMR shielding tensors so no spin-rotation constants.
 Leave Link  601 at Wed Oct  7 12:36:16 2020, MaxMem=  2684354560 cpu:              10.1 elap:               1.6
 (Enter /udrive/faculty/rpeverati/g16/g16/l9999.exe)

 Test job not archived.
 1\1\GINC-NODE62\FOpt\RHF\6-31G(d)\C5H8\RPEVERATI\07-Oct-2020\0\\#P Opt
 (MaxCyc=100) HF/6-31G* 5D 7F Integral=UltraFineGrid SCF=(NoSymm,XQC,Ma
 xCyc=120) IOp(1/33=1)\\TS search on BH76.\\0,1\C,-2.0655883974,-0.6112
 485823,0.0000025065\C,-1.2210057871,0.6320791769,0.0000497219\C,0.1026
 794127,0.7263348908,0.0000333648\C,1.0727245118,-0.3755526085,-0.00003
 57482\C,2.3838622588,-0.1930559287,-0.0000420007\H,-2.712581131,-0.629
 2587706,0.8734143944\H,-2.7126145146,-0.6291698301,-0.8733864306\H,-1.
 482110601,-1.5222824335,-0.0000549374\H,-1.7793731514,1.554411099,0.00
 01038346\H,0.5353653963,1.7137001296,0.0000749616\H,0.6904960246,-1.38
 10477855,-0.0000838383\H,3.0682666449,-1.0218474906,-0.0000934981\H,2.
 8196903971,0.7914085265,0.000004004\\Version=ES64L-G16RevA.03\State=1-
 A\HF=-193.955563\RMSD=5.873e-09\RMSF=3.345e-05\Dipole=-0.1598847,-0.04
 4813,0.0000003\Quadrupole=1.60213,1.1614745,-2.7636046,0.0287982,-0.00
 00606,0.0001993\PG=C01 [X(C5H8)]\\@


 REALITY IS FOR PEOPLE WHO CAN'T FACE SCIENCE FICTION.
 Job cpu time:       0 days  0 hours  9 minutes 22.9 seconds.
 Elapsed time:       0 days  0 hours  1 minutes 24.8 seconds.
 File lengths (MBytes):  RWF=      9 Int=      0 D2E=      0 Chk=      2 Scr=      1
 Normal termination of Gaussian 16 at Wed Oct  7 12:36:18 2020.
