 Entering Gaussian System, Link 0=g16
 Input=MN_22_ch3_lower_BH76_HF_631Gs.in
 Output=MN_22_ch3_lower_BH76_HF_631Gs.log
 Initial command:
 /udrive/faculty/rpeverati/g16/g16/l1.exe "/udrive/scratch-directories/gaussian09/rpeverati/Gau-19483.inp" -scrdir="/udrive/scratch-directories/gaussian09/rpeverati/"
 Entering Link 1 = /udrive/faculty/rpeverati/g16/g16/l1.exe PID=     19484.
  
 Copyright (c) 1988,1990,1992,1993,1995,1998,2003,2009,2016,
            Gaussian, Inc.  All Rights Reserved.
  
 This is part of the Gaussian(R) 16 program.  It is based on
 the Gaussian(R) 09 system (copyright 2009, Gaussian, Inc.),
 the Gaussian(R) 03 system (copyright 2003, Gaussian, Inc.),
 the Gaussian(R) 98 system (copyright 1998, Gaussian, Inc.),
 the Gaussian(R) 94 system (copyright 1995, Gaussian, Inc.),
 the Gaussian 92(TM) system (copyright 1992, Gaussian, Inc.),
 the Gaussian 90(TM) system (copyright 1990, Gaussian, Inc.),
 the Gaussian 88(TM) system (copyright 1988, Gaussian, Inc.),
 the Gaussian 86(TM) system (copyright 1986, Carnegie Mellon
 University), and the Gaussian 82(TM) system (copyright 1983,
 Carnegie Mellon University). Gaussian is a federally registered
 trademark of Gaussian, Inc.
  
 This software contains proprietary and confidential information,
 including trade secrets, belonging to Gaussian, Inc.
  
 This software is provided under written license and may be
 used, copied, transmitted, or stored only in accord with that
 written license.
  
 The following legend is applicable only to US Government
 contracts under FAR:
  
                    RESTRICTED RIGHTS LEGEND
  
 Use, reproduction and disclosure by the US Government is
 subject to restrictions as set forth in subparagraphs (a)
 and (c) of the Commercial Computer Software - Restricted
 Rights clause in FAR 52.227-19.
  
 Gaussian, Inc.
 340 Quinnipiac St., Bldg. 40, Wallingford CT 06492
  
  
 ---------------------------------------------------------------
 Warning -- This program may not be used in any manner that
 competes with the business of Gaussian, Inc. or will provide
 assistance to any competitor of Gaussian, Inc.  The licensee
 of this program is prohibited from giving any competitor of
 Gaussian, Inc. access to this program.  By using this program,
 the user acknowledges that Gaussian, Inc. is engaged in the
 business of creating and licensing software in the field of
 computational chemistry and represents and warrants to the
 licensee that it is not a competitor of Gaussian, Inc. and that
 it will not use this program in any manner prohibited above.
 ---------------------------------------------------------------
  

 Cite this work as:
 Gaussian 16, Revision A.03,
 M. J. Frisch, G. W. Trucks, H. B. Schlegel, G. E. Scuseria, 
 M. A. Robb, J. R. Cheeseman, G. Scalmani, V. Barone, 
 G. A. Petersson, H. Nakatsuji, X. Li, M. Caricato, A. V. Marenich, 
 J. Bloino, B. G. Janesko, R. Gomperts, B. Mennucci, H. P. Hratchian, 
 J. V. Ortiz, A. F. Izmaylov, J. L. Sonnenberg, D. Williams-Young, 
 F. Ding, F. Lipparini, F. Egidi, J. Goings, B. Peng, A. Petrone, 
 T. Henderson, D. Ranasinghe, V. G. Zakrzewski, J. Gao, N. Rega, 
 G. Zheng, W. Liang, M. Hada, M. Ehara, K. Toyota, R. Fukuda, 
 J. Hasegawa, M. Ishida, T. Nakajima, Y. Honda, O. Kitao, H. Nakai, 
 T. Vreven, K. Throssell, J. A. Montgomery, Jr., J. E. Peralta, 
 F. Ogliaro, M. J. Bearpark, J. J. Heyd, E. N. Brothers, K. N. Kudin, 
 V. N. Staroverov, T. A. Keith, R. Kobayashi, J. Normand, 
 K. Raghavachari, A. P. Rendell, J. C. Burant, S. S. Iyengar, 
 J. Tomasi, M. Cossi, J. M. Millam, M. Klene, C. Adamo, R. Cammi, 
 J. W. Ochterski, R. L. Martin, K. Morokuma, O. Farkas, 
 J. B. Foresman, and D. J. Fox, Gaussian, Inc., Wallingford CT, 2016.
 
 ******************************************
 Gaussian 16:  ES64L-G16RevA.03 25-Dec-2016
                 7-Oct-2020 
 ******************************************
 %NoSave
 %nproc=12
 Will use up to   12 processors via shared memory.
 %mem=20GB
 %chk=MN_22_ch3_lower_BH76_HF_631Gs
 ----------------------------------------------------------------------
 #P Opt(MaxCyc=100) HF/6-31G* 5D 7F Integral=UltraFineGrid SCF=(NoSymm,
 XQC,MaxCyc=120) IOp(1/33=1)
 ----------------------------------------------------------------------
 1/6=100,18=20,19=15,33=1,38=1/1,3;
 2/9=110,12=2,17=6,18=5,40=1/2;
 3/5=1,6=6,7=1,8=11,11=9,25=1,30=1,71=1,75=-5/1,2,3;
 4/9=2/1;
 5/5=2,7=120,8=3,13=1,38=5/2,8;
 6/7=2,8=2,9=2,10=2,28=1/1;
 7//1,2,3,16;
 1/6=100,18=20,19=15,33=1/3(2);
 2/9=110/2;
 99//99;
 2/9=110/2;
 3/5=1,6=6,7=1,8=11,11=9,25=1,30=1,71=1,75=-5/1,2,3;
 4/5=5,9=2,16=3,69=1/1;
 5/5=2,7=120,8=3,13=1,38=5/2,8;
 7//1,2,3,16;
 1/6=100,18=20,19=15,33=1/3(-5);
 2/9=110/2;
 6/7=2,8=2,9=2,10=2,19=2,28=1/1;
 99/9=1/99;
 Leave Link    1 at Wed Oct  7 12:34:51 2020, MaxMem=  2684354560 cpu:               9.4 elap:               0.9
 (Enter /udrive/faculty/rpeverati/g16/g16/l101.exe)
 ONIOM data not found on unit 2.
 ------------------
 TS search on BH76.
 ------------------
 TstMul:  ICh=     0
 TstMul:  Mul=     2
 TstMul:  ICh=     0
 TstMul:  Mul=     2
 Symbolic Z-matrix:
 Charge =  0 Multiplicity = 2
 C                     0.        0.        0. 
 H                     0.53866   0.93298   0. 
 H                     0.53866  -0.93298   0. 
 H                    -1.07732   0.        0. 
 
 RdStrC is calling ZToCFu for IStruc=1 NZ=     4.
 PrtBox:  NBox=     1 Levels=  1 BoxLen=    8.00 SMaxX=        3.53
          Shift=            2.035833            1.763083            0.000000
 Box      1 Number                   0 centers from      1 to      4:
 After GenITR:
 ITRead=  0  0  0  0
 MicOpt= -1 -1 -1 -1
 ITRead=  0  0  0  0
 MicOpt= -1 -1 -1 -1
 NAtoms=      4 NQM=        4 NQMF=       0 NMMI=      0 NMMIF=      0
                NMic=       0 NMicF=      0.
                    Isotopes and Nuclear Properties:
 (Nuclear quadrupole moments (NQMom) in fm**2, nuclear magnetic moments (NMagM)
  in nuclear magnetons)

  Atom         1           2           3           4
 IAtWgt=          12           1           1           1
 AtmWgt=  12.0000000   1.0078250   1.0078250   1.0078250
 NucSpn=           0           1           1           1
 AtZEff=   0.0000000   0.0000000   0.0000000   0.0000000
 NQMom=    0.0000000   0.0000000   0.0000000   0.0000000
 NMagM=    0.0000000   2.7928460   2.7928460   2.7928460
 AtZNuc=   6.0000000   1.0000000   1.0000000   1.0000000
 No MM parameters found.
 Leave Link  101 at Wed Oct  7 12:34:52 2020, MaxMem=  2684354560 cpu:              13.6 elap:               1.3
 (Enter /udrive/faculty/rpeverati/g16/g16/l103.exe)

 GradGradGradGradGradGradGradGradGradGradGradGradGradGradGradGradGradGrad
 Berny optimization.
 Optmz: redundant internal coordinate code flag= 1
 Initialization pass.
                           ----------------------------
                           !    Initial Parameters    !
                           ! (Angstroms and Degrees)  !
 --------------------------                            --------------------------
 ! Name  Definition              Value          Derivative Info.                !
 --------------------------------------------------------------------------------
 ! R1    R(1,2)                  1.0773         estimate D2E/DX2                !
 ! R2    R(1,3)                  1.0773         estimate D2E/DX2                !
 ! R3    R(1,4)                  1.0773         estimate D2E/DX2                !
 ! A1    A(2,1,3)              120.0            estimate D2E/DX2                !
 ! A2    A(2,1,4)              120.0            estimate D2E/DX2                !
 ! A3    A(3,1,4)              120.0            estimate D2E/DX2                !
 ! D1    D(2,1,4,3)            180.0            estimate D2E/DX2                !
 --------------------------------------------------------------------------------
 Maximum allowed force set to 1.00D+20.
 Trust Radius=3.00D-01 FncErr=1.00D-07 GrdErr=1.00D-07 EigMax=2.50D+02 EigMin=1.00D-04
 Number of steps in this run=    100 maximum allowed number of steps=    100.
 GradGradGradGradGradGradGradGradGradGradGradGradGradGradGradGradGradGrad

 Leave Link  103 at Wed Oct  7 12:34:54 2020, MaxMem=  2684354560 cpu:               1.3 elap:               0.6
 (Enter /udrive/faculty/rpeverati/g16/g16/l202.exe)
                          Input orientation:                          
 ---------------------------------------------------------------------
 Center     Atomic      Atomic             Coordinates (Angstroms)
 Number     Number       Type             X           Y           Z
 ---------------------------------------------------------------------
      1          6           0        0.000000    0.000000    0.000000
      2          1           0        0.538658    0.932983    0.000000
      3          1           0        0.538658   -0.932983    0.000000
      4          1           0       -1.077316    0.000000    0.000000
 ---------------------------------------------------------------------
                    Distance matrix (angstroms):
                    1          2          3          4
     1  C    0.000000
     2  H    1.077316   0.000000
     3  H    1.077316   1.865966   0.000000
     4  H    1.077316   1.865966   1.865966   0.000000
 Stoichiometry    CH3(2)
 Framework group  D3H[O(C),3C2(H)]
 Deg. of freedom     1
 Full point group                 D3H     NOp  12
 Largest Abelian subgroup         C2V     NOp   4
 Largest concise Abelian subgroup C2      NOp   2
                         Standard orientation:                         
 ---------------------------------------------------------------------
 Center     Atomic      Atomic             Coordinates (Angstroms)
 Number     Number       Type             X           Y           Z
 ---------------------------------------------------------------------
      1          6           0        0.000000    0.000000    0.000000
      2          1           0        0.000000    1.077316    0.000000
      3          1           0        0.932983   -0.538658    0.000000
      4          1           0       -0.932983   -0.538658    0.000000
 ---------------------------------------------------------------------
 Rotational constants (GHZ):         288.0410898         288.0410898         144.0205449
 Leave Link  202 at Wed Oct  7 12:34:55 2020, MaxMem=  2684354560 cpu:               2.3 elap:               0.7
 (Enter /udrive/faculty/rpeverati/g16/g16/l301.exe)
 Standard basis: 6-31G(d) (5D, 7F)
 Ernie: Thresh=  0.10000D-02 Tol=  0.10000D-05 Strict=F.
 There are    12 symmetry adapted cartesian basis functions of A1  symmetry.
 There are     1 symmetry adapted cartesian basis functions of A2  symmetry.
 There are     5 symmetry adapted cartesian basis functions of B1  symmetry.
 There are     3 symmetry adapted cartesian basis functions of B2  symmetry.
 There are    11 symmetry adapted basis functions of A1  symmetry.
 There are     1 symmetry adapted basis functions of A2  symmetry.
 There are     5 symmetry adapted basis functions of B1  symmetry.
 There are     3 symmetry adapted basis functions of B2  symmetry.
    20 basis functions,    40 primitive gaussians,    21 cartesian basis functions
     5 alpha electrons        4 beta electrons
       nuclear repulsion energy         9.6923744034 Hartrees.
 IExCor=    0 DFT=F Ex=HF Corr=None ExCW=0 ScaHFX=  1.000000
 ScaDFX=  1.000000  1.000000  1.000000  1.000000 ScalE2=  1.000000  1.000000
 IRadAn=      5 IRanWt=     -1 IRanGd=            0 ICorTp=0 IEmpDi=  4
 NAtoms=    4 NActive=    4 NUniq=    2 SFac= 4.00D+00 NAtFMM=   60 NAOKFM=F Big=F
 Integral buffers will be    131072 words long.
 Raffenetti 2 integral format.
 Two-electron integral symmetry is turned on.
 Leave Link  301 at Wed Oct  7 12:34:56 2020, MaxMem=  2684354560 cpu:               2.7 elap:               0.8
 (Enter /udrive/faculty/rpeverati/g16/g16/l302.exe)
 NPDir=0 NMtPBC=     1 NCelOv=     1 NCel=       1 NClECP=     1 NCelD=      1
         NCelK=      1 NCelE2=     1 NClLst=     1 CellRange=     0.0.
 One-electron integrals computed using PRISM.
 One-electron integral symmetry used in STVInt
 NBasis=    20 RedAO= T EigKep=  3.12D-02  NBF=    11     1     5     3
 NBsUse=    20 1.00D-06 EigRej= -1.00D+00 NBFU=    11     1     5     3
 Leave Link  302 at Wed Oct  7 12:34:57 2020, MaxMem=  2684354560 cpu:               8.5 elap:               1.1
 (Enter /udrive/faculty/rpeverati/g16/g16/l303.exe)
 DipDrv:  MaxL=1.
 Leave Link  303 at Wed Oct  7 12:34:58 2020, MaxMem=  2684354560 cpu:               2.2 elap:               0.7
 (Enter /udrive/faculty/rpeverati/g16/g16/l401.exe)
 SCF N**3 symmetry information disabled.
 ExpMin= 1.61D-01 ExpMax= 3.05D+03 ExpMxC= 4.57D+02 IAcc=3 IRadAn=         5 AccDes= 0.00D+00
 Harris functional with IExCor=  205 and IRadAn=       5 diagonalized for initial guess.
 HarFok:  IExCor=  205 AccDes= 0.00D+00 IRadAn=         5 IDoV= 1 UseB2=F ITyADJ=14
 ICtDFT=  3500011 ScaDFX=  1.000000  1.000000  1.000000  1.000000
 FoFCou: FMM=F IPFlag=           0 FMFlag=      100000 FMFlg1=           0
         NFxFlg=           0 DoJE=T BraDBF=F KetDBF=T FulRan=T
         wScrn=  0.000000 ICntrl=       500 IOpCl=  0 I1Cent=   200000004 NGrid=           0
         NMat0=    1 NMatS0=      1 NMatT0=    0 NMatD0=    1 NMtDS0=    0 NMtDT0=    0
 Petite list used in FoFCou.
 Harris En= -39.6225645945091    
 JPrj=0 DoOrth=F DoCkMO=F.
 Initial guess orbital symmetries:
 Alpha Orbitals:
       Occupied  (A1') (A1') (E') (E') (A2")
       Virtual   (A1') (E') (E') (E') (E') (A2") (A1') (E') (E')
                 (A1') (E") (E") (A1') (E') (E')
 Beta  Orbitals:
       Occupied  (A1') (A1') (E') (E')
       Virtual   (A2") (A1') (E') (E') (E') (E') (A2") (A1') (E')
                 (E') (A1') (E") (E") (A1') (E') (E')
 The electronic state of the initial guess is 2-A2".
 Initial guess <Sx>= 0.0000 <Sy>= 0.0000 <Sz>= 0.5000 <S**2>= 0.7500 S= 0.5000
 Leave Link  401 at Wed Oct  7 12:35:00 2020, MaxMem=  2684354560 cpu:               4.2 elap:               0.7
 (Enter /udrive/faculty/rpeverati/g16/g16/l502.exe)
 Keep R1 and R2 ints in memory in symmetry-blocked form, NReq=2494572.
 FoFCou: FMM=F IPFlag=           0 FMFlag=           0 FMFlg1=           0
         NFxFlg=           0 DoJE=F BraDBF=F KetDBF=F FulRan=T
         wScrn=  0.000000 ICntrl=       600 IOpCl=  0 I1Cent=           0 NGrid=           0
         NMat0=    1 NMatS0=    210 NMatT0=    0 NMatD0=    1 NMtDS0=    0 NMtDT0=    0
 Petite list used in FoFCou.
 UHF open shell SCF:
 Using DIIS extrapolation, IDIIS=  1040.
 NGot=  2684354560 LenX=  2684338255 LenY=  2684337373
 Requested convergence on RMS density matrix=1.00D-08 within 120 cycles.
 Requested convergence on MAX density matrix=1.00D-06.
 Requested convergence on             energy=1.00D-06.
 No special actions if energy rises.

 Cycle   1  Pass 1  IDiag  1:
 E= -39.4938688949377    
 DIIS: error= 6.39D-02 at cycle   1 NSaved=   1.
 NSaved= 1 IEnMin= 1 EnMin= -39.4938688949377     IErMin= 1 ErrMin= 6.39D-02
 ErrMax= 6.39D-02  0.00D+00 EMaxC= 1.00D-01 BMatC= 2.40D-01 BMatP= 2.40D-01
 IDIUse=3 WtCom= 3.61D-01 WtEn= 6.39D-01
 Coeff-Com:  0.100D+01
 Coeff-En:   0.100D+01
 Coeff:      0.100D+01
 Gap=     0.572 Goal=   None    Shift=    0.000
 Gap=     0.786 Goal=   None    Shift=    0.000
 GapD=    0.572 DampG=2.000 DampE=0.500 DampFc=1.0000 IDamp=-1.
 RMSDP=1.24D-02 MaxDP=1.21D-01              OVMax= 1.10D-01

 Cycle   2  Pass 1  IDiag  1:
 E= -39.5523268603326     Delta-E=       -0.058457965395 Rises=F Damp=F
 DIIS: error= 2.04D-02 at cycle   2 NSaved=   2.
 NSaved= 2 IEnMin= 2 EnMin= -39.5523268603326     IErMin= 2 ErrMin= 2.04D-02
 ErrMax= 2.04D-02  0.00D+00 EMaxC= 1.00D-01 BMatC= 2.36D-02 BMatP= 2.40D-01
 IDIUse=3 WtCom= 7.96D-01 WtEn= 2.04D-01
 Coeff-Com:  0.200D+00 0.800D+00
 Coeff-En:   0.000D+00 0.100D+01
 Coeff:      0.159D+00 0.841D+00
 Gap=     0.636 Goal=   None    Shift=    0.000
 Gap=     0.721 Goal=   None    Shift=    0.000
 RMSDP=3.27D-03 MaxDP=3.73D-02 DE=-5.85D-02 OVMax= 3.04D-02

 Cycle   3  Pass 1  IDiag  1:
 E= -39.5582216521718     Delta-E=       -0.005894791839 Rises=F Damp=F
 DIIS: error= 3.83D-03 at cycle   3 NSaved=   3.
 NSaved= 3 IEnMin= 3 EnMin= -39.5582216521718     IErMin= 3 ErrMin= 3.83D-03
 ErrMax= 3.83D-03  0.00D+00 EMaxC= 1.00D-01 BMatC= 6.44D-04 BMatP= 2.36D-02
 IDIUse=3 WtCom= 9.62D-01 WtEn= 3.83D-02
 Coeff-Com: -0.338D-01-0.100D-01 0.104D+01
 Coeff-En:   0.000D+00 0.000D+00 0.100D+01
 Coeff:     -0.325D-01-0.965D-02 0.104D+01
 Gap=     0.634 Goal=   None    Shift=    0.000
 Gap=     0.719 Goal=   None    Shift=    0.000
 RMSDP=7.92D-04 MaxDP=5.62D-03 DE=-5.89D-03 OVMax= 7.83D-03

 Cycle   4  Pass 1  IDiag  1:
 E= -39.5585499563983     Delta-E=       -0.000328304226 Rises=F Damp=F
 DIIS: error= 1.48D-03 at cycle   4 NSaved=   4.
 NSaved= 4 IEnMin= 4 EnMin= -39.5585499563983     IErMin= 4 ErrMin= 1.48D-03
 ErrMax= 1.48D-03  0.00D+00 EMaxC= 1.00D-01 BMatC= 1.41D-04 BMatP= 6.44D-04
 IDIUse=3 WtCom= 9.85D-01 WtEn= 1.48D-02
 Coeff-Com:  0.217D-01-0.235D-01-0.930D+00 0.193D+01
 Coeff-En:   0.000D+00 0.000D+00 0.000D+00 0.100D+01
 Coeff:      0.214D-01-0.231D-01-0.916D+00 0.192D+01
 Gap=     0.637 Goal=   None    Shift=    0.000
 Gap=     0.720 Goal=   None    Shift=    0.000
 RMSDP=7.60D-04 MaxDP=5.06D-03 DE=-3.28D-04 OVMax= 6.26D-03

 Cycle   5  Pass 1  IDiag  1:
 E= -39.5586821751639     Delta-E=       -0.000132218766 Rises=F Damp=F
 DIIS: error= 5.35D-04 at cycle   5 NSaved=   5.
 NSaved= 5 IEnMin= 5 EnMin= -39.5586821751639     IErMin= 5 ErrMin= 5.35D-04
 ErrMax= 5.35D-04  0.00D+00 EMaxC= 1.00D-01 BMatC= 1.42D-05 BMatP= 1.41D-04
 IDIUse=3 WtCom= 9.95D-01 WtEn= 5.35D-03
 Coeff-Com: -0.100D-01 0.202D-01 0.497D+00-0.134D+01 0.183D+01
 Coeff-En:   0.000D+00 0.000D+00 0.000D+00 0.000D+00 0.100D+01
 Coeff:     -0.999D-02 0.201D-01 0.494D+00-0.133D+01 0.183D+01
 Gap=     0.638 Goal=   None    Shift=    0.000
 Gap=     0.720 Goal=   None    Shift=    0.000
 RMSDP=3.07D-04 MaxDP=1.82D-03 DE=-1.32D-04 OVMax= 2.48D-03

 Cycle   6  Pass 1  IDiag  1:
 E= -39.5586972272734     Delta-E=       -0.000015052110 Rises=F Damp=F
 DIIS: error= 1.08D-04 at cycle   6 NSaved=   6.
 NSaved= 6 IEnMin= 6 EnMin= -39.5586972272734     IErMin= 6 ErrMin= 1.08D-04
 ErrMax= 1.08D-04  0.00D+00 EMaxC= 1.00D-01 BMatC= 3.54D-07 BMatP= 1.42D-05
 IDIUse=3 WtCom= 9.99D-01 WtEn= 1.08D-03
 Coeff-Com:  0.410D-02-0.891D-02-0.206D+00 0.581D+00-0.932D+00 0.156D+01
 Coeff-En:   0.000D+00 0.000D+00 0.000D+00 0.000D+00 0.000D+00 0.100D+01
 Coeff:      0.410D-02-0.890D-02-0.205D+00 0.580D+00-0.931D+00 0.156D+01
 Gap=     0.638 Goal=   None    Shift=    0.000
 Gap=     0.720 Goal=   None    Shift=    0.000
 RMSDP=4.77D-05 MaxDP=3.17D-04 DE=-1.51D-05 OVMax= 4.41D-04

 Cycle   7  Pass 1  IDiag  1:
 E= -39.5586975648027     Delta-E=       -0.000000337529 Rises=F Damp=F
 DIIS: error= 1.54D-05 at cycle   7 NSaved=   7.
 NSaved= 7 IEnMin= 7 EnMin= -39.5586975648027     IErMin= 7 ErrMin= 1.54D-05
 ErrMax= 1.54D-05  0.00D+00 EMaxC= 1.00D-01 BMatC= 6.16D-09 BMatP= 3.54D-07
 IDIUse=1 WtCom= 1.00D+00 WtEn= 0.00D+00
 Coeff-Com: -0.109D-02 0.226D-02 0.543D-01-0.155D+00 0.258D+00-0.527D+00
 Coeff-Com:  0.137D+01
 Coeff:     -0.109D-02 0.226D-02 0.543D-01-0.155D+00 0.258D+00-0.527D+00
 Coeff:      0.137D+01
 Gap=     0.638 Goal=   None    Shift=    0.000
 Gap=     0.720 Goal=   None    Shift=    0.000
 RMSDP=5.38D-06 MaxDP=5.13D-05 DE=-3.38D-07 OVMax= 4.07D-05

 Cycle   8  Pass 1  IDiag  1:
 E= -39.5586975691522     Delta-E=       -0.000000004349 Rises=F Damp=F
 DIIS: error= 2.10D-06 at cycle   8 NSaved=   8.
 NSaved= 8 IEnMin= 8 EnMin= -39.5586975691522     IErMin= 8 ErrMin= 2.10D-06
 ErrMax= 2.10D-06  0.00D+00 EMaxC= 1.00D-01 BMatC= 7.23D-11 BMatP= 6.16D-09
 IDIUse=1 WtCom= 1.00D+00 WtEn= 0.00D+00
 Coeff-Com:  0.132D-03-0.256D-03-0.639D-02 0.185D-01-0.312D-01 0.721D-01
 Coeff-Com: -0.261D+00 0.121D+01
 Coeff:      0.132D-03-0.256D-03-0.639D-02 0.185D-01-0.312D-01 0.721D-01
 Coeff:     -0.261D+00 0.121D+01
 Gap=     0.638 Goal=   None    Shift=    0.000
 Gap=     0.720 Goal=   None    Shift=    0.000
 RMSDP=5.11D-07 MaxDP=6.95D-06 DE=-4.35D-09 OVMax= 5.51D-06

 Cycle   9  Pass 1  IDiag  1:
 E= -39.5586975691976     Delta-E=       -0.000000000045 Rises=F Damp=F
 DIIS: error= 3.59D-07 at cycle   9 NSaved=   9.
 NSaved= 9 IEnMin= 9 EnMin= -39.5586975691976     IErMin= 9 ErrMin= 3.59D-07
 ErrMax= 3.59D-07  0.00D+00 EMaxC= 1.00D-01 BMatC= 3.37D-12 BMatP= 7.23D-11
 IDIUse=1 WtCom= 1.00D+00 WtEn= 0.00D+00
 Coeff-Com: -0.122D-04 0.137D-04 0.536D-03-0.159D-02 0.294D-02-0.932D-02
 Coeff-Com:  0.535D-01-0.420D+00 0.137D+01
 Coeff:     -0.122D-04 0.137D-04 0.536D-03-0.159D-02 0.294D-02-0.932D-02
 Coeff:      0.535D-01-0.420D+00 0.137D+01
 Gap=     0.638 Goal=   None    Shift=    0.000
 Gap=     0.720 Goal=   None    Shift=    0.000
 RMSDP=8.86D-08 MaxDP=1.33D-06 DE=-4.55D-11 OVMax= 1.05D-06

 Cycle  10  Pass 1  IDiag  1:
 E= -39.5586975691996     Delta-E=       -0.000000000002 Rises=F Damp=F
 DIIS: error= 7.18D-08 at cycle  10 NSaved=  10.
 NSaved=10 IEnMin=10 EnMin= -39.5586975691996     IErMin=10 ErrMin= 7.18D-08
 ErrMax= 7.18D-08  0.00D+00 EMaxC= 1.00D-01 BMatC= 1.49D-13 BMatP= 3.37D-12
 IDIUse=1 WtCom= 1.00D+00 WtEn= 0.00D+00
 Coeff-Com:  0.222D-05 0.167D-05-0.781D-04 0.251D-03-0.567D-03 0.271D-02
 Coeff-Com: -0.206D-01 0.188D+00-0.753D+00 0.158D+01
 Coeff:      0.222D-05 0.167D-05-0.781D-04 0.251D-03-0.567D-03 0.271D-02
 Coeff:     -0.206D-01 0.188D+00-0.753D+00 0.158D+01
 Gap=     0.638 Goal=   None    Shift=    0.000
 Gap=     0.720 Goal=   None    Shift=    0.000
 RMSDP=2.41D-08 MaxDP=2.98D-07 DE=-2.00D-12 OVMax= 2.37D-07

 Cycle  11  Pass 1  IDiag  1:
 E= -39.5586975691997     Delta-E=       -0.000000000000 Rises=F Damp=F
 DIIS: error= 3.43D-09 at cycle  11 NSaved=  11.
 NSaved=11 IEnMin=11 EnMin= -39.5586975691997     IErMin=11 ErrMin= 3.43D-09
 ErrMax= 3.43D-09  0.00D+00 EMaxC= 1.00D-01 BMatC= 8.78D-16 BMatP= 1.49D-13
 IDIUse=1 WtCom= 1.00D+00 WtEn= 0.00D+00
 Coeff-Com:  0.326D-07-0.112D-05-0.688D-05 0.146D-04-0.799D-07-0.250D-03
 Coeff-Com:  0.282D-02-0.291D-01 0.123D+00-0.311D+00 0.121D+01
 Coeff:      0.326D-07-0.112D-05-0.688D-05 0.146D-04-0.799D-07-0.250D-03
 Coeff:      0.282D-02-0.291D-01 0.123D+00-0.311D+00 0.121D+01
 Gap=     0.638 Goal=   None    Shift=    0.000
 Gap=     0.720 Goal=   None    Shift=    0.000
 RMSDP=2.56D-09 MaxDP=2.48D-08 DE=-9.95D-14 OVMax= 1.57D-08

 SCF Done:  E(UHF) =  -39.5586975692     A.U. after   11 cycles
            NFock= 11  Conv=0.26D-08     -V/T= 1.9989
 <Sx>= 0.0000 <Sy>= 0.0000 <Sz>= 0.5000 <S**2>= 0.7617 S= 0.5058
 <L.S>= 0.000000000000E+00
 KE= 3.960334753676D+01 PE=-1.112136023570D+02 EE= 2.235918284757D+01
 Annihilation of the first spin contaminant:
 S**2 before annihilation     0.7617,   after     0.7501
 Leave Link  502 at Wed Oct  7 12:35:01 2020, MaxMem=  2684354560 cpu:              10.1 elap:               1.3
 (Enter /udrive/faculty/rpeverati/g16/g16/l508.exe)
 QCSCF skips out because SCF is already converged.
 Leave Link  508 at Wed Oct  7 12:35:02 2020, MaxMem=  2684354560 cpu:               0.4 elap:               0.7
 (Enter /udrive/faculty/rpeverati/g16/g16/l601.exe)
 Copying SCF densities to generalized density rwf, IOpCl= 1 IROHF=0.

 **********************************************************************

            Population analysis using the SCF density.

 **********************************************************************

 Orbital symmetries:
 Alpha Orbitals:
       Occupied  (A1') (A1') (E') (E') (A2")
       Virtual   (A1') (E') (E') (E') (E') (A2") (A1') (E') (E')
                 (A1') (E") (E") (A1') (E') (E')
 Beta  Orbitals:
       Occupied  (A1') (A1') (E') (E')
       Virtual   (A2") (A1') (E') (E') (E') (E') (A2") (A1') (E')
                 (E') (A1') (E") (E") (A1') (E') (E')
 The electronic state is 2-A2".
 Alpha  occ. eigenvalues --  -11.22659  -0.94586  -0.57781  -0.57781  -0.38351
 Alpha virt. eigenvalues --    0.25433   0.33056   0.33056   0.73929   0.73929
 Alpha virt. eigenvalues --    0.74631   0.89907   1.20468   1.20468   1.21098
 Alpha virt. eigenvalues --    1.92405   1.92405   2.32635   2.52537   2.52537
  Beta  occ. eigenvalues --  -11.20195  -0.85203  -0.56316  -0.56316
  Beta virt. eigenvalues --    0.15717   0.28000   0.33962   0.33962   0.75069
  Beta virt. eigenvalues --    0.75069   0.89510   0.94576   1.21373   1.21373
  Beta virt. eigenvalues --    1.24720   2.02343   2.02343   2.41486   2.54152
  Beta virt. eigenvalues --    2.54152
          Condensed to atoms (all electrons):
               1          2          3          4
     1  C    5.387788   0.382314   0.382314   0.382314
     2  H    0.382314   0.493094  -0.026826  -0.026826
     3  H    0.382314  -0.026826   0.493094  -0.026826
     4  H    0.382314  -0.026826  -0.026826   0.493094
          Atomic-Atomic Spin Densities.
               1          2          3          4
     1  C    1.348125  -0.017700  -0.017700  -0.017700
     2  H   -0.017700  -0.083850   0.001604   0.001604
     3  H   -0.017700   0.001604  -0.083850   0.001604
     4  H   -0.017700   0.001604   0.001604  -0.083850
 Mulliken charges and spin densities:
               1          2
     1  C   -0.534731   1.295026
     2  H    0.178244  -0.098342
     3  H    0.178244  -0.098342
     4  H    0.178244  -0.098342
 Sum of Mulliken charges =  -0.00000   1.00000
 Mulliken charges and spin densities with hydrogens summed into heavy atoms:
               1          2
     1  C   -0.000000   1.000000
 Electronic spatial extent (au):  <R**2>=             29.5132
 Charge=             -0.0000 electrons
 Dipole moment (field-independent basis, Debye):
    X=             -0.0000    Y=             -0.0000    Z=              0.0000  Tot=              0.0000
 Quadrupole moment (field-independent basis, Debye-Ang):
   XX=             -7.1203   YY=             -7.1203   ZZ=             -8.7317
   XY=             -0.0000   XZ=             -0.0000   YZ=              0.0000
 Traceless Quadrupole moment (field-independent basis, Debye-Ang):
   XX=              0.5371   YY=              0.5371   ZZ=             -1.0743
   XY=             -0.0000   XZ=             -0.0000   YZ=              0.0000
 Octapole moment (field-independent basis, Debye-Ang**2):
  XXX=              0.0000  YYY=              0.8129  ZZZ=              0.0000  XYY=              0.0000
  XXY=             -0.8129  XXZ=              0.0000  XZZ=              0.0000  YZZ=             -0.0000
  YYZ=              0.0000  XYZ=              0.0000
 Hexadecapole moment (field-independent basis, Debye-Ang**3):
 XXXX=            -14.0086 YYYY=            -14.0086 ZZZZ=             -9.1634 XXXY=              0.0000
 XXXZ=             -0.0000 YYYX=              0.0000 YYYZ=              0.0000 ZZZX=             -0.0000
 ZZZY=              0.0000 XXYY=             -4.6695 XXZZ=             -4.1993 YYZZ=             -4.1993
 XXYZ=              0.0000 YYXZ=             -0.0000 ZZXY=              0.0000
 N-N= 9.692374403422D+00 E-N=-1.112136023556D+02  KE= 3.960334753676D+01
                          Isotropic Fermi Contact Couplings
        Atom                 a.u.       MegaHertz       Gauss      10(-4) cm-1
     1  C(13)              0.23330     262.27302      93.58553      87.48486
     2  H(1)              -0.03027    -135.30651     -48.28073     -45.13339
     3  H(1)              -0.03027    -135.30651     -48.28073     -45.13339
     4  H(1)              -0.03027    -135.30651     -48.28073     -45.13339
 --------------------------------------------------------
       Center         ----  Spin Dipole Couplings  ----
                      3XX-RR        3YY-RR        3ZZ-RR
 --------------------------------------------------------
     1   Atom       -0.526837     -0.526837      1.053675
     2   Atom       -0.078113      0.086177     -0.008064
     3   Atom        0.045104     -0.037040     -0.008064
     4   Atom        0.045104     -0.037040     -0.008064
 --------------------------------------------------------
                        XY            XZ            YZ
 --------------------------------------------------------
     1   Atom       -0.000000      0.000000      0.000000
     2   Atom       -0.000000      0.000000      0.000000
     3   Atom       -0.071139      0.000000      0.000000
     4   Atom        0.071139      0.000000      0.000000
 --------------------------------------------------------


 ---------------------------------------------------------------------------------
              Anisotropic Spin Dipole Couplings in Principal Axis System
 ---------------------------------------------------------------------------------

       Atom             a.u.   MegaHertz   Gauss  10(-4) cm-1        Axes

              Baa    -0.5268   -70.697   -25.226   -23.582  0.9752  0.2215  0.0000
     1 C(13)  Bbb    -0.5268   -70.697   -25.226   -23.582 -0.2215  0.9752  0.0000
              Bcc     1.0537   141.393    50.453    47.164  0.0000  0.0000  1.0000
 
              Baa    -0.0781   -41.677   -14.871   -13.902  1.0000  0.0000  0.0000
     2 H(1)   Bbb    -0.0081    -4.303    -1.535    -1.435  0.0000  0.0000  1.0000
              Bcc     0.0862    45.980    16.407    15.337 -0.0000  1.0000  0.0000
 
              Baa    -0.0781   -41.677   -14.871   -13.902  0.5000  0.8660  0.0000
     3 H(1)   Bbb    -0.0081    -4.303    -1.535    -1.435  0.0000  0.0000  1.0000
              Bcc     0.0862    45.980    16.407    15.337  0.8660 -0.5000  0.0000
 
              Baa    -0.0781   -41.677   -14.871   -13.902 -0.5000  0.8660  0.0000
     4 H(1)   Bbb    -0.0081    -4.303    -1.535    -1.435  0.0000  0.0000  1.0000
              Bcc     0.0862    45.980    16.407    15.337  0.8660  0.5000  0.0000
 

 ---------------------------------------------------------------------------------

 No NMR shielding tensors so no spin-rotation constants.
 Leave Link  601 at Wed Oct  7 12:35:04 2020, MaxMem=  2684354560 cpu:               6.9 elap:               1.0
 (Enter /udrive/faculty/rpeverati/g16/g16/l701.exe)
 ... and contract with generalized density number  0.
 Compute integral first derivatives.
 Leave Link  701 at Wed Oct  7 12:35:05 2020, MaxMem=  2684354560 cpu:               4.4 elap:               0.8
 (Enter /udrive/faculty/rpeverati/g16/g16/l702.exe)
 L702 exits ... SP integral derivatives will be done elsewhere.
 Leave Link  702 at Wed Oct  7 12:35:06 2020, MaxMem=  2684354560 cpu:               1.8 elap:               0.6
 (Enter /udrive/faculty/rpeverati/g16/g16/l703.exe)
 Integral derivatives from FoFJK, PRISM(SPDF).
 Compute integral first derivatives, UseDBF=F ICtDFT=           0.
 Calling FoFJK, ICntrl=      2127 FMM=F ISym2X=1 I1Cent= 0 IOpClX= 1 NMat=1 NMatS=1 NMatT=0.
 FoFJK:  IHMeth= 1 ICntrl=    2127 DoSepK=F KAlg= 0 I1Cent=           0 FoldK=F
 IRaf=         0 NMat=       1 IRICut=       1 DoRegI=T DoRafI=F ISym2E= 1 IDoP0=0 IntGTp=1.
 FoFCou: FMM=F IPFlag=           0 FMFlag=      100000 FMFlg1=         800
         NFxFlg=           0 DoJE=F BraDBF=F KetDBF=F FulRan=T
         wScrn=  0.000000 ICntrl=      2127 IOpCl=  1 I1Cent=           0 NGrid=           0
         NMat0=    1 NMatS0=      1 NMatT0=    0 NMatD0=    1 NMtDS0=    0 NMtDT0=    0
 Petite list used in FoFCou.
 Leave Link  703 at Wed Oct  7 12:35:07 2020, MaxMem=  2684354560 cpu:               6.4 elap:               1.0
 (Enter /udrive/faculty/rpeverati/g16/g16/l716.exe)
 Dipole        = 0.00000000D+00-2.22044605D-16 4.63217200D-32
 ***** Axes restored to original set *****
 -------------------------------------------------------------------
 Center     Atomic                   Forces (Hartrees/Bohr)
 Number     Number              X              Y              Z
 -------------------------------------------------------------------
      1        6          -0.000000000    0.000000000    0.000000000
      2        1          -0.001823914   -0.003159112   -0.000000000
      3        1          -0.001823914    0.003159112    0.000000000
      4        1           0.003647828   -0.000000000   -0.000000000
 -------------------------------------------------------------------
 Cartesian Forces:  Max     0.003647828 RMS     0.001823914
 Leave Link  716 at Wed Oct  7 12:35:08 2020, MaxMem=  2684354560 cpu:               1.6 elap:               0.6
 (Enter /udrive/faculty/rpeverati/g16/g16/l103.exe)

 GradGradGradGradGradGradGradGradGradGradGradGradGradGradGradGradGradGrad
 Berny optimization.
 Optmz: redundant internal coordinate code flag= 1
 FormGI is forming the generalized inverse of G from B-inverse, IUseBI=4.
 Internal  Forces:  Max     0.003647828 RMS     0.002388064
 Search for a local minimum.
 Step number   1 out of a maximum of  100
 All quantities printed in internal units (Hartrees-Bohrs-Radians)
 RMS Force = .23881D-02 SwitMx=.10000D-02 MixMth= 1
 Mixed Optimization -- RFO/linear search
 Second derivative matrix not updated -- first step.
 The second derivative matrix:
                          R1        R2        R3        A1        A2
           R1           0.36321
           R2           0.00000   0.36321
           R3           0.00000   0.00000   0.36321
           A1           0.00000   0.00000   0.00000   0.16000
           A2           0.00000   0.00000   0.00000   0.00000   0.16000
           A3           0.00000   0.00000   0.00000   0.00000   0.00000
           D1           0.00000   0.00000   0.00000   0.00000   0.00000
                          A3        D1
           A3           0.16000
           D1           0.00000   0.00403
 ITU=  0
 Eigenvectors of the second derivative matrix:
                           1         2         3         4         5
     Eigenvalues --     0.00403   0.16000   0.16000   0.36321   0.36321
   1         R1         0.00000   0.00000  -0.00000  -0.34012   0.93698
   2         R2         0.00000   0.00000   0.00000  -0.69550  -0.19341
   3         R3        -0.00000  -0.00000   0.00000   0.63293   0.29097
   4         A1         0.00000  -0.81568   0.03658  -0.00000   0.00000
   5         A2        -0.00000   0.43952   0.68810   0.00000   0.00000
   6         A3        -0.00000   0.37616  -0.72469   0.00000   0.00000
   7         D1         1.00000   0.00000   0.00000   0.00000   0.00000
                           6
     Eigenvalues --     0.36321
   1         R1        -0.07995
   2         R2         0.69201
   3         R3         0.71745
   4         A1        -0.00000
   5         A2         0.00000
   6         A3         0.00000
   7         D1        -0.00000
 Iter=   1 RLamda= 0.00000000D+00 Sum=-1.09910076D-04.
 Iter=   2 RLamda=-1.09910076D-04 Sum=-1.09876826D-04.
 Iter=   3 RLamda=-1.09876826D-04 Sum=-1.09876836D-04.
 RFO step:  Lambda=-1.09876826D-04 EMin= 4.02612957D-03
 Linear search not attempted -- first point.
 Iteration  1 RMS(Cart)=  0.00657298 RMS(Int)=  0.00000000
 Iteration  2 RMS(Cart)=  0.00000000 RMS(Int)=  0.00000000
 ITry= 1 IFail=0 DXMaxC= 1.00D-02 DCOld= 1.00D+10 DXMaxT= 3.00D-01 DXLimC= 3.00D+00 Rises=F
 ClnCor:  largest displacement from symmetrization is 2.13D-13 for atom     1.
 Variable       Old X    -DE/DX   Delta X   Delta X   Delta X     New X
                                 (Linear)    (Quad)   (Total)
    R1        2.03583  -0.00365   0.00000  -0.01004  -0.01004   2.02579
    R2        2.03583  -0.00365   0.00000  -0.01004  -0.01004   2.02579
    R3        2.03583  -0.00365   0.00000  -0.01004  -0.01004   2.02579
    A1        2.09440  -0.00000   0.00000  -0.00000   0.00000   2.09440
    A2        2.09440   0.00000   0.00000   0.00000   0.00000   2.09440
    A3        2.09440   0.00000   0.00000   0.00000   0.00000   2.09440
    D1        3.14159  -0.00000   0.00000  -0.00000   0.00000   3.14159
         Item               Value     Threshold  Converged?
 Maximum Force            0.003648     0.000450     NO 
 RMS     Force            0.002388     0.000300     NO 
 Maximum Displacement     0.010040     0.001800     NO 
 RMS     Displacement     0.006573     0.001200     NO 
 Predicted change in Energy=-5.495503D-05
 Lowest energy point so far.  Saving SCF results.
 Largest change from initial coordinates is atom    2       0.005 Angstoms.
 GradGradGradGradGradGradGradGradGradGradGradGradGradGradGradGradGradGrad

 Leave Link  103 at Wed Oct  7 12:35:09 2020, MaxMem=  2684354560 cpu:               2.4 elap:               0.6
 (Enter /udrive/faculty/rpeverati/g16/g16/l202.exe)
                          Input orientation:                          
 ---------------------------------------------------------------------
 Center     Atomic      Atomic             Coordinates (Angstroms)
 Number     Number       Type             X           Y           Z
 ---------------------------------------------------------------------
      1          6           0        0.000000   -0.000000    0.000000
      2          1           0        0.536002    0.928382    0.000000
      3          1           0        0.536002   -0.928382    0.000000
      4          1           0       -1.072003    0.000000    0.000000
 ---------------------------------------------------------------------
                    Distance matrix (angstroms):
                    1          2          3          4
     1  C    0.000000
     2  H    1.072003   0.000000
     3  H    1.072003   1.856764   0.000000
     4  H    1.072003   1.856764   1.856764   0.000000
 Stoichiometry    CH3(2)
 Framework group  D3H[O(C),3C2(H)]
 Deg. of freedom     1
 Full point group                 D3H     NOp  12
 RotChk:  IX=0 Diff= 1.57D-16
 Largest Abelian subgroup         C2V     NOp   4
 Largest concise Abelian subgroup C2      NOp   2
                         Standard orientation:                         
 ---------------------------------------------------------------------
 Center     Atomic      Atomic             Coordinates (Angstroms)
 Number     Number       Type             X           Y           Z
 ---------------------------------------------------------------------
      1          6           0        0.000000    0.000000    0.000000
      2          1           0        0.000000    1.072003    0.000000
      3          1           0        0.928382   -0.536002    0.000000
      4          1           0       -0.928382   -0.536002    0.000000
 ---------------------------------------------------------------------
 Rotational constants (GHZ):         290.9033890         290.9033890         145.4516945
 Leave Link  202 at Wed Oct  7 12:35:10 2020, MaxMem=  2684354560 cpu:               1.7 elap:               0.7
 (Enter /udrive/faculty/rpeverati/g16/g16/l301.exe)
 Standard basis: 6-31G(d) (5D, 7F)
 Ernie: Thresh=  0.10000D-02 Tol=  0.10000D-05 Strict=F.
 There are    12 symmetry adapted cartesian basis functions of A1  symmetry.
 There are     1 symmetry adapted cartesian basis functions of A2  symmetry.
 There are     5 symmetry adapted cartesian basis functions of B1  symmetry.
 There are     3 symmetry adapted cartesian basis functions of B2  symmetry.
 There are    11 symmetry adapted basis functions of A1  symmetry.
 There are     1 symmetry adapted basis functions of A2  symmetry.
 There are     5 symmetry adapted basis functions of B1  symmetry.
 There are     3 symmetry adapted basis functions of B2  symmetry.
    20 basis functions,    40 primitive gaussians,    21 cartesian basis functions
     5 alpha electrons        4 beta electrons
       nuclear repulsion energy         9.7404125072 Hartrees.
 IExCor=    0 DFT=F Ex=HF Corr=None ExCW=0 ScaHFX=  1.000000
 ScaDFX=  1.000000  1.000000  1.000000  1.000000 ScalE2=  1.000000  1.000000
 IRadAn=      5 IRanWt=     -1 IRanGd=            0 ICorTp=0 IEmpDi=  4
 NAtoms=    4 NActive=    4 NUniq=    2 SFac= 4.00D+00 NAtFMM=   60 NAOKFM=F Big=F
 Integral buffers will be    131072 words long.
 Raffenetti 2 integral format.
 Two-electron integral symmetry is turned on.
 Leave Link  301 at Wed Oct  7 12:35:11 2020, MaxMem=  2684354560 cpu:               1.7 elap:               0.6
 (Enter /udrive/faculty/rpeverati/g16/g16/l302.exe)
 NPDir=0 NMtPBC=     1 NCelOv=     1 NCel=       1 NClECP=     1 NCelD=      1
         NCelK=      1 NCelE2=     1 NClLst=     1 CellRange=     0.0.
 One-electron integrals computed using PRISM.
 One-electron integral symmetry used in STVInt
 NBasis=    20 RedAO= T EigKep=  3.07D-02  NBF=    11     1     5     3
 NBsUse=    20 1.00D-06 EigRej= -1.00D+00 NBFU=    11     1     5     3
 Leave Link  302 at Wed Oct  7 12:35:13 2020, MaxMem=  2684354560 cpu:               3.2 elap:               0.8
 (Enter /udrive/faculty/rpeverati/g16/g16/l303.exe)
 DipDrv:  MaxL=1.
 Leave Link  303 at Wed Oct  7 12:35:14 2020, MaxMem=  2684354560 cpu:               2.0 elap:               0.6
 (Enter /udrive/faculty/rpeverati/g16/g16/l401.exe)
 Initial guess from the checkpoint file:  "MN_22_ch3_lower_BH76_HF_631Gs.chk"
 SCF N**3 symmetry information disabled.
 B after Tr=     0.000000    0.000000    0.000000
         Rot=    1.000000   -0.000000    0.000000    0.000000 Ang=   0.00 deg.
 Guess basis will be translated and rotated to current coordinates.
 JPrj=2 DoOrth=T DoCkMO=T.
 Initial guess orbital symmetries:
 Alpha Orbitals:
       Occupied  (A1') (A1') (E') (E') (A2")
       Virtual   (A1') (E') (E') (E') (E') (A2") (A1') (E') (E')
                 (A1') (E") (E") (A1') (E') (E')
 Beta  Orbitals:
       Occupied  (A1') (A1') (E') (E')
       Virtual   (A2") (A1') (E') (E') (E') (E') (A2") (A1') (E')
                 (E') (A1') (E") (E") (A1') (E') (E')
 The electronic state of the initial guess is 2-A2".
 Initial guess <Sx>= 0.0000 <Sy>= 0.0000 <Sz>= 0.5000 <S**2>= 0.7616 S= 0.5058
 Leave Link  401 at Wed Oct  7 12:35:15 2020, MaxMem=  2684354560 cpu:               2.5 elap:               0.7
 (Enter /udrive/faculty/rpeverati/g16/g16/l502.exe)
 Keep R1 and R2 ints in memory in symmetry-blocked form, NReq=2494572.
 FoFCou: FMM=F IPFlag=           0 FMFlag=           0 FMFlg1=           0
         NFxFlg=           0 DoJE=F BraDBF=F KetDBF=F FulRan=T
         wScrn=  0.000000 ICntrl=       600 IOpCl=  0 I1Cent=           0 NGrid=           0
         NMat0=    1 NMatS0=    210 NMatT0=    0 NMatD0=    1 NMtDS0=    0 NMtDT0=    0
 Petite list used in FoFCou.
 UHF open shell SCF:
 Using DIIS extrapolation, IDIIS=  1040.
 NGot=  2684354560 LenX=  2684338255 LenY=  2684337373
 Requested convergence on RMS density matrix=1.00D-08 within 120 cycles.
 Requested convergence on MAX density matrix=1.00D-06.
 Requested convergence on             energy=1.00D-06.
 No special actions if energy rises.

 Cycle   1  Pass 1  IDiag  1:
 E= -39.5587310432666    
 DIIS: error= 8.94D-04 at cycle   1 NSaved=   1.
 NSaved= 1 IEnMin= 1 EnMin= -39.5587310432666     IErMin= 1 ErrMin= 8.94D-04
 ErrMax= 8.94D-04  0.00D+00 EMaxC= 1.00D-01 BMatC= 4.34D-05 BMatP= 4.34D-05
 IDIUse=3 WtCom= 9.91D-01 WtEn= 8.94D-03
 Coeff-Com:  0.100D+01
 Coeff-En:   0.100D+01
 Coeff:      0.100D+01
 Gap=     0.640 Goal=   None    Shift=    0.000
 Gap=     0.722 Goal=   None    Shift=    0.000
 RMSDP=1.72D-04 MaxDP=1.24D-03              OVMax= 1.57D-03

 Cycle   2  Pass 1  IDiag  1:
 E= -39.5587451485148     Delta-E=       -0.000014105248 Rises=F Damp=F
 DIIS: error= 3.63D-04 at cycle   2 NSaved=   2.
 NSaved= 2 IEnMin= 2 EnMin= -39.5587451485148     IErMin= 2 ErrMin= 3.63D-04
 ErrMax= 3.63D-04  0.00D+00 EMaxC= 1.00D-01 BMatC= 3.71D-06 BMatP= 4.34D-05
 IDIUse=3 WtCom= 9.96D-01 WtEn= 3.63D-03
 Coeff-Com:  0.132D+00 0.868D+00
 Coeff-En:   0.000D+00 0.100D+01
 Coeff:      0.131D+00 0.869D+00
 Gap=     0.639 Goal=   None    Shift=    0.000
 Gap=     0.722 Goal=   None    Shift=    0.000
 RMSDP=4.41D-05 MaxDP=7.03D-04 DE=-1.41D-05 OVMax= 5.58D-04

 Cycle   3  Pass 1  IDiag  1:
 E= -39.5587462119559     Delta-E=       -0.000001063441 Rises=F Damp=F
 DIIS: error= 7.66D-05 at cycle   3 NSaved=   3.
 NSaved= 3 IEnMin= 3 EnMin= -39.5587462119559     IErMin= 3 ErrMin= 7.66D-05
 ErrMax= 7.66D-05  0.00D+00 EMaxC= 1.00D-01 BMatC= 2.11D-07 BMatP= 3.71D-06
 IDIUse=1 WtCom= 1.00D+00 WtEn= 0.00D+00
 Coeff-Com: -0.569D-01-0.291D-01 0.109D+01
 Coeff:     -0.569D-01-0.291D-01 0.109D+01
 Gap=     0.639 Goal=   None    Shift=    0.000
 Gap=     0.722 Goal=   None    Shift=    0.000
 RMSDP=1.46D-05 MaxDP=1.97D-04 DE=-1.06D-06 OVMax= 1.56D-04

 Cycle   4  Pass 1  IDiag  1:
 E= -39.5587463235340     Delta-E=       -0.000000111578 Rises=F Damp=F
 DIIS: error= 3.66D-05 at cycle   4 NSaved=   4.
 NSaved= 4 IEnMin= 4 EnMin= -39.5587463235340     IErMin= 4 ErrMin= 3.66D-05
 ErrMax= 3.66D-05  0.00D+00 EMaxC= 1.00D-01 BMatC= 2.49D-08 BMatP= 2.11D-07
 IDIUse=1 WtCom= 1.00D+00 WtEn= 0.00D+00
 Coeff-Com:  0.341D-01 0.864D-02-0.778D+00 0.174D+01
 Coeff:      0.341D-01 0.864D-02-0.778D+00 0.174D+01
 Gap=     0.639 Goal=   None    Shift=    0.000
 Gap=     0.722 Goal=   None    Shift=    0.000
 RMSDP=9.20D-06 MaxDP=1.49D-04 DE=-1.12D-07 OVMax= 1.18D-04

 Cycle   5  Pass 1  IDiag  1:
 E= -39.5587463450514     Delta-E=       -0.000000021517 Rises=F Damp=F
 DIIS: error= 7.71D-06 at cycle   5 NSaved=   5.
 NSaved= 5 IEnMin= 5 EnMin= -39.5587463450514     IErMin= 5 ErrMin= 7.71D-06
 ErrMax= 7.71D-06  0.00D+00 EMaxC= 1.00D-01 BMatC= 2.24D-09 BMatP= 2.49D-08
 IDIUse=1 WtCom= 1.00D+00 WtEn= 0.00D+00
 Coeff-Com: -0.156D-01-0.532D-02 0.380D+00-0.103D+01 0.167D+01
 Coeff:     -0.156D-01-0.532D-02 0.380D+00-0.103D+01 0.167D+01
 Gap=     0.639 Goal=   None    Shift=    0.000
 Gap=     0.722 Goal=   None    Shift=    0.000
 RMSDP=3.11D-06 MaxDP=2.44D-05 DE=-2.15D-08 OVMax= 2.48D-05

 Cycle   6  Pass 1  IDiag  1:
 E= -39.5587463472072     Delta-E=       -0.000000002156 Rises=F Damp=F
 DIIS: error= 2.34D-06 at cycle   6 NSaved=   6.
 NSaved= 6 IEnMin= 6 EnMin= -39.5587463472072     IErMin= 6 ErrMin= 2.34D-06
 ErrMax= 2.34D-06  0.00D+00 EMaxC= 1.00D-01 BMatC= 2.56D-10 BMatP= 2.24D-09
 IDIUse=1 WtCom= 1.00D+00 WtEn= 0.00D+00
 Coeff-Com:  0.595D-02 0.236D-02-0.152D+00 0.458D+00-0.109D+01 0.178D+01
 Coeff:      0.595D-02 0.236D-02-0.152D+00 0.458D+00-0.109D+01 0.178D+01
 Gap=     0.639 Goal=   None    Shift=    0.000
 Gap=     0.722 Goal=   None    Shift=    0.000
 RMSDP=1.29D-06 MaxDP=8.39D-06 DE=-2.16D-09 OVMax= 1.06D-05

 Cycle   7  Pass 1  IDiag  1:
 E= -39.5587463474684     Delta-E=       -0.000000000261 Rises=F Damp=F
 DIIS: error= 3.76D-07 at cycle   7 NSaved=   7.
 NSaved= 7 IEnMin= 7 EnMin= -39.5587463474684     IErMin= 7 ErrMin= 3.76D-07
 ErrMax= 3.76D-07  0.00D+00 EMaxC= 1.00D-01 BMatC= 7.75D-12 BMatP= 2.56D-10
 IDIUse=1 WtCom= 1.00D+00 WtEn= 0.00D+00
 Coeff-Com: -0.149D-02-0.595D-03 0.388D-01-0.123D+00 0.338D+00-0.719D+00
 Coeff-Com:  0.147D+01
 Coeff:     -0.149D-02-0.595D-03 0.388D-01-0.123D+00 0.338D+00-0.719D+00
 Coeff:      0.147D+01
 Gap=     0.639 Goal=   None    Shift=    0.000
 Gap=     0.722 Goal=   None    Shift=    0.000
 RMSDP=2.37D-07 MaxDP=1.42D-06 DE=-2.61D-10 OVMax= 1.95D-06

 Cycle   8  Pass 1  IDiag  1:
 E= -39.5587463474750     Delta-E=       -0.000000000007 Rises=F Damp=F
 DIIS: error= 3.20D-08 at cycle   8 NSaved=   8.
 NSaved= 8 IEnMin= 8 EnMin= -39.5587463474750     IErMin= 8 ErrMin= 3.20D-08
 ErrMax= 3.20D-08  0.00D+00 EMaxC= 1.00D-01 BMatC= 7.00D-14 BMatP= 7.75D-12
 IDIUse=1 WtCom= 1.00D+00 WtEn= 0.00D+00
 Coeff-Com:  0.524D-03 0.207D-03-0.137D-01 0.437D-01-0.122D+00 0.266D+00
 Coeff-Com: -0.585D+00 0.141D+01
 Coeff:      0.524D-03 0.207D-03-0.137D-01 0.437D-01-0.122D+00 0.266D+00
 Coeff:     -0.585D+00 0.141D+01
 Gap=     0.639 Goal=   None    Shift=    0.000
 Gap=     0.722 Goal=   None    Shift=    0.000
 RMSDP=1.47D-08 MaxDP=9.21D-08 DE=-6.60D-12 OVMax= 1.16D-07

 Cycle   9  Pass 1  IDiag  1:
 E= -39.5587463474751     Delta-E=       -0.000000000000 Rises=F Damp=F
 DIIS: error= 5.73D-09 at cycle   9 NSaved=   9.
 NSaved= 9 IEnMin= 9 EnMin= -39.5587463474751     IErMin= 9 ErrMin= 5.73D-09
 ErrMax= 5.73D-09  0.00D+00 EMaxC= 1.00D-01 BMatC= 2.65D-15 BMatP= 7.00D-14
 IDIUse=1 WtCom= 1.00D+00 WtEn= 0.00D+00
 Coeff-Com: -0.152D-03-0.590D-04 0.400D-02-0.127D-01 0.357D-01-0.788D-01
 Coeff-Com:  0.180D+00-0.571D+00 0.144D+01
 Coeff:     -0.152D-03-0.590D-04 0.400D-02-0.127D-01 0.357D-01-0.788D-01
 Coeff:      0.180D+00-0.571D+00 0.144D+01
 Gap=     0.639 Goal=   None    Shift=    0.000
 Gap=     0.722 Goal=   None    Shift=    0.000
 RMSDP=2.29D-09 MaxDP=1.12D-08 DE=-3.55D-14 OVMax= 2.17D-08

 SCF Done:  E(UHF) =  -39.5587463475     A.U. after    9 cycles
            NFock=  9  Conv=0.23D-08     -V/T= 1.9983
 <Sx>= 0.0000 <Sy>= 0.0000 <Sz>= 0.5000 <S**2>= 0.7614 S= 0.5057
 <L.S>= 0.000000000000E+00
 KE= 3.962705787163D+01 PE=-1.113266475911D+02 EE= 2.240043086480D+01
 Annihilation of the first spin contaminant:
 S**2 before annihilation     0.7614,   after     0.7501
 Leave Link  502 at Wed Oct  7 12:35:16 2020, MaxMem=  2684354560 cpu:               9.3 elap:               1.3
 (Enter /udrive/faculty/rpeverati/g16/g16/l508.exe)
 QCSCF skips out because SCF is already converged.
 Leave Link  508 at Wed Oct  7 12:35:17 2020, MaxMem=  2684354560 cpu:               0.7 elap:               0.5
 (Enter /udrive/faculty/rpeverati/g16/g16/l701.exe)
 ... and contract with generalized density number  0.
 Compute integral first derivatives.
 Leave Link  701 at Wed Oct  7 12:35:18 2020, MaxMem=  2684354560 cpu:               3.3 elap:               0.8
 (Enter /udrive/faculty/rpeverati/g16/g16/l702.exe)
 L702 exits ... SP integral derivatives will be done elsewhere.
 Leave Link  702 at Wed Oct  7 12:35:20 2020, MaxMem=  2684354560 cpu:               1.8 elap:               0.8
 (Enter /udrive/faculty/rpeverati/g16/g16/l703.exe)
 Integral derivatives from FoFJK, PRISM(SPDF).
 Compute integral first derivatives, UseDBF=F ICtDFT=           0.
 Calling FoFJK, ICntrl=      2127 FMM=F ISym2X=1 I1Cent= 0 IOpClX= 1 NMat=1 NMatS=1 NMatT=0.
 FoFJK:  IHMeth= 1 ICntrl=    2127 DoSepK=F KAlg= 0 I1Cent=           0 FoldK=F
 IRaf=         0 NMat=       1 IRICut=       1 DoRegI=T DoRafI=F ISym2E= 1 IDoP0=0 IntGTp=1.
 FoFCou: FMM=F IPFlag=           0 FMFlag=      100000 FMFlg1=         800
         NFxFlg=           0 DoJE=F BraDBF=F KetDBF=F FulRan=T
         wScrn=  0.000000 ICntrl=      2127 IOpCl=  1 I1Cent=           0 NGrid=           0
         NMat0=    1 NMatS0=      1 NMatT0=    0 NMatD0=    1 NMtDS0=    0 NMtDT0=    0
 Petite list used in FoFCou.
 Leave Link  703 at Wed Oct  7 12:35:21 2020, MaxMem=  2684354560 cpu:               3.7 elap:               0.9
 (Enter /udrive/faculty/rpeverati/g16/g16/l716.exe)
 Dipole        = 0.00000000D+00-2.22044605D-16 6.10854984D-33
 ***** Axes restored to original set *****
 -------------------------------------------------------------------
 Center     Atomic                   Forces (Hartrees/Bohr)
 Number     Number              X              Y              Z
 -------------------------------------------------------------------
      1        6           0.000000000   -0.000000000    0.000000000
      2        1           0.000214637    0.000371762   -0.000000000
      3        1           0.000214637   -0.000371762    0.000000000
      4        1          -0.000429273   -0.000000000   -0.000000000
 -------------------------------------------------------------------
 Cartesian Forces:  Max     0.000429273 RMS     0.000214637
 Leave Link  716 at Wed Oct  7 12:35:22 2020, MaxMem=  2684354560 cpu:               1.6 elap:               0.6
 (Enter /udrive/faculty/rpeverati/g16/g16/l103.exe)

 GradGradGradGradGradGradGradGradGradGradGradGradGradGradGradGradGradGrad
 Berny optimization.
 Optmz: redundant internal coordinate code flag= 1
 Using GEDIIS/GDIIS optimizer.
 Red2BG:  D1=  8.38D-01 OD1=  9.39D-03 B2RMS=  0.00D+00 IAprox=0
 FormGI is forming the generalized inverse of G from B-inverse, IUseBI=4.
 Internal  Forces:  Max     0.000429273 RMS     0.000281025
 Search for a local minimum.
 Step number   2 out of a maximum of  100
 All quantities printed in internal units (Hartrees-Bohrs-Radians)
 RMS Force = .28103D-03 SwitMx=.10000D-02 MixMth= 2
 Mixed Optimization -- En-DIIS/RFO-DIIS
 Update second derivatives using D2CorX and points    1    2
 DE= -4.88D-05 DEPred=-5.50D-05 R= 8.88D-01
 TightC=F SS=  1.41D+00  RLast= 1.74D-02 DXNew= 5.0454D-01 5.2171D-02
 Trust test= 8.88D-01 RLast= 1.74D-02 DXMaxT set to 3.00D-01
 The second derivative matrix:
                          R1        R2        R3        A1        A2
           R1           0.37749
           R2           0.01429   0.37749
           R3           0.01429   0.01429   0.37749
           A1           0.00000   0.00000   0.00000   0.16000
           A2          -0.00000  -0.00000  -0.00000  -0.00000   0.16000
           A3          -0.00000  -0.00000  -0.00000  -0.00000   0.00000
           D1           0.00000   0.00000   0.00000   0.00000  -0.00000
                          A3        D1
           A3           0.16000
           D1          -0.00000   0.00403
 ITU=  1  0
 Use linear search instead of GDIIS.
 Eigenvectors of the second derivative matrix:
                           1         2         3         4         5
     Eigenvalues --     0.00403   0.16000   0.16000   0.36321   0.36321
   1         R1         0.00000  -0.00000  -0.00000  -0.44505   0.68454
   2         R2        -0.00000  -0.00000  -0.00000   0.81536   0.04315
   3         R3        -0.00000  -0.00000  -0.00000  -0.37031  -0.72769
   4         A1        -0.00000   0.68770   0.44015   0.00000   0.00000
   5         A2        -0.00000   0.03734  -0.81564  -0.00000   0.00000
   6         A3         0.00000  -0.72503   0.37549  -0.00000  -0.00000
   7         D1         1.00000   0.00000  -0.00000   0.00000  -0.00000
                           6
     Eigenvalues --     0.40607
   1         R1        -0.57735
   2         R2        -0.57735
   3         R3        -0.57735
   4         A1        -0.00000
   5         A2         0.00000
   6         A3         0.00000
   7         D1        -0.00000
 Iter=   1 RLamda= 0.00000000D+00 Sum=-3.59409838D-29.
 RFO step:  Lambda= 0.00000000D+00 EMin= 4.02612957D-03
 Quartic linear search produced a step of -0.10390.
 Iteration  1 RMS(Cart)=  0.00068293 RMS(Int)=  0.00000000
 Iteration  2 RMS(Cart)=  0.00000000 RMS(Int)=  0.00000000
 ITry= 1 IFail=0 DXMaxC= 1.04D-03 DCOld= 1.00D+10 DXMaxT= 3.00D-01 DXLimC= 3.00D+00 Rises=F
 ClnCor:  largest displacement from symmetrization is 9.57D-15 for atom     3.
 Variable       Old X    -DE/DX   Delta X   Delta X   Delta X     New X
                                 (Linear)    (Quad)   (Total)
    R1        2.02579   0.00043   0.00104   0.00000   0.00104   2.02684
    R2        2.02579   0.00043   0.00104  -0.00000   0.00104   2.02684
    R3        2.02579   0.00043   0.00104   0.00000   0.00104   2.02684
    A1        2.09440  -0.00000   0.00000  -0.00000   0.00000   2.09440
    A2        2.09440   0.00000   0.00000   0.00000   0.00000   2.09440
    A3        2.09440  -0.00000   0.00000  -0.00000   0.00000   2.09440
    D1        3.14159   0.00000   0.00000   0.00000   0.00000   3.14159
         Item               Value     Threshold  Converged?
 Maximum Force            0.000429     0.000450     YES
 RMS     Force            0.000281     0.000300     YES
 Maximum Displacement     0.001043     0.001800     YES
 RMS     Displacement     0.000683     0.001200     YES
 Predicted change in Energy=-6.805848D-07
 Optimization completed.
    -- Stationary point found.
                           ----------------------------
                           !   Optimized Parameters   !
                           ! (Angstroms and Degrees)  !
 --------------------------                            --------------------------
 ! Name  Definition              Value          Derivative Info.                !
 --------------------------------------------------------------------------------
 ! R1    R(1,2)                  1.072          -DE/DX =    0.0004              !
 ! R2    R(1,3)                  1.072          -DE/DX =    0.0004              !
 ! R3    R(1,4)                  1.072          -DE/DX =    0.0004              !
 ! A1    A(2,1,3)              120.0            -DE/DX =    0.0                 !
 ! A2    A(2,1,4)              120.0            -DE/DX =    0.0                 !
 ! A3    A(3,1,4)              120.0            -DE/DX =    0.0                 !
 ! D1    D(2,1,4,3)            180.0            -DE/DX =    0.0                 !
 --------------------------------------------------------------------------------
 Lowest energy point so far.  Saving SCF results.
 Largest change from initial coordinates is atom    3       0.005 Angstoms.
 GradGradGradGradGradGradGradGradGradGradGradGradGradGradGradGradGradGrad

 Leave Link  103 at Wed Oct  7 12:35:23 2020, MaxMem=  2684354560 cpu:               2.3 elap:               0.6
 (Enter /udrive/faculty/rpeverati/g16/g16/l202.exe)
                          Input orientation:                          
 ---------------------------------------------------------------------
 Center     Atomic      Atomic             Coordinates (Angstroms)
 Number     Number       Type             X           Y           Z
 ---------------------------------------------------------------------
      1          6           0        0.000000    0.000000    0.000000
      2          1           0        0.536002    0.928382    0.000000
      3          1           0        0.536002   -0.928382    0.000000
      4          1           0       -1.072003    0.000000    0.000000
 ---------------------------------------------------------------------
                    Distance matrix (angstroms):
                    1          2          3          4
     1  C    0.000000
     2  H    1.072003   0.000000
     3  H    1.072003   1.856764   0.000000
     4  H    1.072003   1.856764   1.856764   0.000000
 Stoichiometry    CH3(2)
 Framework group  D3H[O(C),3C2(H)]
 Deg. of freedom     1
 Full point group                 D3H     NOp  12
 RotChk:  IX=0 Diff= 1.57D-16
 Largest Abelian subgroup         C2V     NOp   4
 Largest concise Abelian subgroup C2      NOp   2
                         Standard orientation:                         
 ---------------------------------------------------------------------
 Center     Atomic      Atomic             Coordinates (Angstroms)
 Number     Number       Type             X           Y           Z
 ---------------------------------------------------------------------
      1          6           0        0.000000    0.000000    0.000000
      2          1           0        0.000000    1.072003    0.000000
      3          1           0        0.928382   -0.536002    0.000000
      4          1           0       -0.928382   -0.536002    0.000000
 ---------------------------------------------------------------------
 Rotational constants (GHZ):         290.9033890         290.9033890         145.4516945
 Leave Link  202 at Wed Oct  7 12:35:24 2020, MaxMem=  2684354560 cpu:               1.8 elap:               0.6
 (Enter /udrive/faculty/rpeverati/g16/g16/l601.exe)
 Copying SCF densities to generalized density rwf, IOpCl= 1 IROHF=0.

 **********************************************************************

            Population analysis using the SCF density.

 **********************************************************************

 Orbital symmetries:
 Alpha Orbitals:
       Occupied  (A1') (A1') (E') (E') (A2")
       Virtual   (A1') (E') (E') (E') (E') (A2") (A1') (E') (E')
                 (A1') (E") (E") (A1') (E') (E')
 Beta  Orbitals:
       Occupied  (A1') (A1') (E') (E')
       Virtual   (A2") (A1') (E') (E') (E') (E') (A2") (A1') (E')
                 (E') (A1') (E") (E") (A1') (E') (E')
 The electronic state is 2-A2".
 Alpha  occ. eigenvalues --  -11.22476  -0.94767  -0.57952  -0.57952  -0.38330
 Alpha virt. eigenvalues --    0.25609   0.33188   0.33188   0.73718   0.73718
 Alpha virt. eigenvalues --    0.74674   0.89912   1.20992   1.20992   1.21605
 Alpha virt. eigenvalues --    1.92356   1.92356   2.33158   2.53228   2.53228
  Beta  occ. eigenvalues --  -11.20022  -0.85416  -0.56480  -0.56480
  Beta virt. eigenvalues --    0.15717   0.28154   0.34081   0.34081   0.74849
  Beta virt. eigenvalues --    0.74849   0.89542   0.94649   1.21905   1.21905
  Beta virt. eigenvalues --    1.25245   2.02277   2.02277   2.41950   2.54827
  Beta virt. eigenvalues --    2.54827
          Condensed to atoms (all electrons):
               1          2          3          4
     1  C    5.385946   0.383217   0.383217   0.383217
     2  H    0.383217   0.492246  -0.026998  -0.026998
     3  H    0.383217  -0.026998   0.492246  -0.026998
     4  H    0.383217  -0.026998  -0.026998   0.492246
          Atomic-Atomic Spin Densities.
               1          2          3          4
     1  C    1.345998  -0.017641  -0.017641  -0.017641
     2  H   -0.017641  -0.083180   0.001565   0.001565
     3  H   -0.017641   0.001565  -0.083180   0.001565
     4  H   -0.017641   0.001565   0.001565  -0.083180
 Mulliken charges and spin densities:
               1          2
     1  C   -0.535598   1.293075
     2  H    0.178533  -0.097692
     3  H    0.178533  -0.097692
     4  H    0.178533  -0.097692
 Sum of Mulliken charges =  -0.00000   1.00000
 Mulliken charges and spin densities with hydrogens summed into heavy atoms:
               1          2
     1  C   -0.000000   1.000000
 Electronic spatial extent (au):  <R**2>=             29.3656
 Charge=             -0.0000 electrons
 Dipole moment (field-independent basis, Debye):
    X=             -0.0000    Y=              0.0000    Z=              0.0000  Tot=              0.0000
 Quadrupole moment (field-independent basis, Debye-Ang):
   XX=             -7.1133   YY=             -7.1133   ZZ=             -8.7117
   XY=             -0.0000   XZ=             -0.0000   YZ=              0.0000
 Traceless Quadrupole moment (field-independent basis, Debye-Ang):
   XX=              0.5328   YY=              0.5328   ZZ=             -1.0655
   XY=             -0.0000   XZ=             -0.0000   YZ=              0.0000
 Octapole moment (field-independent basis, Debye-Ang**2):
  XXX=              0.0000  YYY=              0.7971  ZZZ=             -0.0000  XYY=              0.0000
  XXY=             -0.7971  XXZ=             -0.0000  XZZ=              0.0000  YZZ=              0.0000
  YYZ=              0.0000  XYZ=              0.0000
 Hexadecapole moment (field-independent basis, Debye-Ang**3):
 XXXX=            -13.9029 YYYY=            -13.9029 ZZZZ=             -9.1356 XXXY=              0.0000
 XXXZ=             -0.0000 YYYX=             -0.0000 YYYZ=              0.0000 ZZZX=             -0.0000
 ZZZY=              0.0000 XXYY=             -4.6343 XXZZ=             -4.1701 YYZZ=             -4.1701
 XXYZ=              0.0000 YYXZ=             -0.0000 ZZXY=              0.0000
 N-N= 9.740412507197D+00 E-N=-1.113266475965D+02  KE= 3.962705787163D+01
                          Isotropic Fermi Contact Couplings
        Atom                 a.u.       MegaHertz       Gauss      10(-4) cm-1
     1  C(13)              0.23057     259.19945      92.48881      86.45963
     2  H(1)              -0.03009    -134.50950     -47.99633     -44.86754
     3  H(1)              -0.03009    -134.50950     -47.99633     -44.86754
     4  H(1)              -0.03009    -134.50950     -47.99633     -44.86754
 --------------------------------------------------------
       Center         ----  Spin Dipole Couplings  ----
                      3XX-RR        3YY-RR        3ZZ-RR
 --------------------------------------------------------
     1   Atom       -0.526972     -0.526972      1.053944
     2   Atom       -0.078707      0.086196     -0.007488
     3   Atom        0.044970     -0.037482     -0.007488
     4   Atom        0.044970     -0.037482     -0.007488
 --------------------------------------------------------
                        XY            XZ            YZ
 --------------------------------------------------------
     1   Atom        0.000000      0.000000      0.000000
     2   Atom       -0.000000      0.000000      0.000000
     3   Atom       -0.071405      0.000000      0.000000
     4   Atom        0.071405      0.000000      0.000000
 --------------------------------------------------------


 ---------------------------------------------------------------------------------
              Anisotropic Spin Dipole Couplings in Principal Axis System
 ---------------------------------------------------------------------------------

       Atom             a.u.   MegaHertz   Gauss  10(-4) cm-1        Axes

              Baa    -0.5270   -70.715   -25.233   -23.588 -0.5783  0.8158  0.0000
     1 C(13)  Bbb    -0.5270   -70.715   -25.233   -23.588  0.8158  0.5783  0.0000
              Bcc     1.0539   141.429    50.465    47.176  0.0000  0.0000  1.0000
 
              Baa    -0.0787   -41.995   -14.985   -14.008  1.0000  0.0000  0.0000
     2 H(1)   Bbb    -0.0075    -3.995    -1.426    -1.333  0.0000  0.0000  1.0000
              Bcc     0.0862    45.990    16.410    15.341 -0.0000  1.0000  0.0000
 
              Baa    -0.0787   -41.995   -14.985   -14.008  0.5000  0.8660  0.0000
     3 H(1)   Bbb    -0.0075    -3.995    -1.426    -1.333  0.0000  0.0000  1.0000
              Bcc     0.0862    45.990    16.410    15.341  0.8660 -0.5000  0.0000
 
              Baa    -0.0787   -41.995   -14.985   -14.008 -0.5000  0.8660  0.0000
     4 H(1)   Bbb    -0.0075    -3.995    -1.426    -1.333  0.0000  0.0000  1.0000
              Bcc     0.0862    45.990    16.410    15.341  0.8660  0.5000  0.0000
 

 ---------------------------------------------------------------------------------

 No NMR shielding tensors so no spin-rotation constants.
 Leave Link  601 at Wed Oct  7 12:35:26 2020, MaxMem=  2684354560 cpu:               5.5 elap:               1.0
 (Enter /udrive/faculty/rpeverati/g16/g16/l9999.exe)

 Test job not archived.
 1\1\GINC-NODE56\FOpt\UHF\6-31G(d)\C1H3(2)\RPEVERATI\07-Oct-2020\0\\#P 
 Opt(MaxCyc=100) HF/6-31G* 5D 7F Integral=UltraFineGrid SCF=(NoSymm,XQC
 ,MaxCyc=120) IOp(1/33=1)\\TS search on BH76.\\0,2\C,0.,0.,0.\H,0.53600
 15094,0.9283818472,0.\H,0.5360015094,-0.9283818472,0.\H,-1.0720030188,
 0.,0.\\Version=ES64L-G16RevA.03\State=2-A2"\HF=-39.5587463\S2=0.761442
 \S2-1=0.\S2A=0.750074\RMSD=2.288e-09\RMSF=2.146e-04\Dipole=0.,0.,0.\Qu
 adrupole=0.3961029,0.3961029,-0.7922058,0.,0.,0.\PG=D03H [O(C1),3C2(H1
 )]\\@


 MAN IS A SINGULAR CREATURE.  HE HAS A SET OF GIFTS
 WHICH MAKE HIM UNIQUE AMONG THE ANIMALS: SO THAT, 
 UNLIKE THEM, HE IS NOT A FIGURE IN THE LANDSCAPE --
 HE IS A SHAPER OF THE LANDSCAPE.

                       -- JACOB BRONOWSKI
 Job cpu time:       0 days  0 hours  2 minutes  4.1 seconds.
 Elapsed time:       0 days  0 hours  0 minutes 24.7 seconds.
 File lengths (MBytes):  RWF=      5 Int=      0 D2E=      0 Chk=      1 Scr=      1
 Normal termination of Gaussian 16 at Wed Oct  7 12:35:27 2020.
