 Entering Gaussian System, Link 0=g16
 Input=MN_21_ch3fclts_BH76_HF_631Gs.in
 Output=MN_21_ch3fclts_BH76_HF_631Gs.log
 Initial command:
 /udrive/faculty/rpeverati/g16/g16/l1.exe "/udrive/scratch-directories/gaussian09/rpeverati/Gau-31599.inp" -scrdir="/udrive/scratch-directories/gaussian09/rpeverati/"
 Entering Link 1 = /udrive/faculty/rpeverati/g16/g16/l1.exe PID=     31620.
  
 Copyright (c) 1988,1990,1992,1993,1995,1998,2003,2009,2016,
            Gaussian, Inc.  All Rights Reserved.
  
 This is part of the Gaussian(R) 16 program.  It is based on
 the Gaussian(R) 09 system (copyright 2009, Gaussian, Inc.),
 the Gaussian(R) 03 system (copyright 2003, Gaussian, Inc.),
 the Gaussian(R) 98 system (copyright 1998, Gaussian, Inc.),
 the Gaussian(R) 94 system (copyright 1995, Gaussian, Inc.),
 the Gaussian 92(TM) system (copyright 1992, Gaussian, Inc.),
 the Gaussian 90(TM) system (copyright 1990, Gaussian, Inc.),
 the Gaussian 88(TM) system (copyright 1988, Gaussian, Inc.),
 the Gaussian 86(TM) system (copyright 1986, Carnegie Mellon
 University), and the Gaussian 82(TM) system (copyright 1983,
 Carnegie Mellon University). Gaussian is a federally registered
 trademark of Gaussian, Inc.
  
 This software contains proprietary and confidential information,
 including trade secrets, belonging to Gaussian, Inc.
  
 This software is provided under written license and may be
 used, copied, transmitted, or stored only in accord with that
 written license.
  
 The following legend is applicable only to US Government
 contracts under FAR:
  
                    RESTRICTED RIGHTS LEGEND
  
 Use, reproduction and disclosure by the US Government is
 subject to restrictions as set forth in subparagraphs (a)
 and (c) of the Commercial Computer Software - Restricted
 Rights clause in FAR 52.227-19.
  
 Gaussian, Inc.
 340 Quinnipiac St., Bldg. 40, Wallingford CT 06492
  
  
 ---------------------------------------------------------------
 Warning -- This program may not be used in any manner that
 competes with the business of Gaussian, Inc. or will provide
 assistance to any competitor of Gaussian, Inc.  The licensee
 of this program is prohibited from giving any competitor of
 Gaussian, Inc. access to this program.  By using this program,
 the user acknowledges that Gaussian, Inc. is engaged in the
 business of creating and licensing software in the field of
 computational chemistry and represents and warrants to the
 licensee that it is not a competitor of Gaussian, Inc. and that
 it will not use this program in any manner prohibited above.
 ---------------------------------------------------------------
  

 Cite this work as:
 Gaussian 16, Revision A.03,
 M. J. Frisch, G. W. Trucks, H. B. Schlegel, G. E. Scuseria, 
 M. A. Robb, J. R. Cheeseman, G. Scalmani, V. Barone, 
 G. A. Petersson, H. Nakatsuji, X. Li, M. Caricato, A. V. Marenich, 
 J. Bloino, B. G. Janesko, R. Gomperts, B. Mennucci, H. P. Hratchian, 
 J. V. Ortiz, A. F. Izmaylov, J. L. Sonnenberg, D. Williams-Young, 
 F. Ding, F. Lipparini, F. Egidi, J. Goings, B. Peng, A. Petrone, 
 T. Henderson, D. Ranasinghe, V. G. Zakrzewski, J. Gao, N. Rega, 
 G. Zheng, W. Liang, M. Hada, M. Ehara, K. Toyota, R. Fukuda, 
 J. Hasegawa, M. Ishida, T. Nakajima, Y. Honda, O. Kitao, H. Nakai, 
 T. Vreven, K. Throssell, J. A. Montgomery, Jr., J. E. Peralta, 
 F. Ogliaro, M. J. Bearpark, J. J. Heyd, E. N. Brothers, K. N. Kudin, 
 V. N. Staroverov, T. A. Keith, R. Kobayashi, J. Normand, 
 K. Raghavachari, A. P. Rendell, J. C. Burant, S. S. Iyengar, 
 J. Tomasi, M. Cossi, J. M. Millam, M. Klene, C. Adamo, R. Cammi, 
 J. W. Ochterski, R. L. Martin, K. Morokuma, O. Farkas, 
 J. B. Foresman, and D. J. Fox, Gaussian, Inc., Wallingford CT, 2016.
 
 ******************************************
 Gaussian 16:  ES64L-G16RevA.03 25-Dec-2016
                 7-Oct-2020 
 ******************************************
 %NoSave
 %nproc=12
 Will use up to   12 processors via shared memory.
 %mem=20GB
 %chk=MN_21_ch3fclts_BH76_HF_631Gs
 ----------------------------------------------------------------------
 #P Opt(TS,MaxCyc=150,NoEigenTest,MaxStep=10,AddRedundant) HF/6-31G* 5D
  7F Integral=UltraFineGrid SCF=(NoSymm,XQC,MaxCyc=120) IOp(1/33=1)
 ----------------------------------------------------------------------
 1/5=1,6=150,8=10,11=1,18=120,33=1,38=1/1,3;
 2/9=110,12=2,17=6,18=5,40=1/2;
 3/5=1,6=6,7=1,8=11,11=9,25=1,30=1,71=1,75=-5/1,2,3;
 4/9=2/1;
 5/5=2,7=120,8=3,13=1,38=5/2,8;
 6/7=2,8=2,9=2,10=2,28=1/1;
 7//1,2,3,16;
 1/5=1,6=150,8=10,11=1,18=20,33=1/3(2);
 2/9=110/2;
 99//99;
 2/9=110/2;
 3/5=1,6=6,7=1,8=11,11=9,25=1,30=1,71=1,75=-5/1,2,3;
 4/5=5,9=2,16=3,69=1/1;
 5/5=2,7=120,8=3,13=1,38=5/2,8;
 7//1,2,3,16;
 1/5=1,6=150,8=10,11=1,18=20,33=1/3(-5);
 2/9=110/2;
 6/7=2,8=2,9=2,10=2,19=2,28=1/1;
 99/9=1/99;
 Leave Link    1 at Wed Oct  7 12:34:42 2020, MaxMem=  2684354560 cpu:               6.0 elap:               0.6
 (Enter /udrive/faculty/rpeverati/g16/g16/l101.exe)
 ONIOM data not found on unit 2.
 ------------------
 TS search on BH76.
 ------------------
 TstMul:  ICh=     0
 TstMul:  Mul=     2
 TstMul:  ICh=     0
 TstMul:  Mul=     2
 Symbolic Z-matrix:
 Charge =  0 Multiplicity = 2
 Cl                    1.45475  -0.00124  -0.00004 
 F                    -0.32359   0.00463   0.00012 
 C                    -2.38742  -0.00215  -0.00007 
 H                    -2.49509  -0.85536  -0.64941 
 H                    -2.49731  -0.13867   1.06314 
 H                    -2.50154   0.98627  -0.41373 
 
 RdStrC is calling ZToCFu for IStruc=1 NZ=     6.
 PrtBox:  NBox=     1 Levels=  1 BoxLen=    8.00 SMaxX=        7.48
          Shift=            4.727220            1.616400            1.227200
 Box      1 Number                   0 centers from      1 to      6:
 After GenITR:
 ITRead=  0  0  0  0  0  0
 MicOpt= -1 -1 -1 -1 -1 -1
 Add virtual bond connecting atoms C3         and F2         Dist= 3.90D+00.
 The following ModRedundant input section has been read:
 
 ITRead=  0  0  0  0  0  0
 MicOpt= -1 -1 -1 -1 -1 -1
 NAtoms=      6 NQM=        6 NQMF=       0 NMMI=      0 NMMIF=      0
                NMic=       0 NMicF=      0.
                    Isotopes and Nuclear Properties:
 (Nuclear quadrupole moments (NQMom) in fm**2, nuclear magnetic moments (NMagM)
  in nuclear magnetons)

  Atom         1           2           3           4           5           6
 IAtWgt=          35          19          12           1           1           1
 AtmWgt=  34.9688527  18.9984033  12.0000000   1.0078250   1.0078250   1.0078250
 NucSpn=           3           1           0           1           1           1
 AtZEff=   0.0000000   0.0000000   0.0000000   0.0000000   0.0000000   0.0000000
 NQMom=   -8.1650000   0.0000000   0.0000000   0.0000000   0.0000000   0.0000000
 NMagM=    0.8218740   2.6288670   0.0000000   2.7928460   2.7928460   2.7928460
 AtZNuc=  17.0000000   9.0000000   6.0000000   1.0000000   1.0000000   1.0000000
 No MM parameters found.
 Leave Link  101 at Wed Oct  7 12:34:43 2020, MaxMem=  2684354560 cpu:               5.6 elap:               0.6
 (Enter /udrive/faculty/rpeverati/g16/g16/l103.exe)

 GradGradGradGradGradGradGradGradGradGradGradGradGradGradGradGradGradGrad
 Berny optimization.
 Optmz: redundant internal coordinate code flag= 1
 Initialization pass.
                           ----------------------------
                           !    Initial Parameters    !
                           ! (Angstroms and Degrees)  !
 --------------------------                            --------------------------
 ! Name  Definition              Value          Derivative Info.                !
 --------------------------------------------------------------------------------
 ! R1    R(1,2)                  1.7783         estimate D2E/DX2                !
 ! R2    R(2,3)                  2.0638         estimate D2E/DX2                !
 ! R3    R(3,4)                  1.0776         estimate D2E/DX2                !
 ! R4    R(3,5)                  1.0776         estimate D2E/DX2                !
 ! R5    R(3,6)                  1.0775         estimate D2E/DX2                !
 ! A1    A(2,3,4)               95.8873         estimate D2E/DX2                !
 ! A2    A(2,3,5)               95.872          estimate D2E/DX2                !
 ! A3    A(2,3,6)               95.9078         estimate D2E/DX2                !
 ! A4    A(4,3,5)              118.9501         estimate D2E/DX2                !
 ! A5    A(4,3,6)              118.972          estimate D2E/DX2                !
 ! A6    A(5,3,6)              118.96           estimate D2E/DX2                !
 ! A7    L(1,2,3,5,-1)         179.9603         estimate D2E/DX2                !
 ! A8    L(1,2,3,5,-2)         180.8481         estimate D2E/DX2                !
 ! D1    D(4,3,6,5)            159.844          estimate D2E/DX2                !
 --------------------------------------------------------------------------------
 Maximum allowed force set to 1.00D+20.
 Trust Radius=1.00D-01 FncErr=1.00D-07 GrdErr=1.00D-07 EigMax=2.50D+02 EigMin=1.00D-04
 Number of steps in this run=    100 maximum allowed number of steps=    100.
 Search for a saddle point of order  1.
 GradGradGradGradGradGradGradGradGradGradGradGradGradGradGradGradGradGrad

 Leave Link  103 at Wed Oct  7 12:34:43 2020, MaxMem=  2684354560 cpu:               0.7 elap:               0.5
 (Enter /udrive/faculty/rpeverati/g16/g16/l202.exe)
                          Input orientation:                          
 ---------------------------------------------------------------------
 Center     Atomic      Atomic             Coordinates (Angstroms)
 Number     Number       Type             X           Y           Z
 ---------------------------------------------------------------------
      1         17           0        1.454750   -0.001237   -0.000040
      2          9           0       -0.323587    0.004631    0.000124
      3          6           0       -2.387420   -0.002147   -0.000073
      4          1           0       -2.495086   -0.855362   -0.649406
      5          1           0       -2.497314   -0.138673    1.063138
      6          1           0       -2.501537    0.986270   -0.413734
 ---------------------------------------------------------------------
                    Distance matrix (angstroms):
                    1          2          3          4          5
     1  Cl   0.000000
     2  F    1.778347   0.000000
     3  C    3.842171   2.063844   0.000000
     4  H    4.092972   2.424229   1.077591   0.000000
     5  H    4.094881   2.423969   1.077559   1.856463   0.000000
     6  H    4.098600   2.424533   1.077546   1.856661   1.856520
                    6
     6  H    0.000000
 Stoichiometry    CH3ClF(2)
 Framework group  C1[X(CH3ClF)]
 Deg. of freedom    12
 Full point group                 C1      NOp   1
 Largest Abelian subgroup         C1      NOp   1
 Largest concise Abelian subgroup C1      NOp   1
                         Standard orientation:                         
 ---------------------------------------------------------------------
 Center     Atomic      Atomic             Coordinates (Angstroms)
 Number     Number       Type             X           Y           Z
 ---------------------------------------------------------------------
      1         17           0        1.454750   -0.001237   -0.000035
      2          9           0       -0.323588    0.004631    0.000108
      3          6           0       -2.387420   -0.002147   -0.000065
      4          1           0       -2.495087   -0.857681   -0.646340
      5          1           0       -2.497315   -0.134867    1.063628
      6          1           0       -2.501538    0.984782   -0.417262
 ---------------------------------------------------------------------
 Rotational constants (GHZ):         145.4640404           3.0826808           3.0826629
 Leave Link  202 at Wed Oct  7 12:34:44 2020, MaxMem=  2684354560 cpu:               1.9 elap:               0.7
 (Enter /udrive/faculty/rpeverati/g16/g16/l301.exe)
 Standard basis: 6-31G(d) (5D, 7F)
 Ernie: Thresh=  0.10000D-02 Tol=  0.10000D-05 Strict=F.
 There are    55 symmetry adapted cartesian basis functions of A   symmetry.
 There are    52 symmetry adapted basis functions of A   symmetry.
    52 basis functions,   120 primitive gaussians,    55 cartesian basis functions
    18 alpha electrons       17 beta electrons
       nuclear repulsion energy        95.5999177823 Hartrees.
 IExCor=    0 DFT=F Ex=HF Corr=None ExCW=0 ScaHFX=  1.000000
 ScaDFX=  1.000000  1.000000  1.000000  1.000000 ScalE2=  1.000000  1.000000
 IRadAn=      5 IRanWt=     -1 IRanGd=            0 ICorTp=0 IEmpDi=  4
 NAtoms=    6 NActive=    6 NUniq=    6 SFac= 1.00D+00 NAtFMM=   60 NAOKFM=F Big=F
 Integral buffers will be    131072 words long.
 Raffenetti 2 integral format.
 Two-electron integral symmetry is turned on.
 Leave Link  301 at Wed Oct  7 12:34:45 2020, MaxMem=  2684354560 cpu:               2.2 elap:               0.5
 (Enter /udrive/faculty/rpeverati/g16/g16/l302.exe)
 NPDir=0 NMtPBC=     1 NCelOv=     1 NCel=       1 NClECP=     1 NCelD=      1
         NCelK=      1 NCelE2=     1 NClLst=     1 CellRange=     0.0.
 One-electron integrals computed using PRISM.
 One-electron integral symmetry used in STVInt
 NBasis=    52 RedAO= T EigKep=  2.48D-02  NBF=    52
 NBsUse=    52 1.00D-06 EigRej= -1.00D+00 NBFU=    52
 Leave Link  302 at Wed Oct  7 12:34:46 2020, MaxMem=  2684354560 cpu:               3.3 elap:               0.6
 (Enter /udrive/faculty/rpeverati/g16/g16/l303.exe)
 DipDrv:  MaxL=1.
 Leave Link  303 at Wed Oct  7 12:34:47 2020, MaxMem=  2684354560 cpu:               1.6 elap:               0.5
 (Enter /udrive/faculty/rpeverati/g16/g16/l401.exe)
 SCF N**3 symmetry information disabled.
 ExpMin= 1.43D-01 ExpMax= 2.52D+04 ExpMxC= 3.78D+03 IAcc=3 IRadAn=         5 AccDes= 0.00D+00
 Harris functional with IExCor=  205 and IRadAn=       5 diagonalized for initial guess.
 HarFok:  IExCor=  205 AccDes= 0.00D+00 IRadAn=         5 IDoV= 1 UseB2=F ITyADJ=14
 ICtDFT=  3500011 ScaDFX=  1.000000  1.000000  1.000000  1.000000
 FoFCou: FMM=F IPFlag=           0 FMFlag=      100000 FMFlg1=           0
         NFxFlg=           0 DoJE=T BraDBF=F KetDBF=T FulRan=T
         wScrn=  0.000000 ICntrl=       500 IOpCl=  0 I1Cent=   200000004 NGrid=           0
         NMat0=    1 NMatS0=      1 NMatT0=    0 NMatD0=    1 NMtDS0=    0 NMtDT0=    0
 Petite list used in FoFCou.
 Harris En= -597.963783735956    
 JPrj=0 DoOrth=F DoCkMO=F.
 Initial guess <Sx>= 0.0000 <Sy>= 0.0000 <Sz>= 0.5000 <S**2>= 0.7500 S= 0.5000
 Leave Link  401 at Wed Oct  7 12:34:48 2020, MaxMem=  2684354560 cpu:               6.0 elap:               0.9
 (Enter /udrive/faculty/rpeverati/g16/g16/l502.exe)
 Keep R1 and R2 ints in memory in canonical form, NReq=4392675.
 FoFCou: FMM=F IPFlag=           0 FMFlag=           0 FMFlg1=           0
         NFxFlg=           0 DoJE=F BraDBF=F KetDBF=F FulRan=T
         wScrn=  0.000000 ICntrl=       600 IOpCl=  0 I1Cent=           0 NGrid=           0
         NMat0=    1 NMatS0=   1378 NMatT0=    0 NMatD0=    1 NMtDS0=    0 NMtDT0=    0
 Symmetry not used in FoFCou.
 Two-electron integral symmetry not used.
 UHF open shell SCF:
 Using DIIS extrapolation, IDIIS=  1040.
 NGot=  2684354560 LenX=  2682446829 LenY=  2682443363
 Requested convergence on RMS density matrix=1.00D-08 within 120 cycles.
 Requested convergence on MAX density matrix=1.00D-06.
 Requested convergence on             energy=1.00D-06.
 No special actions if energy rises.

 Cycle   1  Pass 1  IDiag  1:
 E= -598.235143270190    
 DIIS: error= 5.50D-02 at cycle   1 NSaved=   1.
 NSaved= 1 IEnMin= 1 EnMin= -598.235143270190     IErMin= 1 ErrMin= 5.50D-02
 ErrMax= 5.50D-02  0.00D+00 EMaxC= 1.00D-01 BMatC= 5.65D-01 BMatP= 5.65D-01
 IDIUse=3 WtCom= 4.50D-01 WtEn= 5.50D-01
 Coeff-Com:  0.100D+01
 Coeff-En:   0.100D+01
 Coeff:      0.100D+01
 Gap=     0.255 Goal=   None    Shift=    0.000
 Gap=     0.736 Goal=   None    Shift=    0.000
 GapD=    0.255 DampG=1.000 DampE=0.500 DampFc=0.5000 IDamp=-1.
 Damping current iteration by 5.00D-01
 RMSDP=7.40D-03 MaxDP=1.58D-01              OVMax= 2.13D-01

 Cycle   2  Pass 1  IDiag  1:
 E= -598.290487921518     Delta-E=       -0.055344651328 Rises=F Damp=T
 DIIS: error= 1.84D-02 at cycle   2 NSaved=   2.
 NSaved= 2 IEnMin= 2 EnMin= -598.290487921518     IErMin= 2 ErrMin= 1.84D-02
 ErrMax= 1.84D-02  0.00D+00 EMaxC= 1.00D-01 BMatC= 1.00D-01 BMatP= 5.65D-01
 IDIUse=3 WtCom= 8.16D-01 WtEn= 1.84D-01
 Coeff-Com: -0.492D+00 0.149D+01
 Coeff-En:   0.000D+00 0.100D+01
 Coeff:     -0.401D+00 0.140D+01
 Gap=     0.338 Goal=   None    Shift=    0.000
 Gap=     0.625 Goal=   None    Shift=    0.000
 RMSDP=2.08D-03 MaxDP=3.60D-02 DE=-5.53D-02 OVMax= 1.02D-01

 Cycle   3  Pass 1  IDiag  1:
 E= -598.343189298385     Delta-E=       -0.052701376867 Rises=F Damp=F
 DIIS: error= 5.71D-03 at cycle   3 NSaved=   3.
 NSaved= 3 IEnMin= 3 EnMin= -598.343189298385     IErMin= 3 ErrMin= 5.71D-03
 ErrMax= 5.71D-03  0.00D+00 EMaxC= 1.00D-01 BMatC= 5.84D-03 BMatP= 1.00D-01
 IDIUse=3 WtCom= 9.43D-01 WtEn= 5.71D-02
 Coeff-Com: -0.103D+00 0.162D+00 0.941D+00
 Coeff-En:   0.000D+00 0.000D+00 0.100D+01
 Coeff:     -0.971D-01 0.153D+00 0.944D+00
 Gap=     0.362 Goal=   None    Shift=    0.000
 Gap=     0.501 Goal=   None    Shift=    0.000
 RMSDP=8.91D-04 MaxDP=2.67D-02 DE=-5.27D-02 OVMax= 4.54D-02

 Cycle   4  Pass 1  IDiag  1:
 E= -598.346905812586     Delta-E=       -0.003716514200 Rises=F Damp=F
 DIIS: error= 3.90D-03 at cycle   4 NSaved=   4.
 NSaved= 4 IEnMin= 4 EnMin= -598.346905812586     IErMin= 4 ErrMin= 3.90D-03
 ErrMax= 3.90D-03  0.00D+00 EMaxC= 1.00D-01 BMatC= 3.05D-03 BMatP= 5.84D-03
 IDIUse=3 WtCom= 9.61D-01 WtEn= 3.90D-02
 Coeff-Com: -0.152D-01-0.410D-02 0.302D+00 0.717D+00
 Coeff-En:   0.000D+00 0.000D+00 0.000D+00 0.100D+01
 Coeff:     -0.146D-01-0.394D-02 0.290D+00 0.728D+00
 Gap=     0.371 Goal=   None    Shift=    0.000
 Gap=     0.501 Goal=   None    Shift=    0.000
 RMSDP=5.16D-04 MaxDP=1.18D-02 DE=-3.72D-03 OVMax= 1.93D-02

 Cycle   5  Pass 1  IDiag  1:
 E= -598.348750794260     Delta-E=       -0.001844981674 Rises=F Damp=F
 DIIS: error= 3.54D-03 at cycle   5 NSaved=   5.
 NSaved= 5 IEnMin= 5 EnMin= -598.348750794260     IErMin= 5 ErrMin= 3.54D-03
 ErrMax= 3.54D-03  0.00D+00 EMaxC= 1.00D-01 BMatC= 1.81D-03 BMatP= 3.05D-03
 IDIUse=3 WtCom= 9.65D-01 WtEn= 3.54D-02
 Coeff-Com:  0.248D-01-0.107D-01-0.515D+00-0.734D+00 0.223D+01
 Coeff-En:   0.000D+00 0.000D+00 0.000D+00 0.000D+00 0.100D+01
 Coeff:      0.240D-01-0.103D-01-0.496D+00-0.708D+00 0.219D+01
 Gap=     0.402 Goal=   None    Shift=    0.000
 Gap=     0.504 Goal=   None    Shift=    0.000
 RMSDP=1.35D-03 MaxDP=3.27D-02 DE=-1.84D-03 OVMax= 6.26D-02

 Cycle   6  Pass 1  IDiag  1:
 E= -598.352579156703     Delta-E=       -0.003828362443 Rises=F Damp=F
 DIIS: error= 2.47D-03 at cycle   6 NSaved=   6.
 NSaved= 6 IEnMin= 6 EnMin= -598.352579156703     IErMin= 6 ErrMin= 2.47D-03
 ErrMax= 2.47D-03  0.00D+00 EMaxC= 1.00D-01 BMatC= 9.52D-04 BMatP= 1.81D-03
 IDIUse=3 WtCom= 9.75D-01 WtEn= 2.47D-02
 Coeff-Com: -0.373D-01 0.527D-01 0.572D+00 0.364D+00-0.267D+01 0.272D+01
 Coeff-En:   0.000D+00 0.000D+00 0.000D+00 0.000D+00 0.000D+00 0.100D+01
 Coeff:     -0.364D-01 0.514D-01 0.558D+00 0.355D+00-0.261D+01 0.268D+01
 Gap=     0.433 Goal=   None    Shift=    0.000
 Gap=     0.506 Goal=   None    Shift=    0.000
 RMSDP=1.63D-03 MaxDP=4.75D-02 DE=-3.83D-03 OVMax= 7.16D-02

 Cycle   7  Pass 1  IDiag  1:
 E= -598.355443429913     Delta-E=       -0.002864273210 Rises=F Damp=F
 DIIS: error= 1.26D-03 at cycle   7 NSaved=   7.
 NSaved= 7 IEnMin= 7 EnMin= -598.355443429913     IErMin= 7 ErrMin= 1.26D-03
 ErrMax= 1.26D-03  0.00D+00 EMaxC= 1.00D-01 BMatC= 2.55D-04 BMatP= 9.52D-04
 IDIUse=3 WtCom= 9.87D-01 WtEn= 1.26D-02
 Coeff-Com:  0.320D-02-0.165D-01 0.171D+00 0.316D+00-0.529D+00-0.505D+00
 Coeff-Com:  0.156D+01
 Coeff-En:   0.000D+00 0.000D+00 0.000D+00 0.000D+00 0.000D+00 0.000D+00
 Coeff-En:   0.100D+01
 Coeff:      0.316D-02-0.163D-01 0.169D+00 0.312D+00-0.523D+00-0.498D+00
 Coeff:      0.155D+01
 Gap=     0.448 Goal=   None    Shift=    0.000
 Gap=     0.509 Goal=   None    Shift=    0.000
 RMSDP=8.07D-04 MaxDP=2.40D-02 DE=-2.86D-03 OVMax= 3.14D-02

 Cycle   8  Pass 1  IDiag  1:
 E= -598.356042973641     Delta-E=       -0.000599543728 Rises=F Damp=F
 DIIS: error= 5.77D-04 at cycle   8 NSaved=   8.
 NSaved= 8 IEnMin= 8 EnMin= -598.356042973641     IErMin= 8 ErrMin= 5.77D-04
 ErrMax= 5.77D-04  0.00D+00 EMaxC= 1.00D-01 BMatC= 5.06D-05 BMatP= 2.55D-04
 IDIUse=3 WtCom= 9.94D-01 WtEn= 5.77D-03
 Coeff-Com:  0.183D-01-0.279D-01-0.194D+00-0.192D+00 0.776D+00-0.274D+00
 Coeff-Com: -0.772D+00 0.167D+01
 Coeff-En:   0.000D+00 0.000D+00 0.000D+00 0.000D+00 0.000D+00 0.000D+00
 Coeff-En:   0.000D+00 0.100D+01
 Coeff:      0.182D-01-0.278D-01-0.193D+00-0.191D+00 0.771D+00-0.272D+00
 Coeff:     -0.768D+00 0.166D+01
 Gap=     0.450 Goal=   None    Shift=    0.000
 Gap=     0.509 Goal=   None    Shift=    0.000
 RMSDP=2.95D-04 MaxDP=7.72D-03 DE=-6.00D-04 OVMax= 1.08D-02

 Cycle   9  Pass 1  IDiag  1:
 E= -598.356135186012     Delta-E=       -0.000092212371 Rises=F Damp=F
 DIIS: error= 2.85D-04 at cycle   9 NSaved=   9.
 NSaved= 9 IEnMin= 9 EnMin= -598.356135186012     IErMin= 9 ErrMin= 2.85D-04
 ErrMax= 2.85D-04  0.00D+00 EMaxC= 1.00D-01 BMatC= 1.20D-05 BMatP= 5.06D-05
 IDIUse=3 WtCom= 9.97D-01 WtEn= 2.85D-03
 Coeff-Com: -0.638D-02 0.976D-02 0.864D-01 0.981D-01-0.405D+00 0.249D+00
 Coeff-Com:  0.842D-01-0.998D+00 0.188D+01
 Coeff-En:   0.000D+00 0.000D+00 0.000D+00 0.000D+00 0.000D+00 0.000D+00
 Coeff-En:   0.000D+00 0.000D+00 0.100D+01
 Coeff:     -0.636D-02 0.973D-02 0.861D-01 0.978D-01-0.403D+00 0.249D+00
 Coeff:      0.839D-01-0.995D+00 0.188D+01
 Gap=     0.452 Goal=   None    Shift=    0.000
 Gap=     0.509 Goal=   None    Shift=    0.000
 RMSDP=2.36D-04 MaxDP=6.50D-03 DE=-9.22D-05 OVMax= 8.03D-03

 Cycle  10  Pass 1  IDiag  1:
 E= -598.356159961839     Delta-E=       -0.000024775827 Rises=F Damp=F
 DIIS: error= 6.42D-05 at cycle  10 NSaved=  10.
 NSaved=10 IEnMin=10 EnMin= -598.356159961839     IErMin=10 ErrMin= 6.42D-05
 ErrMax= 6.42D-05  0.00D+00 EMaxC= 1.00D-01 BMatC= 9.20D-07 BMatP= 1.20D-05
 IDIUse=1 WtCom= 1.00D+00 WtEn= 0.00D+00
 Coeff-Com:  0.307D-03-0.538D-03-0.344D-03-0.139D-01 0.269D-01-0.558D-02
 Coeff-Com:  0.482D-01 0.582D-01-0.451D+00 0.134D+01
 Coeff:      0.307D-03-0.538D-03-0.344D-03-0.139D-01 0.269D-01-0.558D-02
 Coeff:      0.482D-01 0.582D-01-0.451D+00 0.134D+01
 Gap=     0.451 Goal=   None    Shift=    0.000
 Gap=     0.509 Goal=   None    Shift=    0.000
 RMSDP=4.08D-05 MaxDP=7.28D-04 DE=-2.48D-05 OVMax= 1.24D-03

 Cycle  11  Pass 1  IDiag  1:
 E= -598.356160865378     Delta-E=       -0.000000903539 Rises=F Damp=F
 DIIS: error= 2.74D-05 at cycle  11 NSaved=  11.
 NSaved=11 IEnMin=11 EnMin= -598.356160865378     IErMin=11 ErrMin= 2.74D-05
 ErrMax= 2.74D-05  0.00D+00 EMaxC= 1.00D-01 BMatC= 1.41D-07 BMatP= 9.20D-07
 IDIUse=1 WtCom= 1.00D+00 WtEn= 0.00D+00
 Coeff-Com:  0.123D-02-0.198D-02-0.136D-01-0.117D-01 0.529D-01-0.362D-01
 Coeff-Com: -0.356D-01 0.118D+00-0.120D+00-0.263D+00 0.131D+01
 Coeff:      0.123D-02-0.198D-02-0.136D-01-0.117D-01 0.529D-01-0.362D-01
 Coeff:     -0.356D-01 0.118D+00-0.120D+00-0.263D+00 0.131D+01
 Gap=     0.452 Goal=   None    Shift=    0.000
 Gap=     0.509 Goal=   None    Shift=    0.000
 RMSDP=2.31D-05 MaxDP=7.34D-04 DE=-9.04D-07 OVMax= 8.89D-04

 Cycle  12  Pass 1  IDiag  1:
 E= -598.356161067963     Delta-E=       -0.000000202585 Rises=F Damp=F
 DIIS: error= 1.15D-05 at cycle  12 NSaved=  12.
 NSaved=12 IEnMin=12 EnMin= -598.356161067963     IErMin=12 ErrMin= 1.15D-05
 ErrMax= 1.15D-05  0.00D+00 EMaxC= 1.00D-01 BMatC= 1.79D-08 BMatP= 1.41D-07
 IDIUse=1 WtCom= 1.00D+00 WtEn= 0.00D+00
 Coeff-Com: -0.392D-03 0.662D-03 0.386D-02 0.560D-02-0.180D-01 0.147D-01
 Coeff-Com: -0.241D-02-0.354D-01 0.105D+00-0.134D+00-0.421D+00 0.148D+01
 Coeff:     -0.392D-03 0.662D-03 0.386D-02 0.560D-02-0.180D-01 0.147D-01
 Coeff:     -0.241D-02-0.354D-01 0.105D+00-0.134D+00-0.421D+00 0.148D+01
 Gap=     0.452 Goal=   None    Shift=    0.000
 Gap=     0.509 Goal=   None    Shift=    0.000
 RMSDP=7.83D-06 MaxDP=2.07D-04 DE=-2.03D-07 OVMax= 3.21D-04

 Cycle  13  Pass 1  IDiag  1:
 E= -598.356161088217     Delta-E=       -0.000000020254 Rises=F Damp=F
 DIIS: error= 4.47D-06 at cycle  13 NSaved=  13.
 NSaved=13 IEnMin=13 EnMin= -598.356161088217     IErMin=13 ErrMin= 4.47D-06
 ErrMax= 4.47D-06  0.00D+00 EMaxC= 1.00D-01 BMatC= 2.77D-09 BMatP= 1.79D-08
 IDIUse=1 WtCom= 1.00D+00 WtEn= 0.00D+00
 Coeff-Com: -0.205D-04 0.328D-04 0.204D-03-0.382D-03-0.403D-03-0.764D-03
 Coeff-Com:  0.501D-02-0.394D-02-0.151D-01 0.691D-01-0.103D+00-0.154D+00
 Coeff-Com:  0.120D+01
 Coeff:     -0.205D-04 0.328D-04 0.204D-03-0.382D-03-0.403D-03-0.764D-03
 Coeff:      0.501D-02-0.394D-02-0.151D-01 0.691D-01-0.103D+00-0.154D+00
 Coeff:      0.120D+01
 Gap=     0.452 Goal=   None    Shift=    0.000
 Gap=     0.509 Goal=   None    Shift=    0.000
 RMSDP=3.44D-06 MaxDP=1.07D-04 DE=-2.03D-08 OVMax= 1.44D-04

 Cycle  14  Pass 1  IDiag  1:
 E= -598.356161092550     Delta-E=       -0.000000004333 Rises=F Damp=F
 DIIS: error= 1.01D-06 at cycle  14 NSaved=  14.
 NSaved=14 IEnMin=14 EnMin= -598.356161092550     IErMin=14 ErrMin= 1.01D-06
 ErrMax= 1.01D-06  0.00D+00 EMaxC= 1.00D-01 BMatC= 1.89D-10 BMatP= 2.77D-09
 IDIUse=1 WtCom= 1.00D+00 WtEn= 0.00D+00
 Coeff-Com:  0.574D-05-0.103D-04-0.419D-04-0.168D-04 0.345D-03 0.411D-04
 Coeff-Com: -0.457D-03 0.121D-02-0.725D-03-0.351D-02 0.357D-01-0.576D-01
 Coeff-Com: -0.222D+00 0.125D+01
 Coeff:      0.574D-05-0.103D-04-0.419D-04-0.168D-04 0.345D-03 0.411D-04
 Coeff:     -0.457D-03 0.121D-02-0.725D-03-0.351D-02 0.357D-01-0.576D-01
 Coeff:     -0.222D+00 0.125D+01
 Gap=     0.452 Goal=   None    Shift=    0.000
 Gap=     0.509 Goal=   None    Shift=    0.000
 RMSDP=1.08D-06 MaxDP=3.35D-05 DE=-4.33D-09 OVMax= 4.56D-05

 Cycle  15  Pass 1  IDiag  1:
 E= -598.356161092863     Delta-E=       -0.000000000313 Rises=F Damp=F
 DIIS: error= 4.24D-07 at cycle  15 NSaved=  15.
 NSaved=15 IEnMin=15 EnMin= -598.356161092863     IErMin=15 ErrMin= 4.24D-07
 ErrMax= 4.24D-07  0.00D+00 EMaxC= 1.00D-01 BMatC= 4.29D-11 BMatP= 1.89D-10
 IDIUse=1 WtCom= 1.00D+00 WtEn= 0.00D+00
 Coeff-Com: -0.929D-06 0.248D-05-0.139D-04 0.574D-04-0.301D-04-0.712D-04
 Coeff-Com: -0.275D-03-0.246D-04 0.154D-02-0.540D-02-0.435D-02 0.410D-01
 Coeff-Com: -0.925D-01-0.244D+00 0.130D+01
 Coeff:     -0.929D-06 0.248D-05-0.139D-04 0.574D-04-0.301D-04-0.712D-04
 Coeff:     -0.275D-03-0.246D-04 0.154D-02-0.540D-02-0.435D-02 0.410D-01
 Coeff:     -0.925D-01-0.244D+00 0.130D+01
 Gap=     0.452 Goal=   None    Shift=    0.000
 Gap=     0.509 Goal=   None    Shift=    0.000
 RMSDP=3.97D-07 MaxDP=1.18D-05 DE=-3.13D-10 OVMax= 1.55D-05

 Cycle  16  Pass 1  IDiag  1:
 E= -598.356161092946     Delta-E=       -0.000000000083 Rises=F Damp=F
 DIIS: error= 1.87D-07 at cycle  16 NSaved=  16.
 NSaved=16 IEnMin=16 EnMin= -598.356161092946     IErMin=16 ErrMin= 1.87D-07
 ErrMax= 1.87D-07  0.00D+00 EMaxC= 1.00D-01 BMatC= 9.22D-12 BMatP= 4.29D-11
 IDIUse=1 WtCom= 1.00D+00 WtEn= 0.00D+00
 Coeff-Com: -0.700D-05 0.112D-04 0.728D-04 0.372D-05-0.253D-03 0.200D-03
 Coeff-Com:  0.435D-03-0.685D-03-0.291D-03 0.500D-02-0.747D-02-0.132D-01
 Coeff-Com:  0.130D+00-0.108D+00-0.107D+01 0.207D+01
 Coeff:     -0.700D-05 0.112D-04 0.728D-04 0.372D-05-0.253D-03 0.200D-03
 Coeff:      0.435D-03-0.685D-03-0.291D-03 0.500D-02-0.747D-02-0.132D-01
 Coeff:      0.130D+00-0.108D+00-0.107D+01 0.207D+01
 Gap=     0.452 Goal=   None    Shift=    0.000
 Gap=     0.509 Goal=   None    Shift=    0.000
 RMSDP=1.67D-07 MaxDP=4.29D-06 DE=-8.32D-11 OVMax= 6.16D-06

 Cycle  17  Pass 1  IDiag  1:
 E= -598.356161092974     Delta-E=       -0.000000000027 Rises=F Damp=F
 DIIS: error= 1.32D-07 at cycle  17 NSaved=  17.
 NSaved=17 IEnMin=17 EnMin= -598.356161092974     IErMin=17 ErrMin= 1.32D-07
 ErrMax= 1.32D-07  0.00D+00 EMaxC= 1.00D-01 BMatC= 3.93D-12 BMatP= 9.22D-12
 IDIUse=1 WtCom= 1.00D+00 WtEn= 0.00D+00
 Coeff-Com:  0.810D-05-0.138D-04-0.602D-04-0.512D-04 0.238D-03-0.175D-03
 Coeff-Com: -0.216D-03 0.560D-03-0.642D-03-0.136D-02 0.772D-02-0.953D-02
 Coeff-Com: -0.490D-01 0.136D+00 0.374D+00-0.204D+01 0.259D+01
 Coeff:      0.810D-05-0.138D-04-0.602D-04-0.512D-04 0.238D-03-0.175D-03
 Coeff:     -0.216D-03 0.560D-03-0.642D-03-0.136D-02 0.772D-02-0.953D-02
 Coeff:     -0.490D-01 0.136D+00 0.374D+00-0.204D+01 0.259D+01
 Gap=     0.452 Goal=   None    Shift=    0.000
 Gap=     0.509 Goal=   None    Shift=    0.000
 RMSDP=2.07D-07 MaxDP=5.79D-06 DE=-2.74D-11 OVMax= 8.29D-06

 Cycle  18  Pass 1  IDiag  1:
 E= -598.356161092992     Delta-E=       -0.000000000018 Rises=F Damp=F
 DIIS: error= 8.12D-08 at cycle  18 NSaved=  18.
 NSaved=18 IEnMin=18 EnMin= -598.356161092992     IErMin=18 ErrMin= 8.12D-08
 ErrMax= 8.12D-08  0.00D+00 EMaxC= 1.00D-01 BMatC= 1.39D-12 BMatP= 3.93D-12
 IDIUse=1 WtCom= 1.00D+00 WtEn= 0.00D+00
 Coeff-Com: -0.188D-05 0.346D-05 0.221D-05 0.212D-04-0.200D-04 0.138D-04
 Coeff-Com:  0.150D-04-0.281D-04 0.143D-03 0.581D-04-0.302D-02 0.713D-02
 Coeff-Com:  0.152D-01-0.115D+00 0.135D+00 0.111D+01-0.245D+01 0.230D+01
 Coeff:     -0.188D-05 0.346D-05 0.221D-05 0.212D-04-0.200D-04 0.138D-04
 Coeff:      0.150D-04-0.281D-04 0.143D-03 0.581D-04-0.302D-02 0.713D-02
 Coeff:      0.152D-01-0.115D+00 0.135D+00 0.111D+01-0.245D+01 0.230D+01
 Gap=     0.452 Goal=   None    Shift=    0.000
 Gap=     0.509 Goal=   None    Shift=    0.000
 RMSDP=1.18D-07 MaxDP=2.77D-06 DE=-1.82D-11 OVMax= 3.99D-06

 Cycle  19  Pass 1  IDiag  1:
 E= -598.356161092996     Delta-E=       -0.000000000004 Rises=F Damp=F
 DIIS: error= 4.18D-08 at cycle  19 NSaved=  19.
 NSaved=19 IEnMin=19 EnMin= -598.356161092996     IErMin=19 ErrMin= 4.18D-08
 ErrMax= 4.18D-08  0.00D+00 EMaxC= 1.00D-01 BMatC= 3.37D-13 BMatP= 1.39D-12
 IDIUse=1 WtCom= 1.00D+00 WtEn= 0.00D+00
 Coeff-Com:  0.410D-06-0.701D-06-0.525D-06-0.125D-04 0.109D-04 0.937D-05
 Coeff-Com:  0.114D-04 0.155D-04-0.135D-03 0.371D-03 0.974D-03-0.361D-02
 Coeff-Com: -0.290D-02 0.671D-01-0.253D+00-0.984D-01 0.813D+00-0.128D+01
 Coeff-Com:  0.175D+01
 Coeff:      0.410D-06-0.701D-06-0.525D-06-0.125D-04 0.109D-04 0.937D-05
 Coeff:      0.114D-04 0.155D-04-0.135D-03 0.371D-03 0.974D-03-0.361D-02
 Coeff:     -0.290D-02 0.671D-01-0.253D+00-0.984D-01 0.813D+00-0.128D+01
 Coeff:      0.175D+01
 Gap=     0.452 Goal=   None    Shift=    0.000
 Gap=     0.509 Goal=   None    Shift=    0.000
 RMSDP=4.10D-08 MaxDP=9.06D-07 DE=-4.32D-12 OVMax= 1.09D-06

 Cycle  20  Pass 1  IDiag  1:
 E= -598.356161092996     Delta-E=        0.000000000000 Rises=F Damp=F
 DIIS: error= 2.20D-08 at cycle  20 NSaved=  20.
 NSaved=20 IEnMin=19 EnMin= -598.356161092996     IErMin=20 ErrMin= 2.20D-08
 ErrMax= 2.20D-08  0.00D+00 EMaxC= 1.00D-01 BMatC= 3.28D-14 BMatP= 3.37D-13
 IDIUse=1 WtCom= 1.00D+00 WtEn= 0.00D+00
 Large coefficients: NSaved= 20 BigCof=    0.00 CofMax=   10.00 Det=-6.69D-15
 Inversion failed.  Reducing to 19 matrices.
 Large coefficients: NSaved= 19 BigCof=    0.00 CofMax=   10.00 Det=-6.84D-15
 Inversion failed.  Reducing to 18 matrices.
 Large coefficients: NSaved= 18 BigCof=    0.00 CofMax=   10.00 Det=-6.85D-15
 Inversion failed.  Reducing to 17 matrices.
 Large coefficients: NSaved= 17 BigCof=    0.00 CofMax=   10.00 Det=-7.51D-15
 Inversion failed.  Reducing to 16 matrices.
 Coeff-Com:  0.238D-06-0.422D-05 0.228D-05-0.481D-05-0.138D-04 0.389D-04
 Coeff-Com: -0.161D-03-0.273D-03 0.357D-02-0.141D-01 0.499D-01-0.709D-02
 Coeff-Com: -0.920D-01 0.207D+00-0.683D+00 0.154D+01
 Coeff:      0.238D-06-0.422D-05 0.228D-05-0.481D-05-0.138D-04 0.389D-04
 Coeff:     -0.161D-03-0.273D-03 0.357D-02-0.141D-01 0.499D-01-0.709D-02
 Coeff:     -0.920D-01 0.207D+00-0.683D+00 0.154D+01
 Gap=     0.452 Goal=   None    Shift=    0.000
 Gap=     0.509 Goal=   None    Shift=    0.000
 RMSDP=8.33D-09 MaxDP=1.47D-07 DE= 1.14D-13 OVMax= 2.40D-07

 SCF Done:  E(UHF) =  -598.356161093     A.U. after   20 cycles
            NFock= 20  Conv=0.83D-08     -V/T= 1.9997
 <Sx>= 0.0000 <Sy>= 0.0000 <Sz>= 0.5000 <S**2>= 1.0192 S= 0.6266
 <L.S>= 0.000000000000E+00
 KE= 5.985264244394D+02 PE=-1.616095777087D+03 EE= 3.236132737727D+02
 Annihilation of the first spin contaminant:
 S**2 before annihilation     1.0192,   after     0.7575
 Leave Link  502 at Wed Oct  7 12:34:50 2020, MaxMem=  2684354560 cpu:              15.6 elap:               1.9
 (Enter /udrive/faculty/rpeverati/g16/g16/l508.exe)
 QCSCF skips out because SCF is already converged.
 Leave Link  508 at Wed Oct  7 12:34:51 2020, MaxMem=  2684354560 cpu:               0.2 elap:               0.3
 (Enter /udrive/faculty/rpeverati/g16/g16/l601.exe)
 Copying SCF densities to generalized density rwf, IOpCl= 1 IROHF=0.

 **********************************************************************

            Population analysis using the SCF density.

 **********************************************************************

 Orbital symmetries:
 Alpha Orbitals:
       Occupied  (A) (A) (A) (A) (A) (A) (A) (A) (A) (A) (A) (A)
                 (A) (A) (A) (A) (A) (A)
       Virtual   (A) (A) (A) (A) (A) (A) (A) (A) (A) (A) (A) (A)
                 (A) (A) (A) (A) (A) (A) (A) (A) (A) (A) (A) (A)
                 (A) (A) (A) (A) (A) (A) (A) (A) (A) (A)
 Beta  Orbitals:
       Occupied  (A) (A) (A) (A) (A) (A) (A) (A) (A) (A) (A) (A)
                 (A) (A) (A) (A) (A)
       Virtual   (A) (A) (A) (A) (A) (A) (A) (A) (A) (A) (A) (A)
                 (A) (A) (A) (A) (A) (A) (A) (A) (A) (A) (A) (A)
                 (A) (A) (A) (A) (A) (A) (A) (A) (A) (A) (A)
 The electronic state is 2-A.
 Alpha  occ. eigenvalues -- -104.86662 -26.34015 -11.25508 -10.60095  -8.08236
 Alpha  occ. eigenvalues --   -8.06291  -8.06291  -1.55629  -1.10117  -0.96115
 Alpha  occ. eigenvalues --   -0.68643  -0.68643  -0.61319  -0.59170  -0.59165
 Alpha  occ. eigenvalues --   -0.47249  -0.47249  -0.36104
 Alpha virt. eigenvalues --    0.09075   0.24511   0.31778   0.31780   0.52605
 Alpha virt. eigenvalues --    0.57933   0.62432   0.62433   0.72951   0.72957
 Alpha virt. eigenvalues --    0.74588   0.98182   1.03059   1.03060   1.12638
 Alpha virt. eigenvalues --    1.12638   1.16991   1.18189   1.18195   1.25062
 Alpha virt. eigenvalues --    1.55800   1.55804   1.91914   1.91916   1.97302
 Alpha virt. eigenvalues --    2.05722   2.12526   2.12531   2.22405   2.22408
 Alpha virt. eigenvalues --    2.49437   2.54193   2.54210   2.72897
  Beta  occ. eigenvalues -- -104.85905 -26.36190 -11.23371 -10.59359  -8.05901
  Beta  occ. eigenvalues --   -8.05901  -8.04978  -1.62530  -1.04836  -0.88550
  Beta  occ. eigenvalues --   -0.71488  -0.70221  -0.70221  -0.57992  -0.57987
  Beta  occ. eigenvalues --   -0.46174  -0.46174
  Beta virt. eigenvalues --    0.04725   0.18035   0.26479   0.32666   0.32668
  Beta virt. eigenvalues --    0.54286   0.62989   0.62990   0.63041   0.73871
  Beta virt. eigenvalues --    0.73877   0.84859   1.02709   1.08691   1.08691
  Beta virt. eigenvalues --    1.13151   1.13151   1.19127   1.19133   1.20438
  Beta virt. eigenvalues --    1.27332   1.56171   1.56175   1.95696   1.98393
  Beta virt. eigenvalues --    1.98394   2.03171   2.12381   2.12384   2.20394
  Beta virt. eigenvalues --    2.20397   2.50303   2.55478   2.55494   2.73278
          Condensed to atoms (all electrons):
               1          2          3          4          5          6
     1  Cl  16.856691  -0.020914   0.013090  -0.000114  -0.000114  -0.000115
     2  F   -0.020914   9.302113  -0.009916  -0.002314  -0.002309  -0.002296
     3  C    0.013090  -0.009916   5.341504   0.378529   0.378521   0.378499
     4  H   -0.000114  -0.002314   0.378529   0.477472  -0.025641  -0.025623
     5  H   -0.000114  -0.002309   0.378521  -0.025641   0.477479  -0.025638
     6  H   -0.000115  -0.002296   0.378499  -0.025623  -0.025638   0.477449
          Atomic-Atomic Spin Densities.
               1          2          3          4          5          6
     1  Cl   0.618300  -0.013262   0.013182  -0.000159  -0.000159  -0.000159
     2  F   -0.013262  -0.449983  -0.013130   0.000675   0.000677   0.000676
     3  C    0.013182  -0.013130   1.139657  -0.018299  -0.018313  -0.018328
     4  H   -0.000159   0.000675  -0.018299  -0.062813   0.002273   0.002270
     5  H   -0.000159   0.000677  -0.018313   0.002273  -0.062805   0.002272
     6  H   -0.000159   0.000676  -0.018328   0.002270   0.002272  -0.062792
 Mulliken charges and spin densities:
               1          2
     1  Cl   0.151475   0.617744
     2  F   -0.264365  -0.474346
     3  C   -0.480227   1.084769
     4  H    0.197691  -0.076053
     5  H    0.197703  -0.076055
     6  H    0.197724  -0.076060
 Sum of Mulliken charges =  -0.00000   1.00000
 Mulliken charges and spin densities with hydrogens summed into heavy atoms:
               1          2
     1  Cl   0.151475   0.617744
     2  F   -0.264365  -0.474346
     3  C    0.112890   0.856602
 Electronic spatial extent (au):  <R**2>=            384.5772
 Charge=             -0.0000 electrons
 Dipole moment (field-independent basis, Debye):
    X=             -1.0796    Y=             -0.0048    Z=             -0.0000  Tot=              1.0796
 Quadrupole moment (field-independent basis, Debye-Ang):
   XX=            -20.1788   YY=            -24.5119   ZZ=            -24.5127
   XY=             -0.0056   XZ=              0.0001   YZ=             -0.0001
 Traceless Quadrupole moment (field-independent basis, Debye-Ang):
   XX=              2.8890   YY=             -1.4441   ZZ=             -1.4449
   XY=             -0.0056   XZ=              0.0001   YZ=             -0.0001
 Octapole moment (field-independent basis, Debye-Ang**2):
  XXX=              7.4336  YYY=              0.3426  ZZZ=              0.8080  XYY=             -0.9455
  XXY=              0.0059  XXZ=             -0.0014  XZZ=             -0.9412  YZZ=             -0.3046
  YYZ=             -0.8067  XYZ=              0.0030
 Hexadecapole moment (field-independent basis, Debye-Ang**3):
 XXXX=           -426.0985 YYYY=            -30.2561 ZZZZ=            -30.2519 XXXY=             -0.1669
 XXXZ=              0.0024 YYYX=             -0.8123 YYYZ=              0.0065 ZZZX=             -2.0475
 ZZZY=             -0.0024 XXYY=            -76.6577 XXZZ=            -76.6749 YYZZ=            -10.0825
 XXYZ=             -0.0146 YYXZ=              2.0471 ZZXY=              0.7915
 N-N= 9.559991778228D+01 E-N=-1.616095777417D+03  KE= 5.985264244394D+02
                          Isotropic Fermi Contact Couplings
        Atom                 a.u.       MegaHertz       Gauss      10(-4) cm-1
     1  Cl(35)             0.02202       9.65480       3.44507       3.22049
     2  F(19)              0.37724    1587.20762     566.35515     529.43547
     3  C(13)              0.20653     232.17558      82.84602      77.44544
     4  H(1)              -0.02462    -110.03102     -39.26180     -36.70240
     5  H(1)              -0.02462    -110.04160     -39.26558     -36.70593
     6  H(1)              -0.02462    -110.04668     -39.26739     -36.70762
 --------------------------------------------------------
       Center         ----  Spin Dipole Couplings  ----
                      3XX-RR        3YY-RR        3ZZ-RR
 --------------------------------------------------------
     1   Atom        3.905593     -1.952789     -1.952804
     2   Atom       -3.031394      1.515714      1.515680
     3   Atom        0.887151     -0.443580     -0.443571
     4   Atom       -0.010470      0.023700     -0.013230
     5   Atom       -0.010457     -0.060300      0.070757
     6   Atom       -0.010416      0.052303     -0.041887
 --------------------------------------------------------
                        XY            XZ            YZ
 --------------------------------------------------------
     1   Atom       -0.012097     -0.000202     -0.000000
     2   Atom       -0.000915     -0.000182      0.000001
     3   Atom        0.004428     -0.000260      0.000011
     4   Atom        0.004636      0.003361      0.065029
     5   Atom        0.000894     -0.005817     -0.016583
     6   Atom       -0.005681      0.002461     -0.048461
 --------------------------------------------------------


 ---------------------------------------------------------------------------------
              Anisotropic Spin Dipole Couplings in Principal Axis System
 ---------------------------------------------------------------------------------

       Atom             a.u.   MegaHertz   Gauss  10(-4) cm-1        Axes

              Baa    -1.9528  -102.206   -36.470   -34.092  0.0021  0.9988  0.0484
     1 Cl(35) Bbb    -1.9528  -102.205   -36.469   -34.092 -0.0001 -0.0484  0.9988
              Bcc     3.9056   204.411    72.939    68.184  1.0000 -0.0021 -0.0000
 
              Baa    -3.0314 -1522.444  -543.246  -507.833  1.0000  0.0002  0.0000
     2 F(19)  Bbb     1.5157   761.213   271.620   253.913 -0.0000 -0.0426  0.9991
              Bcc     1.5157   761.231   271.626   253.919 -0.0002  0.9991  0.0426
 
              Baa    -0.4436   -59.527   -21.241   -19.856 -0.0031  0.9228 -0.3853
     3 C(13)  Bbb    -0.4436   -59.522   -21.239   -19.855 -0.0011  0.3853  0.9228
              Bcc     0.8872   119.049    42.480    39.711  1.0000  0.0033 -0.0002
 
              Baa    -0.0624   -33.275   -11.873   -11.099  0.0022 -0.6029  0.7978
     4 H(1)   Bbb    -0.0109    -5.795    -2.068    -1.933  0.9977 -0.0531 -0.0429
              Bcc     0.0732    39.070    13.941    13.032  0.0682  0.7960  0.6014
 
              Baa    -0.0624   -33.276   -11.874   -11.100 -0.0033  0.9923  0.1235
     5 H(1)   Bbb    -0.0109    -5.800    -2.069    -1.935  0.9975 -0.0054  0.0700
              Bcc     0.0732    39.075    13.943    13.034 -0.0701 -0.1234  0.9899
 
              Baa    -0.0624   -33.276   -11.874   -11.100 -0.0011  0.3892  0.9211
     6 H(1)   Bbb    -0.0109    -5.802    -2.070    -1.935  0.9973  0.0684 -0.0277
              Bcc     0.0732    39.078    13.944    13.035 -0.0738  0.9186 -0.3882
 

 ---------------------------------------------------------------------------------

 No NMR shielding tensors so no spin-rotation constants.
 Leave Link  601 at Wed Oct  7 12:34:52 2020, MaxMem=  2684354560 cpu:               6.8 elap:               1.0
 (Enter /udrive/faculty/rpeverati/g16/g16/l701.exe)
 ... and contract with generalized density number  0.
 Compute integral first derivatives.
 Leave Link  701 at Wed Oct  7 12:34:53 2020, MaxMem=  2684354560 cpu:               4.6 elap:               0.8
 (Enter /udrive/faculty/rpeverati/g16/g16/l702.exe)
 L702 exits ... SP integral derivatives will be done elsewhere.
 Leave Link  702 at Wed Oct  7 12:34:54 2020, MaxMem=  2684354560 cpu:               1.8 elap:               0.6
 (Enter /udrive/faculty/rpeverati/g16/g16/l703.exe)
 Integral derivatives from FoFJK, PRISM(SPDF).
 Compute integral first derivatives, UseDBF=F ICtDFT=           0.
 Calling FoFJK, ICntrl=      2127 FMM=F ISym2X=0 I1Cent= 0 IOpClX= 1 NMat=1 NMatS=1 NMatT=0.
 FoFJK:  IHMeth= 1 ICntrl=    2127 DoSepK=F KAlg= 0 I1Cent=           0 FoldK=F
 IRaf=         0 NMat=       1 IRICut=       1 DoRegI=T DoRafI=F ISym2E= 0 IDoP0=0 IntGTp=1.
 FoFCou: FMM=F IPFlag=           0 FMFlag=      100000 FMFlg1=         800
         NFxFlg=           0 DoJE=F BraDBF=F KetDBF=F FulRan=T
         wScrn=  0.000000 ICntrl=      2127 IOpCl=  1 I1Cent=           0 NGrid=           0
         NMat0=    1 NMatS0=      1 NMatT0=    0 NMatD0=    1 NMtDS0=    0 NMtDT0=    0
 Symmetry not used in FoFCou.
 Leave Link  703 at Wed Oct  7 12:34:55 2020, MaxMem=  2684354560 cpu:               8.0 elap:               1.2
 (Enter /udrive/faculty/rpeverati/g16/g16/l716.exe)
 Dipole        =-4.24734660D-01-1.87732612D-03-1.17522693D-05
 ***** Axes restored to original set *****
 -------------------------------------------------------------------
 Center     Atomic                   Forces (Hartrees/Bohr)
 Number     Number              X              Y              Z
 -------------------------------------------------------------------
      1       17           0.028661496   -0.000026359   -0.000000186
      2        9          -0.022023300   -0.000017116   -0.000005524
      3        6          -0.002279039    0.000010756    0.000019560
      4        1          -0.001453726    0.003740805    0.002826349
      5        1          -0.001458660    0.000595200   -0.004624868
      6        1          -0.001446770   -0.004303285    0.001784669
 -------------------------------------------------------------------
 Cartesian Forces:  Max     0.028661496 RMS     0.008766938
 Leave Link  716 at Wed Oct  7 12:34:56 2020, MaxMem=  2684354560 cpu:               2.4 elap:               0.8
 (Enter /udrive/faculty/rpeverati/g16/g16/l103.exe)

 GradGradGradGradGradGradGradGradGradGradGradGradGradGradGradGradGradGrad
 Berny optimization.
 Optmz: redundant internal coordinate code flag= 1
 FormGI is forming the generalized inverse of G from B-inverse, IUseBI=4.
 Internal  Forces:  Max     0.028661427 RMS     0.008176402
 Search for a saddle point.
 Step number   1 out of a maximum of  100
 All quantities printed in internal units (Hartrees-Bohrs-Radians)
 Swapping is turned off.
 Second derivative matrix not updated -- first step.
 The second derivative matrix:
                          R1        R2        R3        R4        R5
           R1           0.27899
           R2           0.00000   0.07773
           R3           0.00000   0.00000   0.36287
           R4           0.00000   0.00000   0.00000   0.36291
           R5           0.00000   0.00000   0.00000   0.00000   0.36292
           A1           0.00000   0.00000   0.00000   0.00000   0.00000
           A2           0.00000   0.00000   0.00000   0.00000   0.00000
           A3           0.00000   0.00000   0.00000   0.00000   0.00000
           A4           0.00000   0.00000   0.00000   0.00000   0.00000
           A5           0.00000   0.00000   0.00000   0.00000   0.00000
           A6           0.00000   0.00000   0.00000   0.00000   0.00000
           A7           0.00000   0.00000   0.00000   0.00000   0.00000
           A8           0.00000   0.00000   0.00000   0.00000   0.00000
           D1           0.00000   0.00000   0.00000   0.00000   0.00000
                          A1        A2        A3        A4        A5
           A1           0.16000
           A2           0.00000   0.16000
           A3           0.00000   0.00000   0.16000
           A4           0.00000   0.00000   0.00000   0.16000
           A5           0.00000   0.00000   0.00000   0.00000   0.16000
           A6           0.00000   0.00000   0.00000   0.00000   0.00000
           A7           0.00000   0.00000   0.00000   0.00000   0.00000
           A8           0.00000   0.00000   0.00000   0.00000   0.00000
           D1           0.00000   0.00000   0.00000   0.00000   0.00000
                          A6        A7        A8        D1
           A6           0.16000
           A7           0.00000   0.00230
           A8           0.00000   0.00000   0.00230
           D1           0.00000   0.00000   0.00000   0.00400
 ITU=  0
 Eigenvectors of the second derivative matrix:
                           1         2         3         4         5
     Eigenvalues --     0.00230   0.00230   0.03993   0.07773   0.16000
   1         R1         0.00000   0.00000   0.00000  -0.00000  -0.00000
   2         R2        -0.00000  -0.00000  -0.00000   1.00000  -0.00000
   3         R3        -0.00000  -0.00000  -0.00000  -0.00000  -0.00000
   4         R4        -0.00000  -0.00000   0.00000  -0.00000   0.00000
   5         R5         0.00000   0.00000  -0.00000   0.00000  -0.00000
   6         A1         0.00000  -0.00000  -0.26045  -0.00000  -0.74867
   7         A2        -0.00000  -0.00000  -0.26041  -0.00000   0.08508
   8         A3        -0.00000   0.00000  -0.26048   0.00000   0.65171
   9         A4        -0.00000   0.00000   0.12675   0.00000  -0.06323
  10         A5         0.00000  -0.00000   0.07331   0.00000   0.05877
  11         A6        -0.00000  -0.00000   0.07337  -0.00000   0.00858
  12         A7         0.13993  -0.99016  -0.00000   0.00000   0.00000
  13         A8        -0.99016  -0.13993   0.00000  -0.00000  -0.00000
  14         D1         0.00000   0.00000   0.87731   0.00000   0.00000
                           6         7         8         9        10
     Eigenvalues --     0.16000   0.16000   0.16000   0.27899   0.36287
   1         R1        -0.00000  -0.00000  -0.00000   1.00000   0.00000
   2         R2         0.00000   0.00000   0.00000   0.00000  -0.00000
   3         R3         0.00000   0.00000   0.00000  -0.00000   1.00000
   4         R4         0.00000  -0.00000  -0.00000  -0.00000   0.00000
   5         R5         0.00000  -0.00000  -0.00000   0.00000  -0.00000
   6         A1        -0.00380  -0.05768   0.32444  -0.00000  -0.00000
   7         A2        -0.05747   0.12173  -0.80241   0.00000   0.00000
   8         A3        -0.04188   0.04144   0.49075   0.00000  -0.00000
   9         A4        -0.55313   0.56441   0.06943  -0.00000   0.00000
  10         A5        -0.21305  -0.79094  -0.07230  -0.00000   0.00000
  11         A6         0.80224   0.18971  -0.00166   0.00000  -0.00000
  12         A7        -0.00000   0.00000   0.00000   0.00000  -0.00000
  13         A8        -0.00000  -0.00000  -0.00000   0.00000  -0.00000
  14         D1        -0.00000  -0.00000   0.00000  -0.00000   0.00000
                          11        12
     Eigenvalues --     0.36291   0.36292
   1         R1         0.00000  -0.00000
   2         R2         0.00000  -0.00000
   3         R3        -0.00000   0.00000
   4         R4         1.00000  -0.00000
   5         R5         0.00000   1.00000
   6         A1         0.00000  -0.00000
   7         A2        -0.00000  -0.00000
   8         A3        -0.00000   0.00000
   9         A4         0.00000  -0.00000
  10         A5        -0.00000  -0.00000
  11         A6        -0.00000   0.00000
  12         A7        -0.00000   0.00000
  13         A8        -0.00000   0.00000
  14         D1        -0.00000   0.00000
 Eigenvalue     1 is   2.30D-03 should be less than     0.000000 Eigenvector:
                          A8        A7        A3        D1        R2
   1                   -0.99016   0.13993  -0.00000   0.00000  -0.00000
                          A1        A5        A2        A6        R3
   1                    0.00000   0.00000  -0.00000  -0.00000  -0.00000
 RLam0= 2.30D-03.
 Iter=   1 RLamda= 0.00000000D+00 Sum=-3.91555234D-03.
 Iter=   2 RLamda=-3.91555234D-03 Sum=-3.82478480D-03.
 Iter=   3 RLamda=-3.82478480D-03 Sum=-3.82680327D-03.
 Iter=   4 RLamda=-3.82680327D-03 Sum=-3.82675834D-03.
 Iter=   5 RLamda=-3.82675834D-03 Sum=-3.82675934D-03.
 RFO step:  Lambda0=2.304637163D-03 Lambda=-3.82675834D-03.
 Linear search not attempted -- option 19 set.
 Maximum step size (   0.100) exceeded in Quadratic search.
    -- Step size scaled by   0.495
 Iteration  1 RMS(Cart)=  0.03120046 RMS(Int)=  0.00052547
 Iteration  2 RMS(Cart)=  0.00061047 RMS(Int)=  0.00006749
 Iteration  3 RMS(Cart)=  0.00000082 RMS(Int)=  0.00006749
 ITry= 1 IFail=0 DXMaxC= 7.64D-02 DCOld= 1.00D+10 DXMaxT= 1.00D-01 DXLimC= 3.00D+00 Rises=F
 Variable       Old X    -DE/DX   Delta X   Delta X   Delta X     New X
                                 (Linear)    (Quad)   (Total)
    R1        3.36059   0.02866   0.00000   0.05018   0.05018   3.41077
    R2        3.90010   0.00664   0.00000   0.04031   0.04031   3.94041
    R3        2.03635  -0.00452   0.00000  -0.00610  -0.00610   2.03025
    R4        2.03629  -0.00449   0.00000  -0.00606  -0.00606   2.03023
    R5        2.03627  -0.00448   0.00000  -0.00605  -0.00605   2.03022
    A1        1.67355   0.00081   0.00000   0.00905   0.00906   1.68261
    A2        1.67328   0.00084   0.00000   0.00914   0.00915   1.68243
    A3        1.67391   0.00084   0.00000   0.00915   0.00916   1.68307
    A4        2.07607   0.00009   0.00000  -0.00293  -0.00308   2.07299
    A5        2.07645  -0.00049   0.00000  -0.00336  -0.00349   2.07296
    A6        2.07624  -0.00047   0.00000  -0.00328  -0.00341   2.07283
    A7        3.14090   0.00002   0.00000  -0.00957  -0.00957   3.13133
    A8        3.15639  -0.00010   0.00000   0.07325   0.07325   3.22965
    D1        2.78980  -0.00269   0.00000  -0.03039  -0.03033   2.75947
         Item               Value     Threshold  Converged?
 Maximum Force            0.028661     0.000450     NO 
 RMS     Force            0.008176     0.000300     NO 
 Maximum Displacement     0.076394     0.001800     NO 
 RMS     Displacement     0.031040     0.001200     NO 
 Predicted change in Energy=-1.421978D-03
 Lowest energy point so far.  Saving SCF results.
 Largest change from initial coordinates is atom    1       0.028 Angstoms.
 GradGradGradGradGradGradGradGradGradGradGradGradGradGradGradGradGradGrad

 Leave Link  103 at Wed Oct  7 12:34:57 2020, MaxMem=  2684354560 cpu:               5.4 elap:               1.0
 (Enter /udrive/faculty/rpeverati/g16/g16/l202.exe)
                          Input orientation:                          
 ---------------------------------------------------------------------
 Center     Atomic      Atomic             Coordinates (Angstroms)
 Number     Number       Type             X           Y           Z
 ---------------------------------------------------------------------
      1         17           0        1.495177   -0.018606    0.001956
      2          9           0       -0.309131    0.027482   -0.002506
      3          6           0       -2.394086   -0.002543    0.000000
      4          1           0       -2.502501   -0.853571   -0.646721
      5          1           0       -2.510538   -0.139758    1.059170
      6          1           0       -2.529115    0.980479   -0.411891
 ---------------------------------------------------------------------
                    Distance matrix (angstroms):
                    1          2          3          4          5
     1  Cl   0.000000
     2  F    1.804901   0.000000
     3  C    3.889296   2.085173   0.000000
     4  H    4.135139   2.449927   1.074361   0.000000
     5  H    4.144651   2.449759   1.074351   1.849233   0.000000
     6  H    4.167057   2.450333   1.074346   1.849214   1.849134
                    6
     6  H    0.000000
 Stoichiometry    CH3ClF(2)
 Framework group  C1[X(CH3ClF)]
 Deg. of freedom    12
 Full point group                 C1      NOp   1
 RotChk:  IX=0 Diff= 1.17D-01
 Largest Abelian subgroup         C1      NOp   1
 Largest concise Abelian subgroup C1      NOp   1
                         Standard orientation:                         
 ---------------------------------------------------------------------
 Center     Atomic      Atomic             Coordinates (Angstroms)
 Number     Number       Type             X           Y           Z
 ---------------------------------------------------------------------
      1         17           0        1.474410   -0.007657    0.000091
      2          9           0       -0.330129    0.028537   -0.000359
      3          6           0       -2.414882   -0.013266    0.000163
      4          1           0       -2.518970   -0.810997   -0.711906
      5          1           0       -2.529896   -0.234582    1.045162
      6          1           0       -2.555643    0.998517   -0.332554
 ---------------------------------------------------------------------
 Rotational constants (GHZ):         145.8189995           3.0057641           3.0054155
 Leave Link  202 at Wed Oct  7 12:34:58 2020, MaxMem=  2684354560 cpu:               2.1 elap:               0.5
 (Enter /udrive/faculty/rpeverati/g16/g16/l301.exe)
 Standard basis: 6-31G(d) (5D, 7F)
 Ernie: Thresh=  0.10000D-02 Tol=  0.10000D-05 Strict=F.
 There are    55 symmetry adapted cartesian basis functions of A   symmetry.
 There are    52 symmetry adapted basis functions of A   symmetry.
    52 basis functions,   120 primitive gaussians,    55 cartesian basis functions
    18 alpha electrons       17 beta electrons
       nuclear repulsion energy        94.5012661193 Hartrees.
 IExCor=    0 DFT=F Ex=HF Corr=None ExCW=0 ScaHFX=  1.000000
 ScaDFX=  1.000000  1.000000  1.000000  1.000000 ScalE2=  1.000000  1.000000
 IRadAn=      5 IRanWt=     -1 IRanGd=            0 ICorTp=0 IEmpDi=  4
 NAtoms=    6 NActive=    6 NUniq=    6 SFac= 1.00D+00 NAtFMM=   60 NAOKFM=F Big=F
 Integral buffers will be    131072 words long.
 Raffenetti 2 integral format.
 Two-electron integral symmetry is turned on.
 Leave Link  301 at Wed Oct  7 12:34:59 2020, MaxMem=  2684354560 cpu:               2.6 elap:               0.7
 (Enter /udrive/faculty/rpeverati/g16/g16/l302.exe)
 NPDir=0 NMtPBC=     1 NCelOv=     1 NCel=       1 NClECP=     1 NCelD=      1
         NCelK=      1 NCelE2=     1 NClLst=     1 CellRange=     0.0.
 One-electron integrals computed using PRISM.
 One-electron integral symmetry used in STVInt
 NBasis=    52 RedAO= T EigKep=  2.48D-02  NBF=    52
 NBsUse=    52 1.00D-06 EigRej= -1.00D+00 NBFU=    52
 Leave Link  302 at Wed Oct  7 12:35:00 2020, MaxMem=  2684354560 cpu:               3.6 elap:               0.8
 (Enter /udrive/faculty/rpeverati/g16/g16/l303.exe)
 DipDrv:  MaxL=1.
 Leave Link  303 at Wed Oct  7 12:35:01 2020, MaxMem=  2684354560 cpu:               1.8 elap:               0.7
 (Enter /udrive/faculty/rpeverati/g16/g16/l401.exe)
 Initial guess from the checkpoint file:  "MN_21_ch3fclts_BH76_HF_631Gs.chk"
 SCF N**3 symmetry information disabled.
 B after Tr=    -0.000000   -0.000000    0.000000
         Rot=    0.999143   -0.041390   -0.000023   -0.000312 Ang=  -4.74 deg.
 Guess basis will be translated and rotated to current coordinates.
 JPrj=2 DoOrth=T DoCkMO=T.
 Initial guess <Sx>= 0.0000 <Sy>= 0.0000 <Sz>= 0.5000 <S**2>= 1.0234 S= 0.6285
 Generating alternative initial guess.
 ExpMin= 1.43D-01 ExpMax= 2.52D+04 ExpMxC= 3.78D+03 IAcc=2 IRadAn=         4 AccDes= 0.00D+00
 Harris functional with IExCor=  205 and IRadAn=       4 diagonalized for initial guess.
 HarFok:  IExCor=  205 AccDes= 0.00D+00 IRadAn=         4 IDoV= 1 UseB2=F ITyADJ=14
 ICtDFT=  3500011 ScaDFX=  1.000000  1.000000  1.000000  1.000000
 FoFCou: FMM=F IPFlag=           0 FMFlag=      100000 FMFlg1=           0
         NFxFlg=           0 DoJE=T BraDBF=F KetDBF=T FulRan=T
         wScrn=  0.000000 ICntrl=       500 IOpCl=  0 I1Cent=   200000004 NGrid=           0
         NMat0=    1 NMatS0=      1 NMatT0=    0 NMatD0=    1 NMtDS0=    0 NMtDT0=    0
 Petite list used in FoFCou.
 Harris En= -597.963992529911    
 Leave Link  401 at Wed Oct  7 12:35:03 2020, MaxMem=  2684354560 cpu:               8.0 elap:               1.1
 (Enter /udrive/faculty/rpeverati/g16/g16/l502.exe)
 Keep R1 and R2 ints in memory in canonical form, NReq=4392461.
 FoFCou: FMM=F IPFlag=           0 FMFlag=           0 FMFlg1=           0
         NFxFlg=           0 DoJE=F BraDBF=F KetDBF=F FulRan=T
         wScrn=  0.000000 ICntrl=       600 IOpCl=  0 I1Cent=           0 NGrid=           0
         NMat0=    1 NMatS0=   1378 NMatT0=    0 NMatD0=    1 NMtDS0=    0 NMtDT0=    0
 Symmetry not used in FoFCou.
 Two-electron integral symmetry not used.
 UHF open shell SCF:
 Using DIIS extrapolation, IDIIS=  1040.
 NGot=  2684354560 LenX=  2682446829 LenY=  2682443363
 Requested convergence on RMS density matrix=1.00D-08 within 120 cycles.
 Requested convergence on MAX density matrix=1.00D-06.
 Requested convergence on             energy=1.00D-06.
 No special actions if energy rises.

 Cycle   1  Pass 1  IDiag  1:
 E= -598.357343788146    
 DIIS: error= 1.96D-03 at cycle   1 NSaved=   1.
 NSaved= 1 IEnMin= 1 EnMin= -598.357343788146     IErMin= 1 ErrMin= 1.96D-03
 ErrMax= 1.96D-03  0.00D+00 EMaxC= 1.00D-01 BMatC= 8.15D-04 BMatP= 8.15D-04
 IDIUse=3 WtCom= 9.80D-01 WtEn= 1.96D-02
 Coeff-Com:  0.100D+01
 Coeff-En:   0.100D+01
 Coeff:      0.100D+01
 Gap=     0.762 Goal=   None    Shift=    0.000
 Gap=     0.988 Goal=   None    Shift=    0.000
 GapD=    0.762 DampG=2.000 DampE=1.000 DampFc=2.0000 IDamp=-1.
 RMSDP=3.12D-04 MaxDP=3.59D-03              OVMax= 8.38D-03

 Cycle   2  Pass 1  IDiag  1:
 E= -598.357686897080     Delta-E=       -0.000343108935 Rises=F Damp=F
 DIIS: error= 6.61D-04 at cycle   2 NSaved=   2.
 NSaved= 2 IEnMin= 2 EnMin= -598.357686897080     IErMin= 2 ErrMin= 6.61D-04
 ErrMax= 6.61D-04  0.00D+00 EMaxC= 1.00D-01 BMatC= 1.24D-04 BMatP= 8.15D-04
 IDIUse=3 WtCom= 9.93D-01 WtEn= 6.61D-03
 Coeff-Com: -0.120D+00 0.112D+01
 Coeff-En:   0.000D+00 0.100D+01
 Coeff:     -0.119D+00 0.112D+01
 Gap=     0.449 Goal=   None    Shift=    0.000
 Gap=     0.504 Goal=   None    Shift=    0.000
 RMSDP=1.79D-04 MaxDP=3.19D-03 DE=-3.43D-04 OVMax= 4.70D-03

 Cycle   3  Pass 1  IDiag  1:
 E= -598.357785654943     Delta-E=       -0.000098757862 Rises=F Damp=F
 DIIS: error= 6.04D-04 at cycle   3 NSaved=   3.
 NSaved= 3 IEnMin= 3 EnMin= -598.357785654943     IErMin= 3 ErrMin= 6.04D-04
 ErrMax= 6.04D-04  0.00D+00 EMaxC= 1.00D-01 BMatC= 4.77D-05 BMatP= 1.24D-04
 IDIUse=3 WtCom= 9.94D-01 WtEn= 6.04D-03
 Coeff-Com: -0.983D-01 0.107D+00 0.991D+00
 Coeff-En:   0.000D+00 0.000D+00 0.100D+01
 Coeff:     -0.977D-01 0.107D+00 0.991D+00
 Gap=     0.452 Goal=   None    Shift=    0.000
 Gap=     0.504 Goal=   None    Shift=    0.000
 RMSDP=1.18D-04 MaxDP=3.26D-03 DE=-9.88D-05 OVMax= 4.74D-03

 Cycle   4  Pass 1  IDiag  1:
 E= -598.357831089064     Delta-E=       -0.000045434121 Rises=F Damp=F
 DIIS: error= 3.52D-04 at cycle   4 NSaved=   4.
 NSaved= 4 IEnMin= 4 EnMin= -598.357831089064     IErMin= 4 ErrMin= 3.52D-04
 ErrMax= 3.52D-04  0.00D+00 EMaxC= 1.00D-01 BMatC= 2.44D-05 BMatP= 4.77D-05
 IDIUse=3 WtCom= 9.96D-01 WtEn= 3.52D-03
 Coeff-Com:  0.976D-01-0.604D+00-0.260D+00 0.177D+01
 Coeff-En:   0.000D+00 0.000D+00 0.000D+00 0.100D+01
 Coeff:      0.972D-01-0.602D+00-0.259D+00 0.176D+01
 Gap=     0.455 Goal=   None    Shift=    0.000
 Gap=     0.504 Goal=   None    Shift=    0.000
 RMSDP=1.83D-04 MaxDP=5.11D-03 DE=-4.54D-05 OVMax= 6.60D-03

 Cycle   5  Pass 1  IDiag  1:
 E= -598.357872874926     Delta-E=       -0.000041785862 Rises=F Damp=F
 DIIS: error= 1.87D-04 at cycle   5 NSaved=   5.
 NSaved= 5 IEnMin= 5 EnMin= -598.357872874926     IErMin= 5 ErrMin= 1.87D-04
 ErrMax= 1.87D-04  0.00D+00 EMaxC= 1.00D-01 BMatC= 4.75D-06 BMatP= 2.44D-05
 IDIUse=3 WtCom= 9.98D-01 WtEn= 1.87D-03
 Coeff-Com:  0.532D-03 0.160D+00-0.180D+00-0.578D+00 0.160D+01
 Coeff-En:   0.000D+00 0.000D+00 0.000D+00 0.000D+00 0.100D+01
 Coeff:      0.531D-03 0.160D+00-0.180D+00-0.577D+00 0.160D+01
 Gap=     0.456 Goal=   None    Shift=    0.000
 Gap=     0.504 Goal=   None    Shift=    0.000
 RMSDP=9.67D-05 MaxDP=3.02D-03 DE=-4.18D-05 OVMax= 3.69D-03

 Cycle   6  Pass 1  IDiag  1:
 E= -598.357882047319     Delta-E=       -0.000009172394 Rises=F Damp=F
 DIIS: error= 6.08D-05 at cycle   6 NSaved=   6.
 NSaved= 6 IEnMin= 6 EnMin= -598.357882047319     IErMin= 6 ErrMin= 6.08D-05
 ErrMax= 6.08D-05  0.00D+00 EMaxC= 1.00D-01 BMatC= 8.34D-07 BMatP= 4.75D-06
 IDIUse=1 WtCom= 1.00D+00 WtEn= 0.00D+00
 Coeff-Com: -0.192D-01 0.937D-01 0.723D-01-0.262D+00-0.226D+00 0.134D+01
 Coeff:     -0.192D-01 0.937D-01 0.723D-01-0.262D+00-0.226D+00 0.134D+01
 Gap=     0.457 Goal=   None    Shift=    0.000
 Gap=     0.504 Goal=   None    Shift=    0.000
 RMSDP=3.40D-05 MaxDP=8.99D-04 DE=-9.17D-06 OVMax= 1.21D-03

 Cycle   7  Pass 1  IDiag  1:
 E= -598.357883339414     Delta-E=       -0.000001292095 Rises=F Damp=F
 DIIS: error= 2.80D-05 at cycle   7 NSaved=   7.
 NSaved= 7 IEnMin= 7 EnMin= -598.357883339414     IErMin= 7 ErrMin= 2.80D-05
 ErrMax= 2.80D-05  0.00D+00 EMaxC= 1.00D-01 BMatC= 1.55D-07 BMatP= 8.34D-07
 IDIUse=1 WtCom= 1.00D+00 WtEn= 0.00D+00
 Coeff-Com:  0.326D-02-0.517D-01 0.388D-01 0.164D+00-0.320D+00-0.168D+00
 Coeff-Com:  0.133D+01
 Coeff:      0.326D-02-0.517D-01 0.388D-01 0.164D+00-0.320D+00-0.168D+00
 Coeff:      0.133D+01
 Gap=     0.457 Goal=   None    Shift=    0.000
 Gap=     0.504 Goal=   None    Shift=    0.000
 RMSDP=1.27D-05 MaxDP=1.99D-04 DE=-1.29D-06 OVMax= 3.50D-04

 Cycle   8  Pass 1  IDiag  1:
 E= -598.357883568631     Delta-E=       -0.000000229217 Rises=F Damp=F
 DIIS: error= 1.54D-05 at cycle   8 NSaved=   8.
 NSaved= 8 IEnMin= 8 EnMin= -598.357883568631     IErMin= 8 ErrMin= 1.54D-05
 ErrMax= 1.54D-05  0.00D+00 EMaxC= 1.00D-01 BMatC= 3.73D-08 BMatP= 1.55D-07
 IDIUse=1 WtCom= 1.00D+00 WtEn= 0.00D+00
 Coeff-Com:  0.189D-02 0.283D-02-0.166D-01-0.355D-01 0.148D+00-0.758D-01
 Coeff-Com: -0.599D+00 0.157D+01
 Coeff:      0.189D-02 0.283D-02-0.166D-01-0.355D-01 0.148D+00-0.758D-01
 Coeff:     -0.599D+00 0.157D+01
 Gap=     0.457 Goal=   None    Shift=    0.000
 Gap=     0.504 Goal=   None    Shift=    0.000
 RMSDP=7.32D-06 MaxDP=1.90D-04 DE=-2.29D-07 OVMax= 3.10D-04

 Cycle   9  Pass 1  IDiag  1:
 E= -598.357883648010     Delta-E=       -0.000000079379 Rises=F Damp=F
 DIIS: error= 1.18D-05 at cycle   9 NSaved=   9.
 NSaved= 9 IEnMin= 9 EnMin= -598.357883648010     IErMin= 9 ErrMin= 1.18D-05
 ErrMax= 1.18D-05  0.00D+00 EMaxC= 1.00D-01 BMatC= 1.71D-08 BMatP= 3.73D-08
 IDIUse=1 WtCom= 1.00D+00 WtEn= 0.00D+00
 Coeff-Com: -0.182D-02 0.661D-02 0.717D-02-0.638D-02-0.517D-01 0.131D+00
 Coeff-Com:  0.634D-01-0.119D+01 0.204D+01
 Coeff:     -0.182D-02 0.661D-02 0.717D-02-0.638D-02-0.517D-01 0.131D+00
 Coeff:      0.634D-01-0.119D+01 0.204D+01
 Gap=     0.457 Goal=   None    Shift=    0.000
 Gap=     0.504 Goal=   None    Shift=    0.000
 RMSDP=7.51D-06 MaxDP=2.15D-04 DE=-7.94D-08 OVMax= 3.41D-04

 Cycle  10  Pass 1  IDiag  1:
 E= -598.357883703748     Delta-E=       -0.000000055737 Rises=F Damp=F
 DIIS: error= 7.18D-06 at cycle  10 NSaved=  10.
 NSaved=10 IEnMin=10 EnMin= -598.357883703748     IErMin=10 ErrMin= 7.18D-06
 ErrMax= 7.18D-06  0.00D+00 EMaxC= 1.00D-01 BMatC= 7.74D-09 BMatP= 1.71D-08
 IDIUse=1 WtCom= 1.00D+00 WtEn= 0.00D+00
 Coeff-Com:  0.798D-03-0.957D-02 0.260D-02 0.327D-01-0.497D-01-0.564D-01
 Coeff-Com:  0.277D+00-0.147D-01-0.145D+01 0.227D+01
 Coeff:      0.798D-03-0.957D-02 0.260D-02 0.327D-01-0.497D-01-0.564D-01
 Coeff:      0.277D+00-0.147D-01-0.145D+01 0.227D+01
 Gap=     0.457 Goal=   None    Shift=    0.000
 Gap=     0.504 Goal=   None    Shift=    0.000
 RMSDP=8.34D-06 MaxDP=2.45D-04 DE=-5.57D-08 OVMax= 3.87D-04

 Cycle  11  Pass 1  IDiag  1:
 E= -598.357883739629     Delta-E=       -0.000000035882 Rises=F Damp=F
 DIIS: error= 4.30D-06 at cycle  11 NSaved=  11.
 NSaved=11 IEnMin=11 EnMin= -598.357883739629     IErMin=11 ErrMin= 4.30D-06
 ErrMax= 4.30D-06  0.00D+00 EMaxC= 1.00D-01 BMatC= 2.44D-09 BMatP= 7.74D-09
 IDIUse=1 WtCom= 1.00D+00 WtEn= 0.00D+00
 Coeff-Com:  0.112D-03 0.457D-02-0.770D-02-0.162D-01 0.569D-01-0.226D-01
 Coeff-Com: -0.203D+00 0.402D+00 0.406D+00-0.179D+01 0.217D+01
 Coeff:      0.112D-03 0.457D-02-0.770D-02-0.162D-01 0.569D-01-0.226D-01
 Coeff:     -0.203D+00 0.402D+00 0.406D+00-0.179D+01 0.217D+01
 Gap=     0.457 Goal=   None    Shift=    0.000
 Gap=     0.504 Goal=   None    Shift=    0.000
 RMSDP=5.05D-06 MaxDP=1.44D-04 DE=-3.59D-08 OVMax= 2.28D-04

 Cycle  12  Pass 1  IDiag  1:
 E= -598.357883749571     Delta-E=       -0.000000009941 Rises=F Damp=F
 DIIS: error= 2.72D-06 at cycle  12 NSaved=  12.
 NSaved=12 IEnMin=12 EnMin= -598.357883749571     IErMin=12 ErrMin= 2.72D-06
 ErrMax= 2.72D-06  0.00D+00 EMaxC= 1.00D-01 BMatC= 5.83D-10 BMatP= 2.44D-09
 IDIUse=1 WtCom= 1.00D+00 WtEn= 0.00D+00
 Coeff-Com: -0.265D-03 0.146D-03 0.205D-02 0.231D-02-0.155D-01 0.153D-01
 Coeff-Com:  0.643D-01-0.261D+00 0.223D+00 0.351D+00-0.120D+01 0.182D+01
 Coeff:     -0.265D-03 0.146D-03 0.205D-02 0.231D-02-0.155D-01 0.153D-01
 Coeff:      0.643D-01-0.261D+00 0.223D+00 0.351D+00-0.120D+01 0.182D+01
 Gap=     0.457 Goal=   None    Shift=    0.000
 Gap=     0.504 Goal=   None    Shift=    0.000
 RMSDP=1.70D-06 MaxDP=4.04D-05 DE=-9.94D-09 OVMax= 6.53D-05

 Cycle  13  Pass 1  IDiag  1:
 E= -598.357883751135     Delta-E=       -0.000000001564 Rises=F Damp=F
 DIIS: error= 1.55D-06 at cycle  13 NSaved=  13.
 NSaved=13 IEnMin=13 EnMin= -598.357883751135     IErMin=13 ErrMin= 1.55D-06
 ErrMax= 1.55D-06  0.00D+00 EMaxC= 1.00D-01 BMatC= 1.46D-10 BMatP= 5.83D-10
 IDIUse=1 WtCom= 1.00D+00 WtEn= 0.00D+00
 Coeff-Com:  0.594D-04-0.113D-02 0.794D-03 0.335D-02-0.747D-02-0.512D-02
 Coeff-Com:  0.369D-01-0.124D-01-0.176D+00 0.294D+00-0.375D-01-0.798D+00
 Coeff-Com:  0.170D+01
 Coeff:      0.594D-04-0.113D-02 0.794D-03 0.335D-02-0.747D-02-0.512D-02
 Coeff:      0.369D-01-0.124D-01-0.176D+00 0.294D+00-0.375D-01-0.798D+00
 Coeff:      0.170D+01
 Gap=     0.457 Goal=   None    Shift=    0.000
 Gap=     0.504 Goal=   None    Shift=    0.000
 RMSDP=7.13D-07 MaxDP=1.18D-05 DE=-1.56D-09 OVMax= 1.96D-05

 Cycle  14  Pass 1  IDiag  1:
 E= -598.357883751464     Delta-E=       -0.000000000329 Rises=F Damp=F
 DIIS: error= 7.50D-07 at cycle  14 NSaved=  14.
 NSaved=14 IEnMin=14 EnMin= -598.357883751464     IErMin=14 ErrMin= 7.50D-07
 ErrMax= 7.50D-07  0.00D+00 EMaxC= 1.00D-01 BMatC= 3.68D-11 BMatP= 1.46D-10
 IDIUse=1 WtCom= 1.00D+00 WtEn= 0.00D+00
 Coeff-Com:  0.197D-04 0.777D-03-0.110D-02-0.287D-02 0.938D-02-0.220D-02
 Coeff-Com: -0.382D-01 0.748D-01 0.515D-01-0.283D+00 0.364D+00-0.359D-01
 Coeff-Com: -0.988D+00 0.185D+01
 Coeff:      0.197D-04 0.777D-03-0.110D-02-0.287D-02 0.938D-02-0.220D-02
 Coeff:     -0.382D-01 0.748D-01 0.515D-01-0.283D+00 0.364D+00-0.359D-01
 Coeff:     -0.988D+00 0.185D+01
 Gap=     0.457 Goal=   None    Shift=    0.000
 Gap=     0.504 Goal=   None    Shift=    0.000
 RMSDP=3.08D-07 MaxDP=6.63D-06 DE=-3.29D-10 OVMax= 1.16D-05

 Cycle  15  Pass 1  IDiag  1:
 E= -598.357883751542     Delta-E=       -0.000000000078 Rises=F Damp=F
 DIIS: error= 3.06D-07 at cycle  15 NSaved=  15.
 NSaved=15 IEnMin=15 EnMin= -598.357883751542     IErMin=15 ErrMin= 3.06D-07
 ErrMax= 3.06D-07  0.00D+00 EMaxC= 1.00D-01 BMatC= 8.38D-12 BMatP= 3.68D-11
 IDIUse=1 WtCom= 1.00D+00 WtEn= 0.00D+00
 Coeff-Com: -0.158D-04-0.126D-03 0.309D-03 0.457D-03-0.221D-02 0.203D-02
 Coeff-Com:  0.715D-02-0.237D-01 0.514D-02 0.694D-01-0.153D+00 0.174D+00
 Coeff-Com:  0.122D+00-0.900D+00 0.170D+01
 Coeff:     -0.158D-04-0.126D-03 0.309D-03 0.457D-03-0.221D-02 0.203D-02
 Coeff:      0.715D-02-0.237D-01 0.514D-02 0.694D-01-0.153D+00 0.174D+00
 Coeff:      0.122D+00-0.900D+00 0.170D+01
 Gap=     0.457 Goal=   None    Shift=    0.000
 Gap=     0.504 Goal=   None    Shift=    0.000
 RMSDP=1.13D-07 MaxDP=2.95D-06 DE=-7.82D-11 OVMax= 5.52D-06

 Cycle  16  Pass 1  IDiag  1:
 E= -598.357883751560     Delta-E=       -0.000000000018 Rises=F Damp=F
 DIIS: error= 1.41D-07 at cycle  16 NSaved=  16.
 NSaved=16 IEnMin=16 EnMin= -598.357883751560     IErMin=16 ErrMin= 1.41D-07
 ErrMax= 1.41D-07  0.00D+00 EMaxC= 1.00D-01 BMatC= 2.75D-12 BMatP= 8.38D-12
 IDIUse=1 WtCom= 1.00D+00 WtEn= 0.00D+00
 Coeff-Com:  0.104D-04-0.141D-03 0.940D-04 0.374D-03-0.932D-03-0.321D-03
 Coeff-Com:  0.328D-02 0.232D-02-0.289D-01 0.388D-01 0.964D-02-0.139D+00
 Coeff-Com:  0.248D+00 0.728D-01-0.122D+01 0.201D+01
 Coeff:      0.104D-04-0.141D-03 0.940D-04 0.374D-03-0.932D-03-0.321D-03
 Coeff:      0.328D-02 0.232D-02-0.289D-01 0.388D-01 0.964D-02-0.139D+00
 Coeff:      0.248D+00 0.728D-01-0.122D+01 0.201D+01
 Gap=     0.457 Goal=   None    Shift=    0.000
 Gap=     0.504 Goal=   None    Shift=    0.000
 RMSDP=7.68D-08 MaxDP=1.70D-06 DE=-1.78D-11 OVMax= 3.23D-06

 Cycle  17  Pass 1  IDiag  1:
 E= -598.357883751565     Delta-E=       -0.000000000005 Rises=F Damp=F
 DIIS: error= 5.84D-08 at cycle  17 NSaved=  17.
 NSaved=17 IEnMin=17 EnMin= -598.357883751565     IErMin=17 ErrMin= 5.84D-08
 ErrMax= 5.84D-08  0.00D+00 EMaxC= 1.00D-01 BMatC= 6.32D-13 BMatP= 2.75D-12
 IDIUse=1 WtCom= 1.00D+00 WtEn= 0.00D+00
 Coeff-Com:  0.361D-05 0.989D-04-0.138D-03-0.414D-03 0.139D-02-0.384D-03
 Coeff-Com: -0.548D-02 0.968D-02 0.119D-01-0.435D-01 0.436D-01 0.229D-01
 Coeff-Com: -0.177D+00 0.228D+00 0.221D+00-0.129D+01 0.198D+01
 Coeff:      0.361D-05 0.989D-04-0.138D-03-0.414D-03 0.139D-02-0.384D-03
 Coeff:     -0.548D-02 0.968D-02 0.119D-01-0.435D-01 0.436D-01 0.229D-01
 Coeff:     -0.177D+00 0.228D+00 0.221D+00-0.129D+01 0.198D+01
 Gap=     0.457 Goal=   None    Shift=    0.000
 Gap=     0.504 Goal=   None    Shift=    0.000
 RMSDP=5.05D-08 MaxDP=9.57D-07 DE=-5.12D-12 OVMax= 1.72D-06

 Cycle  18  Pass 1  IDiag  1:
 E= -598.357883751566     Delta-E=       -0.000000000001 Rises=F Damp=F
 DIIS: error= 1.20D-08 at cycle  18 NSaved=  18.
 NSaved=18 IEnMin=18 EnMin= -598.357883751566     IErMin=18 ErrMin= 1.20D-08
 ErrMax= 1.20D-08  0.00D+00 EMaxC= 1.00D-01 BMatC= 4.02D-14 BMatP= 6.32D-13
 IDIUse=1 WtCom= 1.00D+00 WtEn= 0.00D+00
 Coeff-Com: -0.157D-05-0.171D-04 0.353D-04 0.722D-04-0.285D-03 0.161D-03
 Coeff-Com:  0.112D-02-0.287D-02-0.327D-03 0.831D-02-0.146D-01 0.116D-01
 Coeff-Com:  0.218D-01-0.801D-01 0.105D+00 0.841D-01-0.523D+00 0.139D+01
 Coeff:     -0.157D-05-0.171D-04 0.353D-04 0.722D-04-0.285D-03 0.161D-03
 Coeff:      0.112D-02-0.287D-02-0.327D-03 0.831D-02-0.146D-01 0.116D-01
 Coeff:      0.218D-01-0.801D-01 0.105D+00 0.841D-01-0.523D+00 0.139D+01
 Gap=     0.457 Goal=   None    Shift=    0.000
 Gap=     0.504 Goal=   None    Shift=    0.000
 RMSDP=9.43D-09 MaxDP=1.57D-07 DE=-1.14D-12 OVMax= 2.73D-07

 SCF Done:  E(UHF) =  -598.357883752     A.U. after   18 cycles
            NFock= 18  Conv=0.94D-08     -V/T= 1.9997
 <Sx>= 0.0000 <Sy>= 0.0000 <Sz>= 0.5000 <S**2>= 1.0635 S= 0.6461
 <L.S>= 0.000000000000E+00
 KE= 5.985306210793D+02 PE=-1.613935102652D+03 EE= 3.225453317019D+02
 Annihilation of the first spin contaminant:
 S**2 before annihilation     1.0635,   after     0.7590
 Leave Link  502 at Wed Oct  7 12:35:05 2020, MaxMem=  2684354560 cpu:              17.4 elap:               2.1
 (Enter /udrive/faculty/rpeverati/g16/g16/l508.exe)
 QCSCF skips out because SCF is already converged.
 Leave Link  508 at Wed Oct  7 12:35:06 2020, MaxMem=  2684354560 cpu:               0.4 elap:               0.6
 (Enter /udrive/faculty/rpeverati/g16/g16/l701.exe)
 ... and contract with generalized density number  0.
 Compute integral first derivatives.
 Leave Link  701 at Wed Oct  7 12:35:07 2020, MaxMem=  2684354560 cpu:               4.4 elap:               0.8
 (Enter /udrive/faculty/rpeverati/g16/g16/l702.exe)
 L702 exits ... SP integral derivatives will be done elsewhere.
 Leave Link  702 at Wed Oct  7 12:35:08 2020, MaxMem=  2684354560 cpu:               1.7 elap:               0.6
 (Enter /udrive/faculty/rpeverati/g16/g16/l703.exe)
 Integral derivatives from FoFJK, PRISM(SPDF).
 Compute integral first derivatives, UseDBF=F ICtDFT=           0.
 Calling FoFJK, ICntrl=      2127 FMM=F ISym2X=0 I1Cent= 0 IOpClX= 1 NMat=1 NMatS=1 NMatT=0.
 FoFJK:  IHMeth= 1 ICntrl=    2127 DoSepK=F KAlg= 0 I1Cent=           0 FoldK=F
 IRaf=         0 NMat=       1 IRICut=       1 DoRegI=T DoRafI=F ISym2E= 0 IDoP0=0 IntGTp=1.
 FoFCou: FMM=F IPFlag=           0 FMFlag=      100000 FMFlg1=         800
         NFxFlg=           0 DoJE=F BraDBF=F KetDBF=F FulRan=T
         wScrn=  0.000000 ICntrl=      2127 IOpCl=  1 I1Cent=           0 NGrid=           0
         NMat0=    1 NMatS0=      1 NMatT0=    0 NMatD0=    1 NMtDS0=    0 NMtDT0=    0
 Symmetry not used in FoFCou.
 Leave Link  703 at Wed Oct  7 12:35:09 2020, MaxMem=  2684354560 cpu:               7.5 elap:               1.0
 (Enter /udrive/faculty/rpeverati/g16/g16/l716.exe)
 Dipole        =-4.72783232D-01-1.17539538D-02 1.68932593D-04
 ***** Axes restored to original set *****
 -------------------------------------------------------------------
 Center     Atomic                   Forces (Hartrees/Bohr)
 Number     Number              X              Y              Z
 -------------------------------------------------------------------
      1       17           0.028147360   -0.000314733    0.000032792
      2        9          -0.025997842   -0.000064343   -0.000001061
      3        6           0.001346522    0.000407385   -0.000029561
      4        1          -0.001125748    0.001595819    0.001236001
      5        1          -0.001157743    0.000223612   -0.001995101
      6        1          -0.001212549   -0.001847740    0.000756930
 -------------------------------------------------------------------
 Cartesian Forces:  Max     0.028147360 RMS     0.009087279
 Leave Link  716 at Wed Oct  7 12:35:10 2020, MaxMem=  2684354560 cpu:               2.6 elap:               0.8
 (Enter /udrive/faculty/rpeverati/g16/g16/l103.exe)

 GradGradGradGradGradGradGradGradGradGradGradGradGradGradGradGradGradGrad
 Berny optimization.
 Optmz: redundant internal coordinate code flag= 1
 Red2BG:  D1=  1.95D-01 OD1=  3.28D-02 B2RMS=  0.00D+00 IAprox=0
 FormGI is forming the generalized inverse of G from B-inverse, IUseBI=4.
 Internal  Forces:  Max     0.028146214 RMS     0.007620197
 Search for a saddle point.
 Step number   2 out of a maximum of  100
 All quantities printed in internal units (Hartrees-Bohrs-Radians)
 Swapping is turned off.
 Update second derivatives using D2CorX and points    1    2
 The second derivative matrix:
                          R1        R2        R3        R4        R5
           R1           0.13437
           R2          -0.02205   0.09221
           R3           0.00175  -0.00274   0.36335
           R4           0.00179  -0.00270   0.00048   0.36338
           R5           0.00135  -0.00284   0.00050   0.00049   0.36343
           A1          -0.01589  -0.00048  -0.00013  -0.00013  -0.00018
           A2          -0.01677  -0.00074  -0.00010  -0.00010  -0.00015
           A3          -0.01793  -0.00113  -0.00005  -0.00005  -0.00011
           A4           0.00670   0.00061  -0.00001  -0.00001   0.00001
           A5           0.00619   0.00021   0.00005   0.00005   0.00007
           A6           0.00608   0.00021   0.00005   0.00004   0.00007
           A7           0.00494  -0.00354   0.00066   0.00065   0.00069
           A8          -0.05658   0.02068  -0.00425  -0.00418  -0.00448
           D1           0.01952  -0.00990   0.00193   0.00190   0.00202
                          A1        A2        A3        A4        A5
           A1           0.15846
           A2          -0.00165   0.15824
           A3          -0.00180  -0.00192   0.15792
           A4           0.00069   0.00073   0.00079   0.15970
           A5           0.00060   0.00064   0.00070  -0.00027   0.15977
           A6           0.00059   0.00063   0.00069  -0.00026  -0.00023
           A7           0.00008   0.00013   0.00023  -0.00013  -0.00003
           A8          -0.00303  -0.00357  -0.00438   0.00194   0.00121
           D1           0.00075   0.00095   0.00126  -0.00060  -0.00030
                          A6        A7        A8        D1
           A6           0.15977
           A7          -0.00004   0.00316
           A8           0.00121  -0.00512   0.02828
           D1          -0.00031   0.00243  -0.01351   0.01065
 ITU=  0  0
 Eigenvectors of the second derivative matrix:
                           1         2         3         4         5
     Eigenvalues --    -0.00032   0.00476   0.03491   0.08326   0.15970
   1         R1         0.29352  -0.27219  -0.17848  -0.33878   0.09459
   2         R2        -0.07556   0.09893  -0.02284  -0.93630  -0.05091
   3         R3         0.00580  -0.00622  -0.00130  -0.00634  -0.00270
   4         R4         0.00564  -0.00607  -0.00123  -0.00618  -0.00270
   5         R5         0.00654  -0.00692  -0.00171  -0.00712  -0.00258
   6         A1         0.02766  -0.01940  -0.24649   0.03004  -0.14117
   7         A2         0.03154  -0.02312  -0.24889   0.02345   0.03310
   8         A3         0.03702  -0.02842  -0.25224   0.01412   0.23504
   9         A4        -0.01239   0.00850   0.12857  -0.01976   0.76144
[...]
 The second derivative matrix:
                          R1        R2        R3        R4        R5
           R1          -0.09738
           R2           0.01396   0.00099
           R3           0.00000  -0.00053   0.40924
           R4           0.00001  -0.00053   0.00103   0.40923
           R5          -0.00000  -0.00054   0.00103   0.00103   0.40925
           A1          -0.00058   0.00050  -0.00107  -0.00022  -0.00072
           A2          -0.00055   0.00046  -0.00021  -0.00107  -0.00072
           A3          -0.00060   0.00053  -0.00021  -0.00022  -0.00158
           A4          -0.00004   0.00003   0.00568   0.00568  -0.01150
           A5           0.00021  -0.00018   0.00600  -0.01134   0.00609
           A6           0.00021  -0.00018  -0.01134   0.00599   0.00609
           A7           0.00001  -0.00002   0.00025  -0.00050   0.00025
           A8          -0.00000   0.00000   0.00016  -0.00000  -0.00016
           D1           0.00194  -0.00168   0.00242   0.00241   0.00195
                          A1        A2        A3        A4        A5
           A1           0.00492
           A2          -0.00163   0.00490
           A3          -0.00166  -0.00164   0.00494
           A4           0.00220   0.00219   0.00223   0.07422
           A5          -0.00128  -0.00122  -0.00128  -0.03788   0.07606
           A6          -0.00128  -0.00134  -0.00133  -0.03787  -0.03729
           A7           0.00081  -0.00162   0.00080  -0.00003   0.00007
           A8           0.00052   0.00000  -0.00052   0.00002  -0.00000
           D1          -0.00156  -0.00156  -0.00157   0.00190  -0.00040
                          A6        A7        A8        D1
           A6           0.07605
           A7          -0.00004   0.01314
           A8          -0.00002   0.00000   0.00183
           D1          -0.00045   0.00000  -0.00000   0.00553
 ITU=  0
 Eigenvectors of the second derivative matrix:
                           1         2         3         4         5
     Eigenvalues --    -0.09938   0.00172   0.00240   0.00600   0.00670
   1         R1        -0.99015  -0.00128   0.13810  -0.00083   0.00013
   2         R2         0.13816  -0.00847   0.93653  -0.00565  -0.00004
   3         R3         0.00004  -0.00060  -0.00081  -0.00091  -0.00150
   4         R4         0.00005   0.00001  -0.00079   0.00208  -0.00013
   5         R5        -0.00001   0.00061  -0.00077  -0.00087   0.00137
   6         A1        -0.00598  -0.10467  -0.08589  -0.40155  -0.69556
   7         A2        -0.00566   0.00029  -0.07489   0.79119  -0.01797
   8         A3        -0.00624   0.10613  -0.09015  -0.37593   0.70249
   9         A4         0.00051  -0.00027   0.01923  -0.00100   0.00094
  10         A5         0.00175  -0.00013   0.01841  -0.00130   0.00076
  11         A6         0.00174   0.00002   0.01842  -0.00082   0.00080
  12         A7         0.00008  -0.00042   0.00336   0.26675  -0.00431
  13         A8        -0.00001   0.98879   0.00939  -0.00237  -0.14900
  14         D1         0.02025  -0.00199   0.28560  -0.01587   0.01273
                           6         7         8         9        10
     Eigenvalues --     0.00753   0.01369   0.11214   0.11233   0.40922
   1         R1        -0.02310   0.00008   0.00094   0.00002  -0.00000
   2         R2        -0.32203   0.00041  -0.00157  -0.00003  -0.00000
   3         R3        -0.00651   0.00037   0.02379  -0.04090   0.50725
   4         R4        -0.00648  -0.00073   0.02216   0.04181  -0.80977
   5         R5        -0.00622   0.00036  -0.04852  -0.00096   0.28903
   6         A1        -0.24245  -0.10927  -0.02542  -0.00018  -0.00154
   7         A2        -0.23370   0.21786  -0.02532  -0.00005   0.00123
   8         A3        -0.26115  -0.10862  -0.02524  -0.00019  -0.00109
   9         A4         0.06013  -0.00020  -0.80819  -0.01596  -0.01703
  10         A5         0.05229   0.00039   0.39888   0.71394   0.04727
  11         A6         0.05232  -0.00021   0.42675  -0.69757  -0.02990
  12         A7         0.00389  -0.96374   0.00022   0.00043   0.00152
  13         A8         0.00136  -0.00038  -0.00015   0.00008   0.00009
  14         D1         0.83961  -0.00007  -0.01638   0.00001  -0.00049
                          11        12
     Eigenvalues --     0.40923   0.41135
   1         R1        -0.00001  -0.00001
   2         R2         0.00000  -0.00230
   3         R3         0.64224   0.57266
   4         R4         0.13373   0.56929
   5         R5        -0.75248   0.58978
   6         A1        -0.00007  -0.00289
   7         A2         0.00102  -0.00287
   8         A3         0.00291  -0.00294
   9         A4         0.04411  -0.00123
  10         A5        -0.00760   0.00169
  11         A6        -0.03739   0.00149
  12         A7        -0.00024   0.00002
  13         A8         0.00055  -0.00001
  14         D1         0.00125   0.00967
 Eigenvalue     1 is  -9.94D-02 should be greater than     0.000000 Eigenvector:
                          R1        R2        D1        A3        A1
   1                   -0.99015   0.13816   0.02025  -0.00624  -0.00598
                          A2        A5        A6        A4        A7
   1                   -0.00566   0.00175   0.00174   0.00051   0.00008
 Angle between quadratic step and forces=  22.09 degrees.
 Linear search not attempted -- first point.
 Iteration  1 RMS(Cart)=  0.00271637 RMS(Int)=  0.00000534
 Iteration  2 RMS(Cart)=  0.00000512 RMS(Int)=  0.00000008
 Iteration  3 RMS(Cart)=  0.00000000 RMS(Int)=  0.00000008
 ITry= 1 IFail=0 DXMaxC= 7.01D-03 DCOld= 1.00D+10 DXMaxT= 3.00D-01 DXLimC= 3.00D+00 Rises=F
 Variable       Old X    -DE/DX   Delta X   Delta X   Delta X     New X
                                 (Linear)    (Quad)   (Total)
    R1        3.51215   0.00001   0.00000  -0.00001  -0.00001   3.51215
    R2        4.87552  -0.00000   0.00000  -0.00049  -0.00049   4.87504
    R3        2.02681  -0.00000   0.00000  -0.00001  -0.00001   2.02680
    R4        2.02681  -0.00000   0.00000  -0.00002  -0.00002   2.02680
    R5        2.02680  -0.00000   0.00000   0.00000   0.00000   2.02680
    A1        1.63559  -0.00000   0.00000   0.00006   0.00006   1.63565
    A2        1.63893  -0.00002   0.00000  -0.00330  -0.00330   1.63564
    A3        1.63275   0.00002   0.00000   0.00290   0.00290   1.63564
    A4        2.08711   0.00000   0.00000   0.00003   0.00003   2.08714
    A5        2.08711   0.00000   0.00000   0.00002   0.00002   2.08714
    A6        2.08711   0.00000   0.00000   0.00002   0.00002   2.08714
    A7        3.14309  -0.00001   0.00000  -0.00150  -0.00150   3.14159
    A8        3.13974   0.00000   0.00000   0.00186   0.00186   3.14160
    D1        2.91766   0.00000   0.00000   0.00039   0.00039   2.91805
         Item               Value     Threshold  Converged?
 Maximum Force            0.000019     0.000450     YES
 RMS     Force            0.000008     0.000300     YES
 Maximum Displacement     0.007014     0.001800     NO 
 RMS     Displacement     0.002717     0.001200     NO 
 Predicted change in Energy=-6.839794D-08
                           ----------------------------
                           ! Non-Optimized Parameters !
                           ! (Angstroms and Degrees)  !
 --------------------------                            --------------------------
 ! Name  Definition              Value          Derivative Info.                !
 --------------------------------------------------------------------------------
 ! R1    R(1,2)                  1.8585         -DE/DX =    0.0                 !
 ! R2    R(2,3)                  2.5798         -DE/DX =    0.0                 !
 ! R3    R(3,4)                  1.0725         -DE/DX =    0.0                 !
 ! R4    R(3,5)                  1.0725         -DE/DX =    0.0                 !
 ! R5    R(3,6)                  1.0725         -DE/DX =    0.0                 !
 ! A1    A(2,3,4)               93.7159         -DE/DX =    0.0                 !
 ! A2    A(2,3,5)               93.715          -DE/DX =    0.0                 !
 ! A3    A(2,3,6)               93.7154         -DE/DX =    0.0                 !
 ! A4    A(4,3,5)              119.5842         -DE/DX =    0.0                 !
 ! A5    A(4,3,6)              119.5841         -DE/DX =    0.0                 !
 ! A6    A(5,3,6)              119.5841         -DE/DX =    0.0                 !
 ! A7    L(1,2,3,5,-1)         179.9999         -DE/DX =    0.0                 !
 ! A8    L(1,2,3,5,-2)         180.0004         -DE/DX =    0.0                 !
 ! D1    D(4,3,6,5)            167.192          -DE/DX =    0.0                 !
 --------------------------------------------------------------------------------
 GradGradGradGradGradGradGradGradGradGradGradGradGradGradGradGradGradGrad

 Leave Link  103 at Wed Oct  7 12:41:39 2020, MaxMem=  2684354560 cpu:               3.4 elap:               0.7
 (Enter /udrive/faculty/rpeverati/g16/g16/l9999.exe)

 ----------------------------------------------------------------------

 Electric dipole moment (input orientation):
 (Debye = 10**-18 statcoulomb cm , SI units = C m)
                  (au)            (Debye)         (10**-30 SI)
   Tot        0.558036D-01      0.141839D+00      0.473123D+00
   x          0.557999D-01      0.141829D+00      0.473091D+00
   y          0.387488D-03      0.984896D-03      0.328526D-02
   z         -0.511865D-03     -0.130103D-02     -0.433977D-02

 Dipole polarizability, Alpha (input orientation).
 (esu units = cm**3 , SI units = C**2 m**2 J**-1)
 Alpha(0;0):
               (au)            (10**-24 esu)      (10**-40 SI)
   iso        0.251623D+02      0.372867D+01      0.414871D+01
   aniso      0.209666D+02      0.310693D+01      0.345692D+01
   xx         0.391398D+02      0.579993D+01      0.645329D+01
   yx         0.490517D-01      0.726871D-02      0.808753D-02
   yy         0.181733D+02      0.269300D+01      0.299637D+01
   zx        -0.438809D-01     -0.650247D-02     -0.723498D-02
   zy         0.463179D-04      0.686360D-05      0.763678D-05
   zz         0.181739D+02      0.269309D+01      0.299647D+01

 First dipole hyperpolarizability, Beta (input orientation).
 ||, _|_  parallel and perpendicular components, (z) with respect to z axis,
 vector components x,y,z.  Values do not include the 1/n! factor of 1/2.
 (esu units = statvolt**-1 cm**4 , SI units = C**3 m**3 J**-2)
 Beta(0;0,0):
               (au)            (10**-30 esu)      (10**-50 SI)
   || (z)     0.176577D+00      0.152549D-02      0.566171D-03
   _|_(z)     0.588591D-01      0.508497D-03      0.188724D-03
   x          0.120168D+04      0.103815D+02      0.385300D+01
   y          0.574912D+00      0.496679D-02      0.184338D-02
   z          0.882887D+00      0.762746D-02      0.283086D-02
   ||         0.240335D+03      0.207631D+01      0.770601D+00
   xxx        0.412946D+03      0.356753D+01      0.132405D+01
   xxy        0.203802D+00      0.176069D-02      0.653464D-03
   yxy       -0.611220D+01     -0.528046D-01     -0.195979D-01
   yyy        0.968526D+01      0.836731D-01      0.310545D-01
   xxz        0.311237D+00      0.268884D-02      0.997937D-03
   yxz        0.325114D-02      0.280873D-04      0.104243D-04
   yyz       -0.234321D+02     -0.202435D+00     -0.751316D-01
   zxz       -0.627518D+01     -0.542126D-01     -0.201205D-01
   zyz       -0.969743D+01     -0.837782D-01     -0.310935D-01
   zzz        0.234151D+02      0.202288D+00      0.750773D-01

 ----------------------------------------------------------------------

 Dipole orientation:
    17         -0.02761921         -0.01778685          3.48685815
     9         -0.00062686          0.00019532         -0.02514331
     6          0.04361582          0.02949445         -4.90037875
     1          1.28738450         -1.56556080         -5.02990922
     1         -1.95802840         -0.24707032         -5.05821097
     1          0.80621253          1.90428511         -5.00767829

 Electric dipole moment (dipole orientation):
 (Debye = 10**-18 statcoulomb cm , SI units = C m)
                  (au)            (Debye)         (10**-30 SI)
   Tot        0.558036D-01      0.141839D+00      0.473123D+00
   x          0.000000D+00      0.000000D+00      0.000000D+00
   y          0.000000D+00      0.000000D+00      0.000000D+00
   z          0.558036D-01      0.141839D+00      0.473123D+00

 Dipole polarizability, Alpha (dipole orientation).
 (esu units = cm**3 , SI units = C**2 m**2 J**-1)
 Alpha(0;0):
               (au)            (10**-24 esu)      (10**-40 SI)
   iso        0.251623D+02      0.372867D+01      0.414871D+01
   aniso      0.209666D+02      0.310693D+01      0.345692D+01
   xx         0.181748D+02      0.269323D+01      0.299662D+01
   yx         0.543067D-03      0.804742D-04      0.895396D-04
   yy         0.181736D+02      0.269305D+01      0.299642D+01
   zx        -0.147756D+00     -0.218951D-01     -0.243616D-01
   zy        -0.975704D-01     -0.144584D-01     -0.160872D-01
   zz         0.391385D+02      0.579973D+01      0.645308D+01

 First dipole hyperpolarizability, Beta (dipole orientation).
 ||, _|_  parallel and perpendicular components, (z) with respect to z axis,
 vector components x,y,z.  Values do not include the 1/n! factor of 1/2.
 (esu units = statvolt**-1 cm**4 , SI units = C**3 m**3 J**-2)
 Beta(0;0,0):
               (au)            (10**-30 esu)      (10**-50 SI)
   || (z)     0.240318D+03      0.207616D+01      0.770547D+00
   _|_(z)     0.801061D+02      0.692054D+00      0.256849D+00
   x         -0.118509D+02     -0.102382D+00     -0.379982D-01
   y         -0.785210D+01     -0.678361D-01     -0.251767D-01
   z          0.120159D+04      0.103808D+02      0.385274D+01
   ||         0.240335D+03      0.207631D+01      0.770601D+00
   xxx       -0.230318D+02     -0.198977D+00     -0.738484D-01
   xxy       -0.101414D+02     -0.876138D-01     -0.325170D-01
   yxy        0.232779D+02      0.201103D+00      0.746375D-01
   yyy        0.102989D+02      0.889744D-01      0.330220D-01
   xxz       -0.651616D+01     -0.562945D-01     -0.208932D-01
   yxz        0.933613D-01      0.806569D-03      0.299350D-03
   yyz       -0.581033D+01     -0.501967D-01     -0.186300D-01
   zxz       -0.419642D+01     -0.362538D-01     -0.134552D-01
   zyz       -0.277486D+01     -0.239726D-01     -0.889719D-02
   zzz        0.412857D+03      0.356676D+01      0.132377D+01

 ----------------------------------------------------------------------

 Test job not archived.
 1\1\GINC-NODE38\Freq\UHF\6-31G(d)\C1H3Cl1F1(2)\RPEVERATI\07-Oct-2020\0
 \\#P Freq HF/6-31G* 5D 7F Integral=UltraFineGrid SCF=(NoSymm,XQC,MaxCy
 c=120) IOp(1/33=1) Geom=Check Guess=Read\\TS search on BH76.\\0,2\Cl,1
 .8452430716,0.0035029082,-0.0022451512\F,-0.0133020848,0.0000132913,0.
 000453022\C,-2.5933171037,-0.0025611011,0.0005987923\H,-2.6619474079,-
 0.8516750901,-0.6510419468\H,-2.6661429049,-0.142063083,1.0615355424\H
 ,-2.6607279932,0.9862649345,-0.4092913754\\Version=ES64L-G16RevA.03\St
 ate=2-A\HF=-598.3600413\S2=1.215206\S2-1=0.\S2A=0.768275\RMSD=1.887e-1
 0\RMSF=4.199e-06\ZeroPoint=0.0329367\Thermal=0.0394347\Dipole=0.055799
 9,0.0003875,-0.0005119\DipoleDeriv=-0.9315419,-0.0016266,0.0010569,-0.
 0018292,0.0682444,0.0000027,0.0013696,0.000003,0.0682525,1.2024795,0.0
 020057,-0.0012063,0.0022573,-0.0938638,-0.0000042,-0.0015661,-0.000004
 6,-0.0938841,-0.788072,0.0000091,-0.0012226,0.0002481,0.100757,0.00001
 74,-0.0015941,0.0000171,0.1008953,0.1724362,-0.0180198,-0.0134485,-0.0
 135835,-0.0380577,-0.0485447,-0.0098753,-0.048609,-0.012111,0.1718381,
 -0.0030787,0.0231195,-0.0024207,0.0235062,0.0129693,0.017654,0.012995,
 -0.0735726,0.17286,0.0207103,-0.008299,0.015328,-0.0605861,0.0355596,-
 0.0059882,0.0355986,0.0104198\Polar=39.1398387,0.0490517,18.1732696,-0
 .0438809,0.0000463,18.1738761\PolarDeriv=-19.2572961,-0.0489867,-0.286
 1348,0.0411289,0.0000393,-0.2863915,-0.0551003,4.8532328,0.0135445,0.0
 000728,0.0004558,0.0020471,0.0432685,0.000069,0.0067107,4.8531895,0.01
 09441,-0.0174903,4.2618932,0.0309653,0.4894636,-0.0387793,-0.0000644,0
 .4895819,0.0295255,-2.7298053,-0.0121732,-0.0000671,0.0081432,0.002029
 5,-0.0331436,-0.0000567,0.0027414,-2.7296628,-0.004497,0.0064414,16.62
 8445,0.0219026,0.8017919,-0.0111535,-0.0006474,0.8229847,0.0354414,0.8
 27123,-1.40275,-0.000433,3.388742,1.4008567,-0.0302506,-0.0004518,3.38
 98908,0.8501486,1.4016714,-3.3825972,-0.5419996,-1.7840439,-0.3813437,
 -1.3668198,-0.1768093,-0.2919893,0.8083269,-1.0791665,-4.8706062,-0.35
 84358,-2.6270232,-1.9104224,0.6225603,-0.3619201,-2.2403676,-0.8883967
 ,-2.4173332,-2.9637849,-0.5379096,-0.2943609,-0.1630546,2.2342232,0.04
 80619,-0.5261731,0.1307281,-0.6288594,-0.4094248,0.0980647,1.3015779,-
 0.7052781,-0.9972386,0.0978932,0.6696363,-1.3665329,-0.789761,7.801347
 7,-0.5531328,2.0745236,-0.4607224,-0.8585995,0.1294198,-0.2080128,-0.9
 489217,-1.2425245,6.6814098,0.2607984,-2.0718957,1.2107671,0.394804,0.
 2644664,-1.8286116,-0.7187458,1.7989757,-1.4439168\HyperPolar=412.9457
 584,0.2038024,-6.1121983,9.6852643,0.3112365,0.0032511,-23.4320574,-6.
 2751772,-9.6974294,23.4151166\Quadrupole=1.7457301,-0.8728039,-0.87292
 63,0.0064285,-0.0059508,-0.0000151\PG=C01 [X(C1H3Cl1F1)]\NImag=1\\-0.0
 9737963,-0.00018455,0.00106362,0.00014227,0.00000028,0.00106388,0.1113
 4012,0.00020887,-0.00015792,-0.12431037,0.00020486,-0.00197173,-0.0000
 0039,-0.00023565,0.00405170,-0.00015079,-0.00000039,-0.00197284,0.0001
 7483,0.00000035,0.00405221,-0.01811022,-0.00003306,0.00002312,0.020605
 41,0.00004093,-0.00002832,0.02242889,-0.00001206,0.00074086,0.00000043
 ,0.00002116,-0.00210753,-0.00000014,0.00067634,0.68909540,-0.00000877,
 0.00000040,0.00074458,0.00000165,-0.00000011,-0.00210825,-0.00189515,-
 0.00000161,0.68906263,0.00138385,0.00018792,0.00014040,-0.00254649,-0.
 00084105,-0.00063980,-0.00825949,-0.02242083,-0.01699384,0.00543330,-0
 .00007283,0.00007383,0.00006929,0.00055751,0.00000796,-0.00000944,-0.0
 1719810,-0.27130157,-0.15701082,0.01861952,0.27690829,-0.00005123,0.00
 006954,0.00003689,0.00041910,-0.00001104,0.00001047,-0.01297644,-0.157
 03356,-0.18722294,0.01410222,0.17069031,0.18549301,0.00136923,0.000033
 17,-0.00023507,-0.00251008,-0.00014127,0.00104624,-0.00847555,-0.00389
 963,0.02937899,0.00200320,0.00055517,-0.00272961,0.00561460,-0.0000135
 8,-0.00001368,-0.00001832,0.00009332,0.00001852,0.00000186,-0.00304300
 ,-0.07223179,0.04198808,0.00241545,0.00904438,-0.02567168,0.00328374,0
 .06049879,0.00009770,-0.00001820,0.00012292,-0.00069906,0.00000137,0.0
 0000230,0.02283613,0.04199396,-0.38607920,0.00158173,0.00557395,-0.011
 05539,-0.02471576,-0.04565234,0.40170022,0.00139665,-0.00021235,0.0000
 8720,-0.00257859,0.00097218,-0.00040216,-0.00818905,0.02563503,-0.0104
 8288,0.00198563,-0.00246128,0.00123595,0.00199860,-0.00273592,0.000899
 27,0.00538676,0.00007817,0.00010708,-0.00005128,-0.00064521,0.00000107
 ,0.00000776,0.01955689,-0.34419537,0.11502406,0.00203899,-0.01473289,0
 .01195642,0.00016882,0.00268379,-0.00189874,-0.02119766,0.35613632,-0.
 00002917,-0.00005163,0.00000457,0.00026139,0.00000983,0.00001611,-0.00
 795934,0.11504092,-0.11439682,0.00180929,-0.01931329,0.01273795,-0.002
 74479,0.02935240,-0.00469086,0.00866262,-0.12503823,0.10632904\\-0.000
 00505,0.00000188,-0.00000319,0.00000761,0.00000046,0.00000026,0.000004
 60,-0.00000217,0.00000317,-0.00000199,-0.00000147,-0.00000067,-0.00001
 150,-0.00000048,0.00000111,0.00000632,0.00000179,-0.00000068\\\@


 Life may have no meaning.  Or even worse, it may have a
 meaning of which I disapprove.
                                 -- Ashleigh Brilliant
 Job cpu time:       0 days  0 hours  2 minutes 14.5 seconds.
 Elapsed time:       0 days  0 hours  0 minutes 21.2 seconds.
 File lengths (MBytes):  RWF=      9 Int=      0 D2E=      0 Chk=      1 Scr=      1
 Normal termination of Gaussian 16 at Wed Oct  7 12:41:40 2020.
