 Entering Gaussian System, Link 0=g16
 Input=MN_64_HS_BH76_HF_631Gs.in
 Output=MN_64_HS_BH76_HF_631Gs.log
 Initial command:
 /udrive/faculty/rpeverati/g16/g16/l1.exe "/udrive/scratch-directories/gaussian09/rpeverati/Gau-13474.inp" -scrdir="/udrive/scratch-directories/gaussian09/rpeverati/"
 Entering Link 1 = /udrive/faculty/rpeverati/g16/g16/l1.exe PID=     13507.
  
 Copyright (c) 1988,1990,1992,1993,1995,1998,2003,2009,2016,
            Gaussian, Inc.  All Rights Reserved.
  
 This is part of the Gaussian(R) 16 program.  It is based on
 the Gaussian(R) 09 system (copyright 2009, Gaussian, Inc.),
 the Gaussian(R) 03 system (copyright 2003, Gaussian, Inc.),
 the Gaussian(R) 98 system (copyright 1998, Gaussian, Inc.),
 the Gaussian(R) 94 system (copyright 1995, Gaussian, Inc.),
 the Gaussian 92(TM) system (copyright 1992, Gaussian, Inc.),
 the Gaussian 90(TM) system (copyright 1990, Gaussian, Inc.),
 the Gaussian 88(TM) system (copyright 1988, Gaussian, Inc.),
 the Gaussian 86(TM) system (copyright 1986, Carnegie Mellon
 University), and the Gaussian 82(TM) system (copyright 1983,
 Carnegie Mellon University). Gaussian is a federally registered
 trademark of Gaussian, Inc.
  
 This software contains proprietary and confidential information,
 including trade secrets, belonging to Gaussian, Inc.
  
 This software is provided under written license and may be
 used, copied, transmitted, or stored only in accord with that
 written license.
  
 The following legend is applicable only to US Government
 contracts under FAR:
  
                    RESTRICTED RIGHTS LEGEND
  
 Use, reproduction and disclosure by the US Government is
 subject to restrictions as set forth in subparagraphs (a)
 and (c) of the Commercial Computer Software - Restricted
 Rights clause in FAR 52.227-19.
  
 Gaussian, Inc.
 340 Quinnipiac St., Bldg. 40, Wallingford CT 06492
  
  
 ---------------------------------------------------------------
 Warning -- This program may not be used in any manner that
 competes with the business of Gaussian, Inc. or will provide
 assistance to any competitor of Gaussian, Inc.  The licensee
 of this program is prohibited from giving any competitor of
 Gaussian, Inc. access to this program.  By using this program,
 the user acknowledges that Gaussian, Inc. is engaged in the
 business of creating and licensing software in the field of
 computational chemistry and represents and warrants to the
 licensee that it is not a competitor of Gaussian, Inc. and that
 it will not use this program in any manner prohibited above.
 ---------------------------------------------------------------
  

 Cite this work as:
 Gaussian 16, Revision A.03,
 M. J. Frisch, G. W. Trucks, H. B. Schlegel, G. E. Scuseria, 
 M. A. Robb, J. R. Cheeseman, G. Scalmani, V. Barone, 
 G. A. Petersson, H. Nakatsuji, X. Li, M. Caricato, A. V. Marenich, 
 J. Bloino, B. G. Janesko, R. Gomperts, B. Mennucci, H. P. Hratchian, 
 J. V. Ortiz, A. F. Izmaylov, J. L. Sonnenberg, D. Williams-Young, 
 F. Ding, F. Lipparini, F. Egidi, J. Goings, B. Peng, A. Petrone, 
 T. Henderson, D. Ranasinghe, V. G. Zakrzewski, J. Gao, N. Rega, 
 G. Zheng, W. Liang, M. Hada, M. Ehara, K. Toyota, R. Fukuda, 
 J. Hasegawa, M. Ishida, T. Nakajima, Y. Honda, O. Kitao, H. Nakai, 
 T. Vreven, K. Throssell, J. A. Montgomery, Jr., J. E. Peralta, 
 F. Ogliaro, M. J. Bearpark, J. J. Heyd, E. N. Brothers, K. N. Kudin, 
 V. N. Staroverov, T. A. Keith, R. Kobayashi, J. Normand, 
 K. Raghavachari, A. P. Rendell, J. C. Burant, S. S. Iyengar, 
 J. Tomasi, M. Cossi, J. M. Millam, M. Klene, C. Adamo, R. Cammi, 
 J. W. Ochterski, R. L. Martin, K. Morokuma, O. Farkas, 
 J. B. Foresman, and D. J. Fox, Gaussian, Inc., Wallingford CT, 2016.
 
 ******************************************
 Gaussian 16:  ES64L-G16RevA.03 25-Dec-2016
                 7-Oct-2020 
 ******************************************
 %NoSave
 %nproc=12
 Will use up to   12 processors via shared memory.
 %mem=20GB
 %chk=MN_64_HS_BH76_HF_631Gs
 ----------------------------------------------------------------------
 #P Opt(MaxCyc=100) HF/6-31G* 5D 7F Integral=UltraFineGrid SCF=(NoSymm,
 XQC,MaxCyc=120) IOp(1/33=1)
 ----------------------------------------------------------------------
 1/6=100,18=20,19=15,33=1,38=1/1,3;
 2/9=110,12=2,17=6,18=5,40=1/2;
 3/5=1,6=6,7=1,8=11,11=9,25=1,30=1,71=1,75=-5/1,2,3;
 4/9=2/1;
 5/5=2,7=120,8=3,13=1,38=5/2,8;
 6/7=2,8=2,9=2,10=2,28=1/1;
 7//1,2,3,16;
 1/6=100,18=20,19=15,33=1/3(2);
 2/9=110/2;
 99//99;
 2/9=110/2;
 3/5=1,6=6,7=1,8=11,11=9,25=1,30=1,71=1,75=-5/1,2,3;
 4/5=5,9=2,16=3,69=1/1;
 5/5=2,7=120,8=3,13=1,38=5/2,8;
 7//1,2,3,16;
 1/6=100,18=20,19=15,33=1/3(-5);
 2/9=110/2;
 6/7=2,8=2,9=2,10=2,19=2,28=1/1;
 99/9=1/99;
 Leave Link    1 at Wed Oct  7 12:36:58 2020, MaxMem=  2684354560 cpu:               5.9 elap:               0.6
 (Enter /udrive/faculty/rpeverati/g16/g16/l101.exe)
 ONIOM data not found on unit 2.
 ------------------
 TS search on BH76.
 ------------------
 TstMul:  ICh=     0
 TstMul:  Mul=     2
 TstMul:  ICh=     0
 TstMul:  Mul=     2
 Symbolic Z-matrix:
 Charge =  0 Multiplicity = 2
 S                     0.        0.        0.07884 
 H                     0.        0.       -1.26137 
 
 RdStrC is calling ZToCFu for IStruc=1 NZ=     2.
 PrtBox:  NBox=     1 Levels=  1 BoxLen=    8.00 SMaxX=        2.53
          Shift=            0.000000            0.000000            2.383640
 Box      1 Number                   0 centers from      1 to      2:
 After GenITR:
 ITRead=  0  0
 MicOpt= -1 -1
 ITRead=  0  0
 MicOpt= -1 -1
 NAtoms=      2 NQM=        2 NQMF=       0 NMMI=      0 NMMIF=      0
                NMic=       0 NMicF=      0.
                    Isotopes and Nuclear Properties:
 (Nuclear quadrupole moments (NQMom) in fm**2, nuclear magnetic moments (NMagM)
  in nuclear magnetons)

  Atom         1           2
 IAtWgt=          32           1
 AtmWgt=  31.9720718   1.0078250
 NucSpn=           0           1
 AtZEff=   0.0000000   0.0000000
 NQMom=    0.0000000   0.0000000
 NMagM=    0.0000000   2.7928460
 AtZNuc=  16.0000000   1.0000000
 No MM parameters found.
 Leave Link  101 at Wed Oct  7 12:36:59 2020, MaxMem=  2684354560 cpu:               4.3 elap:               0.5
 (Enter /udrive/faculty/rpeverati/g16/g16/l103.exe)

 GradGradGradGradGradGradGradGradGradGradGradGradGradGradGradGradGradGrad
 Berny optimization.
 Optmz: redundant internal coordinate code flag= 1
 Initialization pass.
                           ----------------------------
                           !    Initial Parameters    !
                           ! (Angstroms and Degrees)  !
 --------------------------                            --------------------------
 ! Name  Definition              Value          Derivative Info.                !
 --------------------------------------------------------------------------------
 ! R1    R(1,2)                  1.3402         estimate D2E/DX2                !
 --------------------------------------------------------------------------------
 Maximum allowed force set to 1.00D+20.
 Trust Radius=3.00D-01 FncErr=1.00D-07 GrdErr=1.00D-07 EigMax=2.50D+02 EigMin=1.00D-04
 Number of steps in this run=    100 maximum allowed number of steps=    100.
 GradGradGradGradGradGradGradGradGradGradGradGradGradGradGradGradGradGrad

 Leave Link  103 at Wed Oct  7 12:37:00 2020, MaxMem=  2684354560 cpu:               1.7 elap:               0.7
 (Enter /udrive/faculty/rpeverati/g16/g16/l202.exe)
                          Input orientation:                          
 ---------------------------------------------------------------------
 Center     Atomic      Atomic             Coordinates (Angstroms)
 Number     Number       Type             X           Y           Z
 ---------------------------------------------------------------------
      1         16           0        0.000000    0.000000    0.078835
      2          1           0        0.000000    0.000000   -1.261368
 ---------------------------------------------------------------------
 Stoichiometry    HS(2)
 Framework group  C*V[C*(HS)]
 Deg. of freedom     1
 Full point group                 C*V     NOp   4
 Largest Abelian subgroup         C2V     NOp   4
 Largest concise Abelian subgroup C1      NOp   1
                         Standard orientation:                         
 ---------------------------------------------------------------------
 Center     Atomic      Atomic             Coordinates (Angstroms)
 Number     Number       Type             X           Y           Z
 ---------------------------------------------------------------------
      1         16           0        0.000000    0.000000    0.078835
      2          1           0        0.000000    0.000000   -1.261368
 ---------------------------------------------------------------------
 Rotational constants (GHZ):           0.0000000         287.9846027         287.9846027
 Leave Link  202 at Wed Oct  7 12:37:01 2020, MaxMem=  2684354560 cpu:               2.2 elap:               0.7
 (Enter /udrive/faculty/rpeverati/g16/g16/l301.exe)
 Standard basis: 6-31G(d) (5D, 7F)
 Ernie: Thresh=  0.10000D-02 Tol=  0.10000D-05 Strict=F.
 There are    12 symmetry adapted cartesian basis functions of A1  symmetry.
 There are     1 symmetry adapted cartesian basis functions of A2  symmetry.
 There are     4 symmetry adapted cartesian basis functions of B1  symmetry.
 There are     4 symmetry adapted cartesian basis functions of B2  symmetry.
 There are    11 symmetry adapted basis functions of A1  symmetry.
 There are     1 symmetry adapted basis functions of A2  symmetry.
 There are     4 symmetry adapted basis functions of B1  symmetry.
 There are     4 symmetry adapted basis functions of B2  symmetry.
    20 basis functions,    56 primitive gaussians,    21 cartesian basis functions
     9 alpha electrons        8 beta electrons
       nuclear repulsion energy         6.3175758527 Hartrees.
 IExCor=    0 DFT=F Ex=HF Corr=None ExCW=0 ScaHFX=  1.000000
 ScaDFX=  1.000000  1.000000  1.000000  1.000000 ScalE2=  1.000000  1.000000
 IRadAn=      5 IRanWt=     -1 IRanGd=            0 ICorTp=0 IEmpDi=  4
 NAtoms=    2 NActive=    2 NUniq=    2 SFac= 1.00D+00 NAtFMM=   60 NAOKFM=F Big=F
 Integral buffers will be    131072 words long.
 Raffenetti 2 integral format.
 Two-electron integral symmetry is turned on.
 Leave Link  301 at Wed Oct  7 12:37:02 2020, MaxMem=  2684354560 cpu:               2.3 elap:               0.7
 (Enter /udrive/faculty/rpeverati/g16/g16/l302.exe)
 NPDir=0 NMtPBC=     1 NCelOv=     1 NCel=       1 NClECP=     1 NCelD=      1
         NCelK=      1 NCelE2=     1 NClLst=     1 CellRange=     0.0.
 One-electron integrals computed using PRISM.
 One-electron integral symmetry used in STVInt
 NBasis=    20 RedAO= T EigKep=  5.47D-02  NBF=    11     1     4     4
 NBsUse=    20 1.00D-06 EigRej= -1.00D+00 NBFU=    11     1     4     4
 Leave Link  302 at Wed Oct  7 12:37:03 2020, MaxMem=  2684354560 cpu:               3.8 elap:               0.8
 (Enter /udrive/faculty/rpeverati/g16/g16/l303.exe)
 DipDrv:  MaxL=1.
 Leave Link  303 at Wed Oct  7 12:37:04 2020, MaxMem=  2684354560 cpu:               1.5 elap:               0.5
 (Enter /udrive/faculty/rpeverati/g16/g16/l401.exe)
 SCF N**3 symmetry information disabled.
 ExpMin= 1.17D-01 ExpMax= 2.19D+04 ExpMxC= 3.30D+03 IAcc=3 IRadAn=         5 AccDes= 0.00D+00
 Harris functional with IExCor=  205 and IRadAn=       5 diagonalized for initial guess.
 HarFok:  IExCor=  205 AccDes= 0.00D+00 IRadAn=         5 IDoV= 1 UseB2=F ITyADJ=14
 ICtDFT=  3500011 ScaDFX=  1.000000  1.000000  1.000000  1.000000
 FoFCou: FMM=F IPFlag=           0 FMFlag=      100000 FMFlg1=           0
         NFxFlg=           0 DoJE=T BraDBF=F KetDBF=T FulRan=T
         wScrn=  0.000000 ICntrl=       500 IOpCl=  0 I1Cent=   200000004 NGrid=           0
         NMat0=    1 NMatS0=      1 NMatT0=    0 NMatD0=    1 NMtDS0=    0 NMtDT0=    0
 Petite list used in FoFCou.
 Harris En= -397.637506595083    
 JPrj=0 DoOrth=F DoCkMO=F.
 Initial guess orbital symmetries:
 Alpha Orbitals:
       Occupied  (SG) (SG) (SG) (PI) (PI) (SG) (SG) (PI) (PI)
       Virtual   (SG) (SG) (SG) (PI) (PI) (SG) (PI) (PI) (DLTA)
                 (DLTA) (SG)
 Beta  Orbitals:
       Occupied  (SG) (SG) (SG) (PI) (PI) (SG) (SG) (PI)
       Virtual   (PI) (SG) (SG) (SG) (PI) (PI) (SG) (PI) (PI) (DLTA)
                 (DLTA) (SG)
 Initial guess <Sx>= 0.0000 <Sy>= 0.0000 <Sz>= 0.5000 <S**2>= 0.7500 S= 0.5000
 Leave Link  401 at Wed Oct  7 12:37:05 2020, MaxMem=  2684354560 cpu:               5.9 elap:               1.0
 (Enter /udrive/faculty/rpeverati/g16/g16/l502.exe)
 Keep R1 and R2 ints in memory in symmetry-blocked form, NReq=2493936.
 FoFCou: FMM=F IPFlag=           0 FMFlag=           0 FMFlg1=           0
         NFxFlg=           0 DoJE=F BraDBF=F KetDBF=F FulRan=T
         wScrn=  0.000000 ICntrl=       600 IOpCl=  0 I1Cent=           0 NGrid=           0
         NMat0=    1 NMatS0=    210 NMatT0=    0 NMatD0=    1 NMtDS0=    0 NMtDT0=    0
 Petite list used in FoFCou.
 UHF open shell SCF:
 Using DIIS extrapolation, IDIIS=  1040.
 NGot=  2684354560 LenX=  2684338671 LenY=  2684337789
 Requested convergence on RMS density matrix=1.00D-08 within 120 cycles.
 Requested convergence on MAX density matrix=1.00D-06.
 Requested convergence on             energy=1.00D-06.
 No special actions if energy rises.

 Cycle   1  Pass 1  IDiag  1:
 E= -398.051547526746    
 DIIS: error= 3.46D-02 at cycle   1 NSaved=   1.
 NSaved= 1 IEnMin= 1 EnMin= -398.051547526746     IErMin= 1 ErrMin= 3.46D-02
 ErrMax= 3.46D-02  0.00D+00 EMaxC= 1.00D-01 BMatC= 9.57D-02 BMatP= 9.57D-02
 IDIUse=3 WtCom= 6.54D-01 WtEn= 3.46D-01
 Coeff-Com:  0.100D+01
 Coeff-En:   0.100D+01
 Coeff:      0.100D+01
 Gap=     0.632 Goal=   None    Shift=    0.000
 Gap=     0.395 Goal=   None    Shift=    0.000
 GapD=    0.395 DampG=1.000 DampE=0.500 DampFc=0.5000 IDamp=-1.
 Damping current iteration by 5.00D-01
 RMSDP=4.34D-03 MaxDP=3.37D-02              OVMax= 3.14D-02

 Cycle   2  Pass 1  IDiag  1:
 E= -398.056522469663     Delta-E=       -0.004974942917 Rises=F Damp=T
 DIIS: error= 1.78D-02 at cycle   2 NSaved=   2.
 NSaved= 2 IEnMin= 2 EnMin= -398.056522469663     IErMin= 2 ErrMin= 1.78D-02
 ErrMax= 1.78D-02  0.00D+00 EMaxC= 1.00D-01 BMatC= 2.77D-02 BMatP= 9.57D-02
 IDIUse=3 WtCom= 8.22D-01 WtEn= 1.78D-01
 Coeff-Com: -0.112D+01 0.212D+01
 Coeff-En:   0.000D+00 0.100D+01
 Coeff:     -0.924D+00 0.192D+01
 Gap=     0.580 Goal=   None    Shift=    0.000
 Gap=     0.381 Goal=   None    Shift=    0.000
 RMSDP=2.87D-03 MaxDP=1.96D-02 DE=-4.97D-03 OVMax= 8.34D-03

 Cycle   3  Pass 1  IDiag  1:
 E= -398.062753110646     Delta-E=       -0.006230640983 Rises=F Damp=F
 DIIS: error= 1.71D-03 at cycle   3 NSaved=   3.
 NSaved= 3 IEnMin= 3 EnMin= -398.062753110646     IErMin= 3 ErrMin= 1.71D-03
 ErrMax= 1.71D-03  0.00D+00 EMaxC= 1.00D-01 BMatC= 2.40D-04 BMatP= 2.77D-02
 IDIUse=3 WtCom= 9.83D-01 WtEn= 1.71D-02
 Coeff-Com:  0.596D+00-0.116D+01 0.156D+01
 Coeff-En:   0.000D+00 0.000D+00 0.100D+01
 Coeff:      0.585D+00-0.114D+01 0.155D+01
 Gap=     0.579 Goal=   None    Shift=    0.000
 Gap=     0.383 Goal=   None    Shift=    0.000
 RMSDP=7.61D-04 MaxDP=1.01D-02 DE=-6.23D-03 OVMax= 6.15D-03

 Cycle   4  Pass 1  IDiag  1:
 E= -398.062899631239     Delta-E=       -0.000146520593 Rises=F Damp=F
 DIIS: error= 4.60D-04 at cycle   4 NSaved=   4.
 NSaved= 4 IEnMin= 4 EnMin= -398.062899631239     IErMin= 4 ErrMin= 4.60D-04
 ErrMax= 4.60D-04  0.00D+00 EMaxC= 1.00D-01 BMatC= 1.16D-05 BMatP= 2.40D-04
 IDIUse=3 WtCom= 9.95D-01 WtEn= 4.60D-03
 Coeff-Com:  0.485D-01-0.946D-01-0.492D-01 0.110D+01
 Coeff-En:   0.000D+00 0.000D+00 0.000D+00 0.100D+01
 Coeff:      0.483D-01-0.942D-01-0.490D-01 0.109D+01
 Gap=     0.580 Goal=   None    Shift=    0.000
 Gap=     0.383 Goal=   None    Shift=    0.000
 RMSDP=1.85D-04 MaxDP=2.84D-03 DE=-1.47D-04 OVMax= 1.17D-03

 Cycle   5  Pass 1  IDiag  1:
 E= -398.062907314886     Delta-E=       -0.000007683647 Rises=F Damp=F
 DIIS: error= 1.55D-04 at cycle   5 NSaved=   5.
 NSaved= 5 IEnMin= 5 EnMin= -398.062907314886     IErMin= 5 ErrMin= 1.55D-04
 ErrMax= 1.55D-04  0.00D+00 EMaxC= 1.00D-01 BMatC= 1.35D-06 BMatP= 1.16D-05
 IDIUse=3 WtCom= 9.98D-01 WtEn= 1.55D-03
 Coeff-Com: -0.731D-01 0.143D+00-0.120D+00-0.476D+00 0.153D+01
 Coeff-En:   0.000D+00 0.000D+00 0.000D+00 0.000D+00 0.100D+01
 Coeff:     -0.730D-01 0.143D+00-0.120D+00-0.475D+00 0.152D+01
 Gap=     0.580 Goal=   None    Shift=    0.000
 Gap=     0.383 Goal=   None    Shift=    0.000
 RMSDP=7.68D-05 MaxDP=7.32D-04 DE=-7.68D-06 OVMax= 5.10D-04

 Cycle   6  Pass 1  IDiag  1:
 E= -398.062908331121     Delta-E=       -0.000001016235 Rises=F Damp=F
 DIIS: error= 2.89D-05 at cycle   6 NSaved=   6.
 NSaved= 6 IEnMin= 6 EnMin= -398.062908331121     IErMin= 6 ErrMin= 2.89D-05
 ErrMax= 2.89D-05  0.00D+00 EMaxC= 1.00D-01 BMatC= 5.24D-08 BMatP= 1.35D-06
 IDIUse=1 WtCom= 1.00D+00 WtEn= 0.00D+00
 Coeff-Com:  0.214D-01-0.419D-01 0.422D-01 0.101D+00-0.502D+00 0.138D+01
 Coeff:      0.214D-01-0.419D-01 0.422D-01 0.101D+00-0.502D+00 0.138D+01
 Gap=     0.580 Goal=   None    Shift=    0.000
 Gap=     0.383 Goal=   None    Shift=    0.000
 RMSDP=1.62D-05 MaxDP=1.77D-04 DE=-1.02D-06 OVMax= 1.02D-04

 Cycle   7  Pass 1  IDiag  1:
 E= -398.062908380048     Delta-E=       -0.000000048927 Rises=F Damp=F
 DIIS: error= 1.11D-05 at cycle   7 NSaved=   7.
 NSaved= 7 IEnMin= 7 EnMin= -398.062908380048     IErMin= 7 ErrMin= 1.11D-05
 ErrMax= 1.11D-05  0.00D+00 EMaxC= 1.00D-01 BMatC= 5.92D-09 BMatP= 5.24D-08
 IDIUse=1 WtCom= 1.00D+00 WtEn= 0.00D+00
 Coeff-Com: -0.383D-02 0.754D-02-0.901D-02-0.696D-02 0.863D-01-0.570D+00
 Coeff-Com:  0.150D+01
 Coeff:     -0.383D-02 0.754D-02-0.901D-02-0.696D-02 0.863D-01-0.570D+00
 Coeff:      0.150D+01
 Gap=     0.580 Goal=   None    Shift=    0.000
 Gap=     0.383 Goal=   None    Shift=    0.000
 RMSDP=7.38D-06 MaxDP=6.73D-05 DE=-4.89D-08 OVMax= 6.15D-05

 Cycle   8  Pass 1  IDiag  1:
 E= -398.062908387479     Delta-E=       -0.000000007431 Rises=F Damp=F
 DIIS: error= 5.28D-06 at cycle   8 NSaved=   8.
 NSaved= 8 IEnMin= 8 EnMin= -398.062908387479     IErMin= 8 ErrMin= 5.28D-06
 ErrMax= 5.28D-06  0.00D+00 EMaxC= 1.00D-01 BMatC= 1.21D-09 BMatP= 5.92D-09
 IDIUse=1 WtCom= 1.00D+00 WtEn= 0.00D+00
 Coeff-Com:  0.219D-02-0.432D-02 0.617D-02-0.332D-02-0.496D-01 0.519D+00
 Coeff-Com: -0.170D+01 0.223D+01
 Coeff:      0.219D-02-0.432D-02 0.617D-02-0.332D-02-0.496D-01 0.519D+00
 Coeff:     -0.170D+01 0.223D+01
 Gap=     0.580 Goal=   None    Shift=    0.000
 Gap=     0.383 Goal=   None    Shift=    0.000
 RMSDP=4.72D-06 MaxDP=3.84D-05 DE=-7.43D-09 OVMax= 4.61D-05

 Cycle   9  Pass 1  IDiag  1:
 E= -398.062908389473     Delta-E=       -0.000000001994 Rises=F Damp=F
 DIIS: error= 1.51D-06 at cycle   9 NSaved=   9.
 NSaved= 9 IEnMin= 9 EnMin= -398.062908389473     IErMin= 9 ErrMin= 1.51D-06
 ErrMax= 1.51D-06  0.00D+00 EMaxC= 1.00D-01 BMatC= 1.30D-10 BMatP= 1.21D-09
 IDIUse=1 WtCom= 1.00D+00 WtEn= 0.00D+00
 Coeff-Com: -0.147D-03 0.298D-03-0.723D-03 0.247D-02 0.305D-02-0.102D+00
 Coeff-Com:  0.425D+00-0.927D+00 0.160D+01
 Coeff:     -0.147D-03 0.298D-03-0.723D-03 0.247D-02 0.305D-02-0.102D+00
 Coeff:      0.425D+00-0.927D+00 0.160D+01
 Gap=     0.580 Goal=   None    Shift=    0.000
 Gap=     0.383 Goal=   None    Shift=    0.000
 RMSDP=1.69D-06 MaxDP=1.44D-05 DE=-1.99D-09 OVMax= 1.65D-05

 Cycle  10  Pass 1  IDiag  1:
 E= -398.062908389682     Delta-E=       -0.000000000209 Rises=F Damp=F
 DIIS: error= 3.20D-07 at cycle  10 NSaved=  10.
 NSaved=10 IEnMin=10 EnMin= -398.062908389682     IErMin=10 ErrMin= 3.20D-07
 ErrMax= 3.20D-07  0.00D+00 EMaxC= 1.00D-01 BMatC= 6.97D-12 BMatP= 1.30D-10
 IDIUse=1 WtCom= 1.00D+00 WtEn= 0.00D+00
 Coeff-Com: -0.152D-03 0.297D-03-0.357D-03-0.249D-03 0.328D-02-0.193D-01
 Coeff-Com:  0.389D-01 0.380D-01-0.383D+00 0.132D+01
 Coeff:     -0.152D-03 0.297D-03-0.357D-03-0.249D-03 0.328D-02-0.193D-01
 Coeff:      0.389D-01 0.380D-01-0.383D+00 0.132D+01
 Gap=     0.580 Goal=   None    Shift=    0.000
 Gap=     0.383 Goal=   None    Shift=    0.000
 RMSDP=2.81D-07 MaxDP=2.10D-06 DE=-2.09D-10 OVMax= 2.72D-06

 Cycle  11  Pass 1  IDiag  1:
 E= -398.062908389690     Delta-E=       -0.000000000008 Rises=F Damp=F
 DIIS: error= 8.24D-08 at cycle  11 NSaved=  11.
 NSaved=11 IEnMin=11 EnMin= -398.062908389690     IErMin=11 ErrMin= 8.24D-08
 ErrMax= 8.24D-08  0.00D+00 EMaxC= 1.00D-01 BMatC= 4.84D-13 BMatP= 6.97D-12
 IDIUse=1 WtCom= 1.00D+00 WtEn= 0.00D+00
 Coeff-Com:  0.493D-04-0.971D-04 0.137D-03-0.728D-04-0.115D-02 0.127D-01
 Coeff-Com: -0.414D-01 0.573D-01-0.159D-01-0.373D+00 0.136D+01
 Coeff:      0.493D-04-0.971D-04 0.137D-03-0.728D-04-0.115D-02 0.127D-01
 Coeff:     -0.414D-01 0.573D-01-0.159D-01-0.373D+00 0.136D+01
 Gap=     0.580 Goal=   None    Shift=    0.000
 Gap=     0.383 Goal=   None    Shift=    0.000
 RMSDP=6.77D-08 MaxDP=6.12D-07 DE=-8.07D-12 OVMax= 5.08D-07

 Cycle  12  Pass 1  IDiag  1:
 E= -398.062908389690     Delta-E=       -0.000000000000 Rises=F Damp=F
 DIIS: error= 2.01D-08 at cycle  12 NSaved=  12.
 NSaved=12 IEnMin=12 EnMin= -398.062908389690     IErMin=12 ErrMin= 2.01D-08
 ErrMax= 2.01D-08  0.00D+00 EMaxC= 1.00D-01 BMatC= 2.42D-14 BMatP= 4.84D-13
 IDIUse=1 WtCom= 1.00D+00 WtEn= 0.00D+00
 Coeff-Com: -0.147D-04 0.290D-04-0.434D-04 0.450D-04 0.362D-03-0.481D-02
 Coeff-Com:  0.169D-01-0.277D-01 0.253D-01 0.105D+00-0.620D+00 0.150D+01
 Coeff:     -0.147D-04 0.290D-04-0.434D-04 0.450D-04 0.362D-03-0.481D-02
 Coeff:      0.169D-01-0.277D-01 0.253D-01 0.105D+00-0.620D+00 0.150D+01
 Gap=     0.580 Goal=   None    Shift=    0.000
 Gap=     0.383 Goal=   None    Shift=    0.000
 RMSDP=1.59D-08 MaxDP=1.59D-07 DE=-2.27D-13 OVMax= 8.26D-08

 Cycle  13  Pass 1  IDiag  1:
 E= -398.062908389690     Delta-E=       -0.000000000000 Rises=F Damp=F
 DIIS: error= 2.40D-09 at cycle  13 NSaved=  13.
 NSaved=13 IEnMin=13 EnMin= -398.062908389690     IErMin=13 ErrMin= 2.40D-09
 ErrMax= 2.40D-09  0.00D+00 EMaxC= 1.00D-01 BMatC= 5.78D-16 BMatP= 2.42D-14
 IDIUse=1 WtCom= 1.00D+00 WtEn= 0.00D+00
 Coeff-Com:  0.322D-05-0.637D-05 0.102D-04-0.160D-04-0.770D-04 0.122D-02
 Coeff-Com: -0.444D-02 0.782D-02-0.877D-02-0.223D-01 0.168D+00-0.524D+00
 Coeff-Com:  0.138D+01
 Coeff:      0.322D-05-0.637D-05 0.102D-04-0.160D-04-0.770D-04 0.122D-02
 Coeff:     -0.444D-02 0.782D-02-0.877D-02-0.223D-01 0.168D+00-0.524D+00
 Coeff:      0.138D+01
 Gap=     0.580 Goal=   None    Shift=    0.000
 Gap=     0.383 Goal=   None    Shift=    0.000
 RMSDP=2.49D-09 MaxDP=2.19D-08 DE=-5.68D-14 OVMax= 1.08D-08

 SCF Done:  E(UHF) =  -398.062908390     A.U. after   13 cycles
            NFock= 13  Conv=0.25D-08     -V/T= 1.9996
 <Sx>= 0.0000 <Sy>= 0.0000 <Sz>= 0.5000 <S**2>= 0.7576 S= 0.5038
 <L.S>= 0.000000000000E+00
 KE= 3.982139209237D+02 PE=-9.608977634561D+02 EE= 1.583033582900D+02
 Annihilation of the first spin contaminant:
 S**2 before annihilation     0.7576,   after     0.7500
 Leave Link  502 at Wed Oct  7 12:37:06 2020, MaxMem=  2684354560 cpu:               9.4 elap:               1.3
 (Enter /udrive/faculty/rpeverati/g16/g16/l508.exe)
 QCSCF skips out because SCF is already converged.
 Leave Link  508 at Wed Oct  7 12:37:07 2020, MaxMem=  2684354560 cpu:               0.6 elap:               0.5
 (Enter /udrive/faculty/rpeverati/g16/g16/l601.exe)
 Copying SCF densities to generalized density rwf, IOpCl= 1 IROHF=0.

 **********************************************************************

            Population analysis using the SCF density.

 **********************************************************************

 Orbital symmetries:
 Alpha Orbitals:
       Occupied  (SG) (SG) (PI) (SG) (PI) (SG) (SG) (PI) (PI)
       Virtual   (SG) (SG) (PI) (SG) (PI) (?A) (PI) (?A) (?A) (PI)
                 (?A)
 Beta  Orbitals:
       Occupied  (SG) (SG) (SG) (PI) (PI) (SG) (SG) (?A)
       Virtual   (?A) (SG) (SG) (SG) (?A) (?A) (?B) (PI) (PI) (?B)
                 (?B) (SG)
 Unable to determine electronic state:  an orbital has unidentified symmetry.
 Alpha  occ. eigenvalues --  -91.96959  -8.98660  -6.68223  -6.66478  -6.66108
 Alpha  occ. eigenvalues --   -0.99031  -0.55312  -0.46766  -0.40175
 Alpha virt. eigenvalues --    0.17871   0.42806   0.48788   0.49287   0.52668
 Alpha virt. eigenvalues --    0.91943   0.96377   0.98660   0.99275   1.01255
 Alpha virt. eigenvalues --    1.41198
  Beta  occ. eigenvalues --  -91.96036  -8.97671  -6.65966  -6.65587  -6.64217
  Beta  occ. eigenvalues --   -0.89728  -0.53155  -0.37640
  Beta virt. eigenvalues --    0.00660   0.19575   0.44986   0.50220   0.53576
  Beta virt. eigenvalues --    0.57821   0.93796   1.02205   1.04987   1.07377
  Beta virt. eigenvalues --    1.07593   1.42513
          Condensed to atoms (all electrons):
               1          2
     1  S   15.850027   0.243771
     2  H    0.243771   0.662430
          Atomic-Atomic Spin Densities.
               1          2
     1  S    1.066807  -0.020892
     2  H   -0.020892  -0.025023
 Mulliken charges and spin densities:
               1          2
     1  S   -0.093798   1.045915
     2  H    0.093798  -0.045915
 Sum of Mulliken charges =  -0.00000   1.00000
 Mulliken charges and spin densities with hydrogens summed into heavy atoms:
               1          2
     1  S   -0.000000   1.000000
 Electronic spatial extent (au):  <R**2>=             36.5443
 Charge=             -0.0000 electrons
 Dipole moment (field-independent basis, Debye):
    X=              0.0000    Y=             -0.0000    Z=             -1.0712  Tot=              1.0712
 Quadrupole moment (field-independent basis, Debye-Ang):
   XX=            -12.8985   YY=            -15.8932   ZZ=            -12.2419
   XY=              0.0000   XZ=              0.0000   YZ=             -0.0000
 Traceless Quadrupole moment (field-independent basis, Debye-Ang):
   XX=              0.7794   YY=             -2.2153   ZZ=              1.4359
   XY=              0.0000   XZ=              0.0000   YZ=             -0.0000
 Octapole moment (field-independent basis, Debye-Ang**2):
  XXX=              0.0000  YYY=             -0.0000  ZZZ=             -1.3913  XYY=              0.0000
  XXY=             -0.0000  XXZ=             -0.2676  XZZ=              0.0000  YZZ=             -0.0000
  YYZ=             -0.4906  XYZ=              0.0000
 Hexadecapole moment (field-independent basis, Debye-Ang**3):
 XXXX=            -15.4823 YYYY=            -22.6873 ZZZZ=            -21.7132 XXXY=              0.0000
 XXXZ=              0.0000 YYYX=              0.0000 YYYZ=             -0.0000 ZZZX=              0.0000
 ZZZY=             -0.0000 XXYY=             -6.3612 XXZZ=             -6.5535 YYZZ=             -7.7717
 XXYZ=             -0.0000 YYXZ=              0.0000 ZZXY=              0.0000
 N-N= 6.317575852743D+00 E-N=-9.608977634545D+02  KE= 3.982139209237D+02
                          Isotropic Fermi Contact Couplings
        Atom                 a.u.       MegaHertz       Gauss      10(-4) cm-1
     1  S(33)              0.17266      59.30390      21.16111      19.78165
     2  H(1)              -0.01499     -66.99311     -23.90481     -22.34650
 --------------------------------------------------------
       Center         ----  Spin Dipole Couplings  ----
                      3XX-RR        3YY-RR        3ZZ-RR
 --------------------------------------------------------
     1   Atom        4.015337     -1.996384     -2.018953
     2   Atom       -0.002002     -0.042424      0.044426
 --------------------------------------------------------
                        XY            XZ            YZ
 --------------------------------------------------------
     1   Atom        0.000000      0.000000      0.000000
     2   Atom        0.000000      0.000000      0.000000
 --------------------------------------------------------


 ---------------------------------------------------------------------------------
              Anisotropic Spin Dipole Couplings in Principal Axis System
 ---------------------------------------------------------------------------------

       Atom             a.u.   MegaHertz   Gauss  10(-4) cm-1        Axes

              Baa    -2.0190   -82.775   -29.536   -27.611  0.0000  0.0000  1.0000
     1 S(33)  Bbb    -1.9964   -81.850   -29.206   -27.302  0.0000  1.0000  0.0000
              Bcc     4.0153   164.625    58.742    54.913  1.0000  0.0000  0.0000
 
              Baa    -0.0424   -22.635    -8.077    -7.550  0.0000  1.0000  0.0000
     2 H(1)   Bbb    -0.0020    -1.068    -0.381    -0.356  1.0000  0.0000  0.0000
              Bcc     0.0444    23.704     8.458     7.907  0.0000  0.0000  1.0000
 

 ---------------------------------------------------------------------------------

 No NMR shielding tensors so no spin-rotation constants.
 Leave Link  601 at Wed Oct  7 12:37:08 2020, MaxMem=  2684354560 cpu:               5.5 elap:               0.8
 (Enter /udrive/faculty/rpeverati/g16/g16/l701.exe)
 ... and contract with generalized density number  0.
 Compute integral first derivatives.
 Leave Link  701 at Wed Oct  7 12:37:09 2020, MaxMem=  2684354560 cpu:               3.9 elap:               0.7
 (Enter /udrive/faculty/rpeverati/g16/g16/l702.exe)
 L702 exits ... SP integral derivatives will be done elsewhere.
 Leave Link  702 at Wed Oct  7 12:37:10 2020, MaxMem=  2684354560 cpu:               1.2 elap:               0.5
 (Enter /udrive/faculty/rpeverati/g16/g16/l703.exe)
 Integral derivatives from FoFJK, PRISM(SPDF).
 Compute integral first derivatives, UseDBF=F ICtDFT=           0.
 Calling FoFJK, ICntrl=      2127 FMM=F ISym2X=1 I1Cent= 0 IOpClX= 1 NMat=1 NMatS=1 NMatT=0.
 FoFJK:  IHMeth= 1 ICntrl=    2127 DoSepK=F KAlg= 0 I1Cent=           0 FoldK=F
 IRaf=         0 NMat=       1 IRICut=       1 DoRegI=T DoRafI=F ISym2E= 1 IDoP0=0 IntGTp=1.
 FoFCou: FMM=F IPFlag=           0 FMFlag=      100000 FMFlg1=         800
         NFxFlg=           0 DoJE=F BraDBF=F KetDBF=F FulRan=T
         wScrn=  0.000000 ICntrl=      2127 IOpCl=  1 I1Cent=           0 NGrid=           0
         NMat0=    1 NMatS0=      1 NMatT0=    0 NMatD0=    1 NMtDS0=    0 NMtDT0=    0
 Petite list used in FoFCou.
 Leave Link  703 at Wed Oct  7 12:37:11 2020, MaxMem=  2684354560 cpu:               5.7 elap:               0.8
 (Enter /udrive/faculty/rpeverati/g16/g16/l716.exe)
 Dipole        = 0.00000000D+00-4.00205372D-32-4.21429422D-01
 ***** Axes restored to original set *****
 -------------------------------------------------------------------
 Center     Atomic                   Forces (Hartrees/Bohr)
 Number     Number              X              Y              Z
 -------------------------------------------------------------------
      1       16          -0.000000000   -0.000000000   -0.005782110
      2        1           0.000000000    0.000000000    0.005782110
 -------------------------------------------------------------------
 Cartesian Forces:  Max     0.005782110 RMS     0.003338303
 Leave Link  716 at Wed Oct  7 12:37:12 2020, MaxMem=  2684354560 cpu:               1.1 elap:               0.4
 (Enter /udrive/faculty/rpeverati/g16/g16/l103.exe)

 GradGradGradGradGradGradGradGradGradGradGradGradGradGradGradGradGradGrad
 Berny optimization.
 Optmz: redundant internal coordinate code flag= 1
 FormGI is forming the generalized inverse of G from B-inverse, IUseBI=4.
 Internal  Forces:  Max     0.005782110 RMS     0.005782110
 Search for a local minimum.
 Step number   1 out of a maximum of  100
 All quantities printed in internal units (Hartrees-Bohrs-Radians)
 RMS Force = .57821D-02 SwitMx=.10000D-02 MixMth= 1
 Mixed Optimization -- RFO/linear search
 Second derivative matrix not updated -- first step.
 The second derivative matrix:
                          R1
           R1           0.26406
 ITU=  0
 Eigenvectors of the second derivative matrix:
                           1
     Eigenvalues --     0.26406
   1         R1         1.00000
 RFO step:  Lambda=-1.26550083D-04 EMin= 2.64059750D-01
 Linear search not attempted -- first point.
 Iteration  1 RMS(Cart)=  0.01547608 RMS(Int)=  0.00000000
 Iteration  2 RMS(Cart)=  0.00000000 RMS(Int)=  0.00000000
 ITry= 1 IFail=0 DXMaxC= 1.09D-02 DCOld= 1.00D+10 DXMaxT= 3.00D-01 DXLimC= 3.00D+00 Rises=F
 ClnCor:  largest displacement from symmetrization is 0.00D+00 for atom     0.
 Variable       Old X    -DE/DX   Delta X   Delta X   Delta X     New X
                                 (Linear)    (Quad)   (Total)
    R1        2.53262  -0.00578   0.00000  -0.02189  -0.02189   2.51073
         Item               Value     Threshold  Converged?
 Maximum Force            0.005782     0.000450     NO 
 RMS     Force            0.005782     0.000300     NO 
 Maximum Displacement     0.010943     0.001800     NO 
 RMS     Displacement     0.015476     0.001200     NO 
 Predicted change in Energy=-6.330535D-05
 Lowest energy point so far.  Saving SCF results.
 Largest change from initial coordinates is atom    1       0.006 Angstoms.
 GradGradGradGradGradGradGradGradGradGradGradGradGradGradGradGradGradGrad

 Leave Link  103 at Wed Oct  7 12:37:13 2020, MaxMem=  2684354560 cpu:               2.4 elap:               0.7
 (Enter /udrive/faculty/rpeverati/g16/g16/l202.exe)
                          Input orientation:                          
 ---------------------------------------------------------------------
 Center     Atomic      Atomic             Coordinates (Angstroms)
 Number     Number       Type             X           Y           Z
 ---------------------------------------------------------------------
      1         16           0        0.000000    0.000000    0.073044
      2          1           0        0.000000    0.000000   -1.255577
 ---------------------------------------------------------------------
 Stoichiometry    HS(2)
 Framework group  C*V[C*(HS)]
 Deg. of freedom     1
 Full point group                 C*V     NOp   4
 RotChk:  IX=0 Diff= 0.00D+00
 Largest Abelian subgroup         C2V     NOp   4
 Largest concise Abelian subgroup C1      NOp   1
                         Standard orientation:                         
 ---------------------------------------------------------------------
 Center     Atomic      Atomic             Coordinates (Angstroms)
 Number     Number       Type             X           Y           Z
 ---------------------------------------------------------------------
      1         16           0        0.000000    0.000000    0.078154
      2          1           0        0.000000    0.000000   -1.250467
 ---------------------------------------------------------------------
 Rotational constants (GHZ):           0.0000000         293.0273131         293.0273131
 Leave Link  202 at Wed Oct  7 12:37:13 2020, MaxMem=  2684354560 cpu:               1.2 elap:               0.4
 (Enter /udrive/faculty/rpeverati/g16/g16/l301.exe)
 Standard basis: 6-31G(d) (5D, 7F)
 Ernie: Thresh=  0.10000D-02 Tol=  0.10000D-05 Strict=F.
 There are    12 symmetry adapted cartesian basis functions of A1  symmetry.
 There are     1 symmetry adapted cartesian basis functions of A2  symmetry.
 There are     4 symmetry adapted cartesian basis functions of B1  symmetry.
 There are     4 symmetry adapted cartesian basis functions of B2  symmetry.
 There are    11 symmetry adapted basis functions of A1  symmetry.
 There are     1 symmetry adapted basis functions of A2  symmetry.
 There are     4 symmetry adapted basis functions of B1  symmetry.
 There are     4 symmetry adapted basis functions of B2  symmetry.
    20 basis functions,    56 primitive gaussians,    21 cartesian basis functions
     9 alpha electrons        8 beta electrons
       nuclear repulsion energy         6.3726472930 Hartrees.
 IExCor=    0 DFT=F Ex=HF Corr=None ExCW=0 ScaHFX=  1.000000
 ScaDFX=  1.000000  1.000000  1.000000  1.000000 ScalE2=  1.000000  1.000000
 IRadAn=      5 IRanWt=     -1 IRanGd=            0 ICorTp=0 IEmpDi=  4
 NAtoms=    2 NActive=    2 NUniq=    2 SFac= 1.00D+00 NAtFMM=   60 NAOKFM=F Big=F
 Integral buffers will be    131072 words long.
 Raffenetti 2 integral format.
 Two-electron integral symmetry is turned on.
 Leave Link  301 at Wed Oct  7 12:37:14 2020, MaxMem=  2684354560 cpu:               1.7 elap:               0.5
 (Enter /udrive/faculty/rpeverati/g16/g16/l302.exe)
 NPDir=0 NMtPBC=     1 NCelOv=     1 NCel=       1 NClECP=     1 NCelD=      1
         NCelK=      1 NCelE2=     1 NClLst=     1 CellRange=     0.0.
 One-electron integrals computed using PRISM.
 One-electron integral symmetry used in STVInt
 NBasis=    20 RedAO= T EigKep=  5.36D-02  NBF=    11     1     4     4
 NBsUse=    20 1.00D-06 EigRej= -1.00D+00 NBFU=    11     1     4     4
 Leave Link  302 at Wed Oct  7 12:37:15 2020, MaxMem=  2684354560 cpu:               3.3 elap:               0.7
 (Enter /udrive/faculty/rpeverati/g16/g16/l303.exe)
 DipDrv:  MaxL=1.
 Leave Link  303 at Wed Oct  7 12:37:16 2020, MaxMem=  2684354560 cpu:               1.2 elap:               0.6
 (Enter /udrive/faculty/rpeverati/g16/g16/l401.exe)
 Initial guess from the checkpoint file:  "MN_64_HS_BH76_HF_631Gs.chk"
 SCF N**3 symmetry information disabled.
 B after Tr=     0.000000    0.000000    0.000000
         Rot=    1.000000    0.000000    0.000000    0.000000 Ang=   0.00 deg.
 Guess basis will be translated and rotated to current coordinates.
 JPrj=2 DoOrth=T DoCkMO=T.
 Initial guess orbital symmetries:
 Alpha Orbitals:
       Occupied  (SG) (SG) (PI) (SG) (PI) (SG) (SG) (PI) (PI)
       Virtual   (SG) (SG) (PI) (SG) (PI) (?A) (PI) (?A) (?A) (PI)
                 (?A)
 Beta  Orbitals:
       Occupied  (SG) (SG) (SG) (PI) (PI) (SG) (SG) (?A)
       Virtual   (?A) (SG) (SG) (SG) (?A) (?A) (?B) (PI) (PI) (?B)
                 (?B) (SG)
 Initial guess <Sx>= 0.0000 <Sy>= 0.0000 <Sz>= 0.5000 <S**2>= 0.7576 S= 0.5038
 Leave Link  401 at Wed Oct  7 12:37:17 2020, MaxMem=  2684354560 cpu:               2.4 elap:               0.6
 (Enter /udrive/faculty/rpeverati/g16/g16/l502.exe)
 Keep R1 and R2 ints in memory in symmetry-blocked form, NReq=2493936.
 FoFCou: FMM=F IPFlag=           0 FMFlag=           0 FMFlg1=           0
         NFxFlg=           0 DoJE=F BraDBF=F KetDBF=F FulRan=T
         wScrn=  0.000000 ICntrl=       600 IOpCl=  0 I1Cent=           0 NGrid=           0
         NMat0=    1 NMatS0=    210 NMatT0=    0 NMatD0=    1 NMtDS0=    0 NMtDT0=    0
 Petite list used in FoFCou.
 UHF open shell SCF:
 Using DIIS extrapolation, IDIIS=  1040.
 NGot=  2684354560 LenX=  2684338671 LenY=  2684337789
 Requested convergence on RMS density matrix=1.00D-08 within 120 cycles.
 Requested convergence on MAX density matrix=1.00D-06.
 Requested convergence on             energy=1.00D-06.
 No special actions if energy rises.

 Cycle   1  Pass 1  IDiag  1:
 E= -398.062941904160    
 DIIS: error= 1.09D-03 at cycle   1 NSaved=   1.
 NSaved= 1 IEnMin= 1 EnMin= -398.062941904160     IErMin= 1 ErrMin= 1.09D-03
 ErrMax= 1.09D-03  0.00D+00 EMaxC= 1.00D-01 BMatC= 4.75D-05 BMatP= 4.75D-05
 IDIUse=3 WtCom= 9.89D-01 WtEn= 1.09D-02
 Coeff-Com:  0.100D+01
 Coeff-En:   0.100D+01
 Coeff:      0.100D+01
 Gap=     0.584 Goal=   None    Shift=    0.000
 Gap=     0.383 Goal=   None    Shift=    0.000
 GapD=    0.383 DampG=1.000 DampE=1.000 DampFc=1.0000 IDamp=-1.
 RMSDP=2.62D-04 MaxDP=1.59D-03              OVMax= 1.96D-03

 Cycle   2  Pass 1  IDiag  1:
 E= -398.062961713199     Delta-E=       -0.000019809039 Rises=F Damp=F
 DIIS: error= 1.69D-04 at cycle   2 NSaved=   2.
 NSaved= 2 IEnMin= 2 EnMin= -398.062961713199     IErMin= 2 ErrMin= 1.69D-04
 ErrMax= 1.69D-04  0.00D+00 EMaxC= 1.00D-01 BMatC= 2.40D-06 BMatP= 4.75D-05
 IDIUse=3 WtCom= 9.98D-01 WtEn= 1.69D-03
 Coeff-Com: -0.101D+00 0.110D+01
 Coeff-En:   0.000D+00 0.100D+01
 Coeff:     -0.100D+00 0.110D+01
 Gap=     0.584 Goal=   None    Shift=    0.000
 Gap=     0.383 Goal=   None    Shift=    0.000
 RMSDP=8.60D-05 MaxDP=6.05D-04 DE=-1.98D-05 OVMax= 6.70D-04

 Cycle   3  Pass 1  IDiag  1:
 E= -398.062963051010     Delta-E=       -0.000001337812 Rises=F Damp=F
 DIIS: error= 5.51D-05 at cycle   3 NSaved=   3.
 NSaved= 3 IEnMin= 3 EnMin= -398.062963051010     IErMin= 3 ErrMin= 5.51D-05
 ErrMax= 5.51D-05  0.00D+00 EMaxC= 1.00D-01 BMatC= 1.55D-07 BMatP= 2.40D-06
 IDIUse=1 WtCom= 1.00D+00 WtEn= 0.00D+00
 Coeff-Com: -0.325D-01-0.821D-01 0.111D+01
 Coeff:     -0.325D-01-0.821D-01 0.111D+01
 Gap=     0.584 Goal=   None    Shift=    0.000
 Gap=     0.383 Goal=   None    Shift=    0.000
 RMSDP=2.73D-05 MaxDP=2.33D-04 DE=-1.34D-06 OVMax= 2.39D-04

 Cycle   4  Pass 1  IDiag  1:
 E= -398.062963157244     Delta-E=       -0.000000106234 Rises=F Damp=F
 DIIS: error= 1.56D-05 at cycle   4 NSaved=   4.
 NSaved= 4 IEnMin= 4 EnMin= -398.062963157244     IErMin= 4 ErrMin= 1.56D-05
 ErrMax= 1.56D-05  0.00D+00 EMaxC= 1.00D-01 BMatC= 9.23D-09 BMatP= 1.55D-07
 IDIUse=1 WtCom= 1.00D+00 WtEn= 0.00D+00
 Coeff-Com:  0.889D-02-0.654D-02-0.287D+00 0.128D+01
 Coeff:      0.889D-02-0.654D-02-0.287D+00 0.128D+01
 Gap=     0.584 Goal=   None    Shift=    0.000
 Gap=     0.383 Goal=   None    Shift=    0.000
 RMSDP=7.83D-06 MaxDP=8.30D-05 DE=-1.06D-07 OVMax= 8.02D-05

 Cycle   5  Pass 1  IDiag  1:
 E= -398.062963166207     Delta-E=       -0.000000008963 Rises=F Damp=F
 DIIS: error= 7.54D-06 at cycle   5 NSaved=   5.
 NSaved= 5 IEnMin= 5 EnMin= -398.062963166207     IErMin= 5 ErrMin= 7.54D-06
 ErrMax= 7.54D-06  0.00D+00 EMaxC= 1.00D-01 BMatC= 2.08D-09 BMatP= 9.23D-09
 IDIUse=1 WtCom= 1.00D+00 WtEn= 0.00D+00
 Coeff-Com: -0.660D-02 0.908D-02 0.222D+00-0.124D+01 0.201D+01
 Coeff:     -0.660D-02 0.908D-02 0.222D+00-0.124D+01 0.201D+01
 Gap=     0.584 Goal=   None    Shift=    0.000
 Gap=     0.383 Goal=   None    Shift=    0.000
 RMSDP=5.27D-06 MaxDP=4.84D-05 DE=-8.96D-09 OVMax= 5.26D-05

 Cycle   6  Pass 1  IDiag  1:
 E= -398.062963169350     Delta-E=       -0.000000003143 Rises=F Damp=F
 DIIS: error= 3.69D-06 at cycle   6 NSaved=   6.
 NSaved= 6 IEnMin= 6 EnMin= -398.062963169350     IErMin= 6 ErrMin= 3.69D-06
 ErrMax= 3.69D-06  0.00D+00 EMaxC= 1.00D-01 BMatC= 3.63D-10 BMatP= 2.08D-09
 IDIUse=1 WtCom= 1.00D+00 WtEn= 0.00D+00
 Coeff-Com:  0.506D-03-0.228D-02-0.229D-01 0.228D+00-0.942D+00 0.174D+01
 Coeff:      0.506D-03-0.228D-02-0.229D-01 0.228D+00-0.942D+00 0.174D+01
 Gap=     0.584 Goal=   None    Shift=    0.000
 Gap=     0.383 Goal=   None    Shift=    0.000
 RMSDP=3.02D-06 MaxDP=2.80D-05 DE=-3.14D-09 OVMax= 2.98D-05

 Cycle   7  Pass 1  IDiag  1:
 E= -398.062963169959     Delta-E=       -0.000000000608 Rises=F Damp=F
 DIIS: error= 5.22D-07 at cycle   7 NSaved=   7.
 NSaved= 7 IEnMin= 7 EnMin= -398.062963169959     IErMin= 7 ErrMin= 5.22D-07
 ErrMax= 5.22D-07  0.00D+00 EMaxC= 1.00D-01 BMatC= 1.35D-11 BMatP= 3.63D-10
 IDIUse=1 WtCom= 1.00D+00 WtEn= 0.00D+00
 Coeff-Com:  0.554D-03-0.345D-03-0.169D-01 0.712D-01-0.227D-01-0.261D+00
 Coeff-Com:  0.123D+01
 Coeff:      0.554D-03-0.345D-03-0.169D-01 0.712D-01-0.227D-01-0.261D+00
 Coeff:      0.123D+01
 Gap=     0.584 Goal=   None    Shift=    0.000
 Gap=     0.383 Goal=   None    Shift=    0.000
 RMSDP=3.86D-07 MaxDP=3.48D-06 DE=-6.08D-10 OVMax= 3.76D-06

 Cycle   8  Pass 1  IDiag  1:
 E= -398.062963169972     Delta-E=       -0.000000000013 Rises=F Damp=F
 DIIS: error= 1.15D-07 at cycle   8 NSaved=   8.
 NSaved= 8 IEnMin= 8 EnMin= -398.062963169972     IErMin= 8 ErrMin= 1.15D-07
 ErrMax= 1.15D-07  0.00D+00 EMaxC= 1.00D-01 BMatC= 8.64D-13 BMatP= 1.35D-11
 IDIUse=1 WtCom= 1.00D+00 WtEn= 0.00D+00
 Coeff-Com: -0.146D-03 0.809D-04 0.562D-02-0.306D-01 0.685D-01-0.622D-01
 Coeff-Com: -0.267D+00 0.129D+01
 Coeff:     -0.146D-03 0.809D-04 0.562D-02-0.306D-01 0.685D-01-0.622D-01
 Coeff:     -0.267D+00 0.129D+01
 Gap=     0.584 Goal=   None    Shift=    0.000
 Gap=     0.383 Goal=   None    Shift=    0.000
 RMSDP=7.14D-08 MaxDP=6.11D-07 DE=-1.35D-11 OVMax= 5.03D-07

 Cycle   9  Pass 1  IDiag  1:
 E= -398.062963169973     Delta-E=       -0.000000000001 Rises=F Damp=F
 DIIS: error= 2.53D-08 at cycle   9 NSaved=   9.
 NSaved= 9 IEnMin= 9 EnMin= -398.062963169973     IErMin= 9 ErrMin= 2.53D-08
 ErrMax= 2.53D-08  0.00D+00 EMaxC= 1.00D-01 BMatC= 5.21D-14 BMatP= 8.64D-13
 IDIUse=1 WtCom= 1.00D+00 WtEn= 0.00D+00
 Coeff-Com:  0.313D-04-0.309D-04-0.133D-02 0.857D-02-0.268D-01 0.408D-01
 Coeff-Com:  0.312D-01-0.492D+00 0.144D+01
 Coeff:      0.313D-04-0.309D-04-0.133D-02 0.857D-02-0.268D-01 0.408D-01
 Coeff:      0.312D-01-0.492D+00 0.144D+01
 Gap=     0.584 Goal=   None    Shift=    0.000
 Gap=     0.383 Goal=   None    Shift=    0.000
 RMSDP=1.63D-08 MaxDP=1.42D-07 DE=-7.96D-13 OVMax= 1.20D-07

 Cycle  10  Pass 1  IDiag  1:
 E= -398.062963169973     Delta-E=       -0.000000000000 Rises=F Damp=F
 DIIS: error= 7.12D-09 at cycle  10 NSaved=  10.
 NSaved=10 IEnMin=10 EnMin= -398.062963169973     IErMin=10 ErrMin= 7.12D-09
 ErrMax= 7.12D-09  0.00D+00 EMaxC= 1.00D-01 BMatC= 2.13D-15 BMatP= 5.21D-14
 IDIUse=1 WtCom= 1.00D+00 WtEn= 0.00D+00
 Coeff-Com: -0.524D-05 0.157D-04 0.192D-03-0.168D-02 0.678D-02-0.125D-01
 Coeff-Com:  0.260D-02 0.117D+00-0.517D+00 0.140D+01
 Coeff:     -0.524D-05 0.157D-04 0.192D-03-0.168D-02 0.678D-02-0.125D-01
 Coeff:      0.260D-02 0.117D+00-0.517D+00 0.140D+01
 Gap=     0.584 Goal=   None    Shift=    0.000
 Gap=     0.383 Goal=   None    Shift=    0.000
 RMSDP=3.16D-09 MaxDP=2.59D-08 DE=-5.68D-14 OVMax= 2.17D-08

 SCF Done:  E(UHF) =  -398.062963170     A.U. after   10 cycles
            NFock= 10  Conv=0.32D-08     -V/T= 1.9996
 <Sx>= 0.0000 <Sy>= 0.0000 <Sz>= 0.5000 <S**2>= 0.7576 S= 0.5038
 <L.S>= 0.000000000000E+00
 KE= 3.982306181266D+02 PE=-9.610241185457D+02 EE= 1.583578899562D+02
 Annihilation of the first spin contaminant:
 S**2 before annihilation     0.7576,   after     0.7500
 Leave Link  502 at Wed Oct  7 12:37:18 2020, MaxMem=  2684354560 cpu:               7.7 elap:               1.1
 (Enter /udrive/faculty/rpeverati/g16/g16/l508.exe)
 QCSCF skips out because SCF is already converged.
 Leave Link  508 at Wed Oct  7 12:37:19 2020, MaxMem=  2684354560 cpu:               0.9 elap:               0.6
 (Enter /udrive/faculty/rpeverati/g16/g16/l701.exe)
 ... and contract with generalized density number  0.
 Compute integral first derivatives.
 Leave Link  701 at Wed Oct  7 12:37:20 2020, MaxMem=  2684354560 cpu:               4.2 elap:               0.8
 (Enter /udrive/faculty/rpeverati/g16/g16/l702.exe)
 L702 exits ... SP integral derivatives will be done elsewhere.
 Leave Link  702 at Wed Oct  7 12:37:21 2020, MaxMem=  2684354560 cpu:               1.3 elap:               0.6
 (Enter /udrive/faculty/rpeverati/g16/g16/l703.exe)
 Integral derivatives from FoFJK, PRISM(SPDF).
 Compute integral first derivatives, UseDBF=F ICtDFT=           0.
 Calling FoFJK, ICntrl=      2127 FMM=F ISym2X=1 I1Cent= 0 IOpClX= 1 NMat=1 NMatS=1 NMatT=0.
 FoFJK:  IHMeth= 1 ICntrl=    2127 DoSepK=F KAlg= 0 I1Cent=           0 FoldK=F
 IRaf=         0 NMat=       1 IRICut=       1 DoRegI=T DoRafI=F ISym2E= 1 IDoP0=0 IntGTp=1.
 FoFCou: FMM=F IPFlag=           0 FMFlag=      100000 FMFlg1=         800
         NFxFlg=           0 DoJE=F BraDBF=F KetDBF=F FulRan=T
         wScrn=  0.000000 ICntrl=      2127 IOpCl=  1 I1Cent=           0 NGrid=           0
         NMat0=    1 NMatS0=      1 NMatT0=    0 NMatD0=    1 NMtDS0=    0 NMtDT0=    0
 Petite list used in FoFCou.
 Leave Link  703 at Wed Oct  7 12:37:22 2020, MaxMem=  2684354560 cpu:               6.1 elap:               0.9
 (Enter /udrive/faculty/rpeverati/g16/g16/l716.exe)
 Dipole        = 0.00000000D+00 6.67090624D-32-4.24203744D-01
 ***** Axes restored to original set *****
 -------------------------------------------------------------------
 Center     Atomic                   Forces (Hartrees/Bohr)
 Number     Number              X              Y              Z
 -------------------------------------------------------------------
      1       16          -0.000000000   -0.000000000    0.000844679
      2        1           0.000000000    0.000000000   -0.000844679
 -------------------------------------------------------------------
 Cartesian Forces:  Max     0.000844679 RMS     0.000487676
 Leave Link  716 at Wed Oct  7 12:37:23 2020, MaxMem=  2684354560 cpu:               1.0 elap:               0.5
 (Enter /udrive/faculty/rpeverati/g16/g16/l103.exe)

 GradGradGradGradGradGradGradGradGradGradGradGradGradGradGradGradGradGrad
 Berny optimization.
 Optmz: redundant internal coordinate code flag= 1
 Using GEDIIS/GDIIS optimizer.
 Red2BG:  D1=  2.00D+00 OD1=  0.00D+00 B2RMS=  0.00D+00 IAprox=1
 Red2BG is reusing G-inverse.
 Internal  Forces:  Max     0.000844679 RMS     0.000844679
 Search for a local minimum.
 Step number   2 out of a maximum of  100
 All quantities printed in internal units (Hartrees-Bohrs-Radians)
 RMS Force = .84468D-03 SwitMx=.10000D-02 MixMth= 2
 Mixed Optimization -- En-DIIS/RFO-DIIS
 Update second derivatives using D2CorX and points    1    2
 DE= -5.48D-05 DEPred=-6.33D-05 R= 8.65D-01
 TightC=F SS=  1.41D+00  RLast= 2.19D-02 DXNew= 5.0454D-01 6.5659D-02
 Trust test= 8.65D-01 RLast= 2.19D-02 DXMaxT set to 3.00D-01
 The second derivative matrix:
                          R1
           R1           0.30278
 ITU=  1  0
 Use linear search instead of GDIIS.
 Eigenvectors of the second derivative matrix:
                           1
     Eigenvalues --     0.30278
   1         R1         1.00000
 RFO step:  Lambda= 0.00000000D+00 EMin= 3.02779934D-01
 Quartic linear search produced a step of -0.12408.
 Iteration  1 RMS(Cart)=  0.00192034 RMS(Int)=  0.00000000
 Iteration  2 RMS(Cart)=  0.00000000 RMS(Int)=  0.00000000
 ITry= 1 IFail=0 DXMaxC= 1.36D-03 DCOld= 1.00D+10 DXMaxT= 3.00D-01 DXLimC= 3.00D+00 Rises=F
 ClnCor:  largest displacement from symmetrization is 0.00D+00 for atom     0.
 Variable       Old X    -DE/DX   Delta X   Delta X   Delta X     New X
                                 (Linear)    (Quad)   (Total)
    R1        2.51073   0.00084   0.00272   0.00000   0.00272   2.51345
         Item               Value     Threshold  Converged?
 Maximum Force            0.000845     0.000450     NO 
 RMS     Force            0.000845     0.000300     NO 
 Maximum Displacement     0.001358     0.001800     YES
 RMS     Displacement     0.001920     0.001200     NO 
 Predicted change in Energy=-1.177392D-06
 Lowest energy point so far.  Saving SCF results.
 Largest change from initial coordinates is atom    2       0.010 Angstoms.
 GradGradGradGradGradGradGradGradGradGradGradGradGradGradGradGradGradGrad

 Leave Link  103 at Wed Oct  7 12:37:23 2020, MaxMem=  2684354560 cpu:               2.5 elap:               0.7
 (Enter /udrive/faculty/rpeverati/g16/g16/l202.exe)
                          Input orientation:                          
 ---------------------------------------------------------------------
 Center     Atomic      Atomic             Coordinates (Angstroms)
 Number     Number       Type             X           Y           Z
 ---------------------------------------------------------------------
      1         16           0        0.000000    0.000000    0.073763
      2          1           0        0.000000    0.000000   -1.256296
 ---------------------------------------------------------------------
 Stoichiometry    HS(2)
 Framework group  C*V[C*(HS)]
 Deg. of freedom     1
 Full point group                 C*V     NOp   4
 RotChk:  IX=0 Diff= 0.00D+00
 Largest Abelian subgroup         C2V     NOp   4
 Largest concise Abelian subgroup C1      NOp   1
                         Standard orientation:                         
 ---------------------------------------------------------------------
 Center     Atomic      Atomic             Coordinates (Angstroms)
 Number     Number       Type             X           Y           Z
 ---------------------------------------------------------------------
      1         16           0        0.000000    0.000000    0.078239
      2          1           0        0.000000    0.000000   -1.251820
 ---------------------------------------------------------------------
 Rotational constants (GHZ):           0.0000000         292.3944240         292.3944240
 Leave Link  202 at Wed Oct  7 12:37:24 2020, MaxMem=  2684354560 cpu:               1.0 elap:               0.6
 (Enter /udrive/faculty/rpeverati/g16/g16/l301.exe)
 Standard basis: 6-31G(d) (5D, 7F)
 Ernie: Thresh=  0.10000D-02 Tol=  0.10000D-05 Strict=F.
 There are    12 symmetry adapted cartesian basis functions of A1  symmetry.
 There are     1 symmetry adapted cartesian basis functions of A2  symmetry.
 There are     4 symmetry adapted cartesian basis functions of B1  symmetry.
 There are     4 symmetry adapted cartesian basis functions of B2  symmetry.
 There are    11 symmetry adapted basis functions of A1  symmetry.
 There are     1 symmetry adapted basis functions of A2  symmetry.
 There are     4 symmetry adapted basis functions of B1  symmetry.
 There are     4 symmetry adapted basis functions of B2  symmetry.
    20 basis functions,    56 primitive gaussians,    21 cartesian basis functions
     9 alpha electrons        8 beta electrons
       nuclear repulsion energy         6.3657616563 Hartrees.
 IExCor=    0 DFT=F Ex=HF Corr=None ExCW=0 ScaHFX=  1.000000
 ScaDFX=  1.000000  1.000000  1.000000  1.000000 ScalE2=  1.000000  1.000000
 IRadAn=      5 IRanWt=     -1 IRanGd=            0 ICorTp=0 IEmpDi=  4
 NAtoms=    2 NActive=    2 NUniq=    2 SFac= 1.00D+00 NAtFMM=   60 NAOKFM=F Big=F
 Integral buffers will be    131072 words long.
 Raffenetti 2 integral format.
 Two-electron integral symmetry is turned on.
 Leave Link  301 at Wed Oct  7 12:37:25 2020, MaxMem=  2684354560 cpu:               2.4 elap:               0.8
 (Enter /udrive/faculty/rpeverati/g16/g16/l302.exe)
 NPDir=0 NMtPBC=     1 NCelOv=     1 NCel=       1 NClECP=     1 NCelD=      1
         NCelK=      1 NCelE2=     1 NClLst=     1 CellRange=     0.0.
 One-electron integrals computed using PRISM.
 One-electron integral symmetry used in STVInt
 NBasis=    20 RedAO= T EigKep=  5.38D-02  NBF=    11     1     4     4
 NBsUse=    20 1.00D-06 EigRej= -1.00D+00 NBFU=    11     1     4     4
 Leave Link  302 at Wed Oct  7 12:37:26 2020, MaxMem=  2684354560 cpu:               3.5 elap:               0.7
 (Enter /udrive/faculty/rpeverati/g16/g16/l303.exe)
 DipDrv:  MaxL=1.
 Leave Link  303 at Wed Oct  7 12:37:27 2020, MaxMem=  2684354560 cpu:               0.8 elap:               0.5
 (Enter /udrive/faculty/rpeverati/g16/g16/l401.exe)
 Initial guess from the checkpoint file:  "MN_64_HS_BH76_HF_631Gs.chk"
 SCF N**3 symmetry information disabled.
 B after Tr=     0.000000    0.000000    0.000000
         Rot=    1.000000    0.000000    0.000000    0.000000 Ang=   0.00 deg.
 Guess basis will be translated and rotated to current coordinates.
 JPrj=2 DoOrth=T DoCkMO=T.
 Initial guess orbital symmetries:
 Alpha Orbitals:
       Occupied  (SG) (SG) (PI) (SG) (PI) (SG) (SG) (PI) (PI)
       Virtual   (SG) (SG) (PI) (SG) (PI) (?A) (PI) (?A) (?A) (PI)
                 (?A)
 Beta  Orbitals:
       Occupied  (SG) (SG) (SG) (PI) (PI) (SG) (SG) (?A)
       Virtual   (?A) (SG) (SG) (SG) (?A) (?A) (?B) (PI) (PI) (?B)
                 (?B) (SG)
 Initial guess <Sx>= 0.0000 <Sy>= 0.0000 <Sz>= 0.5000 <S**2>= 0.7576 S= 0.5038
 Leave Link  401 at Wed Oct  7 12:37:28 2020, MaxMem=  2684354560 cpu:               1.7 elap:               0.6
 (Enter /udrive/faculty/rpeverati/g16/g16/l502.exe)
 Keep R1 and R2 ints in memory in symmetry-blocked form, NReq=2493936.
 FoFCou: FMM=F IPFlag=           0 FMFlag=           0 FMFlg1=           0
         NFxFlg=           0 DoJE=F BraDBF=F KetDBF=F FulRan=T
         wScrn=  0.000000 ICntrl=       600 IOpCl=  0 I1Cent=           0 NGrid=           0
         NMat0=    1 NMatS0=    210 NMatT0=    0 NMatD0=    1 NMtDS0=    0 NMtDT0=    0
 Petite list used in FoFCou.
 UHF open shell SCF:
 Using DIIS extrapolation, IDIIS=  1040.
 NGot=  2684354560 LenX=  2684338671 LenY=  2684337789
 Requested convergence on RMS density matrix=1.00D-08 within 120 cycles.
 Requested convergence on MAX density matrix=1.00D-06.
 Requested convergence on             energy=1.00D-06.
 No special actions if energy rises.

 Cycle   1  Pass 1  IDiag  1:
 E= -398.062963987545    
 DIIS: error= 1.36D-04 at cycle   1 NSaved=   1.
 NSaved= 1 IEnMin= 1 EnMin= -398.062963987545     IErMin= 1 ErrMin= 1.36D-04
 ErrMax= 1.36D-04  0.00D+00 EMaxC= 1.00D-01 BMatC= 7.35D-07 BMatP= 7.35D-07
 IDIUse=3 WtCom= 9.99D-01 WtEn= 1.36D-03
 Coeff-Com:  0.100D+01
 Coeff-En:   0.100D+01
 Coeff:      0.100D+01
 Gap=     0.583 Goal=   None    Shift=    0.000
 Gap=     0.383 Goal=   None    Shift=    0.000
 RMSDP=3.26D-05 MaxDP=1.98D-04              OVMax= 2.43D-04

 Cycle   2  Pass 1  IDiag  1:
 E= -398.062964293041     Delta-E=       -0.000000305496 Rises=F Damp=F
 DIIS: error= 2.09D-05 at cycle   2 NSaved=   2.
 NSaved= 2 IEnMin= 2 EnMin= -398.062964293041     IErMin= 2 ErrMin= 2.09D-05
 ErrMax= 2.09D-05  0.00D+00 EMaxC= 1.00D-01 BMatC= 3.69D-08 BMatP= 7.35D-07
 IDIUse=1 WtCom= 1.00D+00 WtEn= 0.00D+00
 Coeff-Com: -0.101D+00 0.110D+01
 Coeff:     -0.101D+00 0.110D+01
 Gap=     0.583 Goal=   None    Shift=    0.000
 Gap=     0.383 Goal=   None    Shift=    0.000
 RMSDP=1.07D-05 MaxDP=7.52D-05 DE=-3.05D-07 OVMax= 8.29D-05

 Cycle   3  Pass 1  IDiag  1:
 E= -398.062964313597     Delta-E=       -0.000000020556 Rises=F Damp=F
 DIIS: error= 6.80D-06 at cycle   3 NSaved=   3.
 NSaved= 3 IEnMin= 3 EnMin= -398.062964313597     IErMin= 3 ErrMin= 6.80D-06
 ErrMax= 6.80D-06  0.00D+00 EMaxC= 1.00D-01 BMatC= 2.37D-09 BMatP= 3.69D-08
 IDIUse=1 WtCom= 1.00D+00 WtEn= 0.00D+00
 Coeff-Com: -0.323D-01-0.821D-01 0.111D+01
 Coeff:     -0.323D-01-0.821D-01 0.111D+01
 Gap=     0.583 Goal=   None    Shift=    0.000
 Gap=     0.383 Goal=   None    Shift=    0.000
 RMSDP=3.37D-06 MaxDP=2.87D-05 DE=-2.06D-08 OVMax= 2.95D-05

 Cycle   4  Pass 1  IDiag  1:
 E= -398.062964315219     Delta-E=       -0.000000001622 Rises=F Damp=F
 DIIS: error= 1.90D-06 at cycle   4 NSaved=   4.
 NSaved= 4 IEnMin= 4 EnMin= -398.062964315219     IErMin= 4 ErrMin= 1.90D-06
 ErrMax= 1.90D-06  0.00D+00 EMaxC= 1.00D-01 BMatC= 1.39D-10 BMatP= 2.37D-09
 IDIUse=1 WtCom= 1.00D+00 WtEn= 0.00D+00
 Coeff-Com:  0.880D-02-0.660D-02-0.286D+00 0.128D+01
 Coeff:      0.880D-02-0.660D-02-0.286D+00 0.128D+01
 Gap=     0.583 Goal=   None    Shift=    0.000
 Gap=     0.383 Goal=   None    Shift=    0.000
 RMSDP=9.61D-07 MaxDP=1.02D-05 DE=-1.62D-09 OVMax= 9.84D-06

 Cycle   5  Pass 1  IDiag  1:
 E= -398.062964315353     Delta-E=       -0.000000000134 Rises=F Damp=F
 DIIS: error= 9.15D-07 at cycle   5 NSaved=   5.
 NSaved= 5 IEnMin= 5 EnMin= -398.062964315353     IErMin= 5 ErrMin= 9.15D-07
 ErrMax= 9.15D-07  0.00D+00 EMaxC= 1.00D-01 BMatC= 3.08D-11 BMatP= 1.39D-10
 IDIUse=1 WtCom= 1.00D+00 WtEn= 0.00D+00
 Coeff-Com: -0.643D-02 0.894D-02 0.217D+00-0.121D+01 0.199D+01
 Coeff:     -0.643D-02 0.894D-02 0.217D+00-0.121D+01 0.199D+01
 Gap=     0.583 Goal=   None    Shift=    0.000
 Gap=     0.383 Goal=   None    Shift=    0.000
 RMSDP=6.33D-07 MaxDP=5.83D-06 DE=-1.34D-10 OVMax= 6.34D-06

 Cycle   6  Pass 1  IDiag  1:
 E= -398.062964315399     Delta-E=       -0.000000000046 Rises=F Damp=F
 DIIS: error= 4.55D-07 at cycle   6 NSaved=   6.
 NSaved= 6 IEnMin= 6 EnMin= -398.062964315399     IErMin= 6 ErrMin= 4.55D-07
 ErrMax= 4.55D-07  0.00D+00 EMaxC= 1.00D-01 BMatC= 5.57D-12 BMatP= 3.08D-11
 IDIUse=1 WtCom= 1.00D+00 WtEn= 0.00D+00
 Coeff-Com:  0.519D-03-0.233D-02-0.230D-01 0.229D+00-0.963D+00 0.176D+01
 Coeff:      0.519D-03-0.233D-02-0.230D-01 0.229D+00-0.963D+00 0.176D+01
 Gap=     0.583 Goal=   None    Shift=    0.000
 Gap=     0.383 Goal=   None    Shift=    0.000
 RMSDP=3.75D-07 MaxDP=3.46D-06 DE=-4.62D-11 OVMax= 3.70D-06

 Cycle   7  Pass 1  IDiag  1:
 E= -398.062964315409     Delta-E=       -0.000000000009 Rises=F Damp=F
 DIIS: error= 6.64D-08 at cycle   7 NSaved=   7.
 NSaved= 7 IEnMin= 7 EnMin= -398.062964315409     IErMin= 7 ErrMin= 6.64D-08
 ErrMax= 6.64D-08  0.00D+00 EMaxC= 1.00D-01 BMatC= 2.13D-13 BMatP= 5.57D-12
 IDIUse=1 WtCom= 1.00D+00 WtEn= 0.00D+00
 Coeff-Com:  0.553D-03-0.341D-03-0.169D-01 0.712D-01-0.201D-01-0.268D+00
 Coeff-Com:  0.123D+01
 Coeff:      0.553D-03-0.341D-03-0.169D-01 0.712D-01-0.201D-01-0.268D+00
 Coeff:      0.123D+01
 Gap=     0.583 Goal=   None    Shift=    0.000
 Gap=     0.383 Goal=   None    Shift=    0.000
 RMSDP=4.91D-08 MaxDP=4.44D-07 DE=-9.38D-12 OVMax= 4.81D-07

 Cycle   8  Pass 1  IDiag  1:
 E= -398.062964315409     Delta-E=       -0.000000000000 Rises=F Damp=F
 DIIS: error= 1.43D-08 at cycle   8 NSaved=   8.
 NSaved= 8 IEnMin= 8 EnMin= -398.062964315409     IErMin= 8 ErrMin= 1.43D-08
 ErrMax= 1.43D-08  0.00D+00 EMaxC= 1.00D-01 BMatC= 1.37D-14 BMatP= 2.13D-13
 IDIUse=1 WtCom= 1.00D+00 WtEn= 0.00D+00
 Coeff-Com: -0.147D-03 0.854D-04 0.564D-02-0.308D-01 0.704D-01-0.642D-01
 Coeff-Com: -0.268D+00 0.129D+01
 Coeff:     -0.147D-03 0.854D-04 0.564D-02-0.308D-01 0.704D-01-0.642D-01
 Coeff:     -0.268D+00 0.129D+01
 Gap=     0.583 Goal=   None    Shift=    0.000
 Gap=     0.383 Goal=   None    Shift=    0.000
 RMSDP=9.00D-09 MaxDP=7.72D-08 DE=-1.71D-13 OVMax= 6.48D-08

 SCF Done:  E(UHF) =  -398.062964315     A.U. after    8 cycles
            NFock=  8  Conv=0.90D-08     -V/T= 1.9996
 <Sx>= 0.0000 <Sy>= 0.0000 <Sz>= 0.5000 <S**2>= 0.7576 S= 0.5038
 <L.S>= 0.000000000000E+00
 KE= 3.982285208346D+02 PE=-9.610083331356D+02 EE= 1.583510863292D+02
 Annihilation of the first spin contaminant:
 S**2 before annihilation     0.7576,   after     0.7500
 Leave Link  502 at Wed Oct  7 12:37:29 2020, MaxMem=  2684354560 cpu:               6.8 elap:               0.9
 (Enter /udrive/faculty/rpeverati/g16/g16/l508.exe)
 QCSCF skips out because SCF is already converged.
 Leave Link  508 at Wed Oct  7 12:37:29 2020, MaxMem=  2684354560 cpu:               0.2 elap:               0.4
 (Enter /udrive/faculty/rpeverati/g16/g16/l701.exe)
 ... and contract with generalized density number  0.
 Compute integral first derivatives.
 Leave Link  701 at Wed Oct  7 12:37:30 2020, MaxMem=  2684354560 cpu:               3.4 elap:               0.6
 (Enter /udrive/faculty/rpeverati/g16/g16/l702.exe)
 L702 exits ... SP integral derivatives will be done elsewhere.
 Leave Link  702 at Wed Oct  7 12:37:31 2020, MaxMem=  2684354560 cpu:               1.1 elap:               0.4
 (Enter /udrive/faculty/rpeverati/g16/g16/l703.exe)
 Integral derivatives from FoFJK, PRISM(SPDF).
 Compute integral first derivatives, UseDBF=F ICtDFT=           0.
 Calling FoFJK, ICntrl=      2127 FMM=F ISym2X=1 I1Cent= 0 IOpClX= 1 NMat=1 NMatS=1 NMatT=0.
 FoFJK:  IHMeth= 1 ICntrl=    2127 DoSepK=F KAlg= 0 I1Cent=           0 FoldK=F
 IRaf=         0 NMat=       1 IRICut=       1 DoRegI=T DoRafI=F ISym2E= 1 IDoP0=0 IntGTp=1.
 FoFCou: FMM=F IPFlag=           0 FMFlag=      100000 FMFlg1=         800
         NFxFlg=           0 DoJE=F BraDBF=F KetDBF=F FulRan=T
         wScrn=  0.000000 ICntrl=      2127 IOpCl=  1 I1Cent=           0 NGrid=           0
         NMat0=    1 NMatS0=      1 NMatT0=    0 NMatD0=    1 NMtDS0=    0 NMtDT0=    0
 Petite list used in FoFCou.
 Leave Link  703 at Wed Oct  7 12:37:32 2020, MaxMem=  2684354560 cpu:               5.8 elap:               0.8
 (Enter /udrive/faculty/rpeverati/g16/g16/l716.exe)
 Dipole        = 0.00000000D+00-2.47575022D-32-4.23861869D-01
 ***** Axes restored to original set *****
 -------------------------------------------------------------------
 Center     Atomic                   Forces (Hartrees/Bohr)
 Number     Number              X              Y              Z
 -------------------------------------------------------------------
      1       16          -0.000000000   -0.000000000   -0.000000060
      2        1           0.000000000    0.000000000    0.000000060
 -------------------------------------------------------------------
 Cartesian Forces:  Max     0.000000060 RMS     0.000000034
 Leave Link  716 at Wed Oct  7 12:37:33 2020, MaxMem=  2684354560 cpu:               1.6 elap:               0.7
 (Enter /udrive/faculty/rpeverati/g16/g16/l103.exe)

 GradGradGradGradGradGradGradGradGradGradGradGradGradGradGradGradGradGrad
 Berny optimization.
 Optmz: redundant internal coordinate code flag= 1
 Using GEDIIS/GDIIS optimizer.
 Red2BG:  D1=  2.00D+00 OD1=  0.00D+00 B2RMS=  0.00D+00 IAprox=1
 Red2BG is reusing G-inverse.
 Internal  Forces:  Max     0.000000060 RMS     0.000000060
 Search for a local minimum.
 Step number   3 out of a maximum of  100
 All quantities printed in internal units (Hartrees-Bohrs-Radians)
 RMS Force = .59640D-07 SwitMx=.10000D-02 MixMth= 2
 Mixed Optimization -- En-DIIS/RFO-DIIS
 Swapping is turned off.
 Update second derivatives using D2CorX and points    2    3
 DE= -1.15D-06 DEPred=-1.18D-06 R= 9.73D-01
 TightC=F SS=  1.41D+00  RLast= 2.72D-03 DXNew= 5.0454D-01 8.1473D-03
 Trust test= 9.73D-01 RLast= 2.72D-03 DXMaxT set to 3.00D-01
 The second derivative matrix:
                          R1
           R1           0.31105
 ITU=  1  1
 Eigenvectors of the second derivative matrix:
                           1
     Eigenvalues --     0.31105
   1         R1         1.00000
 DoSqrt=T IScMMF=    -3 MM Scaling Factor =       0.00000
 En-DIIS/RFO-DIIS/Sim-DIIS IScMMF=       -3 using points:     3    2
 RFO step:  Lambda=-1.14352972D-14.
 NNeg= 0 NGDIIS= 2 SimSw=  2.50D-03 Rises=F DC= -1.15D-06 SmlDif=  1.00D-05
 NRisDI= 0 DoIntr=F SqrtH=F CThrHd= 10.0 CDAdj=  3.0
 RMS Error=  0.1917370441D-06 NUsed= 2 OKEnD=F EnDIS=F
 Total RFO-DIIS matrix:
                 1             2             3 
      1   0.000000D+00 -0.100000D+01 -0.100000D+01
      2  -0.100000D+01  0.367631D-13 -0.520678D-09
      3  -0.100000D+01 -0.520678D-09  0.737439D-05
 InvSVX:  RCond= 8.30D-06 Info=           0 Equed=N FErr=  8.88D-16 BErr=  0.00D+00
 DidBck=F Rises=F RFO-DIIS coefs:    0.99993    0.00007
 Iteration  1 RMS(Cart)=  0.00000014 RMS(Int)=  0.00000000
 ITry= 1 IFail=0 DXMaxC= 9.59D-08 DCOld= 1.00D+10 DXMaxT= 3.00D-01 DXLimC= 3.00D+00 Rises=F
 ClnCor:  largest displacement from symmetrization is 0.00D+00 for atom     0.
 Variable       Old X    -DE/DX   Delta X   Delta X   Delta X     New X
                                 (Linear)    (Quad)   (Total)
    R1        2.51345  -0.00000  -0.00000   0.00000  -0.00000   2.51345
         Item               Value     Threshold  Converged?
 Maximum Force            0.000000     0.000450     YES
 RMS     Force            0.000000     0.000300     YES
 Maximum Displacement     0.000000     0.001800     YES
 RMS     Displacement     0.000000     0.001200     YES
 Predicted change in Energy=-5.717559D-15
 Optimization completed.
    -- Stationary point found.
                           ----------------------------
                           !   Optimized Parameters   !
                           ! (Angstroms and Degrees)  !
 --------------------------                            --------------------------
 ! Name  Definition              Value          Derivative Info.                !
 --------------------------------------------------------------------------------
 ! R1    R(1,2)                  1.3301         -DE/DX =    0.0                 !
 --------------------------------------------------------------------------------
 Lowest energy point so far.  Saving SCF results.
 Largest change from initial coordinates is atom    2       0.010 Angstoms.
 GradGradGradGradGradGradGradGradGradGradGradGradGradGradGradGradGradGrad

 Leave Link  103 at Wed Oct  7 12:37:34 2020, MaxMem=  2684354560 cpu:               2.9 elap:               0.7
 (Enter /udrive/faculty/rpeverati/g16/g16/l202.exe)
                          Input orientation:                          
 ---------------------------------------------------------------------
 Center     Atomic      Atomic             Coordinates (Angstroms)
 Number     Number       Type             X           Y           Z
 ---------------------------------------------------------------------
      1         16           0        0.000000    0.000000    0.073763
      2          1           0        0.000000    0.000000   -1.256296
 ---------------------------------------------------------------------
 Stoichiometry    HS(2)
 Framework group  C*V[C*(HS)]
 Deg. of freedom     1
 Full point group                 C*V     NOp   4
 RotChk:  IX=0 Diff= 0.00D+00
 Largest Abelian subgroup         C2V     NOp   4
 Largest concise Abelian subgroup C1      NOp   1
                         Standard orientation:                         
 ---------------------------------------------------------------------
 Center     Atomic      Atomic             Coordinates (Angstroms)
 Number     Number       Type             X           Y           Z
 ---------------------------------------------------------------------
      1         16           0        0.000000    0.000000    0.078239
      2          1           0        0.000000    0.000000   -1.251820
 ---------------------------------------------------------------------
 Rotational constants (GHZ):           0.0000000         292.3944240         292.3944240
 Leave Link  202 at Wed Oct  7 12:37:35 2020, MaxMem=  2684354560 cpu:               1.3 elap:               0.7
 (Enter /udrive/faculty/rpeverati/g16/g16/l601.exe)
 Copying SCF densities to generalized density rwf, IOpCl= 1 IROHF=0.

 **********************************************************************

            Population analysis using the SCF density.

 **********************************************************************

 Orbital symmetries:
 Alpha Orbitals:
       Occupied  (SG) (SG) (PI) (SG) (PI) (SG) (SG) (PI) (PI)
       Virtual   (SG) (SG) (PI) (SG) (PI) (?A) (PI) (?A) (?A) (PI)
                 (?A)
 Beta  Orbitals:
       Occupied  (SG) (SG) (SG) (PI) (PI) (SG) (SG) (?A)
       Virtual   (?A) (SG) (SG) (SG) (?A) (?A) (?B) (PI) (PI) (?B)
                 (?B) (SG)
 Unable to determine electronic state:  an orbital has unidentified symmetry.
 Alpha  occ. eigenvalues --  -91.96877  -8.98606  -6.68168  -6.66426  -6.66054
 Alpha  occ. eigenvalues --   -0.99191  -0.55475  -0.46760  -0.40171
 Alpha virt. eigenvalues --    0.18166   0.42612   0.48797   0.49253   0.52676
 Alpha virt. eigenvalues --    0.92018   0.96349   0.98671   0.99300   1.01227
 Alpha virt. eigenvalues --    1.42301
  Beta  occ. eigenvalues --  -91.95956  -8.97618  -6.65918  -6.65533  -6.64163
  Beta  occ. eigenvalues --   -0.89935  -0.53280  -0.37634
  Beta virt. eigenvalues --    0.00663   0.19885   0.44771   0.50187   0.53586
  Beta virt. eigenvalues --    0.57830   0.93912   1.02167   1.04949   1.07388
  Beta virt. eigenvalues --    1.07607   1.43606
          Condensed to atoms (all electrons):
               1          2
     1  S   15.851145   0.242970
     2  H    0.242970   0.662915
          Atomic-Atomic Spin Densities.
               1          2
     1  S    1.066977  -0.021747
     2  H   -0.021747  -0.023483
 Mulliken charges and spin densities:
               1          2
     1  S   -0.094115   1.045230
     2  H    0.094115  -0.045230
 Sum of Mulliken charges =   0.00000   1.00000
 Mulliken charges and spin densities with hydrogens summed into heavy atoms:
               1          2
     1  S    0.000000   1.000000
 Electronic spatial extent (au):  <R**2>=             36.4346
 Charge=              0.0000 electrons
 Dipole moment (field-independent basis, Debye):
    X=              0.0000    Y=             -0.0000    Z=             -1.0773  Tot=              1.0773
 Quadrupole moment (field-independent basis, Debye-Ang):
   XX=            -12.8867   YY=            -15.8815   ZZ=            -12.2402
   XY=             -0.0000   XZ=              0.0000   YZ=             -0.0000
 Traceless Quadrupole moment (field-independent basis, Debye-Ang):
   XX=              0.7828   YY=             -2.2120   ZZ=              1.4292
   XY=             -0.0000   XZ=              0.0000   YZ=             -0.0000
 Octapole moment (field-independent basis, Debye-Ang**2):
  XXX=              0.0000  YYY=              0.0000  ZZZ=             -1.4067  XYY=              0.0000
  XXY=              0.0000  XXZ=             -0.2864  XZZ=              0.0000  YZZ=             -0.0000
  YYZ=             -0.5073  XYZ=             -0.0000
 Hexadecapole moment (field-independent basis, Debye-Ang**3):
 XXXX=            -15.4653 YYYY=            -22.6713 ZZZZ=            -21.5441 XXXY=             -0.0000
 XXXZ=              0.0000 YYYX=             -0.0000 YYYZ=             -0.0000 ZZZX=              0.0000
 ZZZY=             -0.0000 XXYY=             -6.3557 XXZZ=             -6.5096 YYZZ=             -7.7277
 XXYZ=             -0.0000 YYXZ=              0.0000 ZZXY=             -0.0000
 N-N= 6.365761656346D+00 E-N=-9.610083333111D+02  KE= 3.982285208346D+02
                          Isotropic Fermi Contact Couplings
        Atom                 a.u.       MegaHertz       Gauss      10(-4) cm-1
     1  S(33)              0.17346      59.57949      21.25944      19.87358
     2  H(1)              -0.01477     -66.01838     -23.55700     -22.02136
 --------------------------------------------------------
       Center         ----  Spin Dipole Couplings  ----
                      3XX-RR        3YY-RR        3ZZ-RR
 --------------------------------------------------------
     1   Atom        4.017344     -1.993843     -2.023501
     2   Atom       -0.001467     -0.043038      0.044505
 --------------------------------------------------------
                        XY            XZ            YZ
 --------------------------------------------------------
     1   Atom        0.000000      0.000000      0.000000
     2   Atom        0.000000      0.000000      0.000000
 --------------------------------------------------------


 ---------------------------------------------------------------------------------
              Anisotropic Spin Dipole Couplings in Principal Axis System
 ---------------------------------------------------------------------------------

       Atom             a.u.   MegaHertz   Gauss  10(-4) cm-1        Axes

              Baa    -2.0235   -82.962   -29.603   -27.673  0.0000  0.0000  1.0000
     1 S(33)  Bbb    -1.9938   -81.746   -29.169   -27.267  0.0000  1.0000  0.0000
              Bcc     4.0173   164.707    58.772    54.940  1.0000  0.0000  0.0000
 
              Baa    -0.0430   -22.963    -8.194    -7.660  0.0000  1.0000  0.0000
     2 H(1)   Bbb    -0.0015    -0.783    -0.279    -0.261  1.0000  0.0000  0.0000
              Bcc     0.0445    23.746     8.473     7.921  0.0000  0.0000  1.0000
 

 ---------------------------------------------------------------------------------

 No NMR shielding tensors so no spin-rotation constants.
 Leave Link  601 at Wed Oct  7 12:37:36 2020, MaxMem=  2684354560 cpu:               6.0 elap:               1.0
 (Enter /udrive/faculty/rpeverati/g16/g16/l9999.exe)

 Test job not archived.
 1\1\GINC-NODE13\FOpt\UHF\6-31G(d)\H1S1(2)\RPEVERATI\07-Oct-2020\0\\#P 
 Opt(MaxCyc=100) HF/6-31G* 5D 7F Integral=UltraFineGrid SCF=(NoSymm,XQC
 ,MaxCyc=120) IOp(1/33=1)\\TS search on BH76.\\0,2\S,0.,0.,0.0737628813
 \H,0.,0.,-1.2562956148\\Version=ES64L-G16RevA.03\HF=-398.0629643\S2=0.
 757639\S2-1=0.\S2A=0.750009\RMSD=9.001e-09\RMSF=3.443e-08\Dipole=0.,0.
 ,-0.4238619\Quadrupole=0.582001,-1.644601,1.0626,0.,0.,0.\PG=C*V [C*(H
 1S1)]\\@


 ... UNTIL SCIENCE IS MIXED WITH EMOTION AND APPEALS TO THE HEART AND
 IMAGINATION , IT IS LIKE DEAD INORGANIC MATTER; AND WHEN IT IS SO MIXED
 AND SO TRANSFORMED IT IS LITERATURE.

                                  -- JOHN BURROUGHS
 Job cpu time:       0 days  0 hours  2 minutes 13.2 seconds.
 Elapsed time:       0 days  0 hours  0 minutes 29.3 seconds.
 File lengths (MBytes):  RWF=      5 Int=      0 D2E=      0 Chk=      1 Scr=      1
 Normal termination of Gaussian 16 at Wed Oct  7 12:37:38 2020.
