 Entering Gaussian System, Link 0=g16
 Input=MN_76_PH2_BH76_HF_631Gs.in
 Output=MN_76_PH2_BH76_HF_631Gs.log
 Initial command:
 /udrive/faculty/rpeverati/g16/g16/l1.exe "/udrive/scratch-directories/gaussian09/rpeverati/Gau-14051.inp" -scrdir="/udrive/scratch-directories/gaussian09/rpeverati/"
 Entering Link 1 = /udrive/faculty/rpeverati/g16/g16/l1.exe PID=     14066.
  
 Copyright (c) 1988,1990,1992,1993,1995,1998,2003,2009,2016,
            Gaussian, Inc.  All Rights Reserved.
  
 This is part of the Gaussian(R) 16 program.  It is based on
 the Gaussian(R) 09 system (copyright 2009, Gaussian, Inc.),
 the Gaussian(R) 03 system (copyright 2003, Gaussian, Inc.),
 the Gaussian(R) 98 system (copyright 1998, Gaussian, Inc.),
 the Gaussian(R) 94 system (copyright 1995, Gaussian, Inc.),
 the Gaussian 92(TM) system (copyright 1992, Gaussian, Inc.),
 the Gaussian 90(TM) system (copyright 1990, Gaussian, Inc.),
 the Gaussian 88(TM) system (copyright 1988, Gaussian, Inc.),
 the Gaussian 86(TM) system (copyright 1986, Carnegie Mellon
 University), and the Gaussian 82(TM) system (copyright 1983,
 Carnegie Mellon University). Gaussian is a federally registered
 trademark of Gaussian, Inc.
  
 This software contains proprietary and confidential information,
 including trade secrets, belonging to Gaussian, Inc.
  
 This software is provided under written license and may be
 used, copied, transmitted, or stored only in accord with that
 written license.
  
 The following legend is applicable only to US Government
 contracts under FAR:
  
                    RESTRICTED RIGHTS LEGEND
  
 Use, reproduction and disclosure by the US Government is
 subject to restrictions as set forth in subparagraphs (a)
 and (c) of the Commercial Computer Software - Restricted
 Rights clause in FAR 52.227-19.
  
 Gaussian, Inc.
 340 Quinnipiac St., Bldg. 40, Wallingford CT 06492
  
  
 ---------------------------------------------------------------
 Warning -- This program may not be used in any manner that
 competes with the business of Gaussian, Inc. or will provide
 assistance to any competitor of Gaussian, Inc.  The licensee
 of this program is prohibited from giving any competitor of
 Gaussian, Inc. access to this program.  By using this program,
 the user acknowledges that Gaussian, Inc. is engaged in the
 business of creating and licensing software in the field of
 computational chemistry and represents and warrants to the
 licensee that it is not a competitor of Gaussian, Inc. and that
 it will not use this program in any manner prohibited above.
 ---------------------------------------------------------------
  

 Cite this work as:
 Gaussian 16, Revision A.03,
 M. J. Frisch, G. W. Trucks, H. B. Schlegel, G. E. Scuseria, 
 M. A. Robb, J. R. Cheeseman, G. Scalmani, V. Barone, 
 G. A. Petersson, H. Nakatsuji, X. Li, M. Caricato, A. V. Marenich, 
 J. Bloino, B. G. Janesko, R. Gomperts, B. Mennucci, H. P. Hratchian, 
 J. V. Ortiz, A. F. Izmaylov, J. L. Sonnenberg, D. Williams-Young, 
 F. Ding, F. Lipparini, F. Egidi, J. Goings, B. Peng, A. Petrone, 
 T. Henderson, D. Ranasinghe, V. G. Zakrzewski, J. Gao, N. Rega, 
 G. Zheng, W. Liang, M. Hada, M. Ehara, K. Toyota, R. Fukuda, 
 J. Hasegawa, M. Ishida, T. Nakajima, Y. Honda, O. Kitao, H. Nakai, 
 T. Vreven, K. Throssell, J. A. Montgomery, Jr., J. E. Peralta, 
 F. Ogliaro, M. J. Bearpark, J. J. Heyd, E. N. Brothers, K. N. Kudin, 
 V. N. Staroverov, T. A. Keith, R. Kobayashi, J. Normand, 
 K. Raghavachari, A. P. Rendell, J. C. Burant, S. S. Iyengar, 
 J. Tomasi, M. Cossi, J. M. Millam, M. Klene, C. Adamo, R. Cammi, 
 J. W. Ochterski, R. L. Martin, K. Morokuma, O. Farkas, 
 J. B. Foresman, and D. J. Fox, Gaussian, Inc., Wallingford CT, 2016.
 
 ******************************************
 Gaussian 16:  ES64L-G16RevA.03 25-Dec-2016
                 7-Oct-2020 
 ******************************************
 %NoSave
 %nproc=12
 Will use up to   12 processors via shared memory.
 %mem=20GB
 %chk=MN_76_PH2_BH76_HF_631Gs
 ----------------------------------------------------------------------
 #P Opt(MaxCyc=100) HF/6-31G* 5D 7F Integral=UltraFineGrid SCF=(NoSymm,
 XQC,MaxCyc=120) IOp(1/33=1)
 ----------------------------------------------------------------------
 1/6=100,18=20,19=15,33=1,38=1/1,3;
 2/9=110,12=2,17=6,18=5,40=1/2;
 3/5=1,6=6,7=1,8=11,11=9,25=1,30=1,71=1,75=-5/1,2,3;
 4/9=2/1;
 5/5=2,7=120,8=3,13=1,38=5/2,8;
 6/7=2,8=2,9=2,10=2,28=1/1;
 7//1,2,3,16;
 1/6=100,18=20,19=15,33=1/3(2);
 2/9=110/2;
 99//99;
 2/9=110/2;
 3/5=1,6=6,7=1,8=11,11=9,25=1,30=1,71=1,75=-5/1,2,3;
 4/5=5,9=2,16=3,69=1/1;
 5/5=2,7=120,8=3,13=1,38=5/2,8;
 7//1,2,3,16;
 1/6=100,18=20,19=15,33=1/3(-5);
 2/9=110/2;
 6/7=2,8=2,9=2,10=2,19=2,28=1/1;
 99/9=1/99;
 Leave Link    1 at Wed Oct  7 12:37:39 2020, MaxMem=  2684354560 cpu:               5.6 elap:               0.6
 (Enter /udrive/faculty/rpeverati/g16/g16/l101.exe)
 ONIOM data not found on unit 2.
 ------------------
 TS search on BH76.
 ------------------
 TstMul:  ICh=     0
 TstMul:  Mul=     2
 TstMul:  ICh=     0
 TstMul:  Mul=     2
 Symbolic Z-matrix:
 Charge =  0 Multiplicity = 2
 P                     0.        0.        0.11566 
 H                     0.        1.02013  -0.86743 
 H                     0.       -1.02013  -0.86743 
 
 RdStrC is calling ZToCFu for IStruc=1 NZ=     3.
 PrtBox:  NBox=     1 Levels=  1 BoxLen=    8.00 SMaxX=        3.86
          Shift=            0.000000            1.927770            1.639200
 Box      1 Number                   0 centers from      1 to      3:
 After GenITR:
 ITRead=  0  0  0
 MicOpt= -1 -1 -1
 ITRead=  0  0  0
 MicOpt= -1 -1 -1
 NAtoms=      3 NQM=        3 NQMF=       0 NMMI=      0 NMMIF=      0
                NMic=       0 NMicF=      0.
                    Isotopes and Nuclear Properties:
 (Nuclear quadrupole moments (NQMom) in fm**2, nuclear magnetic moments (NMagM)
  in nuclear magnetons)

  Atom         1           2           3
 IAtWgt=          31           1           1
 AtmWgt=  30.9737634   1.0078250   1.0078250
 NucSpn=           1           1           1
 AtZEff=   0.0000000   0.0000000   0.0000000
 NQMom=    0.0000000   0.0000000   0.0000000
 NMagM=    1.1316000   2.7928460   2.7928460
 AtZNuc=  15.0000000   1.0000000   1.0000000
 No MM parameters found.
 Leave Link  101 at Wed Oct  7 12:37:40 2020, MaxMem=  2684354560 cpu:               4.1 elap:               0.5
 (Enter /udrive/faculty/rpeverati/g16/g16/l103.exe)

 GradGradGradGradGradGradGradGradGradGradGradGradGradGradGradGradGradGrad
 Berny optimization.
 Optmz: redundant internal coordinate code flag= 1
 Initialization pass.
                           ----------------------------
                           !    Initial Parameters    !
                           ! (Angstroms and Degrees)  !
 --------------------------                            --------------------------
 ! Name  Definition              Value          Derivative Info.                !
 --------------------------------------------------------------------------------
 ! R1    R(1,2)                  1.4167         estimate D2E/DX2                !
 ! R2    R(1,3)                  1.4167         estimate D2E/DX2                !
 ! A1    A(2,1,3)               92.119          estimate D2E/DX2                !
 --------------------------------------------------------------------------------
 Maximum allowed force set to 1.00D+20.
 Trust Radius=3.00D-01 FncErr=1.00D-07 GrdErr=1.00D-07 EigMax=2.50D+02 EigMin=1.00D-04
 Number of steps in this run=    100 maximum allowed number of steps=    100.
 GradGradGradGradGradGradGradGradGradGradGradGradGradGradGradGradGradGrad

 Leave Link  103 at Wed Oct  7 12:37:41 2020, MaxMem=  2684354560 cpu:               1.6 elap:               0.6
 (Enter /udrive/faculty/rpeverati/g16/g16/l202.exe)
                          Input orientation:                          
 ---------------------------------------------------------------------
 Center     Atomic      Atomic             Coordinates (Angstroms)
 Number     Number       Type             X           Y           Z
 ---------------------------------------------------------------------
      1         15           0        0.000000    0.000000    0.115657
      2          1           0        0.000000    1.020132   -0.867427
      3          1           0        0.000000   -1.020132   -0.867427
 ---------------------------------------------------------------------
                    Distance matrix (angstroms):
                    1          2          3
     1  P    0.000000
     2  H    1.416730   0.000000
     3  H    1.416730   2.040264   0.000000
 Stoichiometry    H2P(2)
 Framework group  C2V[C2(P),SGV(H2)]
 Deg. of freedom     2
 Full point group                 C2V     NOp   4
 Largest Abelian subgroup         C2V     NOp   4
 Largest concise Abelian subgroup C2      NOp   2
                         Standard orientation:                         
 ---------------------------------------------------------------------
 Center     Atomic      Atomic             Coordinates (Angstroms)
 Number     Number       Type             X           Y           Z
 ---------------------------------------------------------------------
      1         15           0        0.000000   -0.000000    0.115657
      2          1           0        0.000000    1.020132   -0.867427
      3          1           0       -0.000000   -1.020132   -0.867427
 ---------------------------------------------------------------------
 Rotational constants (GHZ):         276.3129231         240.9291565         128.7053821
 Leave Link  202 at Wed Oct  7 12:37:41 2020, MaxMem=  2684354560 cpu:               1.2 elap:               0.5
 (Enter /udrive/faculty/rpeverati/g16/g16/l301.exe)
 Standard basis: 6-31G(d) (5D, 7F)
 Ernie: Thresh=  0.10000D-02 Tol=  0.10000D-05 Strict=F.
 There are    12 symmetry adapted cartesian basis functions of A1  symmetry.
 There are     1 symmetry adapted cartesian basis functions of A2  symmetry.
 There are     4 symmetry adapted cartesian basis functions of B1  symmetry.
 There are     6 symmetry adapted cartesian basis functions of B2  symmetry.
 There are    11 symmetry adapted basis functions of A1  symmetry.
 There are     1 symmetry adapted basis functions of A2  symmetry.
 There are     4 symmetry adapted basis functions of B1  symmetry.
 There are     6 symmetry adapted basis functions of B2  symmetry.
    22 basis functions,    60 primitive gaussians,    23 cartesian basis functions
     9 alpha electrons        8 beta electrons
       nuclear repulsion energy        11.4649718428 Hartrees.
 IExCor=    0 DFT=F Ex=HF Corr=None ExCW=0 ScaHFX=  1.000000
 ScaDFX=  1.000000  1.000000  1.000000  1.000000 ScalE2=  1.000000  1.000000
 IRadAn=      5 IRanWt=     -1 IRanGd=            0 ICorTp=0 IEmpDi=  4
 NAtoms=    3 NActive=    3 NUniq=    2 SFac= 2.25D+00 NAtFMM=   60 NAOKFM=F Big=F
 Integral buffers will be    131072 words long.
 Raffenetti 2 integral format.
 Two-electron integral symmetry is turned on.
 Leave Link  301 at Wed Oct  7 12:37:42 2020, MaxMem=  2684354560 cpu:               2.5 elap:               0.7
 (Enter /udrive/faculty/rpeverati/g16/g16/l302.exe)
 NPDir=0 NMtPBC=     1 NCelOv=     1 NCel=       1 NClECP=     1 NCelD=      1
         NCelK=      1 NCelE2=     1 NClLst=     1 CellRange=     0.0.
 One-electron integrals computed using PRISM.
 One-electron integral symmetry used in STVInt
 NBasis=    22 RedAO= T EigKep=  3.32D-02  NBF=    11     1     4     6
 NBsUse=    22 1.00D-06 EigRej= -1.00D+00 NBFU=    11     1     4     6
 Leave Link  302 at Wed Oct  7 12:37:43 2020, MaxMem=  2684354560 cpu:               3.4 elap:               0.7
 (Enter /udrive/faculty/rpeverati/g16/g16/l303.exe)
 DipDrv:  MaxL=1.
 Leave Link  303 at Wed Oct  7 12:37:44 2020, MaxMem=  2684354560 cpu:               1.1 elap:               0.5
 (Enter /udrive/faculty/rpeverati/g16/g16/l401.exe)
 SCF N**3 symmetry information disabled.
 ExpMin= 9.98D-02 ExpMax= 1.94D+04 ExpMxC= 2.91D+03 IAcc=3 IRadAn=         5 AccDes= 0.00D+00
 Harris functional with IExCor=  205 and IRadAn=       5 diagonalized for initial guess.
 HarFok:  IExCor=  205 AccDes= 0.00D+00 IRadAn=         5 IDoV= 1 UseB2=F ITyADJ=14
 ICtDFT=  3500011 ScaDFX=  1.000000  1.000000  1.000000  1.000000
 FoFCou: FMM=F IPFlag=           0 FMFlag=      100000 FMFlg1=           0
         NFxFlg=           0 DoJE=T BraDBF=F KetDBF=T FulRan=T
         wScrn=  0.000000 ICntrl=       500 IOpCl=  0 I1Cent=   200000004 NGrid=           0
         NMat0=    1 NMatS0=      1 NMatT0=    0 NMatD0=    1 NMtDS0=    0 NMtDT0=    0
 Petite list used in FoFCou.
 Harris En= -341.503210038628    
 JPrj=0 DoOrth=F DoCkMO=F.
 Initial guess orbital symmetries:
 Alpha Orbitals:
       Occupied  (A1) (A1) (B2) (A1) (B1) (A1) (B2) (A1) (B1)
       Virtual   (B2) (A1) (A1) (B2) (A1) (B1) (A1) (A2) (B1) (B2)
                 (A1) (A1) (B2)
 Beta  Orbitals:
       Occupied  (A1) (A1) (B2) (A1) (B1) (A1) (B2) (A1)
       Virtual   (B1) (B2) (A1) (A1) (B2) (A1) (B1) (A1) (A2) (B1)
                 (B2) (A1) (A1) (B2)
 The electronic state of the initial guess is 2-B1.
 Initial guess <Sx>= 0.0000 <Sy>= 0.0000 <Sz>= 0.5000 <S**2>= 0.7500 S= 0.5000
 Leave Link  401 at Wed Oct  7 12:37:45 2020, MaxMem=  2684354560 cpu:               5.7 elap:               0.9
 (Enter /udrive/faculty/rpeverati/g16/g16/l502.exe)
 Keep R1 and R2 ints in memory in symmetry-blocked form, NReq=2506473.
 FoFCou: FMM=F IPFlag=           0 FMFlag=           0 FMFlg1=           0
         NFxFlg=           0 DoJE=F BraDBF=F KetDBF=F FulRan=T
         wScrn=  0.000000 ICntrl=       600 IOpCl=  0 I1Cent=           0 NGrid=           0
         NMat0=    1 NMatS0=    253 NMatT0=    0 NMatD0=    1 NMtDS0=    0 NMtDT0=    0
 Petite list used in FoFCou.
 UHF open shell SCF:
 Using DIIS extrapolation, IDIIS=  1040.
 NGot=  2684354560 LenX=  2684332948 LenY=  2684331978
 Requested convergence on RMS density matrix=1.00D-08 within 120 cycles.
 Requested convergence on MAX density matrix=1.00D-06.
 Requested convergence on             energy=1.00D-06.
 No special actions if energy rises.

 Cycle   1  Pass 1  IDiag  1:
 E= -341.833408518358    
 DIIS: error= 3.03D-02 at cycle   1 NSaved=   1.
 NSaved= 1 IEnMin= 1 EnMin= -341.833408518358     IErMin= 1 ErrMin= 3.03D-02
 ErrMax= 3.03D-02  0.00D+00 EMaxC= 1.00D-01 BMatC= 9.50D-02 BMatP= 9.50D-02
 IDIUse=3 WtCom= 6.97D-01 WtEn= 3.03D-01
 Coeff-Com:  0.100D+01
 Coeff-En:   0.100D+01
 Coeff:      0.100D+01
 Gap=     0.530 Goal=   None    Shift=    0.000
 Gap=     0.450 Goal=   None    Shift=    0.000
 GapD=    0.450 DampG=2.000 DampE=0.500 DampFc=1.0000 IDamp=-1.
 RMSDP=5.88D-03 MaxDP=6.07D-02              OVMax= 4.33D-02

 Cycle   2  Pass 1  IDiag  1:
 E= -341.847121747632     Delta-E=       -0.013713229274 Rises=F Damp=F
 DIIS: error= 4.42D-03 at cycle   2 NSaved=   2.
 NSaved= 2 IEnMin= 2 EnMin= -341.847121747632     IErMin= 2 ErrMin= 4.42D-03
 ErrMax= 4.42D-03  0.00D+00 EMaxC= 1.00D-01 BMatC= 1.63D-03 BMatP= 9.50D-02
 IDIUse=3 WtCom= 9.56D-01 WtEn= 4.42D-02
 Coeff-Com: -0.675D-01 0.107D+01
 Coeff-En:   0.000D+00 0.100D+01
 Coeff:     -0.645D-01 0.106D+01
 Gap=     0.531 Goal=   None    Shift=    0.000
 Gap=     0.439 Goal=   None    Shift=    0.000
 RMSDP=1.82D-03 MaxDP=1.38D-02 DE=-1.37D-02 OVMax= 1.18D-02

 Cycle   3  Pass 1  IDiag  1:
 E= -341.847977824697     Delta-E=       -0.000856077065 Rises=F Damp=F
 DIIS: error= 1.67D-03 at cycle   3 NSaved=   3.
 NSaved= 3 IEnMin= 3 EnMin= -341.847977824697     IErMin= 3 ErrMin= 1.67D-03
 ErrMax= 1.67D-03  0.00D+00 EMaxC= 1.00D-01 BMatC= 2.17D-04 BMatP= 1.63D-03
 IDIUse=3 WtCom= 9.83D-01 WtEn= 1.67D-02
 Coeff-Com:  0.212D-01-0.507D+00 0.149D+01
 Coeff-En:   0.000D+00 0.000D+00 0.100D+01
 Coeff:      0.209D-01-0.498D+00 0.148D+01
 Gap=     0.536 Goal=   None    Shift=    0.000
 Gap=     0.443 Goal=   None    Shift=    0.000
 RMSDP=1.02D-03 MaxDP=9.06D-03 DE=-8.56D-04 OVMax= 6.68D-03

 Cycle   4  Pass 1  IDiag  1:
 E= -341.848150980514     Delta-E=       -0.000173155817 Rises=F Damp=F
 DIIS: error= 4.89D-04 at cycle   4 NSaved=   4.
 NSaved= 4 IEnMin= 4 EnMin= -341.848150980514     IErMin= 4 ErrMin= 4.89D-04
 ErrMax= 4.89D-04  0.00D+00 EMaxC= 1.00D-01 BMatC= 1.60D-05 BMatP= 2.17D-04
 IDIUse=3 WtCom= 9.95D-01 WtEn= 4.89D-03
 Coeff-Com: -0.262D-02 0.586D-01-0.375D+00 0.132D+01
 Coeff-En:   0.000D+00 0.000D+00 0.000D+00 0.100D+01
 Coeff:     -0.261D-02 0.583D-01-0.373D+00 0.132D+01
 Gap=     0.537 Goal=   None    Shift=    0.000
 Gap=     0.444 Goal=   None    Shift=    0.000
 RMSDP=2.75D-04 MaxDP=3.33D-03 DE=-1.73D-04 OVMax= 1.93D-03

 Cycle   5  Pass 1  IDiag  1:
 E= -341.848165710319     Delta-E=       -0.000014729805 Rises=F Damp=F
 DIIS: error= 2.21D-04 at cycle   5 NSaved=   5.
 NSaved= 5 IEnMin= 5 EnMin= -341.848165710319     IErMin= 5 ErrMin= 2.21D-04
 ErrMax= 2.21D-04  0.00D+00 EMaxC= 1.00D-01 BMatC= 2.04D-06 BMatP= 1.60D-05
 IDIUse=3 WtCom= 9.98D-01 WtEn= 2.21D-03
 Coeff-Com: -0.687D-03 0.335D-01-0.298D-01-0.453D+00 0.145D+01
 Coeff-En:   0.000D+00 0.000D+00 0.000D+00 0.000D+00 0.100D+01
 Coeff:     -0.686D-03 0.334D-01-0.297D-01-0.452D+00 0.145D+01
 Gap=     0.537 Goal=   None    Shift=    0.000
 Gap=     0.444 Goal=   None    Shift=    0.000
 RMSDP=9.44D-05 MaxDP=9.57D-04 DE=-1.47D-05 OVMax= 1.01D-03

 Cycle   6  Pass 1  IDiag  1:
 E= -341.848167895012     Delta-E=       -0.000002184694 Rises=F Damp=F
 DIIS: error= 8.82D-05 at cycle   6 NSaved=   6.
 NSaved= 6 IEnMin= 6 EnMin= -341.848167895012     IErMin= 6 ErrMin= 8.82D-05
 ErrMax= 8.82D-05  0.00D+00 EMaxC= 1.00D-01 BMatC= 3.21D-07 BMatP= 2.04D-06
 IDIUse=1 WtCom= 1.00D+00 WtEn= 0.00D+00
 Coeff-Com:  0.594D-03-0.256D-01 0.633D-01 0.851D-01-0.790D+00 0.167D+01
 Coeff:      0.594D-03-0.256D-01 0.633D-01 0.851D-01-0.790D+00 0.167D+01
 Gap=     0.537 Goal=   None    Shift=    0.000
 Gap=     0.444 Goal=   None    Shift=    0.000
 RMSDP=5.56D-05 MaxDP=4.84D-04 DE=-2.18D-06 OVMax= 5.84D-04

 Cycle   7  Pass 1  IDiag  1:
 E= -341.848168383788     Delta-E=       -0.000000488775 Rises=F Damp=F
 DIIS: error= 2.87D-05 at cycle   7 NSaved=   7.
 NSaved= 7 IEnMin= 7 EnMin= -341.848168383788     IErMin= 7 ErrMin= 2.87D-05
 ErrMax= 2.87D-05  0.00D+00 EMaxC= 1.00D-01 BMatC= 5.98D-08 BMatP= 3.21D-07
 IDIUse=1 WtCom= 1.00D+00 WtEn= 0.00D+00
 Coeff-Com: -0.211D-03 0.977D-02-0.342D-01 0.347D-01 0.185D+00-0.103D+01
 Coeff-Com:  0.183D+01
 Coeff:     -0.211D-03 0.977D-02-0.342D-01 0.347D-01 0.185D+00-0.103D+01
 Coeff:      0.183D+01
 Gap=     0.537 Goal=   None    Shift=    0.000
 Gap=     0.444 Goal=   None    Shift=    0.000
 RMSDP=3.71D-05 MaxDP=2.51D-04 DE=-4.89D-07 OVMax= 2.87D-04

 Cycle   8  Pass 1  IDiag  1:
 E= -341.848168491852     Delta-E=       -0.000000108064 Rises=F Damp=F
 DIIS: error= 6.90D-06 at cycle   8 NSaved=   8.
 NSaved= 8 IEnMin= 8 EnMin= -341.848168491852     IErMin= 8 ErrMin= 6.90D-06
 ErrMax= 6.90D-06  0.00D+00 EMaxC= 1.00D-01 BMatC= 3.69D-09 BMatP= 5.98D-08
 IDIUse=1 WtCom= 1.00D+00 WtEn= 0.00D+00
 Coeff-Com:  0.179D-04-0.126D-02 0.785D-02-0.272D-01 0.138D-01 0.255D+00
 Coeff-Com: -0.778D+00 0.153D+01
 Coeff:      0.179D-04-0.126D-02 0.785D-02-0.272D-01 0.138D-01 0.255D+00
 Coeff:     -0.778D+00 0.153D+01
 Gap=     0.537 Goal=   None    Shift=    0.000
 Gap=     0.444 Goal=   None    Shift=    0.000
 RMSDP=7.86D-06 MaxDP=6.27D-05 DE=-1.08D-07 OVMax= 7.32D-05

 Cycle   9  Pass 1  IDiag  1:
 E= -341.848168496481     Delta-E=       -0.000000004629 Rises=F Damp=F
 DIIS: error= 1.23D-06 at cycle   9 NSaved=   9.
 NSaved= 9 IEnMin= 9 EnMin= -341.848168496481     IErMin= 9 ErrMin= 1.23D-06
 ErrMax= 1.23D-06  0.00D+00 EMaxC= 1.00D-01 BMatC= 8.58D-11 BMatP= 3.69D-09
 IDIUse=1 WtCom= 1.00D+00 WtEn= 0.00D+00
 Coeff-Com:  0.468D-05-0.509D-04-0.656D-03 0.557D-02-0.108D-01-0.267D-01
 Coeff-Com:  0.141D+00-0.432D+00 0.132D+01
 Coeff:      0.468D-05-0.509D-04-0.656D-03 0.557D-02-0.108D-01-0.267D-01
 Coeff:      0.141D+00-0.432D+00 0.132D+01
 Gap=     0.537 Goal=   None    Shift=    0.000
 Gap=     0.444 Goal=   None    Shift=    0.000
 RMSDP=7.04D-07 MaxDP=5.13D-06 DE=-4.63D-09 OVMax= 7.23D-06

 Cycle  10  Pass 1  IDiag  1:
 E= -341.848168496554     Delta-E=       -0.000000000072 Rises=F Damp=F
 DIIS: error= 2.34D-07 at cycle  10 NSaved=  10.
 NSaved=10 IEnMin=10 EnMin= -341.848168496554     IErMin=10 ErrMin= 2.34D-07
 ErrMax= 2.34D-07  0.00D+00 EMaxC= 1.00D-01 BMatC= 2.73D-12 BMatP= 8.58D-11
 IDIUse=1 WtCom= 1.00D+00 WtEn= 0.00D+00
 Coeff-Com: -0.240D-05 0.567D-04 0.423D-05-0.119D-02 0.331D-02 0.272D-02
 Coeff-Com: -0.278D-01 0.105D+00-0.436D+00 0.135D+01
 Coeff:     -0.240D-05 0.567D-04 0.423D-05-0.119D-02 0.331D-02 0.272D-02
 Coeff:     -0.278D-01 0.105D+00-0.436D+00 0.135D+01
 Gap=     0.537 Goal=   None    Shift=    0.000
 Gap=     0.444 Goal=   None    Shift=    0.000
 RMSDP=1.20D-07 MaxDP=8.50D-07 DE=-7.24D-11 OVMax= 9.35D-07

 Cycle  11  Pass 1  IDiag  1:
 E= -341.848168496556     Delta-E=       -0.000000000002 Rises=F Damp=F
 DIIS: error= 6.54D-08 at cycle  11 NSaved=  11.
 NSaved=11 IEnMin=11 EnMin= -341.848168496556     IErMin=11 ErrMin= 6.54D-08
 ErrMax= 6.54D-08  0.00D+00 EMaxC= 1.00D-01 BMatC= 1.75D-13 BMatP= 2.73D-12
 IDIUse=1 WtCom= 1.00D+00 WtEn= 0.00D+00
 Coeff-Com:  0.560D-06-0.200D-04 0.586D-04 0.656D-05-0.485D-03 0.157D-02
 Coeff-Com: -0.193D-02-0.249D-02 0.444D-01-0.405D+00 0.136D+01
 Coeff:      0.560D-06-0.200D-04 0.586D-04 0.656D-05-0.485D-03 0.157D-02
 Coeff:     -0.193D-02-0.249D-02 0.444D-01-0.405D+00 0.136D+01
 Gap=     0.537 Goal=   None    Shift=    0.000
 Gap=     0.444 Goal=   None    Shift=    0.000
 RMSDP=3.48D-08 MaxDP=2.60D-07 DE=-2.44D-12 OVMax= 3.04D-07

 Cycle  12  Pass 1  IDiag  1:
 E= -341.848168496556     Delta-E=       -0.000000000000 Rises=F Damp=F
 DIIS: error= 1.03D-08 at cycle  12 NSaved=  12.
 NSaved=12 IEnMin=12 EnMin= -341.848168496556     IErMin=12 ErrMin= 1.03D-08
 ErrMax= 1.03D-08  0.00D+00 EMaxC= 1.00D-01 BMatC= 6.66D-15 BMatP= 1.75D-13
 IDIUse=1 WtCom= 1.00D+00 WtEn= 0.00D+00
 Coeff-Com: -0.113D-06 0.516D-05-0.216D-04 0.434D-04 0.481D-04-0.674D-03
 Coeff-Com:  0.176D-02-0.300D-02-0.429D-03 0.102D+00-0.510D+00 0.141D+01
 Coeff:     -0.113D-06 0.516D-05-0.216D-04 0.434D-04 0.481D-04-0.674D-03
 Coeff:      0.176D-02-0.300D-02-0.429D-03 0.102D+00-0.510D+00 0.141D+01
 Gap=     0.537 Goal=   None    Shift=    0.000
 Gap=     0.444 Goal=   None    Shift=    0.000
 RMSDP=4.42D-09 MaxDP=3.14D-08 DE=-2.27D-13 OVMax= 3.97D-08

 SCF Done:  E(UHF) =  -341.848168497     A.U. after   12 cycles
            NFock= 12  Conv=0.44D-08     -V/T= 1.9996
 <Sx>= 0.0000 <Sy>= 0.0000 <Sz>= 0.5000 <S**2>= 0.7626 S= 0.5063
 <L.S>= 0.000000000000E+00
 KE= 3.419891944455D+02 PE=-8.375314755376D+02 EE= 1.422291407527D+02
 Annihilation of the first spin contaminant:
 S**2 before annihilation     0.7626,   after     0.7500
 Leave Link  502 at Wed Oct  7 12:37:47 2020, MaxMem=  2684354560 cpu:              11.2 elap:               1.4
 (Enter /udrive/faculty/rpeverati/g16/g16/l508.exe)
 QCSCF skips out because SCF is already converged.
 Leave Link  508 at Wed Oct  7 12:37:47 2020, MaxMem=  2684354560 cpu:               0.8 elap:               0.6
 (Enter /udrive/faculty/rpeverati/g16/g16/l601.exe)
 Copying SCF densities to generalized density rwf, IOpCl= 1 IROHF=0.

 **********************************************************************

            Population analysis using the SCF density.

 **********************************************************************

 Orbital symmetries:
 Alpha Orbitals:
       Occupied  (A1) (A1) (B1) (B2) (A1) (A1) (B2) (A1) (B1)
       Virtual   (B2) (A1) (A1) (B2) (B1) (A1) (A2) (B1) (B2) (A1)
                 (A1) (A1) (B2)
 Beta  Orbitals:
       Occupied  (A1) (A1) (B2) (A1) (B1) (A1) (B2) (A1)
       Virtual   (B1) (B2) (A1) (A1) (B2) (A1) (B1) (B2) (A1) (A2)
                 (B1) (A1) (A1) (B2)
 The electronic state is 2-B1.
 Alpha  occ. eigenvalues --  -79.94041  -7.49871  -5.40210  -5.38905  -5.38722
 Alpha  occ. eigenvalues --   -0.85931  -0.52676  -0.42945  -0.37480
 Alpha virt. eigenvalues --    0.16227   0.21935   0.37471   0.43990   0.44182
 Alpha virt. eigenvalues --    0.46164   0.87767   0.88422   0.88831   0.90450
 Alpha virt. eigenvalues --    0.95281   1.25513   1.44727
  Beta  occ. eigenvalues --  -79.93326  -7.49029  -5.38404  -5.38347  -5.37020
  Beta  occ. eigenvalues --   -0.79028  -0.52091  -0.40375
  Beta virt. eigenvalues --    0.04047   0.17015   0.25481   0.40571   0.44986
  Beta virt. eigenvalues --    0.47044   0.52644   0.88927   0.91366   0.95480
  Beta virt. eigenvalues --    0.95797   1.01079   1.27065   1.45009
          Condensed to atoms (all electrons):
               1          2          3
     1  P   14.348126   0.287329   0.287329
     2  H    0.287329   0.774932  -0.023653
     3  H    0.287329  -0.023653   0.774932
          Atomic-Atomic Spin Densities.
               1          2          3
     1  P    1.201433  -0.035707  -0.035707
     2  H   -0.035707  -0.035879   0.006576
     3  H   -0.035707   0.006576  -0.035879
 Mulliken charges and spin densities:
               1          2
     1  P    0.077215   1.130020
     2  H   -0.038608  -0.065010
     3  H   -0.038608  -0.065010
 Sum of Mulliken charges =   0.00000   1.00000
 Mulliken charges and spin densities with hydrogens summed into heavy atoms:
               1          2
     1  P    0.000000   1.000000
 Electronic spatial extent (au):  <R**2>=             47.0479
 Charge=              0.0000 electrons
 Dipole moment (field-independent basis, Debye):
    X=              0.0000    Y=             -0.0000    Z=             -0.8237  Tot=              0.8237
 Quadrupole moment (field-independent basis, Debye-Ang):
   XX=            -14.9982   YY=            -14.1810   ZZ=            -15.9128
   XY=             -0.0000   XZ=             -0.0000   YZ=              0.0000
 Traceless Quadrupole moment (field-independent basis, Debye-Ang):
   XX=              0.0324   YY=              0.8497   ZZ=             -0.8821
   XY=             -0.0000   XZ=             -0.0000   YZ=              0.0000
 Octapole moment (field-independent basis, Debye-Ang**2):
  XXX=              0.0000  YYY=             -0.0000  ZZZ=             -1.3972  XYY=              0.0000
  XXY=             -0.0000  XXZ=             -0.6092  XZZ=              0.0000  YZZ=              0.0000
  YYZ=              0.1979  XYZ=             -0.0000
 Hexadecapole moment (field-independent basis, Debye-Ang**3):
 XXXX=            -21.9344 YYYY=            -30.4351 ZZZZ=            -33.7468 XXXY=             -0.0000
 XXXZ=             -0.0000 YYYX=             -0.0000 YYYZ=              0.0000 ZZZX=             -0.0000
 ZZZY=              0.0000 XXYY=             -8.7808 XXZZ=             -9.3494 YYZZ=            -10.5124
 XXYZ=              0.0000 YYXZ=             -0.0000 ZZXY=             -0.0000
 N-N= 1.146497184284D+01 E-N=-8.375314755365D+02  KE= 3.419891944455D+02
                          Isotropic Fermi Contact Couplings
        Atom                 a.u.       MegaHertz       Gauss      10(-4) cm-1
     1  P(31)              0.17878     323.79652     115.53865     108.00689
     2  H(1)              -0.01707     -76.31450     -27.23091     -25.45578
     3  H(1)              -0.01707     -76.31450     -27.23091     -25.45578
 --------------------------------------------------------
       Center         ----  Spin Dipole Couplings  ----
                      3XX-RR        3YY-RR        3ZZ-RR
 --------------------------------------------------------
     1   Atom        2.607834     -1.214282     -1.393552
     2   Atom        0.002836      0.002359     -0.005196
     3   Atom        0.002836      0.002359     -0.005196
 --------------------------------------------------------
                        XY            XZ            YZ
 --------------------------------------------------------
     1   Atom       -0.000000     -0.000000     -0.000000
     2   Atom       -0.000000      0.000000     -0.031920
     3   Atom       -0.000000     -0.000000      0.031920
 --------------------------------------------------------


 ---------------------------------------------------------------------------------
              Anisotropic Spin Dipole Couplings in Principal Axis System
 ---------------------------------------------------------------------------------

       Atom             a.u.   MegaHertz   Gauss  10(-4) cm-1        Axes

              Baa    -1.3936  -301.263  -107.498  -100.491  0.0000  0.0000  1.0000
     1 P(31)  Bbb    -1.2143  -262.508   -93.669   -87.563 -0.0000  1.0000 -0.0000
              Bcc     2.6078   563.771   201.168   188.054  1.0000 -0.0000  0.0000
 
              Baa    -0.0336   -17.907    -6.390    -5.973 -0.0000  0.6643  0.7475
     2 H(1)   Bbb     0.0028     1.513     0.540     0.505  1.0000  0.0000  0.0000
              Bcc     0.0307    16.393     5.850     5.468 -0.0000  0.7475 -0.6643
 
              Baa    -0.0336   -17.907    -6.390    -5.973  0.0000 -0.6643  0.7475
     3 H(1)   Bbb     0.0028     1.513     0.540     0.505  1.0000  0.0000  0.0000
              Bcc     0.0307    16.393     5.850     5.468 -0.0000  0.7475  0.6643
 

 ---------------------------------------------------------------------------------

 No NMR shielding tensors so no spin-rotation constants.
 Leave Link  601 at Wed Oct  7 12:37:49 2020, MaxMem=  2684354560 cpu:               6.0 elap:               0.8
 (Enter /udrive/faculty/rpeverati/g16/g16/l701.exe)
 ... and contract with generalized density number  0.
 Compute integral first derivatives.
 Leave Link  701 at Wed Oct  7 12:37:50 2020, MaxMem=  2684354560 cpu:               4.4 elap:               0.8
 (Enter /udrive/faculty/rpeverati/g16/g16/l702.exe)
 L702 exits ... SP integral derivatives will be done elsewhere.
 Leave Link  702 at Wed Oct  7 12:37:51 2020, MaxMem=  2684354560 cpu:               1.8 elap:               0.7
 (Enter /udrive/faculty/rpeverati/g16/g16/l703.exe)
 Integral derivatives from FoFJK, PRISM(SPDF).
 Compute integral first derivatives, UseDBF=F ICtDFT=           0.
 Calling FoFJK, ICntrl=      2127 FMM=F ISym2X=1 I1Cent= 0 IOpClX= 1 NMat=1 NMatS=1 NMatT=0.
 FoFJK:  IHMeth= 1 ICntrl=    2127 DoSepK=F KAlg= 0 I1Cent=           0 FoldK=F
 IRaf=         0 NMat=       1 IRICut=       1 DoRegI=T DoRafI=F ISym2E= 1 IDoP0=0 IntGTp=1.
 FoFCou: FMM=F IPFlag=           0 FMFlag=      100000 FMFlg1=         800
         NFxFlg=           0 DoJE=F BraDBF=F KetDBF=F FulRan=T
         wScrn=  0.000000 ICntrl=      2127 IOpCl=  1 I1Cent=           0 NGrid=           0
         NMat0=    1 NMatS0=      1 NMatT0=    0 NMatD0=    1 NMtDS0=    0 NMtDT0=    0
 Petite list used in FoFCou.
 Leave Link  703 at Wed Oct  7 12:37:52 2020, MaxMem=  2684354560 cpu:               6.5 elap:               0.9
 (Enter /udrive/faculty/rpeverati/g16/g16/l716.exe)
 Dipole        = 1.05076252D-17 0.00000000D+00-3.24086764D-01
 ***** Axes restored to original set *****
 -------------------------------------------------------------------
 Center     Atomic                   Forces (Hartrees/Bohr)
 Number     Number              X              Y              Z
 -------------------------------------------------------------------
      1       15          -0.000000000   -0.000000000   -0.008217902
      2        1           0.000000000   -0.001806397    0.004108951
      3        1           0.000000000    0.001806397    0.004108951
 -------------------------------------------------------------------
 Cartesian Forces:  Max     0.008217902 RMS     0.003461326
 Leave Link  716 at Wed Oct  7 12:37:52 2020, MaxMem=  2684354560 cpu:               1.2 elap:               0.5
 (Enter /udrive/faculty/rpeverati/g16/g16/l103.exe)

 GradGradGradGradGradGradGradGradGradGradGradGradGradGradGradGradGradGrad
 Berny optimization.
 Optmz: redundant internal coordinate code flag= 1
 FormGI is forming the generalized inverse of G from B-inverse, IUseBI=4.
 Internal  Forces:  Max     0.004565261 RMS     0.004294150
 Search for a local minimum.
 Step number   1 out of a maximum of  100
 All quantities printed in internal units (Hartrees-Bohrs-Radians)
 RMS Force = .42941D-02 SwitMx=.10000D-02 MixMth= 1
 Mixed Optimization -- RFO/linear search
 Second derivative matrix not updated -- first step.
 The second derivative matrix:
                          R1        R2        A1
           R1           0.21124
           R2           0.00000   0.21124
           A1           0.00000   0.00000   0.16000
 ITU=  0
 Eigenvectors of the second derivative matrix:
                           1         2         3
     Eigenvalues --     0.16000   0.21124   0.21124
   1         R1        -0.00000   0.97330  -0.22954
   2         R2         0.00000   0.22954   0.97330
   3         A1         1.00000  -0.00000  -0.00000
 Iter=   1 RLamda= 0.00000000D+00 Sum=-2.93473066D-04.
 Iter=   2 RLamda=-2.93473066D-04 Sum=-2.93008148D-04.
 Iter=   3 RLamda=-2.93008148D-04 Sum=-2.93008883D-04.
 RFO step:  Lambda=-2.93008148D-04 EMin= 1.60000000D-01
 Linear search not attempted -- first point.
 Iteration  1 RMS(Cart)=  0.02181950 RMS(Int)=  0.00025362
 Iteration  2 RMS(Cart)=  0.00031760 RMS(Int)=  0.00000002
 Iteration  3 RMS(Cart)=  0.00000002 RMS(Int)=  0.00000000
 ITry= 1 IFail=0 DXMaxC= 2.74D-02 DCOld= 1.00D+10 DXMaxT= 3.00D-01 DXLimC= 3.00D+00 Rises=F
 ClnCor:  largest displacement from symmetrization is 1.79D-15 for atom     3.
 Variable       Old X    -DE/DX   Delta X   Delta X   Delta X     New X
                                 (Linear)    (Quad)   (Total)
    R1        2.67723  -0.00415   0.00000  -0.01963  -0.01963   2.65760
    R2        2.67723  -0.00415   0.00000  -0.01963  -0.01963   2.65760
    A1        1.60778   0.00457   0.00000   0.02848   0.02848   1.63626
         Item               Value     Threshold  Converged?
 Maximum Force            0.004565     0.000450     NO 
 RMS     Force            0.004294     0.000300     NO 
 Maximum Displacement     0.027371     0.001800     NO 
 RMS     Displacement     0.021669     0.001200     NO 
 Predicted change in Energy=-1.467362D-04
 Lowest energy point so far.  Saving SCF results.
 Largest change from initial coordinates is atom    1       0.010 Angstoms.
 GradGradGradGradGradGradGradGradGradGradGradGradGradGradGradGradGradGrad

 Leave Link  103 at Wed Oct  7 12:37:53 2020, MaxMem=  2684354560 cpu:               2.5 elap:               0.6
 (Enter /udrive/faculty/rpeverati/g16/g16/l202.exe)
                          Input orientation:                          
 ---------------------------------------------------------------------
 Center     Atomic      Atomic             Coordinates (Angstroms)
 Number     Number       Type             X           Y           Z
 ---------------------------------------------------------------------
      1         15           0        0.000000    0.000000    0.101173
      2          1           0        0.000000    1.026447   -0.860185
      3          1           0       -0.000000   -1.026447   -0.860185
 ---------------------------------------------------------------------
                    Distance matrix (angstroms):
                    1          2          3
     1  P    0.000000
     2  H    1.406343   0.000000
     3  H    1.406343   2.052893   0.000000
 Stoichiometry    H2P(2)
 Framework group  C2V[C2(P),SGV(H2)]
 Deg. of freedom     2
 Full point group                 C2V     NOp   4
 RotChk:  IX=0 Diff= 5.31D-16
 Largest Abelian subgroup         C2V     NOp   4
 Largest concise Abelian subgroup C2      NOp   2
                         Standard orientation:                         
 ---------------------------------------------------------------------
 Center     Atomic      Atomic             Coordinates (Angstroms)
 Number     Number       Type             X           Y           Z
 ---------------------------------------------------------------------
      1         15           0        0.000000   -0.000000    0.113101
      2          1           0       -0.000000    1.026447   -0.848257
      3          1           0       -0.000000   -1.026447   -0.848257
 ---------------------------------------------------------------------
 Rotational constants (GHZ):         288.9431872         237.9738566         130.4966795
 Leave Link  202 at Wed Oct  7 12:37:54 2020, MaxMem=  2684354560 cpu:               1.2 elap:               0.5
 (Enter /udrive/faculty/rpeverati/g16/g16/l301.exe)
 Standard basis: 6-31G(d) (5D, 7F)
 Ernie: Thresh=  0.10000D-02 Tol=  0.10000D-05 Strict=F.
 There are    12 symmetry adapted cartesian basis functions of A1  symmetry.
 There are     1 symmetry adapted cartesian basis functions of A2  symmetry.
 There are     4 symmetry adapted cartesian basis functions of B1  symmetry.
 There are     6 symmetry adapted cartesian basis functions of B2  symmetry.
 There are    11 symmetry adapted basis functions of A1  symmetry.
 There are     1 symmetry adapted basis functions of A2  symmetry.
 There are     4 symmetry adapted basis functions of B1  symmetry.
 There are     6 symmetry adapted basis functions of B2  symmetry.
    22 basis functions,    60 primitive gaussians,    23 cartesian basis functions
     9 alpha electrons        8 beta electrons
       nuclear repulsion energy        11.5461350847 Hartrees.
 IExCor=    0 DFT=F Ex=HF Corr=None ExCW=0 ScaHFX=  1.000000
 ScaDFX=  1.000000  1.000000  1.000000  1.000000 ScalE2=  1.000000  1.000000
 IRadAn=      5 IRanWt=     -1 IRanGd=            0 ICorTp=0 IEmpDi=  4
 NAtoms=    3 NActive=    3 NUniq=    2 SFac= 2.25D+00 NAtFMM=   60 NAOKFM=F Big=F
 Integral buffers will be    131072 words long.
 Raffenetti 2 integral format.
 Two-electron integral symmetry is turned on.
 Leave Link  301 at Wed Oct  7 12:37:55 2020, MaxMem=  2684354560 cpu:               2.3 elap:               0.5
 (Enter /udrive/faculty/rpeverati/g16/g16/l302.exe)
 NPDir=0 NMtPBC=     1 NCelOv=     1 NCel=       1 NClECP=     1 NCelD=      1
         NCelK=      1 NCelE2=     1 NClLst=     1 CellRange=     0.0.
 One-electron integrals computed using PRISM.
 One-electron integral symmetry used in STVInt
 NBasis=    22 RedAO= T EigKep=  3.31D-02  NBF=    11     1     4     6
 NBsUse=    22 1.00D-06 EigRej= -1.00D+00 NBFU=    11     1     4     6
 Leave Link  302 at Wed Oct  7 12:37:55 2020, MaxMem=  2684354560 cpu:               2.7 elap:               0.6
 (Enter /udrive/faculty/rpeverati/g16/g16/l303.exe)
 DipDrv:  MaxL=1.
 Leave Link  303 at Wed Oct  7 12:37:56 2020, MaxMem=  2684354560 cpu:               0.9 elap:               0.5
 (Enter /udrive/faculty/rpeverati/g16/g16/l401.exe)
 Initial guess from the checkpoint file:  "MN_76_PH2_BH76_HF_631Gs.chk"
 SCF N**3 symmetry information disabled.
 B after Tr=    -0.000000   -0.000000   -0.000000
         Rot=    1.000000    0.000000    0.000000   -0.000000 Ang=   0.00 deg.
 Guess basis will be translated and rotated to current coordinates.
 JPrj=2 DoOrth=T DoCkMO=T.
 Initial guess orbital symmetries:
 Alpha Orbitals:
       Occupied  (A1) (A1) (B1) (B2) (A1) (A1) (B2) (A1) (B1)
       Virtual   (B2) (A1) (A1) (B2) (B1) (A1) (A2) (B1) (B2) (A1)
                 (A1) (A1) (B2)
 Beta  Orbitals:
       Occupied  (A1) (A1) (B2) (A1) (B1) (A1) (B2) (A1)
       Virtual   (B1) (B2) (A1) (A1) (B2) (A1) (B1) (B2) (A1) (A2)
                 (B1) (A1) (A1) (B2)
 The electronic state of the initial guess is 2-B1.
 Initial guess <Sx>= 0.0000 <Sy>= 0.0000 <Sz>= 0.5000 <S**2>= 0.7626 S= 0.5063
 Generating alternative initial guess.
 ExpMin= 9.98D-02 ExpMax= 1.94D+04 ExpMxC= 2.91D+03 IAcc=2 IRadAn=         4 AccDes= 0.00D+00
 Harris functional with IExCor=  205 and IRadAn=       4 diagonalized for initial guess.
 HarFok:  IExCor=  205 AccDes= 0.00D+00 IRadAn=         4 IDoV= 1 UseB2=F ITyADJ=14
 ICtDFT=  3500011 ScaDFX=  1.000000  1.000000  1.000000  1.000000
 FoFCou: FMM=F IPFlag=           0 FMFlag=      100000 FMFlg1=           0
         NFxFlg=           0 DoJE=T BraDBF=F KetDBF=T FulRan=T
         wScrn=  0.000000 ICntrl=       500 IOpCl=  0 I1Cent=   200000004 NGrid=           0
         NMat0=    1 NMatS0=      1 NMatT0=    0 NMatD0=    1 NMtDS0=    0 NMtDT0=    0
 Petite list used in FoFCou.
 Harris En= -341.502973102816    
 Leave Link  401 at Wed Oct  7 12:37:57 2020, MaxMem=  2684354560 cpu:               5.9 elap:               0.9
 (Enter /udrive/faculty/rpeverati/g16/g16/l502.exe)
 Keep R1 and R2 ints in memory in symmetry-blocked form, NReq=2506473.
 FoFCou: FMM=F IPFlag=           0 FMFlag=           0 FMFlg1=           0
         NFxFlg=           0 DoJE=F BraDBF=F KetDBF=F FulRan=T
         wScrn=  0.000000 ICntrl=       600 IOpCl=  0 I1Cent=           0 NGrid=           0
         NMat0=    1 NMatS0=    253 NMatT0=    0 NMatD0=    1 NMtDS0=    0 NMtDT0=    0
 Petite list used in FoFCou.
 UHF open shell SCF:
 Using DIIS extrapolation, IDIIS=  1040.
 NGot=  2684354560 LenX=  2684332948 LenY=  2684331978
 Requested convergence on RMS density matrix=1.00D-08 within 120 cycles.
 Requested convergence on MAX density matrix=1.00D-06.
 Requested convergence on             energy=1.00D-06.
 No special actions if energy rises.

 Cycle   1  Pass 1  IDiag  1:
 E= -341.848239612377    
 DIIS: error= 1.45D-03 at cycle   1 NSaved=   1.
 NSaved= 1 IEnMin= 1 EnMin= -341.848239612377     IErMin= 1 ErrMin= 1.45D-03
 ErrMax= 1.45D-03  0.00D+00 EMaxC= 1.00D-01 BMatC= 1.06D-04 BMatP= 1.06D-04
 IDIUse=3 WtCom= 9.86D-01 WtEn= 1.45D-02
 Coeff-Com:  0.100D+01
 Coeff-En:   0.100D+01
 Coeff:      0.100D+01
 Gap=     0.540 Goal=   None    Shift=    0.000
 Gap=     0.442 Goal=   None    Shift=    0.000
 GapD=    0.442 DampG=2.000 DampE=1.000 DampFc=2.0000 IDamp=-1.
 RMSDP=3.23D-04 MaxDP=2.21D-03              OVMax= 3.09D-03

 Cycle   2  Pass 1  IDiag  1:
 E= -341.848290807758     Delta-E=       -0.000051195382 Rises=F Damp=F
 DIIS: error= 3.09D-04 at cycle   2 NSaved=   2.
 NSaved= 2 IEnMin= 2 EnMin= -341.848290807758     IErMin= 2 ErrMin= 3.09D-04
 ErrMax= 3.09D-04  0.00D+00 EMaxC= 1.00D-01 BMatC= 6.70D-06 BMatP= 1.06D-04
 IDIUse=3 WtCom= 9.97D-01 WtEn= 3.09D-03
 Coeff-Com: -0.256D+00 0.126D+01
 Coeff-En:   0.000D+00 0.100D+01
 Coeff:     -0.256D+00 0.126D+01
 Gap=     0.540 Goal=   None    Shift=    0.000
 Gap=     0.442 Goal=   None    Shift=    0.000
 RMSDP=1.42D-04 MaxDP=9.23D-04 DE=-5.12D-05 OVMax= 1.02D-03

 Cycle   3  Pass 1  IDiag  1:
 E= -341.848295269579     Delta-E=       -0.000004461821 Rises=F Damp=F
 DIIS: error= 4.76D-05 at cycle   3 NSaved=   3.
 NSaved= 3 IEnMin= 3 EnMin= -341.848295269579     IErMin= 3 ErrMin= 4.76D-05
 ErrMax= 4.76D-05  0.00D+00 EMaxC= 1.00D-01 BMatC= 2.01D-07 BMatP= 6.70D-06
 IDIUse=1 WtCom= 1.00D+00 WtEn= 0.00D+00
 Coeff-Com:  0.497D-02-0.124D+00 0.112D+01
 Coeff:      0.497D-02-0.124D+00 0.112D+01
 Gap=     0.540 Goal=   None    Shift=    0.000
 Gap=     0.442 Goal=   None    Shift=    0.000
 RMSDP=3.03D-05 MaxDP=1.84D-04 DE=-4.46D-06 OVMax= 2.28D-04

 Cycle   4  Pass 1  IDiag  1:
 E= -341.848295423345     Delta-E=       -0.000000153767 Rises=F Damp=F
 DIIS: error= 1.33D-05 at cycle   4 NSaved=   4.
 NSaved= 4 IEnMin= 4 EnMin= -341.848295423345     IErMin= 4 ErrMin= 1.33D-05
 ErrMax= 1.33D-05  0.00D+00 EMaxC= 1.00D-01 BMatC= 1.37D-08 BMatP= 2.01D-07
 IDIUse=1 WtCom= 1.00D+00 WtEn= 0.00D+00
 Coeff-Com:  0.926D-02-0.398D-01-0.127D+00 0.116D+01
 Coeff:      0.926D-02-0.398D-01-0.127D+00 0.116D+01
 Gap=     0.540 Goal=   None    Shift=    0.000
 Gap=     0.442 Goal=   None    Shift=    0.000
 RMSDP=9.21D-06 MaxDP=7.99D-05 DE=-1.54D-07 OVMax= 7.14D-05

 Cycle   5  Pass 1  IDiag  1:
 E= -341.848295436823     Delta-E=       -0.000000013478 Rises=F Damp=F
 DIIS: error= 7.26D-06 at cycle   5 NSaved=   5.
 NSaved= 5 IEnMin= 5 EnMin= -341.848295436823     IErMin= 5 ErrMin= 7.26D-06
 ErrMax= 7.26D-06  0.00D+00 EMaxC= 1.00D-01 BMatC= 2.60D-09 BMatP= 1.37D-08
 IDIUse=1 WtCom= 1.00D+00 WtEn= 0.00D+00
 Coeff-Com: -0.494D-02 0.256D-01 0.217D-01-0.653D+00 0.161D+01
 Coeff:     -0.494D-02 0.256D-01 0.217D-01-0.653D+00 0.161D+01
 Gap=     0.540 Goal=   None    Shift=    0.000
 Gap=     0.442 Goal=   None    Shift=    0.000
 RMSDP=3.98D-06 MaxDP=3.22D-05 DE=-1.35D-08 OVMax= 3.87D-05

 Cycle   6  Pass 1  IDiag  1:
 E= -341.848295440047     Delta-E=       -0.000000003224 Rises=F Damp=F
 DIIS: error= 3.42D-06 at cycle   6 NSaved=   6.
 NSaved= 6 IEnMin= 6 EnMin= -341.848295440047     IErMin= 6 ErrMin= 3.42D-06
 ErrMax= 3.42D-06  0.00D+00 EMaxC= 1.00D-01 BMatC= 5.78D-10 BMatP= 2.60D-09
 IDIUse=1 WtCom= 1.00D+00 WtEn= 0.00D+00
 Coeff-Com:  0.985D-03-0.702D-02 0.144D-01 0.175D+00-0.103D+01 0.185D+01
 Coeff:      0.985D-03-0.702D-02 0.144D-01 0.175D+00-0.103D+01 0.185D+01
 Gap=     0.540 Goal=   None    Shift=    0.000
 Gap=     0.442 Goal=   None    Shift=    0.000
 RMSDP=2.67D-06 MaxDP=2.20D-05 DE=-3.22D-09 OVMax= 2.53D-05

 Cycle   7  Pass 1  IDiag  1:
 E= -341.848295440949     Delta-E=       -0.000000000902 Rises=F Damp=F
 DIIS: error= 1.00D-06 at cycle   7 NSaved=   7.
 NSaved= 7 IEnMin= 7 EnMin= -341.848295440949     IErMin= 7 ErrMin= 1.00D-06
 ErrMax= 1.00D-06  0.00D+00 EMaxC= 1.00D-01 BMatC= 5.40D-11 BMatP= 5.78D-10
 IDIUse=1 WtCom= 1.00D+00 WtEn= 0.00D+00
 Coeff-Com:  0.306D-03-0.396D-03-0.129D-01 0.148D-01 0.284D+00-0.941D+00
 Coeff-Com:  0.165D+01
 Coeff:      0.306D-03-0.396D-03-0.129D-01 0.148D-01 0.284D+00-0.941D+00
 Coeff:      0.165D+01
 Gap=     0.540 Goal=   None    Shift=    0.000
 Gap=     0.442 Goal=   None    Shift=    0.000
 RMSDP=9.51D-07 MaxDP=7.39D-06 DE=-9.02D-10 OVMax= 8.95D-06

 Cycle   8  Pass 1  IDiag  1:
 E= -341.848295441031     Delta-E=       -0.000000000082 Rises=F Damp=F
 DIIS: error= 1.89D-07 at cycle   8 NSaved=   8.
 NSaved= 8 IEnMin= 8 EnMin= -341.848295441031     IErMin= 8 ErrMin= 1.89D-07
 ErrMax= 1.89D-07  0.00D+00 EMaxC= 1.00D-01 BMatC= 2.33D-12 BMatP= 5.40D-11
 IDIUse=1 WtCom= 1.00D+00 WtEn= 0.00D+00
 Coeff-Com: -0.120D-03 0.259D-03 0.457D-02-0.128D-01-0.562D-01 0.251D+00
 Coeff-Com: -0.624D+00 0.144D+01
 Coeff:     -0.120D-03 0.259D-03 0.457D-02-0.128D-01-0.562D-01 0.251D+00
 Coeff:     -0.624D+00 0.144D+01
 Gap=     0.540 Goal=   None    Shift=    0.000
 Gap=     0.442 Goal=   None    Shift=    0.000
 RMSDP=2.05D-07 MaxDP=1.28D-06 DE=-8.24D-11 OVMax= 1.80D-06

 Cycle   9  Pass 1  IDiag  1:
 E= -341.848295441035     Delta-E=       -0.000000000003 Rises=F Damp=F
 DIIS: error= 5.70D-08 at cycle   9 NSaved=   9.
 NSaved= 9 IEnMin= 9 EnMin= -341.848295441035     IErMin= 9 ErrMin= 5.70D-08
 ErrMax= 5.70D-08  0.00D+00 EMaxC= 1.00D-01 BMatC= 1.57D-13 BMatP= 2.33D-12
 IDIUse=1 WtCom= 1.00D+00 WtEn= 0.00D+00
 Coeff-Com:  0.287D-04-0.790D-04-0.109D-02 0.472D-02 0.284D-02-0.401D-01
 Coeff-Com:  0.148D+00-0.630D+00 0.152D+01
 Coeff:      0.287D-04-0.790D-04-0.109D-02 0.472D-02 0.284D-02-0.401D-01
 Coeff:      0.148D+00-0.630D+00 0.152D+01
 Gap=     0.540 Goal=   None    Shift=    0.000
 Gap=     0.442 Goal=   None    Shift=    0.000
 RMSDP=5.68D-08 MaxDP=5.17D-07 DE=-3.47D-12 OVMax= 5.38D-07

 Cycle  10  Pass 1  IDiag  1:
 E= -341.848295441035     Delta-E=       -0.000000000000 Rises=F Damp=F
 DIIS: error= 6.11D-09 at cycle  10 NSaved=  10.
 NSaved=10 IEnMin=10 EnMin= -341.848295441035     IErMin=10 ErrMin= 6.11D-09
 ErrMax= 6.11D-09  0.00D+00 EMaxC= 1.00D-01 BMatC= 2.86D-15 BMatP= 1.57D-13
 IDIUse=1 WtCom= 1.00D+00 WtEn= 0.00D+00
 Coeff-Com: -0.472D-05 0.188D-04 0.140D-03-0.102D-02 0.202D-02 0.426D-03
 Coeff-Com: -0.168D-01 0.132D+00-0.446D+00 0.133D+01
 Coeff:     -0.472D-05 0.188D-04 0.140D-03-0.102D-02 0.202D-02 0.426D-03
 Coeff:     -0.168D-01 0.132D+00-0.446D+00 0.133D+01
 Gap=     0.540 Goal=   None    Shift=    0.000
 Gap=     0.442 Goal=   None    Shift=    0.000
 RMSDP=5.94D-09 MaxDP=5.89D-08 DE=-2.27D-13 OVMax= 6.29D-08

 SCF Done:  E(UHF) =  -341.848295441     A.U. after   10 cycles
            NFock= 10  Conv=0.59D-08     -V/T= 1.9995
 <Sx>= 0.0000 <Sy>= 0.0000 <Sz>= 0.5000 <S**2>= 0.7625 S= 0.5062
 <L.S>= 0.000000000000E+00
 KE= 3.420130499221D+02 PE=-8.377224687305D+02 EE= 1.423149882827D+02
 Annihilation of the first spin contaminant:
 S**2 before annihilation     0.7625,   after     0.7500
 Leave Link  502 at Wed Oct  7 12:37:59 2020, MaxMem=  2684354560 cpu:              11.0 elap:               1.4
 (Enter /udrive/faculty/rpeverati/g16/g16/l508.exe)
 QCSCF skips out because SCF is already converged.
 Leave Link  508 at Wed Oct  7 12:37:59 2020, MaxMem=  2684354560 cpu:               0.3 elap:               0.4
 (Enter /udrive/faculty/rpeverati/g16/g16/l701.exe)
 ... and contract with generalized density number  0.
 Compute integral first derivatives.
 Leave Link  701 at Wed Oct  7 12:38:01 2020, MaxMem=  2684354560 cpu:               3.4 elap:               0.8
 (Enter /udrive/faculty/rpeverati/g16/g16/l702.exe)
 L702 exits ... SP integral derivatives will be done elsewhere.
 Leave Link  702 at Wed Oct  7 12:38:01 2020, MaxMem=  2684354560 cpu:               1.1 elap:               0.5
 (Enter /udrive/faculty/rpeverati/g16/g16/l703.exe)
 Integral derivatives from FoFJK, PRISM(SPDF).
 Compute integral first derivatives, UseDBF=F ICtDFT=           0.
 Calling FoFJK, ICntrl=      2127 FMM=F ISym2X=1 I1Cent= 0 IOpClX= 1 NMat=1 NMatS=1 NMatT=0.
 FoFJK:  IHMeth= 1 ICntrl=    2127 DoSepK=F KAlg= 0 I1Cent=           0 FoldK=F
 IRaf=         0 NMat=       1 IRICut=       1 DoRegI=T DoRafI=F ISym2E= 1 IDoP0=0 IntGTp=1.
 FoFCou: FMM=F IPFlag=           0 FMFlag=      100000 FMFlg1=         800
         NFxFlg=           0 DoJE=F BraDBF=F KetDBF=F FulRan=T
         wScrn=  0.000000 ICntrl=      2127 IOpCl=  1 I1Cent=           0 NGrid=           0
         NMat0=    1 NMatS0=      1 NMatT0=    0 NMatD0=    1 NMtDS0=    0 NMtDT0=    0
 Petite list used in FoFCou.
 Leave Link  703 at Wed Oct  7 12:38:03 2020, MaxMem=  2684354560 cpu:               6.1 elap:               1.0
 (Enter /udrive/faculty/rpeverati/g16/g16/l716.exe)
 Dipole        = 1.01155018D-17 0.00000000D+00-3.45312177D-01
 ***** Axes restored to original set *****
 -------------------------------------------------------------------
 Center     Atomic                   Forces (Hartrees/Bohr)
 Number     Number              X              Y              Z
 -------------------------------------------------------------------
      1       15          -0.000000000    0.000000000    0.000978294
      2        1           0.000000000   -0.000023557   -0.000489147
      3        1           0.000000000    0.000023557   -0.000489147
 -------------------------------------------------------------------
 Cartesian Forces:  Max     0.000978294 RMS     0.000399541
 Leave Link  716 at Wed Oct  7 12:38:03 2020, MaxMem=  2684354560 cpu:               1.2 elap:               0.5
 (Enter /udrive/faculty/rpeverati/g16/g16/l103.exe)

 GradGradGradGradGradGradGradGradGradGradGradGradGradGradGradGradGradGrad
 Berny optimization.
 Optmz: redundant internal coordinate code flag= 1
 Using GEDIIS/GDIIS optimizer.
 Red2BG:  D1=  4.01D-01 OD1=  1.60D-02 B2RMS=  0.00D+00 IAprox=0
 FormGI is forming the generalized inverse of G from B-inverse, IUseBI=4.
 Internal  Forces:  Max     0.000991597 RMS     0.000628350
 Search for a local minimum.
 Step number   2 out of a maximum of  100
 All quantities printed in internal units (Hartrees-Bohrs-Radians)
 RMS Force = .62835D-03 SwitMx=.10000D-02 MixMth= 2
 Mixed Optimization -- En-DIIS/RFO-DIIS
 Update second derivatives using D2CorX and points    1    2
 DE= -1.27D-04 DEPred=-1.47D-04 R= 8.65D-01
 TightC=F SS=  1.41D+00  RLast= 3.98D-02 DXNew= 5.0454D-01 1.1931D-01
 Trust test= 8.65D-01 RLast= 3.98D-02 DXMaxT set to 3.00D-01
 The second derivative matrix:
                          R1        R2        A1
           R1           0.21233
           R2           0.00109   0.21233
           A1          -0.00984  -0.00984   0.18155
 ITU=  1  0
 Use linear search instead of GDIIS.
 Eigenvectors of the second derivative matrix:
                           1         2         3
     Eigenvalues --     0.17633   0.21124   0.21864
   1         R1        -0.24832   0.70711   0.66207
   2         R2        -0.24832  -0.70711   0.66207
   3         A1        -0.93631  -0.00000  -0.35118
 Iter=   1 RLamda= 0.00000000D+00 Sum=-1.10266611D-06.
 Iter=   2 RLamda=-1.10266611D-06 Sum=-1.10265942D-06.
 RFO step:  Lambda=-1.10266611D-06 EMin= 1.76334241D-01
 Quartic linear search produced a step of -0.12044.
 Iteration  1 RMS(Cart)=  0.00424910 RMS(Int)=  0.00000762
 Iteration  2 RMS(Cart)=  0.00000839 RMS(Int)=  0.00000000
 Iteration  3 RMS(Cart)=  0.00000000 RMS(Int)=  0.00000000
 ITry= 1 IFail=0 DXMaxC= 3.96D-03 DCOld= 1.00D+10 DXMaxT= 3.00D-01 DXLimC= 3.00D+00 Rises=F
 ClnCor:  largest displacement from symmetrization is 4.97D-16 for atom     3.
 Variable       Old X    -DE/DX   Delta X   Delta X   Delta X     New X
                                 (Linear)    (Quad)   (Total)
    R1        2.65760   0.00032   0.00236  -0.00115   0.00121   2.65882
    R2        2.65760   0.00032   0.00236  -0.00115   0.00121   2.65882
    A1        1.63626  -0.00099  -0.00343  -0.00185  -0.00528   1.63098
         Item               Value     Threshold  Converged?
 Maximum Force            0.000992     0.000450     NO 
 RMS     Force            0.000628     0.000300     NO 
 Maximum Displacement     0.003965     0.001800     NO 
 RMS     Displacement     0.004255     0.001200     NO 
 Predicted change in Energy=-3.034421D-06
 Lowest energy point so far.  Saving SCF results.
 Largest change from initial coordinates is atom    2       0.019 Angstoms.
 GradGradGradGradGradGradGradGradGradGradGradGradGradGradGradGradGradGrad

 Leave Link  103 at Wed Oct  7 12:38:04 2020, MaxMem=  2684354560 cpu:               1.5 elap:               0.4
 (Enter /udrive/faculty/rpeverati/g16/g16/l202.exe)
                          Input orientation:                          
 ---------------------------------------------------------------------
 Center     Atomic      Atomic             Coordinates (Angstroms)
 Number     Number       Type             X           Y           Z
 ---------------------------------------------------------------------
      1         15           0        0.000000   -0.000000    0.103271
      2          1           0        0.000000    1.024372   -0.861234
      3          1           0       -0.000000   -1.024372   -0.861234
 ---------------------------------------------------------------------
                    Distance matrix (angstroms):
                    1          2          3
     1  P    0.000000
     2  H    1.406986   0.000000
     3  H    1.406986   2.048745   0.000000
 Stoichiometry    H2P(2)
 Framework group  C2V[C2(P),SGV(H2)]
 Deg. of freedom     2
 Full point group                 C2V     NOp   4
 RotChk:  IX=0 Diff= 7.43D-16
 Largest Abelian subgroup         C2V     NOp   4
 Largest concise Abelian subgroup C2      NOp   2
                         Standard orientation:                         
 ---------------------------------------------------------------------
 Center     Atomic      Atomic             Coordinates (Angstroms)
 Number     Number       Type             X           Y           Z
 ---------------------------------------------------------------------
      1         15           0       -0.000000    0.000000    0.113471
      2          1           0       -0.000000    1.024372   -0.851034
      3          1           0       -0.000000   -1.024372   -0.851034
 ---------------------------------------------------------------------
 Rotational constants (GHZ):         287.0606994         238.9385786         130.3991818
 Leave Link  202 at Wed Oct  7 12:38:05 2020, MaxMem=  2684354560 cpu:               1.4 elap:               0.5
 (Enter /udrive/faculty/rpeverati/g16/g16/l301.exe)
 Standard basis: 6-31G(d) (5D, 7F)
 Ernie: Thresh=  0.10000D-02 Tol=  0.10000D-05 Strict=F.
 There are    12 symmetry adapted cartesian basis functions of A1  symmetry.
 There are     1 symmetry adapted cartesian basis functions of A2  symmetry.
 There are     4 symmetry adapted cartesian basis functions of B1  symmetry.
 There are     6 symmetry adapted cartesian basis functions of B2  symmetry.
 There are    11 symmetry adapted basis functions of A1  symmetry.
 There are     1 symmetry adapted basis functions of A2  symmetry.
 There are     4 symmetry adapted basis functions of B1  symmetry.
 There are     6 symmetry adapted basis functions of B2  symmetry.
    22 basis functions,    60 primitive gaussians,    23 cartesian basis functions
     9 alpha electrons        8 beta electrons
       nuclear repulsion energy        11.5415042012 Hartrees.
 IExCor=    0 DFT=F Ex=HF Corr=None ExCW=0 ScaHFX=  1.000000
 ScaDFX=  1.000000  1.000000  1.000000  1.000000 ScalE2=  1.000000  1.000000
 IRadAn=      5 IRanWt=     -1 IRanGd=            0 ICorTp=0 IEmpDi=  4
 NAtoms=    3 NActive=    3 NUniq=    2 SFac= 2.25D+00 NAtFMM=   60 NAOKFM=F Big=F
 Integral buffers will be    131072 words long.
 Raffenetti 2 integral format.
 Two-electron integral symmetry is turned on.
 Leave Link  301 at Wed Oct  7 12:38:06 2020, MaxMem=  2684354560 cpu:               2.0 elap:               0.6
 (Enter /udrive/faculty/rpeverati/g16/g16/l302.exe)
 NPDir=0 NMtPBC=     1 NCelOv=     1 NCel=       1 NClECP=     1 NCelD=      1
         NCelK=      1 NCelE2=     1 NClLst=     1 CellRange=     0.0.
 One-electron integrals computed using PRISM.
 One-electron integral symmetry used in STVInt
 NBasis=    22 RedAO= T EigKep=  3.31D-02  NBF=    11     1     4     6
 NBsUse=    22 1.00D-06 EigRej= -1.00D+00 NBFU=    11     1     4     6
 Leave Link  302 at Wed Oct  7 12:38:06 2020, MaxMem=  2684354560 cpu:               2.7 elap:               0.5
 (Enter /udrive/faculty/rpeverati/g16/g16/l303.exe)
 DipDrv:  MaxL=1.
 Leave Link  303 at Wed Oct  7 12:38:07 2020, MaxMem=  2684354560 cpu:               1.4 elap:               0.5
 (Enter /udrive/faculty/rpeverati/g16/g16/l401.exe)
 Initial guess from the checkpoint file:  "MN_76_PH2_BH76_HF_631Gs.chk"
 SCF N**3 symmetry information disabled.
 B after Tr=     0.000000    0.000000    0.000000
         Rot=    1.000000    0.000000    0.000000    0.000000 Ang=   0.00 deg.
 Guess basis will be translated and rotated to current coordinates.
 JPrj=2 DoOrth=T DoCkMO=T.
 Initial guess orbital symmetries:
 Alpha Orbitals:
       Occupied  (A1) (A1) (B1) (B2) (A1) (A1) (B2) (A1) (B1)
       Virtual   (B2) (A1) (A1) (B2) (B1) (A1) (A2) (B1) (B2) (A1)
                 (A1) (A1) (B2)
 Beta  Orbitals:
       Occupied  (A1) (A1) (B2) (A1) (B1) (A1) (B2) (A1)
       Virtual   (B1) (B2) (A1) (A1) (B2) (A1) (B1) (B2) (A1) (A2)
                 (B1) (A1) (A1) (B2)
 The electronic state of the initial guess is 2-B1.
 Initial guess <Sx>= 0.0000 <Sy>= 0.0000 <Sz>= 0.5000 <S**2>= 0.7625 S= 0.5062
 Leave Link  401 at Wed Oct  7 12:38:08 2020, MaxMem=  2684354560 cpu:               2.1 elap:               0.5
 (Enter /udrive/faculty/rpeverati/g16/g16/l502.exe)
 Keep R1 and R2 ints in memory in symmetry-blocked form, NReq=2506473.
 FoFCou: FMM=F IPFlag=           0 FMFlag=           0 FMFlg1=           0
         NFxFlg=           0 DoJE=F BraDBF=F KetDBF=F FulRan=T
         wScrn=  0.000000 ICntrl=       600 IOpCl=  0 I1Cent=           0 NGrid=           0
         NMat0=    1 NMatS0=    253 NMatT0=    0 NMatD0=    1 NMtDS0=    0 NMtDT0=    0
 Petite list used in FoFCou.
 UHF open shell SCF:
 Using DIIS extrapolation, IDIIS=  1040.
 NGot=  2684354560 LenX=  2684332948 LenY=  2684331978
 Requested convergence on RMS density matrix=1.00D-08 within 120 cycles.
 Requested convergence on MAX density matrix=1.00D-06.
 Requested convergence on             energy=1.00D-06.
 No special actions if energy rises.

 Cycle   1  Pass 1  IDiag  1:
 E= -341.848297289085    
 DIIS: error= 1.98D-04 at cycle   1 NSaved=   1.
 NSaved= 1 IEnMin= 1 EnMin= -341.848297289085     IErMin= 1 ErrMin= 1.98D-04
 ErrMax= 1.98D-04  0.00D+00 EMaxC= 1.00D-01 BMatC= 1.97D-06 BMatP= 1.97D-06
 IDIUse=3 WtCom= 9.98D-01 WtEn= 1.98D-03
 Coeff-Com:  0.100D+01
 Coeff-En:   0.100D+01
 Coeff:      0.100D+01
 Gap=     0.540 Goal=   None    Shift=    0.000
 Gap=     0.442 Goal=   None    Shift=    0.000
 RMSDP=4.48D-05 MaxDP=2.70D-04              OVMax= 3.63D-04

 Cycle   2  Pass 1  IDiag  1:
 E= -341.848298229447     Delta-E=       -0.000000940361 Rises=F Damp=F
 DIIS: error= 4.53D-05 at cycle   2 NSaved=   2.
 NSaved= 2 IEnMin= 2 EnMin= -341.848298229447     IErMin= 2 ErrMin= 4.53D-05
 ErrMax= 4.53D-05  0.00D+00 EMaxC= 1.00D-01 BMatC= 1.26D-07 BMatP= 1.97D-06
 IDIUse=1 WtCom= 1.00D+00 WtEn= 0.00D+00
 Coeff-Com: -0.291D+00 0.129D+01
 Coeff:     -0.291D+00 0.129D+01
 Gap=     0.540 Goal=   None    Shift=    0.000
 Gap=     0.442 Goal=   None    Shift=    0.000
 RMSDP=1.98D-05 MaxDP=1.02D-04 DE=-9.40D-07 OVMax= 1.50D-04

 Cycle   3  Pass 1  IDiag  1:
 E= -341.848298311230     Delta-E=       -0.000000081784 Rises=F Damp=F
 DIIS: error= 4.87D-06 at cycle   3 NSaved=   3.
 NSaved= 3 IEnMin= 3 EnMin= -341.848298311230     IErMin= 3 ErrMin= 4.87D-06
 ErrMax= 4.87D-06  0.00D+00 EMaxC= 1.00D-01 BMatC= 2.33D-09 BMatP= 1.26D-07
 IDIUse=1 WtCom= 1.00D+00 WtEn= 0.00D+00
 Coeff-Com:  0.479D-01-0.274D+00 0.123D+01
 Coeff:      0.479D-01-0.274D+00 0.123D+01
 Gap=     0.540 Goal=   None    Shift=    0.000
 Gap=     0.442 Goal=   None    Shift=    0.000
 RMSDP=3.74D-06 MaxDP=2.12D-05 DE=-8.18D-08 OVMax= 2.31D-05

 Cycle   4  Pass 1  IDiag  1:
 E= -341.848298312940     Delta-E=       -0.000000001710 Rises=F Damp=F
 DIIS: error= 1.13D-06 at cycle   4 NSaved=   4.
 NSaved= 4 IEnMin= 4 EnMin= -341.848298312940     IErMin= 4 ErrMin= 1.13D-06
 ErrMax= 1.13D-06  0.00D+00 EMaxC= 1.00D-01 BMatC= 9.09D-11 BMatP= 2.33D-09
 IDIUse=1 WtCom= 1.00D+00 WtEn= 0.00D+00
 Coeff-Com:  0.680D-02-0.288D-01-0.470D-01 0.107D+01
 Coeff:      0.680D-02-0.288D-01-0.470D-01 0.107D+01
 Gap=     0.540 Goal=   None    Shift=    0.000
 Gap=     0.442 Goal=   None    Shift=    0.000
 RMSDP=6.21D-07 MaxDP=5.35D-06 DE=-1.71D-09 OVMax= 5.32D-06

 Cycle   5  Pass 1  IDiag  1:
 E= -341.848298313018     Delta-E=       -0.000000000078 Rises=F Damp=F
 DIIS: error= 6.05D-07 at cycle   5 NSaved=   5.
 NSaved= 5 IEnMin= 5 EnMin= -341.848298313018     IErMin= 5 ErrMin= 6.05D-07
 ErrMax= 6.05D-07  0.00D+00 EMaxC= 1.00D-01 BMatC= 1.77D-11 BMatP= 9.09D-11
 IDIUse=1 WtCom= 1.00D+00 WtEn= 0.00D+00
 Coeff-Com: -0.481D-02 0.234D-01-0.301D-01-0.510D+00 0.152D+01
 Coeff:     -0.481D-02 0.234D-01-0.301D-01-0.510D+00 0.152D+01
 Gap=     0.540 Goal=   None    Shift=    0.000
 Gap=     0.442 Goal=   None    Shift=    0.000
 RMSDP=2.78D-07 MaxDP=2.41D-06 DE=-7.79D-11 OVMax= 3.13D-06

 Cycle   6  Pass 1  IDiag  1:
 E= -341.848298313038     Delta-E=       -0.000000000020 Rises=F Damp=F
 DIIS: error= 2.77D-07 at cycle   6 NSaved=   6.
 NSaved= 6 IEnMin= 6 EnMin= -341.848298313038     IErMin= 6 ErrMin= 2.77D-07
 ErrMax= 2.77D-07  0.00D+00 EMaxC= 1.00D-01 BMatC= 3.49D-12 BMatP= 1.77D-11
 IDIUse=1 WtCom= 1.00D+00 WtEn= 0.00D+00
 Coeff-Com:  0.116D-02-0.641D-02 0.213D-01 0.878D-01-0.757D+00 0.165D+01
 Coeff:      0.116D-02-0.641D-02 0.213D-01 0.878D-01-0.757D+00 0.165D+01
 Gap=     0.540 Goal=   None    Shift=    0.000
 Gap=     0.442 Goal=   None    Shift=    0.000
 RMSDP=1.62D-07 MaxDP=1.56D-06 DE=-1.97D-11 OVMax= 1.82D-06

 Cycle   7  Pass 1  IDiag  1:
 E= -341.848298313043     Delta-E=       -0.000000000005 Rises=F Damp=F
 DIIS: error= 1.03D-07 at cycle   7 NSaved=   7.
 NSaved= 7 IEnMin= 7 EnMin= -341.848298313043     IErMin= 7 ErrMin= 1.03D-07
 ErrMax= 1.03D-07  0.00D+00 EMaxC= 1.00D-01 BMatC= 5.50D-13 BMatP= 3.49D-12
 IDIUse=1 WtCom= 1.00D+00 WtEn= 0.00D+00
 Coeff-Com:  0.156D-04 0.500D-03-0.110D-01 0.369D-01 0.246D+00-0.115D+01
 Coeff-Com:  0.187D+01
 Coeff:      0.156D-04 0.500D-03-0.110D-01 0.369D-01 0.246D+00-0.115D+01
 Coeff:      0.187D+01
 Gap=     0.540 Goal=   None    Shift=    0.000
 Gap=     0.442 Goal=   None    Shift=    0.000
 RMSDP=9.57D-08 MaxDP=6.66D-07 DE=-4.66D-12 OVMax= 8.42D-07

 Cycle   8  Pass 1  IDiag  1:
 E= -341.848298313044     Delta-E=       -0.000000000001 Rises=F Damp=F
 DIIS: error= 1.68D-08 at cycle   8 NSaved=   8.
 NSaved= 8 IEnMin= 8 EnMin= -341.848298313044     IErMin= 8 ErrMin= 1.68D-08
 ErrMax= 1.68D-08  0.00D+00 EMaxC= 1.00D-01 BMatC= 3.27D-14 BMatP= 5.50D-13
 IDIUse=1 WtCom= 1.00D+00 WtEn= 0.00D+00
 Coeff-Com: -0.131D-03 0.394D-03 0.360D-02-0.285D-01-0.514D-01 0.431D+00
 Coeff-Com: -0.961D+00 0.161D+01
 Coeff:     -0.131D-03 0.394D-03 0.360D-02-0.285D-01-0.514D-01 0.431D+00
 Coeff:     -0.961D+00 0.161D+01
 Gap=     0.540 Goal=   None    Shift=    0.000
 Gap=     0.442 Goal=   None    Shift=    0.000
 RMSDP=2.74D-08 MaxDP=1.82D-07 DE=-1.25D-12 OVMax= 2.32D-07

 Cycle   9  Pass 1  IDiag  1:
 E= -341.848298313044     Delta-E=       -0.000000000000 Rises=F Damp=F
 DIIS: error= 4.47D-09 at cycle   9 NSaved=   9.
 NSaved= 9 IEnMin= 9 EnMin= -341.848298313044     IErMin= 9 ErrMin= 4.47D-09
 ErrMax= 4.47D-09  0.00D+00 EMaxC= 1.00D-01 BMatC= 1.49D-15 BMatP= 3.27D-14
 IDIUse=1 WtCom= 1.00D+00 WtEn= 0.00D+00
 Coeff-Com:  0.435D-04-0.170D-03-0.443D-03 0.759D-02-0.112D-02-0.667D-01
 Coeff-Com:  0.199D+00-0.554D+00 0.142D+01
 Coeff:      0.435D-04-0.170D-03-0.443D-03 0.759D-02-0.112D-02-0.667D-01
 Coeff:      0.199D+00-0.554D+00 0.142D+01
 Gap=     0.540 Goal=   None    Shift=    0.000
 Gap=     0.442 Goal=   None    Shift=    0.000
 RMSDP=5.14D-09 MaxDP=4.00D-08 DE=-1.14D-13 OVMax= 5.33D-08

 SCF Done:  E(UHF) =  -341.848298313     A.U. after    9 cycles
            NFock=  9  Conv=0.51D-08     -V/T= 1.9995
 <Sx>= 0.0000 <Sy>= 0.0000 <Sz>= 0.5000 <S**2>= 0.7625 S= 0.5062
 <L.S>= 0.000000000000E+00
 KE= 3.420116956552D+02 PE=-8.377116282381D+02 EE= 1.423101300686D+02
 Annihilation of the first spin contaminant:
 S**2 before annihilation     0.7625,   after     0.7500
 Leave Link  502 at Wed Oct  7 12:38:09 2020, MaxMem=  2684354560 cpu:              11.2 elap:               1.4
 (Enter /udrive/faculty/rpeverati/g16/g16/l508.exe)
 QCSCF skips out because SCF is already converged.
 Leave Link  508 at Wed Oct  7 12:38:10 2020, MaxMem=  2684354560 cpu:               0.6 elap:               0.6
 (Enter /udrive/faculty/rpeverati/g16/g16/l701.exe)
 ... and contract with generalized density number  0.
 Compute integral first derivatives.
 Leave Link  701 at Wed Oct  7 12:38:11 2020, MaxMem=  2684354560 cpu:               3.6 elap:               0.7
 (Enter /udrive/faculty/rpeverati/g16/g16/l702.exe)
 L702 exits ... SP integral derivatives will be done elsewhere.
 Leave Link  702 at Wed Oct  7 12:38:12 2020, MaxMem=  2684354560 cpu:               1.7 elap:               0.7
 (Enter /udrive/faculty/rpeverati/g16/g16/l703.exe)
 Integral derivatives from FoFJK, PRISM(SPDF).
 Compute integral first derivatives, UseDBF=F ICtDFT=           0.
 Calling FoFJK, ICntrl=      2127 FMM=F ISym2X=1 I1Cent= 0 IOpClX= 1 NMat=1 NMatS=1 NMatT=0.
 FoFJK:  IHMeth= 1 ICntrl=    2127 DoSepK=F KAlg= 0 I1Cent=           0 FoldK=F
 IRaf=         0 NMat=       1 IRICut=       1 DoRegI=T DoRafI=F ISym2E= 1 IDoP0=0 IntGTp=1.
 FoFCou: FMM=F IPFlag=           0 FMFlag=      100000 FMFlg1=         800
         NFxFlg=           0 DoJE=F BraDBF=F KetDBF=F FulRan=T
         wScrn=  0.000000 ICntrl=      2127 IOpCl=  1 I1Cent=           0 NGrid=           0
         NMat0=    1 NMatS0=      1 NMatT0=    0 NMatD0=    1 NMtDS0=    0 NMtDT0=    0
 Petite list used in FoFCou.
 Leave Link  703 at Wed Oct  7 12:38:14 2020, MaxMem=  2684354560 cpu:               6.5 elap:               1.1
 (Enter /udrive/faculty/rpeverati/g16/g16/l716.exe)
 Dipole        = 1.01465405D-17 0.00000000D+00-3.42510103D-01
 ***** Axes restored to original set *****
 -------------------------------------------------------------------
 Center     Atomic                   Forces (Hartrees/Bohr)
 Number     Number              X              Y              Z
 -------------------------------------------------------------------
      1       15          -0.000000000    0.000000000    0.000044116
      2        1           0.000000000    0.000066900   -0.000022058
      3        1           0.000000000   -0.000066900   -0.000022058
 -------------------------------------------------------------------
 Cartesian Forces:  Max     0.000066900 RMS     0.000036317
 Leave Link  716 at Wed Oct  7 12:38:14 2020, MaxMem=  2684354560 cpu:               1.6 elap:               0.6
 (Enter /udrive/faculty/rpeverati/g16/g16/l103.exe)

 GradGradGradGradGradGradGradGradGradGradGradGradGradGradGradGradGradGrad
 Berny optimization.
 Optmz: redundant internal coordinate code flag= 1
 Using GEDIIS/GDIIS optimizer.
 Red2BG:  D1=  4.00D-01 OD1=  2.31D-03 B2RMS=  0.00D+00 IAprox=0
 FormGI is forming the generalized inverse of G from B-inverse, IUseBI=4.
 Internal  Forces:  Max     0.000079235 RMS     0.000069345
 Search for a local minimum.
 Step number   3 out of a maximum of  100
 All quantities printed in internal units (Hartrees-Bohrs-Radians)
 RMS Force = .69345D-04 SwitMx=.10000D-02 MixMth= 2
 Mixed Optimization -- En-DIIS/RFO-DIIS
 Swapping is turned off.
 Update second derivatives using D2CorX and points    1    2    3
 DE= -2.87D-06 DEPred=-3.03D-06 R= 9.46D-01
 TightC=F SS=  1.41D+00  RLast= 5.55D-03 DXNew= 5.0454D-01 1.6658D-02
 Trust test= 9.46D-01 RLast= 5.55D-03 DXMaxT set to 3.00D-01
 The second derivative matrix:
                          R1        R2        A1
           R1           0.20767
           R2          -0.00357   0.20767
           A1          -0.00107  -0.00107   0.20229
 ITU=  1  1  0
 Eigenvectors of the second derivative matrix:
                           1         2         3
     Eigenvalues --     0.20144   0.20496   0.21124
   1         R1         0.34910   0.61492   0.70711
   2         R2         0.34910   0.61492  -0.70711
   3         A1         0.86963  -0.49370   0.00000
 DoSqrt=T IScMMF=    -3 MM Scaling Factor =       0.00000
 En-DIIS/RFO-DIIS/Sim-DIIS IScMMF=       -3 using points:     3    2
 Iter=   1 RLamda= 0.00000000D+00 Sum=-7.14843797D-08.
 Iter=   2 RLamda=-7.14843797D-08 Sum=-7.14843544D-08.
 RFO step:  Lambda=-7.14843797D-08.
 NNeg= 0 NGDIIS= 2 SimSw=  2.50D-03 Rises=F DC= -2.87D-06 SmlDif=  1.00D-05
 NRisDI= 0 DoIntr=F SqrtH=F CThrHd= 10.0 CDAdj=  3.0
 RMS Error=  0.3436213848D-03 NUsed= 2 OKEnD=F EnDIS=F
 Total RFO-DIIS matrix:
                 1             2             3 
      1   0.000000D+00 -0.100000D+01 -0.100000D+01
      2  -0.100000D+01  0.354227D-06 -0.967522D-06
      3  -0.100000D+01 -0.967522D-06  0.285415D-04
 InvSVX:  RCond= 3.47D-05 Info=           0 Equed=N FErr=  9.43D-16 BErr=  8.65D-17
 DidBck=F Rises=F RFO-DIIS coefs:    0.95713    0.04287
 Iteration  1 RMS(Cart)=  0.00048740 RMS(Int)=  0.00000005
 Iteration  2 RMS(Cart)=  0.00000005 RMS(Int)=  0.00000000
 ITry= 1 IFail=0 DXMaxC= 5.89D-04 DCOld= 1.00D+10 DXMaxT= 3.00D-01 DXLimC= 3.00D+00 Rises=F
 ClnCor:  largest displacement from symmetrization is 2.78D-17 for atom     1.
 Variable       Old X    -DE/DX   Delta X   Delta X   Delta X     New X
                                 (Linear)    (Quad)   (Total)
    R1        2.65882   0.00006  -0.00005   0.00037   0.00031   2.65913
    R2        2.65882   0.00006  -0.00005   0.00037   0.00031   2.65913
    A1        1.63098   0.00008   0.00023   0.00017   0.00040   1.63138
         Item               Value     Threshold  Converged?
 Maximum Force            0.000079     0.000450     YES
 RMS     Force            0.000069     0.000300     YES
 Maximum Displacement     0.000589     0.001800     YES
 RMS     Displacement     0.000487     0.001200     YES
 Predicted change in Energy=-3.574219D-08
 Optimization completed.
    -- Stationary point found.
                           ----------------------------
                           !   Optimized Parameters   !
                           ! (Angstroms and Degrees)  !
 --------------------------                            --------------------------
 ! Name  Definition              Value          Derivative Info.                !
 --------------------------------------------------------------------------------
 ! R1    R(1,2)                  1.407          -DE/DX =    0.0001              !
 ! R2    R(1,3)                  1.407          -DE/DX =    0.0001              !
 ! A1    A(2,1,3)               93.4483         -DE/DX =    0.0001              !
 --------------------------------------------------------------------------------
 Lowest energy point so far.  Saving SCF results.
 Largest change from initial coordinates is atom    2       0.017 Angstoms.
 GradGradGradGradGradGradGradGradGradGradGradGradGradGradGradGradGradGrad

 Leave Link  103 at Wed Oct  7 12:38:15 2020, MaxMem=  2684354560 cpu:               2.2 elap:               0.7
 (Enter /udrive/faculty/rpeverati/g16/g16/l202.exe)
                          Input orientation:                          
 ---------------------------------------------------------------------
 Center     Atomic      Atomic             Coordinates (Angstroms)
 Number     Number       Type             X           Y           Z
 ---------------------------------------------------------------------
      1         15           0        0.000000    0.000000    0.103271
      2          1           0       -0.000000    1.024372   -0.861234
      3          1           0       -0.000000   -1.024372   -0.861234
 ---------------------------------------------------------------------
                    Distance matrix (angstroms):
                    1          2          3
     1  P    0.000000
     2  H    1.406986   0.000000
     3  H    1.406986   2.048745   0.000000
 Stoichiometry    H2P(2)
 Framework group  C2V[C2(P),SGV(H2)]
 Deg. of freedom     2
 Full point group                 C2V     NOp   4
 RotChk:  IX=0 Diff= 5.83D-16
 Largest Abelian subgroup         C2V     NOp   4
 Largest concise Abelian subgroup C2      NOp   2
                         Standard orientation:                         
 ---------------------------------------------------------------------
 Center     Atomic      Atomic             Coordinates (Angstroms)
 Number     Number       Type             X           Y           Z
 ---------------------------------------------------------------------
      1         15           0        0.000000    0.000000    0.113471
      2          1           0        0.000000    1.024372   -0.851034
      3          1           0       -0.000000   -1.024372   -0.851034
 ---------------------------------------------------------------------
 Rotational constants (GHZ):         287.0606994         238.9385786         130.3991818
 Leave Link  202 at Wed Oct  7 12:38:16 2020, MaxMem=  2684354560 cpu:               2.0 elap:               0.7
 (Enter /udrive/faculty/rpeverati/g16/g16/l601.exe)
 Copying SCF densities to generalized density rwf, IOpCl= 1 IROHF=0.

 **********************************************************************

            Population analysis using the SCF density.

 **********************************************************************

 Orbital symmetries:
 Alpha Orbitals:
       Occupied  (A1) (A1) (B1) (B2) (A1) (A1) (B2) (A1) (B1)
       Virtual   (B2) (A1) (A1) (B2) (B1) (A1) (A2) (B1) (B2) (A1)
                 (A1) (A1) (B2)
 Beta  Orbitals:
       Occupied  (A1) (A1) (B2) (A1) (B1) (A1) (B2) (A1)
       Virtual   (B1) (B2) (A1) (A1) (B2) (A1) (B1) (B2) (A1) (A2)
                 (B1) (A1) (A1) (B2)
 The electronic state is 2-B1.
 Alpha  occ. eigenvalues --  -79.93864  -7.49742  -5.40081  -5.38780  -5.38594
 Alpha  occ. eigenvalues --   -0.86108  -0.53166  -0.42759  -0.37438
 Alpha virt. eigenvalues --    0.16536   0.22044   0.37206   0.43912   0.44216
 Alpha virt. eigenvalues --    0.46287   0.87752   0.88474   0.88872   0.90460
 Alpha virt. eigenvalues --    0.95210   1.26090   1.46195
  Beta  occ. eigenvalues --  -79.93149  -7.48902  -5.38284  -5.38221  -5.36893
  Beta  occ. eigenvalues --   -0.79242  -0.52581  -0.40163
  Beta virt. eigenvalues --    0.04074   0.17319   0.25650   0.40241   0.44889
  Beta virt. eigenvalues --    0.47172   0.52678   0.88975   0.91377   0.95446
  Beta virt. eigenvalues --    0.95844   1.01014   1.27641   1.46499
          Condensed to atoms (all electrons):
               1          2          3
     1  P   14.350914   0.287438   0.287438
     2  H    0.287438   0.772560  -0.022892
     3  H    0.287438  -0.022892   0.772560
          Atomic-Atomic Spin Densities.
               1          2          3
     1  P    1.201283  -0.036358  -0.036358
     2  H   -0.036358  -0.034323   0.006398
     3  H   -0.036358   0.006398  -0.034323
 Mulliken charges and spin densities:
               1          2
     1  P    0.074211   1.128567
     2  H   -0.037105  -0.064283
     3  H   -0.037105  -0.064283
 Sum of Mulliken charges =  -0.00000   1.00000
 Mulliken charges and spin densities with hydrogens summed into heavy atoms:
               1          2
     1  P   -0.000000   1.000000
 Electronic spatial extent (au):  <R**2>=             46.8250
 Charge=             -0.0000 electrons
 Dipole moment (field-independent basis, Debye):
    X=              0.0000    Y=             -0.0000    Z=             -0.8706  Tot=              0.8706
 Quadrupole moment (field-independent basis, Debye-Ang):
   XX=            -14.9777   YY=            -14.1085   ZZ=            -15.9294
   XY=             -0.0000   XZ=             -0.0000   YZ=              0.0000
 Traceless Quadrupole moment (field-independent basis, Debye-Ang):
   XX=              0.0275   YY=              0.8967   ZZ=             -0.9242
   XY=             -0.0000   XZ=             -0.0000   YZ=              0.0000
 Octapole moment (field-independent basis, Debye-Ang**2):
  XXX=              0.0000  YYY=              0.0000  ZZZ=             -1.5300  XYY=              0.0000
  XXY=             -0.0000  XXZ=             -0.6544  XZZ=              0.0000  YZZ=             -0.0000
  YYZ=              0.1389  XYZ=             -0.0000
 Hexadecapole moment (field-independent basis, Debye-Ang**3):
 XXXX=            -21.9114 YYYY=            -30.2112 ZZZZ=            -33.4002 XXXY=             -0.0000
 XXXZ=             -0.0000 YYYX=             -0.0000 YYYZ=             -0.0000 ZZZX=             -0.0000
 ZZZY=             -0.0000 XXYY=             -8.7476 XXZZ=             -9.2808 YYZZ=            -10.4233
 XXYZ=              0.0000 YYXZ=             -0.0000 ZZXY=             -0.0000
 N-N= 1.154150420119D+01 E-N=-8.377116282125D+02  KE= 3.420116956552D+02
                          Isotropic Fermi Contact Couplings
        Atom                 a.u.       MegaHertz       Gauss      10(-4) cm-1
     1  P(31)              0.18088     327.59081     116.89255     109.27253
     2  H(1)              -0.01684     -75.26306     -26.85573     -25.10506
     3  H(1)              -0.01684     -75.26306     -26.85573     -25.10506
 --------------------------------------------------------
       Center         ----  Spin Dipole Couplings  ----
                      3XX-RR        3YY-RR        3ZZ-RR
 --------------------------------------------------------
     1   Atom        2.609309     -1.217341     -1.391967
     2   Atom        0.003365      0.003066     -0.006431
     3   Atom        0.003365      0.003066     -0.006431
 --------------------------------------------------------
                        XY            XZ            YZ
 --------------------------------------------------------
     1   Atom       -0.000000     -0.000000      0.000000
     2   Atom       -0.000000      0.000000     -0.031926
     3   Atom       -0.000000     -0.000000      0.031926
 --------------------------------------------------------


 ---------------------------------------------------------------------------------
              Anisotropic Spin Dipole Couplings in Principal Axis System
 ---------------------------------------------------------------------------------

       Atom             a.u.   MegaHertz   Gauss  10(-4) cm-1        Axes

              Baa    -1.3920  -300.921  -107.376  -100.376  0.0000  0.0000  1.0000
     1 P(31)  Bbb    -1.2173  -263.169   -93.905   -87.784  0.0000  1.0000  0.0000
              Bcc     2.6093   564.090   201.281   188.160  1.0000 -0.0000  0.0000
 
              Baa    -0.0340   -18.119    -6.465    -6.044 -0.0000  0.6530  0.7573
     2 H(1)   Bbb     0.0034     1.795     0.641     0.599  1.0000  0.0000  0.0000
              Bcc     0.0306    16.324     5.825     5.445 -0.0000  0.7573 -0.6530
 
              Baa    -0.0340   -18.119    -6.465    -6.044  0.0000 -0.6530  0.7573
     3 H(1)   Bbb     0.0034     1.795     0.641     0.599  1.0000  0.0000  0.0000
              Bcc     0.0306    16.324     5.825     5.445 -0.0000  0.7573  0.6530
 

 ---------------------------------------------------------------------------------

 No NMR shielding tensors so no spin-rotation constants.
 Leave Link  601 at Wed Oct  7 12:38:17 2020, MaxMem=  2684354560 cpu:               5.8 elap:               0.8
 (Enter /udrive/faculty/rpeverati/g16/g16/l9999.exe)

 Test job not archived.
 1\1\GINC-NODE13\FOpt\UHF\6-31G(d)\H2P1(2)\RPEVERATI\07-Oct-2020\0\\#P 
 Opt(MaxCyc=100) HF/6-31G* 5D 7F Integral=UltraFineGrid SCF=(NoSymm,XQC
 ,MaxCyc=120) IOp(1/33=1)\\TS search on BH76.\\0,2\P,0.,0.,0.1032707811
 \H,0.,1.0243724564,-0.8612341889\H,0.,-1.0243724564,-0.8612341889\\Ver
 sion=ES64L-G16RevA.03\State=2-B1\HF=-341.8482983\S2=0.762522\S2-1=0.\S
 2A=0.750039\RMSD=5.136e-09\RMSF=3.632e-05\Dipole=0.,0.,-0.3425101\Quad
 rupole=0.0204213,0.6666939,-0.6871152,0.,0.,0.\PG=C02V [C2(P1),SGV(H2)
 ]\\@


 WE LEARN WISDOM FROM FAILURE MUCH MORE THAN FROM SUCCESS.
 WE DISCOVER WHAT WILL DO BY FINDING OUT WHAT WILL NOT DO...
 AND HE WHO NEVER MADE A MISTAKE NEVER MADE A DISCOVERY
 Job cpu time:       0 days  0 hours  2 minutes 24.0 seconds.
 Elapsed time:       0 days  0 hours  0 minutes 29.8 seconds.
 File lengths (MBytes):  RWF=      5 Int=      0 D2E=      0 Chk=      1 Scr=      1
 Normal termination of Gaussian 16 at Wed Oct  7 12:38:19 2020.
