 Entering Gaussian System, Link 0=g16
 Input=MN_15_C2H6_BH76_B3LYP_6-31Gs.in
 Output=MN_15_C2H6_BH76_B3LYP_6-31Gs.log
 Initial command:
 /udrive/faculty/rpeverati/g16/g16/l1.exe "/udrive/scratch-directories/gaussian09/rpeverati/Gau-6457.inp" -scrdir="/udrive/scratch-directories/gaussian09/rpeverati/"
 Entering Link 1 = /udrive/faculty/rpeverati/g16/g16/l1.exe PID=      6471.
  
 Copyright (c) 1988,1990,1992,1993,1995,1998,2003,2009,2016,
            Gaussian, Inc.  All Rights Reserved.
  
 This is part of the Gaussian(R) 16 program.  It is based on
 the Gaussian(R) 09 system (copyright 2009, Gaussian, Inc.),
 the Gaussian(R) 03 system (copyright 2003, Gaussian, Inc.),
 the Gaussian(R) 98 system (copyright 1998, Gaussian, Inc.),
 the Gaussian(R) 94 system (copyright 1995, Gaussian, Inc.),
 the Gaussian 92(TM) system (copyright 1992, Gaussian, Inc.),
 the Gaussian 90(TM) system (copyright 1990, Gaussian, Inc.),
 the Gaussian 88(TM) system (copyright 1988, Gaussian, Inc.),
 the Gaussian 86(TM) system (copyright 1986, Carnegie Mellon
 University), and the Gaussian 82(TM) system (copyright 1983,
 Carnegie Mellon University). Gaussian is a federally registered
 trademark of Gaussian, Inc.
  
 This software contains proprietary and confidential information,
 including trade secrets, belonging to Gaussian, Inc.
  
 This software is provided under written license and may be
 used, copied, transmitted, or stored only in accord with that
 written license.
  
 The following legend is applicable only to US Government
 contracts under FAR:
  
                    RESTRICTED RIGHTS LEGEND
  
 Use, reproduction and disclosure by the US Government is
 subject to restrictions as set forth in subparagraphs (a)
 and (c) of the Commercial Computer Software - Restricted
 Rights clause in FAR 52.227-19.
  
 Gaussian, Inc.
 340 Quinnipiac St., Bldg. 40, Wallingford CT 06492
  
  
 ---------------------------------------------------------------
 Warning -- This program may not be used in any manner that
 competes with the business of Gaussian, Inc. or will provide
 assistance to any competitor of Gaussian, Inc.  The licensee
 of this program is prohibited from giving any competitor of
 Gaussian, Inc. access to this program.  By using this program,
 the user acknowledges that Gaussian, Inc. is engaged in the
 business of creating and licensing software in the field of
 computational chemistry and represents and warrants to the
 licensee that it is not a competitor of Gaussian, Inc. and that
 it will not use this program in any manner prohibited above.
 ---------------------------------------------------------------
  

 Cite this work as:
 Gaussian 16, Revision A.03,
 M. J. Frisch, G. W. Trucks, H. B. Schlegel, G. E. Scuseria, 
 M. A. Robb, J. R. Cheeseman, G. Scalmani, V. Barone, 
 G. A. Petersson, H. Nakatsuji, X. Li, M. Caricato, A. V. Marenich, 
 J. Bloino, B. G. Janesko, R. Gomperts, B. Mennucci, H. P. Hratchian, 
 J. V. Ortiz, A. F. Izmaylov, J. L. Sonnenberg, D. Williams-Young, 
 F. Ding, F. Lipparini, F. Egidi, J. Goings, B. Peng, A. Petrone, 
 T. Henderson, D. Ranasinghe, V. G. Zakrzewski, J. Gao, N. Rega, 
 G. Zheng, W. Liang, M. Hada, M. Ehara, K. Toyota, R. Fukuda, 
 J. Hasegawa, M. Ishida, T. Nakajima, Y. Honda, O. Kitao, H. Nakai, 
 T. Vreven, K. Throssell, J. A. Montgomery, Jr., J. E. Peralta, 
 F. Ogliaro, M. J. Bearpark, J. J. Heyd, E. N. Brothers, K. N. Kudin, 
 V. N. Staroverov, T. A. Keith, R. Kobayashi, J. Normand, 
 K. Raghavachari, A. P. Rendell, J. C. Burant, S. S. Iyengar, 
 J. Tomasi, M. Cossi, J. M. Millam, M. Klene, C. Adamo, R. Cammi, 
 J. W. Ochterski, R. L. Martin, K. Morokuma, O. Farkas, 
 J. B. Foresman, and D. J. Fox, Gaussian, Inc., Wallingford CT, 2016.
 
 ******************************************
 Gaussian 16:  ES64L-G16RevA.03 25-Dec-2016
                 6-Oct-2020 
 ******************************************
 %NoSave
 %nproc=12
 Will use up to   12 processors via shared memory.
 %mem=20GB
 %chk=MN_15_C2H6_BH76_B3LYP_6-31Gs
 ----------------------------------------------------------------------
 #P Opt(MaxCyc=100) B3LYP/6-31G* 5D 7F Integral=UltraFineGrid SCF=(NoSy
 mm,XQC,MaxCyc=120) IOp(1/33=1) EmpiricalDispersion=GD3BJ
 ----------------------------------------------------------------------
 1/6=100,18=20,19=15,26=4,33=1,38=1/1,3;
 2/9=110,12=2,17=6,18=5,40=1/2;
 3/5=1,6=6,7=1,8=11,11=2,25=1,30=1,71=1,74=-5,75=-5,124=41/1,2,3;
 4/9=2/1;
 5/5=2,7=120,8=3,13=1,38=5/2,8;
 6/7=2,8=2,9=2,10=2,28=1/1;
 7//1,2,3,16;
 1/6=100,18=20,19=15,26=4,33=1/3(2);
 2/9=110/2;
 99//99;
 2/9=110/2;
 3/5=1,6=6,7=1,8=11,11=2,25=1,30=1,71=1,74=-5,75=-5,124=41/1,2,3;
 4/5=5,9=2,16=3,69=1/1;
 5/5=2,7=120,8=3,13=1,38=5/2,8;
 7//1,2,3,16;
 1/6=100,18=20,19=15,26=4,33=1/3(-5);
 2/9=110/2;
 6/7=2,8=2,9=2,10=2,19=2,28=1/1;
 99/9=1/99;
 Leave Link    1 at Tue Oct  6 20:13:26 2020, MaxMem=  2684354560 cpu:               5.9 elap:               0.6
 (Enter /udrive/faculty/rpeverati/g16/g16/l101.exe)
 ONIOM data not found on unit 2.
 ------------------
 TS search on BH76.
 ------------------
 TstMul:  ICh=     0
 TstMul:  Mul=     1
 TstMul:  ICh=     0
 TstMul:  Mul=     1
 Symbolic Z-matrix:
 Charge =  0 Multiplicity = 1
 C                    -0.76309   0.        0. 
 C                     0.76309   0.        0. 
 H                     1.15831  -0.44364  -0.9141 
 H                    -1.15831  -1.01333  -0.07464 
 H                     1.15831  -0.56981   0.84125 
 H                     1.15831   1.01345   0.07285 
 H                    -1.15831   0.44202   0.91488 
 H                    -1.15831   0.57131  -0.84024 
 
 RdStrC is calling ZToCFu for IStruc=1 NZ=     8.
 PrtBox:  NBox=     1 Levels=  1 BoxLen=    8.00 SMaxX=        4.38
          Shift=            2.188890            1.914910            1.727390
 Box      1 Number                   0 centers from      1 to      8:
 After GenITR:
 ITRead=  0  0  0  0  0  0  0  0
 MicOpt= -1 -1 -1 -1 -1 -1 -1 -1
 ITRead=  0  0  0  0  0  0  0  0
 MicOpt= -1 -1 -1 -1 -1 -1 -1 -1
 NAtoms=      8 NQM=        8 NQMF=       0 NMMI=      0 NMMIF=      0
                NMic=       0 NMicF=      0.
                    Isotopes and Nuclear Properties:
 (Nuclear quadrupole moments (NQMom) in fm**2, nuclear magnetic moments (NMagM)
  in nuclear magnetons)

  Atom         1           2           3           4           5           6           7           8
 IAtWgt=          12          12           1           1           1           1           1           1
 AtmWgt=  12.0000000  12.0000000   1.0078250   1.0078250   1.0078250   1.0078250   1.0078250   1.0078250
 NucSpn=           0           0           1           1           1           1           1           1
 AtZEff=   0.0000000   0.0000000   0.0000000   0.0000000   0.0000000   0.0000000   0.0000000   0.0000000
 NQMom=    0.0000000   0.0000000   0.0000000   0.0000000   0.0000000   0.0000000   0.0000000   0.0000000
 NMagM=    0.0000000   0.0000000   2.7928460   2.7928460   2.7928460   2.7928460   2.7928460   2.7928460
 AtZNuc=   6.0000000   6.0000000   1.0000000   1.0000000   1.0000000   1.0000000   1.0000000   1.0000000
 No MM parameters found.
 Leave Link  101 at Tue Oct  6 20:13:27 2020, MaxMem=  2684354560 cpu:               4.1 elap:               0.5
 (Enter /udrive/faculty/rpeverati/g16/g16/l103.exe)

 GradGradGradGradGradGradGradGradGradGradGradGradGradGradGradGradGradGrad
 Berny optimization.
 Optmz: redundant internal coordinate code flag= 1
 Initialization pass.
                           ----------------------------
                           !    Initial Parameters    !
                           ! (Angstroms and Degrees)  !
 --------------------------                            --------------------------
 ! Name  Definition              Value          Derivative Info.                !
 --------------------------------------------------------------------------------
 ! R1    R(1,2)                  1.5262         estimate D2E/DX2                !
 ! R2    R(1,4)                  1.0902         estimate D2E/DX2                !
 ! R3    R(1,7)                  1.0902         estimate D2E/DX2                !
 ! R4    R(1,8)                  1.0902         estimate D2E/DX2                !
 ! R5    R(2,3)                  1.0902         estimate D2E/DX2                !
 ! R6    R(2,5)                  1.0902         estimate D2E/DX2                !
 ! R7    R(2,6)                  1.0902         estimate D2E/DX2                !
 ! A1    A(2,1,4)              111.2543         estimate D2E/DX2                !
 ! A2    A(2,1,7)              111.2543         estimate D2E/DX2                !
 ! A3    A(2,1,8)              111.2543         estimate D2E/DX2                !
 ! A4    A(4,1,7)              107.6307         estimate D2E/DX2                !
 ! A5    A(4,1,8)              107.6309         estimate D2E/DX2                !
 ! A6    A(7,1,8)              107.6307         estimate D2E/DX2                !
 ! A7    A(1,2,3)              111.2544         estimate D2E/DX2                !
 ! A8    A(1,2,5)              111.2543         estimate D2E/DX2                !
 ! A9    A(1,2,6)              111.2543         estimate D2E/DX2                !
 ! A10   A(3,2,5)              107.6306         estimate D2E/DX2                !
 ! A11   A(3,2,6)              107.631          estimate D2E/DX2                !
 ! A12   A(5,2,6)              107.6306         estimate D2E/DX2                !
 ! D1    D(4,1,2,3)             59.8984         estimate D2E/DX2                !
 ! D2    D(4,1,2,5)            -60.1015         estimate D2E/DX2                !
 ! D3    D(4,1,2,6)            179.8987         estimate D2E/DX2                !
 ! D4    D(7,1,2,3)            179.8983         estimate D2E/DX2                !
 ! D5    D(7,1,2,5)             59.8985         estimate D2E/DX2                !
 ! D6    D(7,1,2,6)            -60.1014         estimate D2E/DX2                !
 ! D7    D(8,1,2,3)            -60.1018         estimate D2E/DX2                !
 ! D8    D(8,1,2,5)            179.8984         estimate D2E/DX2                !
 ! D9    D(8,1,2,6)             59.8985         estimate D2E/DX2                !
 --------------------------------------------------------------------------------
 Maximum allowed force set to 1.00D+20.
 Trust Radius=3.00D-01 FncErr=1.00D-07 GrdErr=1.00D-06 EigMax=2.50D+02 EigMin=1.00D-04
 Number of steps in this run=    100 maximum allowed number of steps=    100.
 GradGradGradGradGradGradGradGradGradGradGradGradGradGradGradGradGradGrad

 Leave Link  103 at Tue Oct  6 20:13:28 2020, MaxMem=  2684354560 cpu:               1.6 elap:               0.5
 (Enter /udrive/faculty/rpeverati/g16/g16/l202.exe)
                          Input orientation:                          
 ---------------------------------------------------------------------
 Center     Atomic      Atomic             Coordinates (Angstroms)
 Number     Number       Type             X           Y           Z
 ---------------------------------------------------------------------
      1          6           0       -0.763095    0.000000    0.000000
      2          6           0        0.763095    0.000000    0.000000
      3          1           0        1.158311   -0.443642   -0.914095
      4          1           0       -1.158311   -1.013327   -0.074640
      5          1           0        1.158311   -0.569813    0.841254
      6          1           0        1.158311    1.013454    0.072848
      7          1           0       -1.158311    0.442020    0.914884
      8          1           0       -1.158311    0.571305   -0.840243
 ---------------------------------------------------------------------
                    Distance matrix (angstroms):
                    1          2          3          4          5
     1  C    0.000000
     2  C    1.526189   0.000000
     3  H    2.173520   1.090222   0.000000
     4  H    1.090228   2.173523   2.529024   0.000000
     5  H    2.173521   1.090225   1.759878   2.530277   0.000000
     6  H    2.173521   1.090225   1.759882   3.081611   1.759881
     7  H    1.090225   2.173521   3.081606   1.759884   2.529024
     8  H    1.090227   2.173522   2.530278   1.759888   3.081610
                    6          7          8
     6  H    0.000000
     7  H    2.530276   0.000000
     8  H    2.529025   1.759883   0.000000
 This structure is nearly, but not quite of a higher symmetry.
 Consider Symm=Loose if the higher symmetry is desired.
 Stoichiometry    C2H6
 Framework group  C1[X(C2H6)]
 Deg. of freedom    18
 Full point group                 C1      NOp   1
 Largest Abelian subgroup         C1      NOp   1
 Largest concise Abelian subgroup C1      NOp   1
                         Standard orientation:                         
 ---------------------------------------------------------------------
 Center     Atomic      Atomic             Coordinates (Angstroms)
 Number     Number       Type             X           Y           Z
 ---------------------------------------------------------------------
      1          6           0       -0.006005   -0.067296    0.760098
      2          6           0        0.006004    0.067297   -0.760098
      3          1           0       -0.940642   -0.256750   -1.193040
      4          1           0       -0.173176   -1.100868    1.064042
      5          1           0        0.796589   -0.537953   -1.204214
      6          1           0        0.171402    1.101153   -1.064031
      7          1           0        0.941283    0.255071    1.192897
      8          1           0       -0.795451    0.539344    1.204346
 ---------------------------------------------------------------------
 Rotational constants (GHZ):          80.9533118          20.0467411          20.0467273
 Leave Link  202 at Tue Oct  6 20:13:28 2020, MaxMem=  2684354560 cpu:               1.6 elap:               0.4
 (Enter /udrive/faculty/rpeverati/g16/g16/l301.exe)
 Standard basis: 6-31G(d) (5D, 7F)
 Ernie: Thresh=  0.10000D-02 Tol=  0.10000D-05 Strict=F.
 There are    42 symmetry adapted cartesian basis functions of A   symmetry.
 There are    40 symmetry adapted basis functions of A   symmetry.
    40 basis functions,    80 primitive gaussians,    42 cartesian basis functions
     9 alpha electrons        9 beta electrons
       nuclear repulsion energy        42.2953063605 Hartrees.
 IExCor=  402 DFT=T Ex+Corr=B3LYP ExCW=0 ScaHFX=  0.200000
 ScaDFX=  0.800000  0.720000  1.000000  0.810000 ScalE2=  1.000000  1.000000
 IRadAn=      5 IRanWt=     -1 IRanGd=            0 ICorTp=0 IEmpDi=141
 NAtoms=    8 NActive=    8 NUniq=    8 SFac= 1.00D+00 NAtFMM=   60 NAOKFM=F Big=F
 Integral buffers will be    131072 words long.
 Raffenetti 2 integral format.
 Two-electron integral symmetry is turned on.
 R6Disp:  Grimme-D3(BJ) Dispersion energy=       -0.0054173421 Hartrees.
 Nuclear repulsion after empirical dispersion term =       42.2898890184 Hartrees.
 Leave Link  301 at Tue Oct  6 20:13:29 2020, MaxMem=  2684354560 cpu:               2.4 elap:               0.6
 (Enter /udrive/faculty/rpeverati/g16/g16/l302.exe)
 NPDir=0 NMtPBC=     1 NCelOv=     1 NCel=       1 NClECP=     1 NCelD=      1
         NCelK=      1 NCelE2=     1 NClLst=     1 CellRange=     0.0.
 One-electron integrals computed using PRISM.
 One-electron integral symmetry used in STVInt
 NBasis=    40 RedAO= T EigKep=  9.35D-03  NBF=    40
 NBsUse=    40 1.00D-06 EigRej= -1.00D+00 NBFU=    40
 Precomputing XC quadrature grid using
 IXCGrd= 4 IRadAn=           5 IRanWt=          -1 IRanGd=           0 AccXCQ= 0.00D+00.
 Generated NRdTot=       0 NPtTot=           0 NUsed=           0 NTot=          32
 NSgBfM=    42    42    42    42    42 MxSgAt=     8 MxSgA2=     8.
 Leave Link  302 at Tue Oct  6 20:13:30 2020, MaxMem=  2684354560 cpu:               3.5 elap:               0.6
 (Enter /udrive/faculty/rpeverati/g16/g16/l303.exe)
 DipDrv:  MaxL=1.
 Leave Link  303 at Tue Oct  6 20:13:31 2020, MaxMem=  2684354560 cpu:               1.1 elap:               0.4
 (Enter /udrive/faculty/rpeverati/g16/g16/l401.exe)
 SCF N**3 symmetry information disabled.
 ExpMin= 1.61D-01 ExpMax= 3.05D+03 ExpMxC= 4.57D+02 IAcc=3 IRadAn=         5 AccDes= 0.00D+00
 Harris functional with IExCor=  402 and IRadAn=       5 diagonalized for initial guess.
 HarFok:  IExCor=  402 AccDes= 0.00D+00 IRadAn=         5 IDoV= 1 UseB2=F ITyADJ=14
 ICtDFT=  3500011 ScaDFX=  1.000000  1.000000  1.000000  1.000000
 FoFCou: FMM=F IPFlag=           0 FMFlag=      100000 FMFlg1=           0
         NFxFlg=           0 DoJE=T BraDBF=F KetDBF=T FulRan=T
         wScrn=  0.000000 ICntrl=       500 IOpCl=  0 I1Cent=   200000004 NGrid=           0
         NMat0=    1 NMatS0=      1 NMatT0=    0 NMatD0=    1 NMtDS0=    0 NMtDT0=    0
 Petite list used in FoFCou.
 Harris En= -79.8860777326998    
 JPrj=0 DoOrth=F DoCkMO=F.
 Leave Link  401 at Tue Oct  6 20:13:32 2020, MaxMem=  2684354560 cpu:               6.6 elap:               0.9
 (Enter /udrive/faculty/rpeverati/g16/g16/l502.exe)
 Keep R1 ints in memory in canonical form, NReq=10695154.
 FoFCou: FMM=F IPFlag=           0 FMFlag=           0 FMFlg1=           0
         NFxFlg=           0 DoJE=F BraDBF=F KetDBF=F FulRan=T
         wScrn=  0.000000 ICntrl=       600 IOpCl=  0 I1Cent=           0 NGrid=           0
         NMat0=    1 NMatS0=    820 NMatT0=    0 NMatD0=    1 NMtDS0=    0 NMtDT0=    0
 Symmetry not used in FoFCou.
 Two-electron integral symmetry not used.
 Closed shell SCF:
 Using DIIS extrapolation, IDIIS=  1040.
 NGot=  2684354560 LenX=  2684013186 LenY=  2684010981
 Requested convergence on RMS density matrix=1.00D-08 within 120 cycles.
 Requested convergence on MAX density matrix=1.00D-06.
 Requested convergence on             energy=1.00D-06.
 No special actions if energy rises.
 Integral accuracy reduced to 1.0D-05 until final iterations.

 Cycle   1  Pass 0  IDiag  1:
 E= -79.7076999898326    
 DIIS: error= 5.97D-02 at cycle   1 NSaved=   1.
 NSaved= 1 IEnMin= 1 EnMin= -79.7076999898326     IErMin= 1 ErrMin= 5.97D-02
 ErrMax= 5.97D-02  0.00D+00 EMaxC= 1.00D-01 BMatC= 1.10D-01 BMatP= 1.10D-01
 IDIUse=3 WtCom= 4.03D-01 WtEn= 5.97D-01
 Coeff-Com:  0.100D+01
 Coeff-En:   0.100D+01
 Coeff:      0.100D+01
 Gap=     0.382 Goal=   None    Shift=    0.000
 GapD=    0.382 DampG=1.000 DampE=0.500 DampFc=0.5000 IDamp=-1.
 Damping current iteration by 5.00D-01
 RMSDP=1.69D-02 MaxDP=1.42D-01              OVMax= 1.85D-01

 Cycle   2  Pass 0  IDiag  1:
 E= -79.7646321341121     Delta-E=       -0.056932144280 Rises=F Damp=T
 DIIS: error= 9.94D-03 at cycle   2 NSaved=   2.
 NSaved= 2 IEnMin= 2 EnMin= -79.7646321341121     IErMin= 2 ErrMin= 9.94D-03
 ErrMax= 9.94D-03  0.00D+00 EMaxC= 1.00D-01 BMatC= 2.86D-03 BMatP= 1.10D-01
 IDIUse=3 WtCom= 9.01D-01 WtEn= 9.94D-02
 Coeff-Com:  0.820D-01 0.918D+00
 Coeff-En:   0.125D+00 0.875D+00
 Coeff:      0.863D-01 0.914D+00
 Gap=     0.469 Goal=   None    Shift=    0.000
 RMSDP=1.85D-03 MaxDP=1.31D-02 DE=-5.69D-02 OVMax= 9.55D-02

 Cycle   3  Pass 0  IDiag  1:
 E= -79.8341740562966     Delta-E=       -0.069541922184 Rises=F Damp=F
 DIIS: error= 2.50D-03 at cycle   3 NSaved=   3.
 NSaved= 3 IEnMin= 3 EnMin= -79.8341740562966     IErMin= 3 ErrMin= 2.50D-03
 ErrMax= 2.50D-03  0.00D+00 EMaxC= 1.00D-01 BMatC= 1.22D-04 BMatP= 2.86D-03
 IDIUse=3 WtCom= 9.75D-01 WtEn= 2.50D-02
 Coeff-Com:  0.115D-01 0.130D+00 0.858D+00
 Coeff-En:   0.000D+00 0.000D+00 0.100D+01
 Coeff:      0.112D-01 0.127D+00 0.862D+00
 Gap=     0.446 Goal=   None    Shift=    0.000
 RMSDP=2.97D-04 MaxDP=1.75D-03 DE=-6.95D-02 OVMax= 3.60D-03

 Cycle   4  Pass 0  IDiag  1:
 E= -79.8342801982386     Delta-E=       -0.000106141942 Rises=F Damp=F
 DIIS: error= 6.41D-04 at cycle   4 NSaved=   4.
 NSaved= 4 IEnMin= 4 EnMin= -79.8342801982386     IErMin= 4 ErrMin= 6.41D-04
 ErrMax= 6.41D-04  0.00D+00 EMaxC= 1.00D-01 BMatC= 5.44D-06 BMatP= 1.22D-04
 IDIUse=3 WtCom= 9.94D-01 WtEn= 6.41D-03
 Coeff-Com:  0.107D-02-0.822D-02 0.153D+00 0.854D+00
 Coeff-En:   0.000D+00 0.000D+00 0.000D+00 0.100D+01
 Coeff:      0.106D-02-0.817D-02 0.152D+00 0.855D+00
 Gap=     0.447 Goal=   None    Shift=    0.000
 RMSDP=5.21D-05 MaxDP=3.05D-04 DE=-1.06D-04 OVMax= 7.50D-04

 Cycle   5  Pass 0  IDiag  1:
 E= -79.8342852222773     Delta-E=       -0.000005024039 Rises=F Damp=F
 DIIS: error= 1.29D-05 at cycle   5 NSaved=   5.
 NSaved= 5 IEnMin= 5 EnMin= -79.8342852222773     IErMin= 5 ErrMin= 1.29D-05
 ErrMax= 1.29D-05  0.00D+00 EMaxC= 1.00D-01 BMatC= 3.92D-09 BMatP= 5.44D-06
 IDIUse=1 WtCom= 1.00D+00 WtEn= 0.00D+00
 Coeff-Com:  0.116D-03-0.361D-03-0.407D-02-0.948D-02 0.101D+01
 Coeff:      0.116D-03-0.361D-03-0.407D-02-0.948D-02 0.101D+01
 Gap=     0.447 Goal=   None    Shift=    0.000
 RMSDP=1.55D-06 MaxDP=1.42D-05 DE=-5.02D-06 OVMax= 2.25D-05

 Initial convergence to 1.0D-05 achieved.  Increase integral accuracy.
 Cycle   6  Pass 1  IDiag  1:
 E= -79.8342812539670     Delta-E=        0.000003968310 Rises=F Damp=F
 DIIS: error= 9.11D-07 at cycle   1 NSaved=   1.
 NSaved= 1 IEnMin= 1 EnMin= -79.8342812539670     IErMin= 1 ErrMin= 9.11D-07
 ErrMax= 9.11D-07  0.00D+00 EMaxC= 1.00D-01 BMatC= 3.94D-11 BMatP= 3.94D-11
 IDIUse=1 WtCom= 1.00D+00 WtEn= 0.00D+00
 Coeff-Com:  0.100D+01
 Coeff:      0.100D+01
 Gap=     0.447 Goal=   None    Shift=    0.000
 RMSDP=1.55D-06 MaxDP=1.42D-05 DE= 3.97D-06 OVMax= 4.36D-06

 Cycle   7  Pass 1  IDiag  1:
 E= -79.8342812540335     Delta-E=       -0.000000000066 Rises=F Damp=F
 DIIS: error= 4.52D-07 at cycle   2 NSaved=   2.
 NSaved= 2 IEnMin= 2 EnMin= -79.8342812540335     IErMin= 2 ErrMin= 4.52D-07
 ErrMax= 4.52D-07  0.00D+00 EMaxC= 1.00D-01 BMatC= 5.88D-12 BMatP= 3.94D-11
 IDIUse=1 WtCom= 1.00D+00 WtEn= 0.00D+00
 Coeff-Com:  0.194D+00 0.806D+00
 Coeff:      0.194D+00 0.806D+00
 Gap=     0.447 Goal=   None    Shift=    0.000
 RMSDP=9.53D-08 MaxDP=9.66D-07 DE=-6.65D-11 OVMax= 1.12D-06

 Cycle   8  Pass 1  IDiag  1:
 E= -79.8342812540368     Delta-E=       -0.000000000003 Rises=F Damp=F
 DIIS: error= 3.01D-07 at cycle   3 NSaved=   3.
 NSaved= 3 IEnMin= 3 EnMin= -79.8342812540368     IErMin= 3 ErrMin= 3.01D-07
 ErrMax= 3.01D-07  0.00D+00 EMaxC= 1.00D-01 BMatC= 3.35D-12 BMatP= 5.88D-12
 IDIUse=1 WtCom= 1.00D+00 WtEn= 0.00D+00
 Coeff-Com: -0.176D-01 0.426D+00 0.591D+00
 Coeff:     -0.176D-01 0.426D+00 0.591D+00
 Gap=     0.447 Goal=   None    Shift=    0.000
 RMSDP=3.92D-08 MaxDP=3.93D-07 DE=-3.33D-12 OVMax= 4.48D-07

 Cycle   9  Pass 1  IDiag  1:
 E= -79.8342812540404     Delta-E=       -0.000000000004 Rises=F Damp=F
 DIIS: error= 2.01D-08 at cycle   4 NSaved=   4.
 NSaved= 4 IEnMin= 4 EnMin= -79.8342812540404     IErMin= 4 ErrMin= 2.01D-08
 ErrMax= 2.01D-08  0.00D+00 EMaxC= 1.00D-01 BMatC= 1.06D-14 BMatP= 3.35D-12
 IDIUse=1 WtCom= 1.00D+00 WtEn= 0.00D+00
 Coeff-Com: -0.705D-02 0.881D-01 0.137D+00 0.782D+00
 Coeff:     -0.705D-02 0.881D-01 0.137D+00 0.782D+00
 Gap=     0.447 Goal=   None    Shift=    0.000
 RMSDP=2.61D-09 MaxDP=1.32D-08 DE=-3.61D-12 OVMax= 3.77D-08

 SCF Done:  E(RB3LYP) =  -79.8342812540     A.U. after    9 cycles
            NFock=  9  Conv=0.26D-08     -V/T= 2.0063
 KE= 7.933149159681D+01 PE=-2.687573151339D+02 EE= 6.730165326463D+01
 Leave Link  502 at Tue Oct  6 20:13:34 2020, MaxMem=  2684354560 cpu:              17.6 elap:               1.9
 (Enter /udrive/faculty/rpeverati/g16/g16/l508.exe)
 QCSCF skips out because SCF is already converged.
 Leave Link  508 at Tue Oct  6 20:13:35 2020, MaxMem=  2684354560 cpu:               0.2 elap:               0.4
 (Enter /udrive/faculty/rpeverati/g16/g16/l601.exe)
 Copying SCF densities to generalized density rwf, IOpCl= 0 IROHF=0.

 **********************************************************************

            Population analysis using the SCF density.

 **********************************************************************

 Orbital symmetries:
       Occupied  (A) (A) (A) (A) (A) (A) (A) (A) (A)
       Virtual   (A) (A) (A) (A) (A) (A) (A) (A) (A) (A) (A) (A)
                 (A) (A) (A) (A) (A) (A) (A) (A) (A) (A) (A) (A)
                 (A) (A) (A) (A) (A) (A) (A)
 The electronic state is 1-A.
 Alpha  occ. eigenvalues --  -10.16199 -10.16185  -0.74929  -0.61316  -0.43170
 Alpha  occ. eigenvalues --   -0.43170  -0.36293  -0.34073  -0.34073
 Alpha virt. eigenvalues --    0.10590   0.15846   0.16594   0.16594   0.19147
 Alpha virt. eigenvalues --    0.19147   0.24426   0.51188   0.54333   0.54333
 Alpha virt. eigenvalues --    0.63446   0.63446   0.67224   0.88665   0.88665
 Alpha virt. eigenvalues --    0.91384   0.92467   0.92468   0.98900   1.08152
 Alpha virt. eigenvalues --    1.44675   1.52499   1.52499   1.93945   1.98450
 Alpha virt. eigenvalues --    1.98450   2.28024   2.28025   2.33929   2.33929
 Alpha virt. eigenvalues --    2.59432
          Condensed to atoms (all electrons):
               1          2          3          4          5          6
     1  C    5.003441   0.378887  -0.034357   0.384818  -0.034357  -0.034357
     2  C    0.378887   5.003441   0.384819  -0.034357   0.384819   0.384819
     3  H   -0.034357   0.384819   0.573226  -0.003868  -0.032652  -0.032652
     4  H    0.384818  -0.034357  -0.003868   0.573228  -0.003832   0.004745
     5  H   -0.034357   0.384819  -0.032652  -0.003832   0.573228  -0.032652
     6  H   -0.034357   0.384819  -0.032652   0.004745  -0.032652   0.573227
     7  H    0.384819  -0.034357   0.004745  -0.032652  -0.003868  -0.003832
     8  H    0.384818  -0.034357  -0.003832  -0.032652   0.004745  -0.003868
               7          8
     1  C    0.384819   0.384818
     2  C   -0.034357  -0.034357
     3  H    0.004745  -0.003832
     4  H   -0.032652  -0.032652
     5  H   -0.003868   0.004745
     6  H   -0.003832  -0.003868
     7  H    0.573227  -0.032652
     8  H   -0.032652   0.573228
 Mulliken charges:
               1
     1  C   -0.433711
     2  C   -0.433712
     3  H    0.144571
     4  H    0.144570
     5  H    0.144570
     6  H    0.144570
     7  H    0.144571
     8  H    0.144570
 Sum of Mulliken charges =  -0.00000
 Mulliken charges with hydrogens summed into heavy atoms:
               1
     1  C   -0.000000
     2  C    0.000000
 Electronic spatial extent (au):  <R**2>=            108.9764
 Charge=             -0.0000 electrons
 Dipole moment (field-independent basis, Debye):
    X=              0.0000    Y=              0.0000    Z=             -0.0000  Tot=              0.0000
 Quadrupole moment (field-independent basis, Debye-Ang):
   XX=            -14.6820   YY=            -14.6862   ZZ=            -15.2260
   XY=             -0.0004   XZ=              0.0043   YZ=              0.0482
 Traceless Quadrupole moment (field-independent basis, Debye-Ang):
   XX=              0.1827   YY=              0.1785   ZZ=             -0.3612
   XY=             -0.0004   XZ=              0.0043   YZ=              0.0482
 Octapole moment (field-independent basis, Debye-Ang**2):
  XXX=              0.0022  YYY=              0.0011  ZZZ=             -0.0000  XYY=             -0.0022
  XXY=             -0.0011  XXZ=             -0.0001  XZZ=             -0.0000  YZZ=              0.0000
  YYZ=              0.0001  XYZ=             -0.0002
 Hexadecapole moment (field-independent basis, Debye-Ang**3):
 XXXX=            -28.4298 YYYY=            -28.4947 ZZZZ=            -91.4063 XXXY=             -0.0921
 XXXZ=              0.7638 YYYX=              0.1313 YYYZ=              1.5271 ZZZX=              0.2650
 ZZZY=              3.0362 XXYY=             -9.7177 XXZZ=            -18.7497 YYZZ=            -19.2488
 XXYZ=              1.8567 YYXZ=             -0.4559 ZZXY=             -0.0898
 N-N= 4.228988901840D+01 E-N=-2.687573148764D+02  KE= 7.933149159681D+01
 No NMR shielding tensors so no spin-rotation constants.
 Leave Link  601 at Tue Oct  6 20:13:36 2020, MaxMem=  2684354560 cpu:               4.0 elap:               0.7
 (Enter /udrive/faculty/rpeverati/g16/g16/l701.exe)
 ... and contract with generalized density number  0.
 Compute integral first derivatives.
 R6Disp: Adding Grimme-D3(BJ) dispersion energy 1st derivatives to the gradient.
 Leave Link  701 at Tue Oct  6 20:13:37 2020, MaxMem=  2684354560 cpu:               3.9 elap:               0.8
 (Enter /udrive/faculty/rpeverati/g16/g16/l702.exe)
 L702 exits ... SP integral derivatives will be done elsewhere.
 Leave Link  702 at Tue Oct  6 20:13:37 2020, MaxMem=  2684354560 cpu:               1.2 elap:               0.5
 (Enter /udrive/faculty/rpeverati/g16/g16/l703.exe)
 Integral derivatives from FoFJK, PRISM(SPDF).
 Compute integral first derivatives, UseDBF=F ICtDFT=           0.
 Calling FoFJK, ICntrl=      2127 FMM=F ISym2X=0 I1Cent= 0 IOpClX= 0 NMat=1 NMatS=1 NMatT=0.
 FoFJK:  IHMeth= 1 ICntrl=    2127 DoSepK=F KAlg= 0 I1Cent=           0 FoldK=F
 IRaf=         0 NMat=       1 IRICut=       1 DoRegI=T DoRafI=F ISym2E= 0 IDoP0=0 IntGTp=1.
 FoFCou: FMM=F IPFlag=           0 FMFlag=      100000 FMFlg1=         800
         NFxFlg=           0 DoJE=F BraDBF=F KetDBF=F FulRan=T
         wScrn=  0.000000 ICntrl=      2127 IOpCl=  0 I1Cent=           0 NGrid=           0
         NMat0=    1 NMatS0=      1 NMatT0=    0 NMatD0=    1 NMtDS0=    0 NMtDT0=    0
 Symmetry not used in FoFCou.
 Leave Link  703 at Tue Oct  6 20:13:39 2020, MaxMem=  2684354560 cpu:              10.1 elap:               1.2
 (Enter /udrive/faculty/rpeverati/g16/g16/l716.exe)
 Dipole        = 5.78072858D-07 2.29278534D-07-1.39131000D-06
 ***** Axes restored to original set *****
 -------------------------------------------------------------------
 Center     Atomic                   Forces (Hartrees/Bohr)
 Number     Number              X              Y              Z
 -------------------------------------------------------------------
      1        6           0.001874762   -0.000001253   -0.000001196
      2        6          -0.001876087    0.000000434    0.000002292
      3        1           0.001600339   -0.001554767   -0.003219255
      4        1          -0.001599490   -0.003562095   -0.000255870
      5        1           0.001599869   -0.002009355    0.002954796
      6        1           0.001600104    0.003563670    0.000262206
      7        1          -0.001599727    0.001560476    0.003214760
      8        1          -0.001599771    0.002002889   -0.002957733
 -------------------------------------------------------------------
 Cartesian Forces:  Max     0.003563670 RMS     0.002030942
 Leave Link  716 at Tue Oct  6 20:13:39 2020, MaxMem=  2684354560 cpu:               1.0 elap:               0.5
 (Enter /udrive/faculty/rpeverati/g16/g16/l103.exe)

 GradGradGradGradGradGradGradGradGradGradGradGradGradGradGradGradGradGrad
 Berny optimization.
 Optmz: redundant internal coordinate code flag= 1
 FormGI is forming the generalized inverse of G from B-inverse, IUseBI=4.
 Internal  Forces:  Max     0.003911938 RMS     0.001896784
 Search for a local minimum.
 Step number   1 out of a maximum of  100
 All quantities printed in internal units (Hartrees-Bohrs-Radians)
 RMS Force = .18968D-02 SwitMx=.10000D-02 MixMth= 1
 Mixed Optimization -- RFO/linear search
 Second derivative matrix not updated -- first step.
 The second derivative matrix:
                          R1        R2        R3        R4        R5
           R1           0.29778
           R2           0.00000   0.34786
           R3           0.00000   0.00000   0.34787
           R4           0.00000   0.00000   0.00000   0.34786
           R5           0.00000   0.00000   0.00000   0.00000   0.34787
           R6           0.00000   0.00000   0.00000   0.00000   0.00000
           R7           0.00000   0.00000   0.00000   0.00000   0.00000
           A1           0.00000   0.00000   0.00000   0.00000   0.00000
           A2           0.00000   0.00000   0.00000   0.00000   0.00000
           A3           0.00000   0.00000   0.00000   0.00000   0.00000
           A4           0.00000   0.00000   0.00000   0.00000   0.00000
           A5           0.00000   0.00000   0.00000   0.00000   0.00000
           A6           0.00000   0.00000   0.00000   0.00000   0.00000
           A7           0.00000   0.00000   0.00000   0.00000   0.00000
           A8           0.00000   0.00000   0.00000   0.00000   0.00000
           A9           0.00000   0.00000   0.00000   0.00000   0.00000
           A10          0.00000   0.00000   0.00000   0.00000   0.00000
           A11          0.00000   0.00000   0.00000   0.00000   0.00000
           A12          0.00000   0.00000   0.00000   0.00000   0.00000
           D1           0.00000   0.00000   0.00000   0.00000   0.00000
           D2           0.00000   0.00000   0.00000   0.00000   0.00000
           D3           0.00000   0.00000   0.00000   0.00000   0.00000
           D4           0.00000   0.00000   0.00000   0.00000   0.00000
           D5           0.00000   0.00000   0.00000   0.00000   0.00000
           D6           0.00000   0.00000   0.00000   0.00000   0.00000
           D7           0.00000   0.00000   0.00000   0.00000   0.00000
           D8           0.00000   0.00000   0.00000   0.00000   0.00000
           D9           0.00000   0.00000   0.00000   0.00000   0.00000
                          R6        R7        A1        A2        A3
           R6           0.34787
           R7           0.00000   0.34787
           A1           0.00000   0.00000   0.16000
           A2           0.00000   0.00000   0.00000   0.16000
           A3           0.00000   0.00000   0.00000   0.00000   0.16000
           A4           0.00000   0.00000   0.00000   0.00000   0.00000
           A5           0.00000   0.00000   0.00000   0.00000   0.00000
           A6           0.00000   0.00000   0.00000   0.00000   0.00000
           A7           0.00000   0.00000   0.00000   0.00000   0.00000
           A8           0.00000   0.00000   0.00000   0.00000   0.00000
           A9           0.00000   0.00000   0.00000   0.00000   0.00000
           A10          0.00000   0.00000   0.00000   0.00000   0.00000
           A11          0.00000   0.00000   0.00000   0.00000   0.00000
           A12          0.00000   0.00000   0.00000   0.00000   0.00000
           D1           0.00000   0.00000   0.00000   0.00000   0.00000
           D2           0.00000   0.00000   0.00000   0.00000   0.00000
           D3           0.00000   0.00000   0.00000   0.00000   0.00000
           D4           0.00000   0.00000   0.00000   0.00000   0.00000
           D5           0.00000   0.00000   0.00000   0.00000   0.00000
           D6           0.00000   0.00000   0.00000   0.00000   0.00000
           D7           0.00000   0.00000   0.00000   0.00000   0.00000
           D8           0.00000   0.00000   0.00000   0.00000   0.00000
           D9           0.00000   0.00000   0.00000   0.00000   0.00000
                          A4        A5        A6        A7        A8
           A4           0.16000
           A5           0.00000   0.16000
           A6           0.00000   0.00000   0.16000
           A7           0.00000   0.00000   0.00000   0.16000
           A8           0.00000   0.00000   0.00000   0.00000   0.16000
           A9           0.00000   0.00000   0.00000   0.00000   0.00000
           A10          0.00000   0.00000   0.00000   0.00000   0.00000
           A11          0.00000   0.00000   0.00000   0.00000   0.00000
           A12          0.00000   0.00000   0.00000   0.00000   0.00000
           D1           0.00000   0.00000   0.00000   0.00000   0.00000
           D2           0.00000   0.00000   0.00000   0.00000   0.00000
           D3           0.00000   0.00000   0.00000   0.00000   0.00000
           D4           0.00000   0.00000   0.00000   0.00000   0.00000
           D5           0.00000   0.00000   0.00000   0.00000   0.00000
           D6           0.00000   0.00000   0.00000   0.00000   0.00000
           D7           0.00000   0.00000   0.00000   0.00000   0.00000
           D8           0.00000   0.00000   0.00000   0.00000   0.00000
           D9           0.00000   0.00000   0.00000   0.00000   0.00000
                          A9        A10       A11       A12       D1
           A9           0.16000
           A10          0.00000   0.16000
           A11          0.00000   0.00000   0.16000
           A12          0.00000   0.00000   0.00000   0.16000
           D1           0.00000   0.00000   0.00000   0.00000   0.00420
           D2           0.00000   0.00000   0.00000   0.00000   0.00000
           D3           0.00000   0.00000   0.00000   0.00000   0.00000
           D4           0.00000   0.00000   0.00000   0.00000   0.00000
           D5           0.00000   0.00000   0.00000   0.00000   0.00000
           D6           0.00000   0.00000   0.00000   0.00000   0.00000
           D7           0.00000   0.00000   0.00000   0.00000   0.00000
           D8           0.00000   0.00000   0.00000   0.00000   0.00000
           D9           0.00000   0.00000   0.00000   0.00000   0.00000
                          D2        D3        D4        D5        D6
           D2           0.00420
           D3           0.00000   0.00420
           D4           0.00000   0.00000   0.00420
           D5           0.00000   0.00000   0.00000   0.00420
           D6           0.00000   0.00000   0.00000   0.00000   0.00420
           D7           0.00000   0.00000   0.00000   0.00000   0.00000
           D8           0.00000   0.00000   0.00000   0.00000   0.00000
           D9           0.00000   0.00000   0.00000   0.00000   0.00000
                          D7        D8        D9
           D7           0.00420
           D8           0.00000   0.00420
           D9           0.00000   0.00000   0.00420
 ITU=  0
 Eigenvectors of the second derivative matrix:
                           1         2         3         4         5
     Eigenvalues --     0.00420   0.05513   0.05513   0.05513   0.05513
   1         R1        -0.00000  -0.00000  -0.00000   0.00000   0.00000
   2         R2        -0.00000   0.00000  -0.00000   0.00000  -0.00000
   3         R3        -0.00000  -0.00000  -0.00000  -0.00000  -0.00000
   4         R4         0.00000  -0.00000   0.00000   0.00000   0.00000
   5         R5        -0.00000  -0.00000  -0.00000   0.00000  -0.00000
   6         R6         0.00000   0.00000   0.00000   0.00000   0.00000
   7         R7         0.00000   0.00000  -0.00000   0.00000   0.00000
   8         A1        -0.00000  -0.00000   0.14961   0.00000  -0.16018
   9         A2         0.00000   0.00000  -0.21352   0.00000  -0.04947
  10         A3        -0.00000   0.00000   0.06392  -0.00000   0.20965
  11         A4         0.00000  -0.00000  -0.12020   0.00000  -0.39427
  12         A5        -0.00000  -0.00000   0.40154  -0.00000   0.09304
  13         A6        -0.00000   0.00000  -0.28135  -0.00000   0.30123
  14         A7        -0.00000  -0.08571   0.00000  -0.20172  -0.00000
  15         A8        -0.00000   0.21755   0.00000   0.02663   0.00000
  16         A9         0.00000  -0.13184  -0.00000   0.17509   0.00000
  17         A10        0.00000   0.24794   0.00000  -0.32927  -0.00000
  18         A11        0.00000  -0.40912  -0.00000  -0.05009  -0.00000
  19         A12        0.00000   0.16119  -0.00000   0.37936   0.00000
  20         D1        -0.33333   0.35596   0.28264  -0.15124   0.26399
  21         D2        -0.33333  -0.04700   0.28264   0.38389   0.26399
  22         D3        -0.33333  -0.30896   0.28264  -0.23265   0.26399
  23         D4        -0.33333   0.35596   0.08730  -0.15124  -0.37677
  24         D5        -0.33333  -0.04700   0.08730   0.38389  -0.37677
  25         D6        -0.33333  -0.30896   0.08730  -0.23265  -0.37677
  26         D7        -0.33333   0.35596  -0.36994  -0.15124   0.11278
  27         D8        -0.33333  -0.04700  -0.36994   0.38389   0.11278
  28         D9        -0.33333  -0.30896  -0.36994  -0.23265   0.11278
                           6         7         8         9        10
     Eigenvalues --     0.16000   0.16000   0.16000   0.16000   0.16000
   1         R1         0.00000  -0.00000   0.00000   0.00000   0.00000
   2         R2         0.00000   0.00000  -0.00000  -0.00000   0.00000
   3         R3         0.00000   0.00000  -0.00000   0.00000  -0.00000
   4         R4         0.00000   0.00000   0.00000   0.00000  -0.00000
   5         R5         0.00000  -0.00000  -0.00000  -0.00000   0.00000
   6         R6         0.00000   0.00000  -0.00000  -0.00000  -0.00000
   7         R7         0.00000  -0.00000  -0.00000  -0.00000   0.00000
   8         A1        -0.40597  -0.05935  -0.19616   0.27778  -0.59029
   9         A2        -0.06820  -0.31574  -0.41383  -0.25849   0.41287
  10         A3        -0.18034  -0.01153  -0.00429   0.55952   0.43006
  11         A4         0.25214   0.19946   0.32436  -0.01026   0.09434
  12         A5         0.31177   0.03769   0.10659  -0.44524   0.08520
  13         A6         0.13216   0.17403   0.22234  -0.16007  -0.44823
  14         A7        -0.43010  -0.41517   0.22036  -0.36632  -0.03801
  15         A8        -0.40475   0.55404   0.22306  -0.07522   0.22480
  16         A9         0.06748   0.33751  -0.61776  -0.16584  -0.08616
  17         A10        0.44393  -0.07385  -0.23579   0.23479  -0.09933
  18         A11        0.19282   0.04129   0.21132   0.28298   0.06603
  19         A12        0.17934  -0.47409   0.20988   0.12819  -0.07372
  20         D1        -0.00000  -0.00000   0.00000   0.00000  -0.00000
  21         D2        -0.00000   0.00000   0.00000  -0.00000   0.00000
  22         D3         0.00000  -0.00000  -0.00000  -0.00000  -0.00000
  23         D4         0.00000   0.00000   0.00000   0.00000   0.00000
  24         D5         0.00000   0.00000  -0.00000  -0.00000   0.00000
  25         D6         0.00000   0.00000  -0.00000   0.00000  -0.00000
  26         D7        -0.00000  -0.00000   0.00000   0.00000   0.00000
  27         D8        -0.00000   0.00000   0.00000  -0.00000   0.00000
  28         D9         0.00000  -0.00000  -0.00000   0.00000  -0.00000
                          11        12        13        14        15
     Eigenvalues --     0.16000   0.29778   0.34786   0.34786   0.34787
   1         R1         0.00000  -1.00000  -0.00000  -0.00000   0.00000
   2         R2        -0.00000  -0.00000   1.00000  -0.00000   0.00000
   3         R3        -0.00000   0.00000  -0.00000   0.00000   0.00000
   4         R4         0.00000  -0.00000   0.00000   1.00000  -0.00000
   5         R5         0.00000   0.00000  -0.00000  -0.00000  -0.00000
   6         R6        -0.00000   0.00000   0.00000   0.00000  -0.00000
   7         R7         0.00000   0.00000  -0.00000   0.00000   1.00000
   8         A1        -0.20908  -0.00000   0.00000  -0.00000   0.00000
   9         A2        -0.40404  -0.00000  -0.00000   0.00000  -0.00000
  10         A3         0.38136   0.00000   0.00000  -0.00000   0.00000
  11         A4         0.32603   0.00000  -0.00000  -0.00000  -0.00000
  12         A5        -0.09161   0.00000   0.00000   0.00000  -0.00000
  13         A6         0.01206   0.00000  -0.00000  -0.00000   0.00000
  14         A7         0.36686  -0.00000   0.00000   0.00000  -0.00000
  15         A8        -0.31527  -0.00000  -0.00000   0.00000   0.00000
  16         A9         0.37565   0.00000  -0.00000  -0.00000  -0.00000
  17         A10       -0.02743   0.00000  -0.00000  -0.00000   0.00000
  18         A11       -0.39483   0.00000  -0.00000  -0.00000   0.00000
  19         A12       -0.03211   0.00000   0.00000   0.00000  -0.00000
  20         D1        -0.00000   0.00000   0.00000   0.00000  -0.00000
  21         D2        -0.00000   0.00000  -0.00000  -0.00000  -0.00000
  22         D3        -0.00000   0.00000   0.00000  -0.00000   0.00000
  23         D4        -0.00000  -0.00000  -0.00000   0.00000   0.00000
  24         D5        -0.00000   0.00000  -0.00000   0.00000   0.00000
  25         D6        -0.00000   0.00000   0.00000  -0.00000   0.00000
  26         D7         0.00000  -0.00000  -0.00000   0.00000   0.00000
  27         D8         0.00000   0.00000  -0.00000   0.00000  -0.00000
  28         D9         0.00000   0.00000  -0.00000  -0.00000   0.00000
                          16        17        18
     Eigenvalues --     0.34787   0.34787   0.34787
   1         R1         0.00000  -0.00000  -0.00000
   2         R2        -0.00000  -0.00000  -0.00000
   3         R3         0.00000  -1.00000   0.00000
   4         R4        -0.00000   0.00000  -0.00000
   5         R5        -0.00000  -0.00000  -1.00000
   6         R6         1.00000   0.00000  -0.00000
   7         R7         0.00000   0.00000  -0.00000
   8         A1         0.00000   0.00000  -0.00000
   9         A2         0.00000   0.00000   0.00000
  10         A3         0.00000  -0.00000  -0.00000
  11         A4         0.00000  -0.00000   0.00000
  12         A5        -0.00000  -0.00000   0.00000
  13         A6        -0.00000   0.00000  -0.00000
  14         A7         0.00000  -0.00000   0.00000
  15         A8        -0.00000   0.00000  -0.00000
  16         A9        -0.00000  -0.00000   0.00000
  17         A10        0.00000   0.00000  -0.00000
  18         A11        0.00000   0.00000  -0.00000
  19         A12        0.00000  -0.00000  -0.00000
  20         D1        -0.00000   0.00000  -0.00000
  21         D2        -0.00000  -0.00000  -0.00000
  22         D3         0.00000   0.00000  -0.00000
  23         D4         0.00000   0.00000  -0.00000
  24         D5        -0.00000  -0.00000   0.00000
  25         D6         0.00000   0.00000   0.00000
  26         D7         0.00000   0.00000   0.00000
  27         D8         0.00000  -0.00000   0.00000
  28         D9         0.00000   0.00000   0.00000
 Iter=   1 RLamda= 0.00000000D+00 Sum=-2.95306760D-04.
 Iter=   2 RLamda=-2.95306760D-04 Sum=-2.95046897D-04.
 Iter=   3 RLamda=-2.95046897D-04 Sum=-2.95047126D-04.
 RFO step:  Lambda=-2.95046897D-04 EMin= 4.19511837D-03
 Linear search not attempted -- first point.
 Iteration  1 RMS(Cart)=  0.00697610 RMS(Int)=  0.00000478
 Iteration  2 RMS(Cart)=  0.00000594 RMS(Int)=  0.00000043
 Iteration  3 RMS(Cart)=  0.00000000 RMS(Int)=  0.00000043
 ITry= 1 IFail=0 DXMaxC= 1.13D-02 DCOld= 1.00D+10 DXMaxT= 3.00D-01 DXLimC= 3.00D+00 Rises=F
 Variable       Old X    -DE/DX   Delta X   Delta X   Delta X     New X
                                 (Linear)    (Quad)   (Total)
    R1        2.88408   0.00292   0.00000   0.00981   0.00981   2.89389
    R2        2.06023   0.00391   0.00000   0.01123   0.01123   2.07146
    R3        2.06023   0.00391   0.00000   0.01123   0.01123   2.07146
    R4        2.06023   0.00391   0.00000   0.01123   0.01123   2.07146
    R5        2.06022   0.00391   0.00000   0.01124   0.01124   2.07146
    R6        2.06023   0.00391   0.00000   0.01123   0.01123   2.07146
    R7        2.06023   0.00391   0.00000   0.01123   0.01123   2.07146
    A1        1.94175   0.00019   0.00000   0.00118   0.00118   1.94294
    A2        1.94175   0.00019   0.00000   0.00118   0.00118   1.94293
    A3        1.94175   0.00019   0.00000   0.00118   0.00118   1.94294
    A4        1.87851  -0.00020   0.00000  -0.00126  -0.00126   1.87725
    A5        1.87851  -0.00020   0.00000  -0.00126  -0.00126   1.87726
    A6        1.87851  -0.00020   0.00000  -0.00126  -0.00126   1.87725
    A7        1.94176   0.00019   0.00000   0.00118   0.00118   1.94293
    A8        1.94175   0.00019   0.00000   0.00118   0.00118   1.94294
    A9        1.94175   0.00019   0.00000   0.00118   0.00118   1.94294
   A10        1.87851  -0.00020   0.00000  -0.00125  -0.00125   1.87725
   A11        1.87851  -0.00020   0.00000  -0.00126  -0.00126   1.87725
   A12        1.87851  -0.00020   0.00000  -0.00125  -0.00125   1.87725
    D1        1.04542   0.00000   0.00000   0.00094   0.00094   1.04636
    D2       -1.04897   0.00000   0.00000   0.00093   0.00093  -1.04803
    D3        3.13982   0.00000   0.00000   0.00093   0.00093   3.14075
    D4        3.13982   0.00000   0.00000   0.00094   0.00094   3.14075
    D5        1.04543   0.00000   0.00000   0.00093   0.00093   1.04636
    D6       -1.04897   0.00000   0.00000   0.00093   0.00093  -1.04804
    D7       -1.04897   0.00000   0.00000   0.00094   0.00094  -1.04804
    D8        3.13982   0.00000   0.00000   0.00093   0.00093   3.14075
    D9        1.04543   0.00000   0.00000   0.00093   0.00093   1.04636
         Item               Value     Threshold  Converged?
 Maximum Force            0.003912     0.000450     NO 
 RMS     Force            0.001897     0.000300     NO 
 Maximum Displacement     0.011255     0.001800     NO 
 RMS     Displacement     0.006978     0.001200     NO 
 Predicted change in Energy=-1.476532D-04
 Lowest energy point so far.  Saving SCF results.
 Largest change from initial coordinates is atom    5       0.008 Angstoms.
 GradGradGradGradGradGradGradGradGradGradGradGradGradGradGradGradGradGrad

 Leave Link  103 at Tue Oct  6 20:13:40 2020, MaxMem=  2684354560 cpu:               2.9 elap:               0.7
 (Enter /udrive/faculty/rpeverati/g16/g16/l202.exe)
                          Input orientation:                          
 ---------------------------------------------------------------------
 Center     Atomic      Atomic             Coordinates (Angstroms)
 Number     Number       Type             X           Y           Z
 ---------------------------------------------------------------------
      1          6           0       -0.765690   -0.000000   -0.000000
      2          6           0        0.765690   -0.000000    0.000002
      3          1           0        1.164266   -0.445426   -0.918866
      4          1           0       -1.164266   -1.018414   -0.074538
      5          1           0        1.164266   -0.573051    0.845186
      6          1           0        1.164266    1.018476    0.073686
      7          1           0       -1.164266    0.444654    0.919241
      8          1           0       -1.164266    0.573759   -0.844703
 ---------------------------------------------------------------------
                    Distance matrix (angstroms):
                    1          2          3          4          5
     1  C    0.000000
     2  C    1.531381   0.000000
     3  H    2.183449   1.096168   0.000000
     4  H    1.096169   2.183451   2.542296   0.000000
     5  H    2.183451   1.096168   1.768662   2.542893   0.000000
     6  H    2.183451   1.096169   1.768663   3.097250   1.768663
     7  H    1.096168   2.183449   3.097247   1.768662   2.542296
     8  H    1.096168   2.183451   2.542892   1.768663   3.097250
                    6          7          8
     6  H    0.000000
     7  H    2.542891   0.000000
     8  H    2.542297   1.768662   0.000000
 Stoichiometry    C2H6
 Framework group  C1[X(C2H6)]
 Deg. of freedom    18
 Full point group                 C1      NOp   1
 RotChk:  IX=0 Diff= 1.99D+00
 Largest Abelian subgroup         C1      NOp   1
 Largest concise Abelian subgroup C1      NOp   1
                         Standard orientation:                         
 ---------------------------------------------------------------------
 Center     Atomic      Atomic             Coordinates (Angstroms)
 Number     Number       Type             X           Y           Z
 ---------------------------------------------------------------------
      1          6           0       -0.765690    0.000000   -0.000000
      2          6           0        0.765690    0.000000   -0.000000
      3          1           0        1.164264   -0.239087   -0.992754
      4          1           0       -1.164267   -0.979051   -0.290142
      5          1           0        1.164267   -0.740207    0.703431
      6          1           0        1.164267    0.979293    0.289321
      7          1           0       -1.164264    0.238254    0.992954
      8          1           0       -1.164267    0.740796   -0.702810
 ---------------------------------------------------------------------
 Rotational constants (GHZ):          80.1515934          19.8810460          19.8810432
 Leave Link  202 at Tue Oct  6 20:13:41 2020, MaxMem=  2684354560 cpu:               1.0 elap:               0.4
 (Enter /udrive/faculty/rpeverati/g16/g16/l301.exe)
 Standard basis: 6-31G(d) (5D, 7F)
 Ernie: Thresh=  0.10000D-02 Tol=  0.10000D-05 Strict=F.
 There are    42 symmetry adapted cartesian basis functions of A   symmetry.
 There are    40 symmetry adapted basis functions of A   symmetry.
    40 basis functions,    80 primitive gaussians,    42 cartesian basis functions
     9 alpha electrons        9 beta electrons
       nuclear repulsion energy        42.1004533307 Hartrees.
 IExCor=  402 DFT=T Ex+Corr=B3LYP ExCW=0 ScaHFX=  0.200000
 ScaDFX=  0.800000  0.720000  1.000000  0.810000 ScalE2=  1.000000  1.000000
 IRadAn=      5 IRanWt=     -1 IRanGd=            0 ICorTp=0 IEmpDi=141
 NAtoms=    8 NActive=    8 NUniq=    8 SFac= 1.00D+00 NAtFMM=   60 NAOKFM=F Big=F
 Integral buffers will be    131072 words long.
 Raffenetti 2 integral format.
 Two-electron integral symmetry is turned on.
 R6Disp:  Grimme-D3(BJ) Dispersion energy=       -0.0054063703 Hartrees.
 Nuclear repulsion after empirical dispersion term =       42.0950469604 Hartrees.
 Leave Link  301 at Tue Oct  6 20:13:42 2020, MaxMem=  2684354560 cpu:               1.9 elap:               0.6
 (Enter /udrive/faculty/rpeverati/g16/g16/l302.exe)
 NPDir=0 NMtPBC=     1 NCelOv=     1 NCel=       1 NClECP=     1 NCelD=      1
         NCelK=      1 NCelE2=     1 NClLst=     1 CellRange=     0.0.
 One-electron integrals computed using PRISM.
 One-electron integral symmetry used in STVInt
 NBasis=    40 RedAO= T EigKep=  9.55D-03  NBF=    40
 NBsUse=    40 1.00D-06 EigRej= -1.00D+00 NBFU=    40
 Precomputing XC quadrature grid using
 IXCGrd= 4 IRadAn=           5 IRanWt=          -1 IRanGd=           0 AccXCQ= 0.00D+00.
 Generated NRdTot=       0 NPtTot=           0 NUsed=           0 NTot=          32
 NSgBfM=    42    42    42    42    42 MxSgAt=     8 MxSgA2=     8.
 Leave Link  302 at Tue Oct  6 20:13:43 2020, MaxMem=  2684354560 cpu:               3.3 elap:               0.6
 (Enter /udrive/faculty/rpeverati/g16/g16/l303.exe)
 DipDrv:  MaxL=1.
 Leave Link  303 at Tue Oct  6 20:13:43 2020, MaxMem=  2684354560 cpu:               0.9 elap:               0.4
 (Enter /udrive/faculty/rpeverati/g16/g16/l401.exe)
 Initial guess from the checkpoint file:  "MN_15_C2H6_BH76_B3LYP_6-31Gs.chk"
 SCF N**3 symmetry information disabled.
 B after Tr=    -0.000000    0.000000    0.000000
         Rot=    0.709755   -0.013517    0.700265    0.075462 Ang= -89.57 deg.
 Guess basis will be translated and rotated to current coordinates.
 JPrj=2 DoOrth=T DoCkMO=T.
 Leave Link  401 at Tue Oct  6 20:13:44 2020, MaxMem=  2684354560 cpu:               3.8 elap:               0.8
 (Enter /udrive/faculty/rpeverati/g16/g16/l502.exe)
 Keep R1 ints in memory in canonical form, NReq=10695154.
 FoFCou: FMM=F IPFlag=           0 FMFlag=           0 FMFlg1=           0
         NFxFlg=           0 DoJE=F BraDBF=F KetDBF=F FulRan=T
         wScrn=  0.000000 ICntrl=       600 IOpCl=  0 I1Cent=           0 NGrid=           0
         NMat0=    1 NMatS0=    820 NMatT0=    0 NMatD0=    1 NMtDS0=    0 NMtDT0=    0
 Symmetry not used in FoFCou.
 Two-electron integral symmetry not used.
 Closed shell SCF:
 Using DIIS extrapolation, IDIIS=  1040.
 NGot=  2684354560 LenX=  2684013186 LenY=  2684010981
 Requested convergence on RMS density matrix=1.00D-08 within 120 cycles.
 Requested convergence on MAX density matrix=1.00D-06.
 Requested convergence on             energy=1.00D-06.
 No special actions if energy rises.

 Cycle   1  Pass 1  IDiag  1:
 E= -79.8343930453898    
 DIIS: error= 8.45D-04 at cycle   1 NSaved=   1.
 NSaved= 1 IEnMin= 1 EnMin= -79.8343930453898     IErMin= 1 ErrMin= 8.45D-04
 ErrMax= 8.45D-04  0.00D+00 EMaxC= 1.00D-01 BMatC= 2.41D-05 BMatP= 2.41D-05
 IDIUse=3 WtCom= 9.92D-01 WtEn= 8.45D-03
 Coeff-Com:  0.100D+01
 Coeff-En:   0.100D+01
 Coeff:      0.100D+01
 Gap=     0.655 Goal=   None    Shift=    0.000
 RMSDP=2.00D-04 MaxDP=1.82D-03              OVMax= 2.40D-03

 Cycle   2  Pass 1  IDiag  1:
 E= -79.8344023942964     Delta-E=       -0.000009348907 Rises=F Damp=F
 DIIS: error= 7.62D-04 at cycle   2 NSaved=   2.
 NSaved= 2 IEnMin= 2 EnMin= -79.8344023942964     IErMin= 2 ErrMin= 7.62D-04
 ErrMax= 7.62D-04  0.00D+00 EMaxC= 1.00D-01 BMatC= 1.89D-05 BMatP= 2.41D-05
 IDIUse=3 WtCom= 9.92D-01 WtEn= 7.62D-03
 Coeff-Com:  0.465D+00 0.535D+00
 Coeff-En:   0.376D+00 0.624D+00
 Coeff:      0.464D+00 0.536D+00
 Gap=     0.445 Goal=   None    Shift=    0.000
 RMSDP=1.11D-04 MaxDP=9.98D-04 DE=-9.35D-06 OVMax= 1.28D-03

 Cycle   3  Pass 1  IDiag  1:
 E= -79.8344220091030     Delta-E=       -0.000019614807 Rises=F Damp=F
 DIIS: error= 1.23D-04 at cycle   3 NSaved=   3.
 NSaved= 3 IEnMin= 3 EnMin= -79.8344220091030     IErMin= 3 ErrMin= 1.23D-04
 ErrMax= 1.23D-04  0.00D+00 EMaxC= 1.00D-01 BMatC= 6.68D-07 BMatP= 1.89D-05
 IDIUse=3 WtCom= 9.99D-01 WtEn= 1.23D-03
 Coeff-Com:  0.210D-01 0.164D+00 0.815D+00
 Coeff-En:   0.000D+00 0.000D+00 0.100D+01
 Coeff:      0.210D-01 0.163D+00 0.816D+00
 Gap=     0.445 Goal=   None    Shift=    0.000
 RMSDP=1.55D-05 MaxDP=1.57D-04 DE=-1.96D-05 OVMax= 2.32D-04

 Cycle   4  Pass 1  IDiag  1:
 E= -79.8344226879697     Delta-E=       -0.000000678867 Rises=F Damp=F
 DIIS: error= 1.91D-05 at cycle   4 NSaved=   4.
 NSaved= 4 IEnMin= 4 EnMin= -79.8344226879697     IErMin= 4 ErrMin= 1.91D-05
 ErrMax= 1.91D-05  0.00D+00 EMaxC= 1.00D-01 BMatC= 5.40D-09 BMatP= 6.68D-07
 IDIUse=1 WtCom= 1.00D+00 WtEn= 0.00D+00
 Coeff-Com: -0.153D-02 0.319D-01 0.189D+00 0.780D+00
 Coeff:     -0.153D-02 0.319D-01 0.189D+00 0.780D+00
 Gap=     0.445 Goal=   None    Shift=    0.000
 RMSDP=1.81D-06 MaxDP=1.02D-05 DE=-6.79D-07 OVMax= 2.55D-05

 Cycle   5  Pass 1  IDiag  1:
 E= -79.8344226930935     Delta-E=       -0.000000005124 Rises=F Damp=F
 DIIS: error= 7.27D-07 at cycle   5 NSaved=   5.
 NSaved= 5 IEnMin= 5 EnMin= -79.8344226930935     IErMin= 5 ErrMin= 7.27D-07
 ErrMax= 7.27D-07  0.00D+00 EMaxC= 1.00D-01 BMatC= 1.55D-11 BMatP= 5.40D-09
 IDIUse=1 WtCom= 1.00D+00 WtEn= 0.00D+00
 Coeff-Com: -0.524D-03-0.281D-03-0.956D-03 0.413D-01 0.960D+00
 Coeff:     -0.524D-03-0.281D-03-0.956D-03 0.413D-01 0.960D+00
 Gap=     0.445 Goal=   None    Shift=    0.000
 RMSDP=1.11D-07 MaxDP=5.38D-07 DE=-5.12D-09 OVMax= 1.54D-06

 Cycle   6  Pass 1  IDiag  1:
 E= -79.8344226931110     Delta-E=       -0.000000000018 Rises=F Damp=F
 DIIS: error= 6.11D-08 at cycle   6 NSaved=   6.
 NSaved= 6 IEnMin= 6 EnMin= -79.8344226931110     IErMin= 6 ErrMin= 6.11D-08
 ErrMax= 6.11D-08  0.00D+00 EMaxC= 1.00D-01 BMatC= 8.28D-14 BMatP= 1.55D-11
 IDIUse=1 WtCom= 1.00D+00 WtEn= 0.00D+00
 Coeff-Com:  0.318D-04-0.126D-03-0.395D-03-0.354D-02-0.503D-01 0.105D+01
 Coeff:      0.318D-04-0.126D-03-0.395D-03-0.354D-02-0.503D-01 0.105D+01
 Gap=     0.445 Goal=   None    Shift=    0.000
 RMSDP=1.04D-08 MaxDP=7.06D-08 DE=-1.75D-11 OVMax= 1.02D-07

 Cycle   7  Pass 1  IDiag  1:
 E= -79.8344226931108     Delta-E=        0.000000000000 Rises=F Damp=F
 DIIS: error= 1.27D-09 at cycle   7 NSaved=   7.
 NSaved= 7 IEnMin= 6 EnMin= -79.8344226931110     IErMin= 7 ErrMin= 1.27D-09
 ErrMax= 1.27D-09  0.00D+00 EMaxC= 1.00D-01 BMatC= 7.83D-17 BMatP= 8.28D-14
 IDIUse=1 WtCom= 1.00D+00 WtEn= 0.00D+00
 Coeff-Com:  0.138D-05-0.360D-05-0.134D-04-0.936D-04-0.260D-02 0.333D-01
 Coeff-Com:  0.969D+00
 Coeff:      0.138D-05-0.360D-05-0.134D-04-0.936D-04-0.260D-02 0.333D-01
 Coeff:      0.969D+00
 Gap=     0.445 Goal=   None    Shift=    0.000
 RMSDP=3.18D-10 MaxDP=3.04D-09 DE= 2.56D-13 OVMax= 4.60D-09

 SCF Done:  E(RB3LYP) =  -79.8344226931     A.U. after    7 cycles
            NFock=  7  Conv=0.32D-09     -V/T= 2.0070
 KE= 7.927602143174D+01 PE=-2.683266654421D+02 EE= 6.712117435680D+01
 Leave Link  502 at Tue Oct  6 20:13:46 2020, MaxMem=  2684354560 cpu:              18.7 elap:               1.8
 (Enter /udrive/faculty/rpeverati/g16/g16/l508.exe)
 QCSCF skips out because SCF is already converged.
 Leave Link  508 at Tue Oct  6 20:13:47 2020, MaxMem=  2684354560 cpu:               0.4 elap:               0.5
 (Enter /udrive/faculty/rpeverati/g16/g16/l701.exe)
 ... and contract with generalized density number  0.
 Compute integral first derivatives.
 R6Disp: Adding Grimme-D3(BJ) dispersion energy 1st derivatives to the gradient.
 Leave Link  701 at Tue Oct  6 20:13:48 2020, MaxMem=  2684354560 cpu:               3.7 elap:               0.8
 (Enter /udrive/faculty/rpeverati/g16/g16/l702.exe)
 L702 exits ... SP integral derivatives will be done elsewhere.
 Leave Link  702 at Tue Oct  6 20:13:49 2020, MaxMem=  2684354560 cpu:               1.0 elap:               0.5
 (Enter /udrive/faculty/rpeverati/g16/g16/l703.exe)
 Integral derivatives from FoFJK, PRISM(SPDF).
 Compute integral first derivatives, UseDBF=F ICtDFT=           0.
 Calling FoFJK, ICntrl=      2127 FMM=F ISym2X=0 I1Cent= 0 IOpClX= 0 NMat=1 NMatS=1 NMatT=0.
 FoFJK:  IHMeth= 1 ICntrl=    2127 DoSepK=F KAlg= 0 I1Cent=           0 FoldK=F
 IRaf=         0 NMat=       1 IRICut=       1 DoRegI=T DoRafI=F ISym2E= 0 IDoP0=0 IntGTp=1.
 FoFCou: FMM=F IPFlag=           0 FMFlag=      100000 FMFlg1=         800
         NFxFlg=           0 DoJE=F BraDBF=F KetDBF=F FulRan=T
         wScrn=  0.000000 ICntrl=      2127 IOpCl=  0 I1Cent=           0 NGrid=           0
         NMat0=    1 NMatS0=      1 NMatT0=    0 NMatD0=    1 NMtDS0=    0 NMtDT0=    0
 Symmetry not used in FoFCou.
 Leave Link  703 at Tue Oct  6 20:13:50 2020, MaxMem=  2684354560 cpu:               9.9 elap:               1.2
 (Enter /udrive/faculty/rpeverati/g16/g16/l716.exe)
 Dipole        =-3.67441788D-08-3.47770686D-08 7.06797398D-08
 ***** Axes restored to original set *****
 -------------------------------------------------------------------
 Center     Atomic                   Forces (Hartrees/Bohr)
 Number     Number              X              Y              Z
 -------------------------------------------------------------------
      1        6           0.000429205   -0.000000532    0.000000118
      2        6          -0.000429235    0.000000453    0.000000119
      3        1          -0.000055685    0.000021468    0.000038352
      4        1           0.000055565    0.000043984    0.000006440
      5        1          -0.000055978    0.000022282   -0.000038231
      6        1          -0.000055545   -0.000044440   -0.000000427
      7        1           0.000055736   -0.000015909   -0.000041060
      8        1           0.000055937   -0.000027305    0.000034689
 -------------------------------------------------------------------
 Cartesian Forces:  Max     0.000429235 RMS     0.000128911
 Leave Link  716 at Tue Oct  6 20:13:51 2020, MaxMem=  2684354560 cpu:               1.0 elap:               0.6
 (Enter /udrive/faculty/rpeverati/g16/g16/l103.exe)

 GradGradGradGradGradGradGradGradGradGradGradGradGradGradGradGradGradGrad
 Berny optimization.
 Optmz: redundant internal coordinate code flag= 1
 Using GEDIIS/GDIIS optimizer.
 Red2BG:  D1=  2.73D-01 OD1=  1.37D-02 B2RMS=  0.00D+00 IAprox=0
 FormGI is forming the generalized inverse of G from B-inverse, IUseBI=4.
 Internal  Forces:  Max     0.000596443 RMS     0.000118607
 Search for a local minimum.
 Step number   2 out of a maximum of  100
 All quantities printed in internal units (Hartrees-Bohrs-Radians)
 RMS Force = .11861D-03 SwitMx=.10000D-02 MixMth= 2
 Mixed Optimization -- En-DIIS/RFO-DIIS
 Update second derivatives using D2CorX and points    1    2
 DE= -1.41D-04 DEPred=-1.48D-04 R= 9.58D-01
 TightC=F SS=  1.41D+00  RLast= 2.96D-02 DXNew= 5.0454D-01 8.8926D-02
 Trust test= 9.58D-01 RLast= 2.96D-02 DXMaxT set to 3.00D-01
 The second derivative matrix:
                          R1        R2        R3        R4        R5
           R1           0.30940
           R2           0.00704   0.34771
           R3           0.00704  -0.00016   0.34771
           R4           0.00704  -0.00015  -0.00016   0.34771
           R5           0.00705  -0.00016  -0.00016  -0.00016   0.34771
           R6           0.00705  -0.00015  -0.00015  -0.00015  -0.00016
           R7           0.00705  -0.00015  -0.00016  -0.00015  -0.00016
           A1           0.00071   0.00041   0.00041   0.00041   0.00041
           A2           0.00071   0.00041   0.00041   0.00041   0.00041
           A3           0.00071   0.00041   0.00041   0.00041   0.00041
           A4          -0.00075  -0.00043  -0.00043  -0.00043  -0.00043
           A5          -0.00075  -0.00043  -0.00043  -0.00043  -0.00043
           A6          -0.00076  -0.00044  -0.00044  -0.00044  -0.00044
           A7           0.00071   0.00041   0.00041   0.00041   0.00041
           A8           0.00071   0.00041   0.00041   0.00041   0.00041
           A9           0.00071   0.00041   0.00041   0.00041   0.00041
           A10         -0.00076  -0.00044  -0.00044  -0.00044  -0.00044
           A11         -0.00075  -0.00043  -0.00043  -0.00043  -0.00043
           A12         -0.00076  -0.00044  -0.00044  -0.00044  -0.00044
           D1          -0.00001  -0.00002  -0.00002  -0.00002  -0.00002
           D2          -0.00001  -0.00002  -0.00002  -0.00002  -0.00002
           D3          -0.00001  -0.00002  -0.00002  -0.00002  -0.00002
           D4          -0.00001  -0.00002  -0.00002  -0.00002  -0.00002
           D5          -0.00001  -0.00002  -0.00002  -0.00002  -0.00002
           D6          -0.00002  -0.00003  -0.00003  -0.00003  -0.00003
           D7          -0.00001  -0.00002  -0.00002  -0.00002  -0.00002
           D8          -0.00001  -0.00002  -0.00002  -0.00002  -0.00002
           D9          -0.00001  -0.00002  -0.00002  -0.00002  -0.00002
                          R6        R7        A1        A2        A3
           R6           0.34772
           R7          -0.00015   0.34771
           A1           0.00041   0.00041   0.16004
           A2           0.00041   0.00041   0.00004   0.16004
           A3           0.00041   0.00041   0.00004   0.00004   0.16004
           A4          -0.00043  -0.00043  -0.00005  -0.00005  -0.00005
           A5          -0.00043  -0.00043  -0.00005  -0.00005  -0.00005
           A6          -0.00044  -0.00044  -0.00005  -0.00005  -0.00005
           A7           0.00041   0.00041   0.00004   0.00004   0.00004
           A8           0.00041   0.00041   0.00004   0.00004   0.00004
           A9           0.00041   0.00041   0.00004   0.00004   0.00004
           A10         -0.00044  -0.00044  -0.00005  -0.00005  -0.00005
           A11         -0.00043  -0.00043  -0.00005  -0.00005  -0.00005
           A12         -0.00044  -0.00044  -0.00005  -0.00005  -0.00005
           D1          -0.00002  -0.00002  -0.00000  -0.00000  -0.00000
           D2          -0.00002  -0.00002  -0.00000  -0.00000  -0.00000
           D3          -0.00002  -0.00002  -0.00000  -0.00000  -0.00000
           D4          -0.00002  -0.00002  -0.00000  -0.00000  -0.00000
           D5          -0.00002  -0.00002  -0.00000  -0.00000  -0.00000
           D6          -0.00003  -0.00003  -0.00000  -0.00000  -0.00000
           D7          -0.00002  -0.00002  -0.00000  -0.00000  -0.00000
           D8          -0.00002  -0.00002  -0.00000  -0.00000  -0.00000
           D9          -0.00002  -0.00002  -0.00000  -0.00000  -0.00000
                          A4        A5        A6        A7        A8
           A4           0.16005
           A5           0.00005   0.16005
           A6           0.00005   0.00005   0.16005
           A7          -0.00005  -0.00005  -0.00005   0.16004
           A8          -0.00005  -0.00005  -0.00005   0.00004   0.16004
           A9          -0.00005  -0.00005  -0.00005   0.00004   0.00004
           A10          0.00005   0.00005   0.00005  -0.00005  -0.00005
           A11          0.00005   0.00005   0.00005  -0.00005  -0.00005
           A12          0.00005   0.00005   0.00005  -0.00005  -0.00005
           D1           0.00000   0.00000   0.00000  -0.00000  -0.00000
           D2           0.00000   0.00000   0.00000  -0.00000  -0.00000
           D3           0.00000   0.00000   0.00000  -0.00000  -0.00000
           D4           0.00000   0.00000   0.00000  -0.00000  -0.00000
           D5           0.00000   0.00000   0.00000  -0.00000  -0.00000
           D6           0.00000   0.00000   0.00000  -0.00000  -0.00000
           D7           0.00000   0.00000   0.00000  -0.00000  -0.00000
           D8           0.00000   0.00000   0.00000  -0.00000  -0.00000
           D9           0.00000   0.00000   0.00000  -0.00000  -0.00000
                          A9        A10       A11       A12       D1
           A9           0.16004
           A10         -0.00005   0.16005
           A11         -0.00005   0.00005   0.16005
           A12         -0.00005   0.00005   0.00005   0.16005
           D1          -0.00000   0.00000   0.00000   0.00000   0.00420
           D2          -0.00000   0.00000   0.00000   0.00000  -0.00000
           D3          -0.00000   0.00000   0.00000   0.00000  -0.00000
           D4          -0.00000   0.00000   0.00000   0.00000  -0.00000
           D5          -0.00000   0.00000   0.00000   0.00000  -0.00000
           D6          -0.00000   0.00000   0.00000   0.00000  -0.00000
           D7          -0.00000   0.00000   0.00000   0.00000  -0.00000
           D8          -0.00000   0.00000   0.00000   0.00000  -0.00000
           D9          -0.00000   0.00000   0.00000   0.00000  -0.00000
                          D2        D3        D4        D5        D6
           D2           0.00420
           D3          -0.00000   0.00420
           D4          -0.00000  -0.00000   0.00420
           D5          -0.00000  -0.00000  -0.00000   0.00420
           D6          -0.00000  -0.00000  -0.00000  -0.00000   0.00420
           D7          -0.00000  -0.00000  -0.00000  -0.00000  -0.00000
           D8          -0.00000  -0.00000  -0.00000  -0.00000  -0.00000
           D9          -0.00000  -0.00000  -0.00000  -0.00000  -0.00000
                          D7        D8        D9
           D7           0.00420
           D8          -0.00000   0.00420
           D9          -0.00000  -0.00000   0.00420
 ITU=  1  0
 Use linear search instead of GDIIS.
 Eigenvectors of the second derivative matrix:
                           1         2         3         4         5
     Eigenvalues --     0.00419   0.05500   0.05500   0.05500   0.05500
   1         R1         0.00010   0.00000  -0.00000   0.00001   0.00001
   2         R2         0.00020   0.00000   0.00000   0.00001   0.00001
   3         R3         0.00020   0.00000   0.00000   0.00001   0.00001
   4         R4         0.00020   0.00000   0.00000   0.00001   0.00001
   5         R5         0.00020   0.00000   0.00000   0.00001   0.00001
   6         R6         0.00020   0.00000   0.00000   0.00001   0.00001
   7         R7         0.00020   0.00000   0.00000   0.00001   0.00001
   8         A1         0.00001   0.12945   0.00029  -0.00506   0.17693
   9         A2         0.00001  -0.21801   0.00003  -0.00075   0.02359
  10         A3         0.00001   0.08856  -0.00031   0.00582  -0.20052
  11         A4        -0.00001  -0.16619   0.00058  -0.01091   0.37627
  12         A5        -0.00001   0.40909  -0.00005   0.00142  -0.04427
  13         A6        -0.00001  -0.24291  -0.00054   0.00949  -0.33200
  14         A7         0.00001   0.00001  -0.21928   0.00089   0.00037
  15         A8         0.00001   0.00006   0.10886  -0.19027  -0.00566
  16         A9         0.00001  -0.00007   0.11042   0.18938   0.00529
  17         A10       -0.00001   0.00013  -0.20721  -0.35537  -0.00993
  18         A11       -0.00001  -0.00011  -0.20427   0.35704   0.01062
  19         A12       -0.00001  -0.00002   0.41148  -0.00168  -0.00070
  20         D1         0.33333   0.31249  -0.00194  -0.38012  -0.23950
  21         D2         0.33333   0.31227   0.33559   0.19874  -0.22333
  22         D3         0.33333   0.31231  -0.33468   0.20147  -0.22220
  23         D4         0.33333   0.04179  -0.00099  -0.39790   0.37342
  24         D5         0.33333   0.04157   0.33654   0.18096   0.38958
  25         D6         0.33333   0.04161  -0.33373   0.18369   0.39072
  26         D7         0.33333  -0.35388  -0.00186  -0.38243  -0.16738
  27         D8         0.33333  -0.35410   0.33566   0.19643  -0.15122
  28         D9         0.33333  -0.35406  -0.33460   0.19916  -0.15008
                           6         7         8         9        10
     Eigenvalues --     0.16000   0.16000   0.16000   0.16000   0.16000
   1         R1        -0.00000   0.00000  -0.00000   0.00000   0.00000
   2         R2         0.00002  -0.00000   0.00000  -0.00000  -0.00000
   3         R3         0.00002  -0.00000   0.00000  -0.00000  -0.00000
   4         R4         0.00002  -0.00000   0.00000  -0.00000  -0.00000
   5         R5         0.00002  -0.00000   0.00000  -0.00000  -0.00000
   6         R6         0.00002  -0.00000   0.00000  -0.00000  -0.00000
   7         R7         0.00002  -0.00000   0.00000  -0.00000  -0.00000
   8         A1         0.44812  -0.42966   0.09114  -0.09728   0.44072
   9         A2        -0.11613   0.65458  -0.08434  -0.22536   0.31232
  10         A3        -0.30256  -0.30244  -0.31995  -0.37229  -0.41561
  11         A4        -0.17692  -0.11987  -0.00362   0.17194  -0.40130
  12         A5        -0.07757   0.39014   0.12194   0.25024  -0.01338
  13         A6         0.22313  -0.18766   0.21545   0.31849   0.05504
  14         A7         0.05839   0.08671   0.68177  -0.13435  -0.32203
  15         A8        -0.52529  -0.18284   0.02245   0.45954   0.27537
  16         A9         0.43964   0.17496  -0.39015   0.37013  -0.29058
  17         A10        0.24881   0.05123  -0.37528  -0.17329   0.02487
  18         A11       -0.26541  -0.13945  -0.15541  -0.12565   0.32647
  19         A12        0.04564   0.00420   0.19595  -0.44214   0.00810
  20         D1        -0.00000   0.00000  -0.00000   0.00000  -0.00000
  21         D2        -0.00000   0.00000  -0.00000   0.00000  -0.00000
  22         D3        -0.00000   0.00000  -0.00000   0.00000  -0.00000
  23         D4        -0.00000   0.00000  -0.00000   0.00000   0.00000
  24         D5        -0.00000   0.00000  -0.00000   0.00000   0.00000
  25         D6        -0.00000   0.00000  -0.00000   0.00000   0.00000
  26         D7        -0.00000   0.00000  -0.00000   0.00000   0.00000
  27         D8        -0.00000   0.00000  -0.00000   0.00000   0.00000
  28         D9        -0.00000   0.00000  -0.00000   0.00000  -0.00000
                          11        12        13        14        15
     Eigenvalues --     0.16045   0.30268   0.34786   0.34787   0.34787
   1         R1         0.01498  -0.93144  -0.00004   0.00005   0.00010
   2         R2         0.00728   0.14847   0.89258  -0.16525   0.00918
   3         R3         0.00728   0.14854  -0.13970   0.24082  -0.06657
   4         R4         0.00728   0.14849  -0.35569  -0.82800   0.01962
   5         R5         0.00728   0.14859  -0.07646   0.08741  -0.00895
   6         R6         0.00728   0.14853  -0.15777   0.31915  -0.68127
   7         R7         0.00728   0.14854  -0.16289   0.34586   0.72862
   8         A1        -0.27894  -0.00209  -0.00000   0.00000   0.00000
   9         A2        -0.27896  -0.00208  -0.00000   0.00000   0.00000
  10         A3        -0.28020  -0.00209  -0.00000   0.00000   0.00000
  11         A4         0.29731   0.00222   0.00000  -0.00000  -0.00000
  12         A5         0.29797   0.00223   0.00000  -0.00000  -0.00000
  13         A6         0.29798   0.00222   0.00000  -0.00000  -0.00000
  14         A7        -0.27882  -0.00208  -0.00000   0.00000   0.00000
  15         A8        -0.27993  -0.00208  -0.00000   0.00000   0.00000
  16         A9        -0.27871  -0.00209  -0.00000   0.00000   0.00000
  17         A10        0.29776   0.00222   0.00000  -0.00000  -0.00000
  18         A11        0.29711   0.00222   0.00000  -0.00000  -0.00000
  19         A12        0.29771   0.00222   0.00000  -0.00000  -0.00000
  20         D1         0.00001  -0.00003   0.00000  -0.00000  -0.00000
  21         D2         0.00001  -0.00003   0.00000  -0.00000  -0.00000
  22         D3         0.00001  -0.00003   0.00000  -0.00000  -0.00000
  23         D4         0.00001  -0.00003   0.00000  -0.00000  -0.00000
  24         D5         0.00001  -0.00003   0.00000  -0.00000  -0.00000
  25         D6         0.00001  -0.00003   0.00000  -0.00000  -0.00000
  26         D7         0.00001  -0.00003   0.00000  -0.00000  -0.00000
  27         D8         0.00001  -0.00003   0.00000  -0.00000  -0.00000
  28         D9         0.00001  -0.00003   0.00000  -0.00000  -0.00000
                          16        17        18
     Eigenvalues --     0.34787   0.34787   0.35376
   1         R1        -0.00051  -0.00039   0.36358
   2         R2         0.02993   0.09099   0.38032
   3         R3        -0.82782   0.25841   0.37931
   4         R4         0.05949   0.13099   0.38041
   5         R5        -0.04284  -0.90475   0.37932
   6         R6         0.44250   0.21422   0.38119
   7         R7         0.33561   0.20813   0.38065
   8         A1        -0.00001  -0.00001   0.00613
   9         A2        -0.00001  -0.00001   0.00616
  10         A3        -0.00001  -0.00001   0.00620
  11         A4         0.00001   0.00001  -0.00656
  12         A5         0.00001   0.00001  -0.00657
  13         A6         0.00001   0.00001  -0.00657
  14         A7        -0.00001  -0.00001   0.00615
  15         A8        -0.00001  -0.00001   0.00620
  16         A9        -0.00001  -0.00001   0.00613
  17         A10        0.00001   0.00001  -0.00657
  18         A11        0.00001   0.00001  -0.00655
  19         A12        0.00001   0.00001  -0.00657
  20         D1         0.00000   0.00000  -0.00015
  21         D2         0.00000   0.00000  -0.00016
  22         D3         0.00000   0.00000  -0.00016
  23         D4         0.00000   0.00000  -0.00017
  24         D5         0.00000   0.00000  -0.00018
  25         D6         0.00000   0.00000  -0.00018
  26         D7         0.00000   0.00000  -0.00015
  27         D8         0.00000   0.00000  -0.00016
  28         D9         0.00000   0.00000  -0.00016
 Iter=   1 RLamda= 0.00000000D+00 Sum=-9.23104855D-07.
 Iter=   2 RLamda=-9.23104855D-07 Sum=-9.23100269D-07.
 RFO step:  Lambda=-9.23104855D-07 EMin= 4.19471163D-03
 Quartic linear search produced a step of -0.03490.
 Iteration  1 RMS(Cart)=  0.00072297 RMS(Int)=  0.00000004
 Iteration  2 RMS(Cart)=  0.00000004 RMS(Int)=  0.00000000
 ITry= 1 IFail=0 DXMaxC= 1.41D-03 DCOld= 1.00D+10 DXMaxT= 3.00D-01 DXLimC= 3.00D+00 Rises=F
 Variable       Old X    -DE/DX   Delta X   Delta X   Delta X     New X
                                 (Linear)    (Quad)   (Total)
    R1        2.89389  -0.00060  -0.00034  -0.00157  -0.00191   2.89198
    R2        2.07146  -0.00006  -0.00039   0.00025  -0.00014   2.07132
    R3        2.07146  -0.00006  -0.00039   0.00025  -0.00014   2.07132
    R4        2.07146  -0.00006  -0.00039   0.00025  -0.00014   2.07132
    R5        2.07146  -0.00006  -0.00039   0.00025  -0.00014   2.07132
    R6        2.07146  -0.00006  -0.00039   0.00025  -0.00014   2.07132
    R7        2.07146  -0.00006  -0.00039   0.00025  -0.00014   2.07132
    A1        1.94294  -0.00003  -0.00004  -0.00016  -0.00021   1.94273
    A2        1.94293  -0.00003  -0.00004  -0.00017  -0.00021   1.94273
    A3        1.94294  -0.00004  -0.00004  -0.00017  -0.00021   1.94273
    A4        1.87725   0.00004   0.00004   0.00018   0.00022   1.87748
    A5        1.87726   0.00004   0.00004   0.00018   0.00022   1.87748
[...]
  19         A12       -0.11956  -0.10203  -0.07677   0.44213  -0.10010
  20         D1         0.00001  -0.00000   0.00000   0.00000   0.00000
  21         D2         0.00001  -0.00000   0.00000   0.00000   0.00000
  22         D3         0.00001  -0.00000   0.00000   0.00000   0.00000
  23         D4         0.00001  -0.00000   0.00000   0.00000   0.00000
  24         D5         0.00001  -0.00000   0.00000   0.00000   0.00000
  25         D6         0.00001  -0.00000   0.00000   0.00000   0.00000
  26         D7         0.00001  -0.00000   0.00000   0.00000   0.00000
  27         D8         0.00001  -0.00000   0.00000   0.00000   0.00000
  28         D9         0.00001  -0.00000   0.00000   0.00000   0.00000
                          11        12        13        14        15
     Eigenvalues --     0.16963   0.30891   0.34577   0.34786   0.34787
   1         R1         0.27380   0.93522   0.22372   0.00304   0.00107
   2         R2         0.01205  -0.10233   0.36542   0.79737  -0.03864
   3         R3         0.01191  -0.09677   0.40999  -0.03171   0.29533
   4         R4         0.01198  -0.09634   0.41181  -0.11932  -0.85131
   5         R5         0.01190  -0.09699   0.40862  -0.01900   0.10229
   6         R6         0.01201  -0.09619   0.41223  -0.01679   0.41007
   7         R7         0.01205  -0.10241   0.36487  -0.59017   0.08907
   8         A1        -0.26809   0.07271   0.02616   0.00032   0.00011
   9         A2        -0.26897   0.07295   0.02626   0.00032   0.00011
  10         A3        -0.26890   0.07141   0.02576   0.00031   0.00010
  11         A4         0.28617  -0.07773  -0.02798  -0.00034  -0.00011
  12         A5         0.28606  -0.07686  -0.02769  -0.00034  -0.00011
  13         A6         0.28644  -0.07668  -0.02763  -0.00034  -0.00011
  14         A7        -0.26866   0.07296   0.02626   0.00032   0.00011
  15         A8        -0.26897   0.07141   0.02577   0.00031   0.00010
  16         A9        -0.26796   0.07274   0.02617   0.00032   0.00011
  17         A10        0.28632  -0.07668  -0.02763  -0.00034  -0.00011
  18         A11        0.28591  -0.07777  -0.02799  -0.00034  -0.00011
  19         A12        0.28605  -0.07686  -0.02769  -0.00034  -0.00011
  20         D1         0.00046   0.00136   0.00043   0.00001   0.00000
  21         D2         0.00056   0.00107   0.00032   0.00000   0.00000
  22         D3         0.00053   0.00116   0.00035   0.00000   0.00000
  23         D4         0.00055   0.00118   0.00036   0.00000   0.00000
  24         D5         0.00065   0.00090   0.00025   0.00000   0.00000
  25         D6         0.00062   0.00099   0.00028   0.00000   0.00000
  26         D7         0.00045   0.00147   0.00047   0.00001   0.00000
  27         D8         0.00055   0.00118   0.00036   0.00000   0.00000
  28         D9         0.00052   0.00127   0.00039   0.00000   0.00000
                          16        17        18
     Eigenvalues --     0.34787   0.34787   0.34787
   1         R1         0.00071  -0.00303   0.01749
   2         R2        -0.00038  -0.04091   0.46571
   3         R3         0.72275   0.39933  -0.22879
   4         R4        -0.07445   0.19740  -0.19368
   5         R5         0.04692  -0.81927  -0.37316
   6         R6        -0.68545   0.34447  -0.25243
   7         R7        -0.00631  -0.10008   0.69996
   8         A1         0.00004  -0.00030   0.00184
   9         A2         0.00004  -0.00030   0.00185
  10         A3         0.00004  -0.00029   0.00182
  11         A4        -0.00005   0.00032  -0.00197
  12         A5        -0.00005   0.00031  -0.00195
  13         A6        -0.00005   0.00031  -0.00195
  14         A7         0.00004  -0.00030   0.00185
  15         A8         0.00004  -0.00029   0.00182
  16         A9         0.00004  -0.00030   0.00184
  17         A10       -0.00005   0.00031  -0.00195
  18         A11       -0.00005   0.00032  -0.00197
  19         A12       -0.00005   0.00031  -0.00195
  20         D1         0.00000  -0.00000   0.00003
  21         D2         0.00000  -0.00000   0.00002
  22         D3         0.00000  -0.00000   0.00002
  23         D4         0.00000  -0.00000   0.00002
  24         D5         0.00000  -0.00000   0.00002
  25         D6         0.00000  -0.00000   0.00002
  26         D7         0.00000  -0.00000   0.00003
  27         D8         0.00000  -0.00000   0.00002
  28         D9         0.00000  -0.00000   0.00003
 DoSqrt=T IScMMF=    -3 MM Scaling Factor =       0.00000
 En-DIIS/RFO-DIIS/Sim-DIIS IScMMF=       -3 using points:     3    2
 Iter=   1 RLamda=-4.58265963D-02 Sum=-3.17840008D-08.
 Iter=   2 RLamda=-3.17840008D-08 Sum=-4.20133719D-08.
 Iter=   3 RLamda=-4.20133719D-08 Sum=-4.20133643D-08.
 RFO step:  Lambda=-4.20133719D-08.
 NNeg= 0 NGDIIS= 2 SimSw=  2.50D-03 Rises=F DC= -4.67D-07 SmlDif=  1.00D-05
 NRisDI= 0 DoIntr=F SqrtH=F CThrHd= 10.0 CDAdj=  3.0
 RMS Error=  0.1637490339D-03 NUsed= 2 OKEnD=F EnDIS=F
 Total RFO-DIIS matrix:
                 1             2             3 
      1   0.000000D+00 -0.100000D+01 -0.100000D+01
      2  -0.100000D+01  0.750785D-06  0.139219D-05
      3  -0.100000D+01  0.139219D-05  0.787746D-05
 InvSVX:  RCond= 1.46D-06 Info=           0 Equed=N FErr=  1.42D-15 BErr=  5.00D-17
 DidBck=F Rises=F RFO-DIIS coefs:    1.10976   -0.10976
 Iteration  1 RMS(Cart)=  0.00015995 RMS(Int)=  0.00000002
 Iteration  2 RMS(Cart)=  0.00000002 RMS(Int)=  0.00000001
 ITry= 1 IFail=0 DXMaxC= 2.63D-04 DCOld= 1.00D+10 DXMaxT= 3.00D-01 DXLimC= 3.00D+00 Rises=F
 Variable       Old X    -DE/DX   Delta X   Delta X   Delta X     New X
                                 (Linear)    (Quad)   (Total)
    R1        2.89198   0.00001  -0.00021   0.00017  -0.00004   2.89194
    R2        2.07132  -0.00001  -0.00002  -0.00000  -0.00002   2.07130
    R3        2.07132  -0.00001  -0.00002  -0.00000  -0.00002   2.07130
    R4        2.07132  -0.00001  -0.00002  -0.00000  -0.00002   2.07130
    R5        2.07132  -0.00001  -0.00002  -0.00000  -0.00002   2.07130
    R6        2.07132  -0.00001  -0.00002  -0.00000  -0.00002   2.07130
    R7        2.07132  -0.00001  -0.00002  -0.00000  -0.00002   2.07130
    A1        1.94273   0.00002  -0.00002   0.00015   0.00013   1.94286
    A2        1.94273   0.00002  -0.00002   0.00016   0.00013   1.94286
    A3        1.94273   0.00002  -0.00002   0.00015   0.00013   1.94286
    A4        1.87748  -0.00003   0.00002  -0.00017  -0.00014   1.87733
    A5        1.87748  -0.00002   0.00002  -0.00017  -0.00014   1.87734
    A6        1.87747  -0.00002   0.00002  -0.00016  -0.00014   1.87734
    A7        1.94273   0.00002  -0.00002   0.00016   0.00013   1.94286
    A8        1.94273   0.00002  -0.00002   0.00015   0.00013   1.94286
    A9        1.94273   0.00002  -0.00002   0.00015   0.00013   1.94286
   A10        1.87747  -0.00002   0.00002  -0.00016  -0.00014   1.87734
   A11        1.87748  -0.00003   0.00002  -0.00017  -0.00014   1.87733
   A12        1.87748  -0.00002   0.00002  -0.00016  -0.00014   1.87734
    D1        1.04677   0.00000   0.00005   0.00020   0.00024   1.04701
    D2       -1.04762   0.00000   0.00005   0.00019   0.00024  -1.04738
    D3        3.14117   0.00000   0.00005   0.00020   0.00024   3.14141
    D4        3.14117   0.00000   0.00005   0.00020   0.00024   3.14141
    D5        1.04677   0.00000   0.00005   0.00019   0.00024   1.04701
    D6       -1.04762   0.00000   0.00005   0.00019   0.00024  -1.04738
    D7       -1.04763   0.00000   0.00005   0.00020   0.00024  -1.04738
    D8        3.14117   0.00000   0.00005   0.00020   0.00024   3.14141
    D9        1.04677   0.00000   0.00005   0.00020   0.00024   1.04701
         Item               Value     Threshold  Converged?
 Maximum Force            0.000025     0.000450     YES
 RMS     Force            0.000016     0.000300     YES
 Maximum Displacement     0.000263     0.001800     YES
 RMS     Displacement     0.000160     0.001200     YES
 Predicted change in Energy=-2.100670D-08
 Optimization completed.
    -- Stationary point found.
                           ----------------------------
                           !   Optimized Parameters   !
                           ! (Angstroms and Degrees)  !
 --------------------------                            --------------------------
 ! Name  Definition              Value          Derivative Info.                !
 --------------------------------------------------------------------------------
 ! R1    R(1,2)                  1.5304         -DE/DX =    0.0                 !
 ! R2    R(1,4)                  1.0961         -DE/DX =    0.0                 !
 ! R3    R(1,7)                  1.0961         -DE/DX =    0.0                 !
 ! R4    R(1,8)                  1.0961         -DE/DX =    0.0                 !
 ! R5    R(2,3)                  1.0961         -DE/DX =    0.0                 !
 ! R6    R(2,5)                  1.0961         -DE/DX =    0.0                 !
 ! R7    R(2,6)                  1.0961         -DE/DX =    0.0                 !
 ! A1    A(2,1,4)              111.3102         -DE/DX =    0.0                 !
 ! A2    A(2,1,7)              111.31           -DE/DX =    0.0                 !
 ! A3    A(2,1,8)              111.31           -DE/DX =    0.0                 !
 ! A4    A(4,1,7)              107.5715         -DE/DX =    0.0                 !
 ! A5    A(4,1,8)              107.5715         -DE/DX =    0.0                 !
 ! A6    A(7,1,8)              107.5714         -DE/DX =    0.0                 !
 ! A7    A(1,2,3)              111.31           -DE/DX =    0.0                 !
 ! A8    A(1,2,5)              111.31           -DE/DX =    0.0                 !
 ! A9    A(1,2,6)              111.3102         -DE/DX =    0.0                 !
 ! A10   A(3,2,5)              107.5714         -DE/DX =    0.0                 !
 ! A11   A(3,2,6)              107.5715         -DE/DX =    0.0                 !
 ! A12   A(5,2,6)              107.5715         -DE/DX =    0.0                 !
 ! D1    D(4,1,2,3)             59.9755         -DE/DX =    0.0                 !
 ! D2    D(4,1,2,5)            -60.0243         -DE/DX =    0.0                 !
 ! D3    D(4,1,2,6)            179.9756         -DE/DX =    0.0                 !
 ! D4    D(7,1,2,3)            179.9756         -DE/DX =    0.0                 !
 ! D5    D(7,1,2,5)             59.9757         -DE/DX =    0.0                 !
 ! D6    D(7,1,2,6)            -60.0243         -DE/DX =    0.0                 !
 ! D7    D(8,1,2,3)            -60.0246         -DE/DX =    0.0                 !
 ! D8    D(8,1,2,5)            179.9756         -DE/DX =    0.0                 !
 ! D9    D(8,1,2,6)             59.9755         -DE/DX =    0.0                 !
 --------------------------------------------------------------------------------
 Lowest energy point so far.  Saving SCF results.
 Largest change from initial coordinates is atom    7       2.135 Angstoms.
 GradGradGradGradGradGradGradGradGradGradGradGradGradGradGradGradGradGrad

 Leave Link  103 at Tue Oct  6 20:14:03 2020, MaxMem=  2684354560 cpu:               2.0 elap:               0.6
 (Enter /udrive/faculty/rpeverati/g16/g16/l202.exe)
                          Input orientation:                          
 ---------------------------------------------------------------------
 Center     Atomic      Atomic             Coordinates (Angstroms)
 Number     Number       Type             X           Y           Z
 ---------------------------------------------------------------------
      1          6           0       -0.765185   -0.000001    0.000000
      2          6           0        0.765185    0.000001    0.000002
      3          1           0        1.163522   -0.445242   -0.918970
      4          1           0       -1.163523   -1.018443   -0.074329
      5          1           0        1.163521   -0.573232    0.845078
      6          1           0        1.163523    1.018474    0.073897
      7          1           0       -1.163522    0.444850    0.919161
      8          1           0       -1.163521    0.573592   -0.844832
 ---------------------------------------------------------------------
                    Distance matrix (angstroms):
                    1          2          3          4          5
     1  C    0.000000
     2  C    1.530371   0.000000
     3  H    2.182351   1.096094   0.000000
     4  H    1.096094   2.182354   2.541086   0.000000
     5  H    2.182352   1.096094   1.768684   2.541389   0.000000
     6  H    2.182354   1.096094   1.768686   3.096150   1.768686
     7  H    1.096094   2.182351   3.096147   1.768686   2.541084
     8  H    1.096093   2.182352   2.541387   1.768686   3.096147
                    6          7          8
     6  H    0.000000
     7  H    2.541388   0.000000
     8  H    2.541086   1.768684   0.000000
 Stoichiometry    C2H6
 Framework group  C1[X(C2H6)]
 Deg. of freedom    18
 Full point group                 C1      NOp   1
 RotChk:  IX=3 Diff= 3.16D-09
 Largest Abelian subgroup         C1      NOp   1
 Largest concise Abelian subgroup C1      NOp   1
                         Standard orientation:                         
 ---------------------------------------------------------------------
 Center     Atomic      Atomic             Coordinates (Angstroms)
 Number     Number       Type             X           Y           Z
 ---------------------------------------------------------------------
      1          6           0       -0.765185   -0.000000   -0.000000
      2          6           0        0.765185    0.000000    0.000000
      3          1           0        1.163521   -0.535453   -0.869506
      4          1           0       -1.163524   -1.020752    0.028527
      5          1           0        1.163521   -0.485290    0.898467
      6          1           0        1.163524    1.020740   -0.028961
      7          1           0       -1.163521    0.535082    0.869734
      8          1           0       -1.163521    0.485673   -0.898260
 ---------------------------------------------------------------------
 Rotational constants (GHZ):          80.1495144          19.9037086          19.9037036
 Leave Link  202 at Tue Oct  6 20:14:04 2020, MaxMem=  2684354560 cpu:               1.0 elap:               0.4
 (Enter /udrive/faculty/rpeverati/g16/g16/l601.exe)
 Copying SCF densities to generalized density rwf, IOpCl= 0 IROHF=0.

 **********************************************************************

            Population analysis using the SCF density.

 **********************************************************************

 Orbital symmetries:
       Occupied  (A) (A) (A) (A) (A) (A) (A) (A) (A)
       Virtual   (A) (A) (A) (A) (A) (A) (A) (A) (A) (A) (A) (A)
                 (A) (A) (A) (A) (A) (A) (A) (A) (A) (A) (A) (A)
                 (A) (A) (A) (A) (A) (A) (A)
 The electronic state is 1-A.
 Alpha  occ. eigenvalues --  -10.16438 -10.16424  -0.74745  -0.61184  -0.43024
 Alpha  occ. eigenvalues --   -0.43024  -0.36265  -0.34013  -0.34013
 Alpha virt. eigenvalues --    0.10489   0.15650   0.16378   0.16378   0.19019
 Alpha virt. eigenvalues --    0.19019   0.24253   0.51346   0.54397   0.54397
 Alpha virt. eigenvalues --    0.63671   0.63672   0.66900   0.88319   0.88319
 Alpha virt. eigenvalues --    0.90650   0.91992   0.91992   0.98160   1.07941
 Alpha virt. eigenvalues --    1.44426   1.52579   1.52579   1.93265   1.98139
 Alpha virt. eigenvalues --    1.98139   2.27074   2.27074   2.33243   2.33243
 Alpha virt. eigenvalues --    2.59109
          Condensed to atoms (all electrons):
               1          2          3          4          5          6
     1  C    5.005907   0.377147  -0.034090   0.383676  -0.034090  -0.034089
     2  C    0.377147   5.005907   0.383676  -0.034089   0.383676   0.383676
     3  H   -0.034090   0.383676   0.574261  -0.003743  -0.032459  -0.032459
     4  H    0.383676  -0.034089  -0.003743   0.574261  -0.003735   0.004611
     5  H   -0.034090   0.383676  -0.032459  -0.003735   0.574261  -0.032459
     6  H   -0.034089   0.383676  -0.032459   0.004611  -0.032459   0.574261
     7  H    0.383676  -0.034090   0.004611  -0.032459  -0.003743  -0.003735
     8  H    0.383676  -0.034090  -0.003735  -0.032459   0.004611  -0.003743
               7          8
     1  C    0.383676   0.383676
     2  C   -0.034090  -0.034090
     3  H    0.004611  -0.003735
     4  H   -0.032459  -0.032459
     5  H   -0.003743   0.004611
     6  H   -0.003735  -0.003743
     7  H    0.574261  -0.032459
     8  H   -0.032459   0.574261
 Mulliken charges:
               1
     1  C   -0.431812
     2  C   -0.431812
     3  H    0.143937
     4  H    0.143937
     5  H    0.143937
     6  H    0.143937
     7  H    0.143937
     8  H    0.143937
 Sum of Mulliken charges =  -0.00000
 Mulliken charges with hydrogens summed into heavy atoms:
               1
     1  C   -0.000000
     2  C    0.000000
 Electronic spatial extent (au):  <R**2>=            109.6485
 Charge=             -0.0000 electrons
 Dipole moment (field-independent basis, Debye):
    X=             -0.0000    Y=              0.0000    Z=              0.0000  Tot=              0.0000
 Quadrupole moment (field-independent basis, Debye-Ang):
   XX=            -15.2433   YY=            -14.7118   ZZ=            -14.7118
   XY=              0.0000   XZ=              0.0000   YZ=             -0.0000
 Traceless Quadrupole moment (field-independent basis, Debye-Ang):
   XX=             -0.3544   YY=              0.1772   ZZ=              0.1772
   XY=              0.0000   XZ=              0.0000   YZ=             -0.0000
 Octapole moment (field-independent basis, Debye-Ang**2):
  XXX=             -0.0000  YYY=             -0.0001  ZZZ=              0.0006  XYY=              0.0000
  XXY=             -0.0000  XXZ=              0.0000  XZZ=              0.0000  YZZ=              0.0001
  YYZ=             -0.0006  XYZ=              0.0000
 Hexadecapole moment (field-independent basis, Debye-Ang**3):
 XXXX=            -92.7182 YYYY=            -28.6535 ZZZZ=            -28.6535 XXXY=              0.0000
 XXXZ=              0.0000 YYYX=              1.1953 YYYZ=             -0.0000 ZZZX=              0.1012
 ZZZY=             -0.0000 XXYY=            -19.1513 XXZZ=            -19.1513 YYZZ=             -9.5512
 XXYZ=             -0.0000 YYXZ=             -0.1012 ZZXY=             -1.1953
 N-N= 4.210965150892D+01 E-N=-2.683574765771D+02  KE= 7.927828629421D+01
 No NMR shielding tensors so no spin-rotation constants.
 Leave Link  601 at Tue Oct  6 20:14:05 2020, MaxMem=  2684354560 cpu:               3.6 elap:               0.6
 (Enter /udrive/faculty/rpeverati/g16/g16/l9999.exe)

 Test job not archived.
 1\1\GINC-NODE33\FOpt\RB3LYP\6-31G(d)\C2H6\RPEVERATI\06-Oct-2020\0\\#P 
 Opt(MaxCyc=100) B3LYP/6-31G* 5D 7F Integral=UltraFineGrid SCF=(NoSymm,
 XQC,MaxCyc=120) IOp(1/33=1) EmpiricalDispersion=GD3BJ\\TS search on BH
 76.\\0,1\C,-0.7651854711,-0.0000012832,0.0000001815\C,0.7651854986,0.0
 000006286,0.0000015503\H,1.1635221313,-0.4452421732,-0.9189696682\H,-1
 .1635230755,-1.0184433179,-0.0743290377\H,1.163521222,-0.5732321863,0.
 8450777572\H,1.1635230251,1.0184742576,0.0738969479\H,-1.1635220271,0.
 4448497598,0.9191611812\H,-1.1635213033,0.5735916755,-0.844831514\\Ver
 sion=ES64L-G16RevA.03\State=1-A\HF=-79.8344232\RMSD=7.537e-10\RMSF=2.0
 30e-05\Dipole=0.,0.,0.\Quadrupole=-0.2634547,0.1317305,0.1317242,0.000
 0025,0.0000006,0.0000003\PG=C01 [X(C2H6)]\\@


 TERRY FORSTER, PORTLY ATLANTA BRAVES RELIEVER,
 ANNOUNCING THAT HE WAS GOING TO A FAT FARM:
 "A WAIST IS A TERRIBLE THING TO MIND."
 Job cpu time:       0 days  0 hours  2 minutes 48.8 seconds.
 Elapsed time:       0 days  0 hours  0 minutes 30.2 seconds.
 File lengths (MBytes):  RWF=      5 Int=      0 D2E=      0 Chk=      1 Scr=      1
 Normal termination of Gaussian 16 at Tue Oct  6 20:14:06 2020.
