 Entering Gaussian System, Link 0=g16
 Input=MN_35_fch3clcomp1_BH76_B3LYP_6-31Gs.in
 Output=MN_35_fch3clcomp1_BH76_B3LYP_6-31Gs.log
 Initial command:
 /udrive/faculty/rpeverati/g16/g16/l1.exe "/udrive/scratch-directories/gaussian09/rpeverati/Gau-13825.inp" -scrdir="/udrive/scratch-directories/gaussian09/rpeverati/"
 Entering Link 1 = /udrive/faculty/rpeverati/g16/g16/l1.exe PID=     13826.
  
 Copyright (c) 1988,1990,1992,1993,1995,1998,2003,2009,2016,
            Gaussian, Inc.  All Rights Reserved.
  
 This is part of the Gaussian(R) 16 program.  It is based on
 the Gaussian(R) 09 system (copyright 2009, Gaussian, Inc.),
 the Gaussian(R) 03 system (copyright 2003, Gaussian, Inc.),
 the Gaussian(R) 98 system (copyright 1998, Gaussian, Inc.),
 the Gaussian(R) 94 system (copyright 1995, Gaussian, Inc.),
 the Gaussian 92(TM) system (copyright 1992, Gaussian, Inc.),
 the Gaussian 90(TM) system (copyright 1990, Gaussian, Inc.),
 the Gaussian 88(TM) system (copyright 1988, Gaussian, Inc.),
 the Gaussian 86(TM) system (copyright 1986, Carnegie Mellon
 University), and the Gaussian 82(TM) system (copyright 1983,
 Carnegie Mellon University). Gaussian is a federally registered
 trademark of Gaussian, Inc.
  
 This software contains proprietary and confidential information,
 including trade secrets, belonging to Gaussian, Inc.
  
 This software is provided under written license and may be
 used, copied, transmitted, or stored only in accord with that
 written license.
  
 The following legend is applicable only to US Government
 contracts under FAR:
  
                    RESTRICTED RIGHTS LEGEND
  
 Use, reproduction and disclosure by the US Government is
 subject to restrictions as set forth in subparagraphs (a)
 and (c) of the Commercial Computer Software - Restricted
 Rights clause in FAR 52.227-19.
  
 Gaussian, Inc.
 340 Quinnipiac St., Bldg. 40, Wallingford CT 06492
  
  
 ---------------------------------------------------------------
 Warning -- This program may not be used in any manner that
 competes with the business of Gaussian, Inc. or will provide
 assistance to any competitor of Gaussian, Inc.  The licensee
 of this program is prohibited from giving any competitor of
 Gaussian, Inc. access to this program.  By using this program,
 the user acknowledges that Gaussian, Inc. is engaged in the
 business of creating and licensing software in the field of
 computational chemistry and represents and warrants to the
 licensee that it is not a competitor of Gaussian, Inc. and that
 it will not use this program in any manner prohibited above.
 ---------------------------------------------------------------
  

 Cite this work as:
 Gaussian 16, Revision A.03,
 M. J. Frisch, G. W. Trucks, H. B. Schlegel, G. E. Scuseria, 
 M. A. Robb, J. R. Cheeseman, G. Scalmani, V. Barone, 
 G. A. Petersson, H. Nakatsuji, X. Li, M. Caricato, A. V. Marenich, 
 J. Bloino, B. G. Janesko, R. Gomperts, B. Mennucci, H. P. Hratchian, 
 J. V. Ortiz, A. F. Izmaylov, J. L. Sonnenberg, D. Williams-Young, 
 F. Ding, F. Lipparini, F. Egidi, J. Goings, B. Peng, A. Petrone, 
 T. Henderson, D. Ranasinghe, V. G. Zakrzewski, J. Gao, N. Rega, 
 G. Zheng, W. Liang, M. Hada, M. Ehara, K. Toyota, R. Fukuda, 
 J. Hasegawa, M. Ishida, T. Nakajima, Y. Honda, O. Kitao, H. Nakai, 
 T. Vreven, K. Throssell, J. A. Montgomery, Jr., J. E. Peralta, 
 F. Ogliaro, M. J. Bearpark, J. J. Heyd, E. N. Brothers, K. N. Kudin, 
 V. N. Staroverov, T. A. Keith, R. Kobayashi, J. Normand, 
 K. Raghavachari, A. P. Rendell, J. C. Burant, S. S. Iyengar, 
 J. Tomasi, M. Cossi, J. M. Millam, M. Klene, C. Adamo, R. Cammi, 
 J. W. Ochterski, R. L. Martin, K. Morokuma, O. Farkas, 
 J. B. Foresman, and D. J. Fox, Gaussian, Inc., Wallingford CT, 2016.
 
 ******************************************
 Gaussian 16:  ES64L-G16RevA.03 25-Dec-2016
                 6-Oct-2020 
 ******************************************
 %NoSave
 %nproc=12
 Will use up to   12 processors via shared memory.
 %mem=20GB
 %chk=MN_35_fch3clcomp1_BH76_B3LYP_6-31Gs
 ----------------------------------------------------------------------
 #P Opt(MaxCyc=100) B3LYP/6-31G* 5D 7F Integral=UltraFineGrid SCF=(NoSy
 mm,XQC,MaxCyc=120) IOp(1/33=1) EmpiricalDispersion=GD3BJ
 ----------------------------------------------------------------------
 1/6=100,18=20,19=15,26=4,33=1,38=1/1,3;
 2/9=110,12=2,17=6,18=5,40=1/2;
 3/5=1,6=6,7=1,8=11,11=2,25=1,30=1,71=1,74=-5,75=-5,124=41/1,2,3;
 4/9=2/1;
 5/5=2,7=120,8=3,13=1,38=5/2,8;
 6/7=2,8=2,9=2,10=2,28=1/1;
 7//1,2,3,16;
 1/6=100,18=20,19=15,26=4,33=1/3(2);
 2/9=110/2;
 99//99;
 2/9=110/2;
 3/5=1,6=6,7=1,8=11,11=2,25=1,30=1,71=1,74=-5,75=-5,124=41/1,2,3;
 4/5=5,9=2,16=3,69=1/1;
 5/5=2,7=120,8=3,13=1,38=5/2,8;
 7//1,2,3,16;
 1/6=100,18=20,19=15,26=4,33=1/3(-5);
 2/9=110/2;
 6/7=2,8=2,9=2,10=2,19=2,28=1/1;
 99/9=1/99;
 Leave Link    1 at Tue Oct  6 20:15:12 2020, MaxMem=  2684354560 cpu:               8.6 elap:               0.9
 (Enter /udrive/faculty/rpeverati/g16/g16/l101.exe)
 ONIOM data not found on unit 2.
 ------------------
 TS search on BH76.
 ------------------
 TstMul:  ICh=    -1
 TstMul:  Mul=     1
 TstMul:  ICh=    -1
 TstMul:  Mul=     1
 Symbolic Z-matrix:
 Charge = -1 Multiplicity = 1
 Cl                    0.        0.        2.12296 
 C                     0.        0.        0.27247 
 H                    -0.51316  -0.88882  -0.05531 
 H                    -0.51316   0.88882  -0.05531 
 H                     1.02632   0.       -0.05531 
 F                     0.        0.       -2.22949 
 
 RdStrC is calling ZToCFu for IStruc=1 NZ=     6.
 PrtBox:  NBox=     2 Levels=  1 BoxLen=    8.00 SMaxX=        8.22
          Shift=            0.969735            1.679630            4.213119
 Box      1 Number                   0 centers from      1 to      5:
 Box      2 Number                   1 centers from      6 to      6:
 After GenITR:
 ITRead=  0  0  0  0  0  0
 MicOpt= -1 -1 -1 -1 -1 -1
 Add virtual bond connecting atoms F6         and C2         Dist= 4.73D+00.
 Add virtual bond connecting atoms F6         and H3         Dist= 4.54D+00.
 Add virtual bond connecting atoms F6         and H4         Dist= 4.54D+00.
 Add virtual bond connecting atoms F6         and H5         Dist= 4.54D+00.
 Add atom      6 valence  4 ND=      0 dihedral       4      3      6      2
 Add atom      6 valence  4 ND=      0 dihedral       5      3      6      2
 Add atom      6 valence  4 ND=      0 dihedral       5      4      6      2
 ITRead=  0  0  0  0  0  0
 MicOpt= -1 -1 -1 -1 -1 -1
 NAtoms=      6 NQM=        6 NQMF=       0 NMMI=      0 NMMIF=      0
                NMic=       0 NMicF=      0.
                    Isotopes and Nuclear Properties:
 (Nuclear quadrupole moments (NQMom) in fm**2, nuclear magnetic moments (NMagM)
  in nuclear magnetons)

  Atom         1           2           3           4           5           6
 IAtWgt=          35          12           1           1           1          19
 AtmWgt=  34.9688527  12.0000000   1.0078250   1.0078250   1.0078250  18.9984033
 NucSpn=           3           0           1           1           1           1
 AtZEff=   0.0000000   0.0000000   0.0000000   0.0000000   0.0000000   0.0000000
 NQMom=   -8.1650000   0.0000000   0.0000000   0.0000000   0.0000000   0.0000000
 NMagM=    0.8218740   0.0000000   2.7928460   2.7928460   2.7928460   2.6288670
 AtZNuc=  17.0000000   6.0000000   1.0000000   1.0000000   1.0000000   9.0000000
 No MM parameters found.
 Leave Link  101 at Tue Oct  6 20:15:13 2020, MaxMem=  2684354560 cpu:              11.7 elap:               1.3
 (Enter /udrive/faculty/rpeverati/g16/g16/l103.exe)

 GradGradGradGradGradGradGradGradGradGradGradGradGradGradGradGradGradGrad
 Berny optimization.
 Optmz: redundant internal coordinate code flag= 1
 Initialization pass.
                           ----------------------------
                           !    Initial Parameters    !
                           ! (Angstroms and Degrees)  !
 --------------------------                            --------------------------
 ! Name  Definition              Value          Derivative Info.                !
 --------------------------------------------------------------------------------
 ! R1    R(1,2)                  1.8505         estimate D2E/DX2                !
 ! R2    R(2,3)                  1.0774         estimate D2E/DX2                !
 ! R3    R(2,4)                  1.0774         estimate D2E/DX2                !
 ! R4    R(2,5)                  1.0774         estimate D2E/DX2                !
 ! R5    R(2,6)                  2.502          estimate D2E/DX2                !
 ! R6    R(3,6)                  2.4042         estimate D2E/DX2                !
 ! R7    R(4,6)                  2.4042         estimate D2E/DX2                !
 ! R8    R(5,6)                  2.4042         estimate D2E/DX2                !
 ! A1    A(1,2,3)              107.7121         estimate D2E/DX2                !
 ! A2    A(1,2,4)              107.7121         estimate D2E/DX2                !
 ! A3    A(1,2,5)              107.7121         estimate D2E/DX2                !
 ! A4    A(3,2,4)              111.1716         estimate D2E/DX2                !
 ! A5    A(3,2,5)              111.1716         estimate D2E/DX2                !
 ! A6    A(4,2,5)              111.1716         estimate D2E/DX2                !
 ! A7    A(3,6,4)               43.3929         estimate D2E/DX2                !
 ! A8    A(3,6,5)               43.3929         estimate D2E/DX2                !
 ! A9    A(4,6,5)               43.3929         estimate D2E/DX2                !
 ! A10   L(1,2,6,3,-1)         180.0            estimate D2E/DX2                !
 ! A11   L(1,2,6,3,-2)         180.0            estimate D2E/DX2                !
 ! D1    D(3,2,5,4)            124.4261         estimate D2E/DX2                !
 ! D2    D(4,3,6,2)             32.556          estimate D2E/DX2                !
 ! D3    D(5,3,6,2)            -32.556          estimate D2E/DX2                !
 ! D4    D(5,4,6,2)             32.556          estimate D2E/DX2                !
 --------------------------------------------------------------------------------
 Maximum allowed force set to 1.00D+20.
 Trust Radius=3.00D-01 FncErr=1.00D-07 GrdErr=1.00D-06 EigMax=2.50D+02 EigMin=1.00D-04
 Number of steps in this run=    100 maximum allowed number of steps=    100.
 GradGradGradGradGradGradGradGradGradGradGradGradGradGradGradGradGradGrad

 Leave Link  103 at Tue Oct  6 20:15:14 2020, MaxMem=  2684354560 cpu:               1.2 elap:               0.6
 (Enter /udrive/faculty/rpeverati/g16/g16/l202.exe)
                          Input orientation:                          
 ---------------------------------------------------------------------
 Center     Atomic      Atomic             Coordinates (Angstroms)
 Number     Number       Type             X           Y           Z
 ---------------------------------------------------------------------
      1         17           0        0.000000    0.000000    2.122964
      2          6           0        0.000000    0.000000    0.272466
      3          1           0       -0.513162   -0.888822   -0.055314
      4          1           0       -0.513162    0.888822   -0.055314
      5          1           0        1.026323    0.000000   -0.055314
      6          9           0        0.000000    0.000000   -2.229487
 ---------------------------------------------------------------------
                    Distance matrix (angstroms):
                    1          2          3          4          5
     1  Cl   0.000000
     2  C    1.850498   0.000000
     3  H    2.407953   1.077395   0.000000
     4  H    2.407953   1.077395   1.777644   0.000000
     5  H    2.407953   1.077395   1.777644   1.777644   0.000000
     6  F    4.352451   2.501952   2.404239   2.404239   2.404239
                    6
     6  F    0.000000
 Stoichiometry    CH3ClF(1-)
 Framework group  C3V[C3(FCCl),3SGV(H)]
 Deg. of freedom     4
 Full point group                 C3V     NOp   6
 Largest Abelian subgroup         CS      NOp   2
 Largest concise Abelian subgroup CS      NOp   2
                         Standard orientation:                         
 ---------------------------------------------------------------------
 Center     Atomic      Atomic             Coordinates (Angstroms)
 Number     Number       Type             X           Y           Z
 ---------------------------------------------------------------------
      1         17           0        0.000000    0.000000    1.623140
      2          6           0        0.000000    0.000000   -0.227359
      3          1           0        0.000000    1.026323   -0.555139
      4          1           0        0.888822   -0.513162   -0.555139
      5          1           0       -0.888822   -0.513162   -0.555139
      6          9           0        0.000000    0.000000   -2.729311
 ---------------------------------------------------------------------
 Rotational constants (GHZ):         158.6873850           2.1342839           2.1342839
 Leave Link  202 at Tue Oct  6 20:15:15 2020, MaxMem=  2684354560 cpu:               1.6 elap:               0.7
 (Enter /udrive/faculty/rpeverati/g16/g16/l301.exe)
 Standard basis: 6-31G(d) (5D, 7F)
 Ernie: Thresh=  0.10000D-02 Tol=  0.10000D-05 Strict=F.
 There are    40 symmetry adapted cartesian basis functions of A'  symmetry.
 There are    15 symmetry adapted cartesian basis functions of A"  symmetry.
 There are    37 symmetry adapted basis functions of A'  symmetry.
 There are    15 symmetry adapted basis functions of A"  symmetry.
    52 basis functions,   120 primitive gaussians,    55 cartesian basis functions
    18 alpha electrons       18 beta electrons
       nuclear repulsion energy        86.0762915649 Hartrees.
 IExCor=  402 DFT=T Ex+Corr=B3LYP ExCW=0 ScaHFX=  0.200000
 ScaDFX=  0.800000  0.720000  1.000000  0.810000 ScalE2=  1.000000  1.000000
 IRadAn=      5 IRanWt=     -1 IRanGd=            0 ICorTp=0 IEmpDi=141
 NAtoms=    6 NActive=    6 NUniq=    4 SFac= 2.25D+00 NAtFMM=   60 NAOKFM=F Big=F
 Integral buffers will be    131072 words long.
 Raffenetti 2 integral format.
 Two-electron integral symmetry is turned on.
 R6Disp:  Grimme-D3(BJ) Dispersion energy=       -0.0048918726 Hartrees.
 Nuclear repulsion after empirical dispersion term =       86.0713996922 Hartrees.
 Leave Link  301 at Tue Oct  6 20:15:16 2020, MaxMem=  2684354560 cpu:               2.1 elap:               0.7
 (Enter /udrive/faculty/rpeverati/g16/g16/l302.exe)
 NPDir=0 NMtPBC=     1 NCelOv=     1 NCel=       1 NClECP=     1 NCelD=      1
         NCelK=      1 NCelE2=     1 NClLst=     1 CellRange=     0.0.
 One-electron integrals computed using PRISM.
 One-electron integral symmetry used in STVInt
 NBasis=    52 RedAO= T EigKep=  1.88D-02  NBF=    37    15
 NBsUse=    52 1.00D-06 EigRej= -1.00D+00 NBFU=    37    15
 Precomputing XC quadrature grid using
 IXCGrd= 4 IRadAn=           5 IRanWt=          -1 IRanGd=           0 AccXCQ= 0.00D+00.
 Generated NRdTot=       0 NPtTot=           0 NUsed=           0 NTot=          32
 NSgBfM=    55    55    55    55    55 MxSgAt=     6 MxSgA2=     6.
 Leave Link  302 at Tue Oct  6 20:15:17 2020, MaxMem=  2684354560 cpu:               3.3 elap:               0.7
 (Enter /udrive/faculty/rpeverati/g16/g16/l303.exe)
 DipDrv:  MaxL=1.
 Leave Link  303 at Tue Oct  6 20:15:18 2020, MaxMem=  2684354560 cpu:               1.6 elap:               0.6
 (Enter /udrive/faculty/rpeverati/g16/g16/l401.exe)
 SCF N**3 symmetry information disabled.
 ExpMin= 1.43D-01 ExpMax= 2.52D+04 ExpMxC= 3.78D+03 IAcc=3 IRadAn=         5 AccDes= 0.00D+00
 Harris functional with IExCor=  402 and IRadAn=       5 diagonalized for initial guess.
 HarFok:  IExCor=  402 AccDes= 0.00D+00 IRadAn=         5 IDoV= 1 UseB2=F ITyADJ=14
 ICtDFT=  3500011 ScaDFX=  1.000000  1.000000  1.000000  1.000000
 FoFCou: FMM=F IPFlag=           0 FMFlag=      100000 FMFlg1=           0
         NFxFlg=           0 DoJE=T BraDBF=F KetDBF=T FulRan=T
         wScrn=  0.000000 ICntrl=       500 IOpCl=  0 I1Cent=   200000004 NGrid=           0
         NMat0=    1 NMatS0=      1 NMatT0=    0 NMatD0=    1 NMtDS0=    0 NMtDT0=    0
 Petite list used in FoFCou.
 Harris En= -600.098760525757    
 JPrj=0 DoOrth=F DoCkMO=F.
 Initial guess orbital symmetries:
       Occupied  (A1) (A1) (A1) (A1) (A1) (E) (E) (A1) (A1) (A1)
                 (E) (E) (A1) (E) (E) (A1) (E) (E)
       Virtual   (A1) (A1) (E) (E) (A1) (E) (E) (A1) (E) (E) (A1)
                 (E) (E) (A1) (E) (E) (E) (E) (A1) (E) (E) (A1)
                 (A1) (A1) (E) (E) (E) (E) (E) (E) (A1) (A1) (E)
                 (E)
 The electronic state of the initial guess is 1-A1.
 Leave Link  401 at Tue Oct  6 20:15:20 2020, MaxMem=  2684354560 cpu:               4.7 elap:               0.8
 (Enter /udrive/faculty/rpeverati/g16/g16/l502.exe)
 Keep R1 ints in memory in symmetry-blocked form, NReq=11461374.
 FoFCou: FMM=F IPFlag=           0 FMFlag=           0 FMFlg1=           0
         NFxFlg=           0 DoJE=F BraDBF=F KetDBF=F FulRan=T
         wScrn=  0.000000 ICntrl=       600 IOpCl=  0 I1Cent=           0 NGrid=           0
         NMat0=    1 NMatS0=   1378 NMatT0=    0 NMatD0=    1 NMtDS0=    0 NMtDT0=    0
 Petite list used in FoFCou.
 Closed shell SCF:
 Using DIIS extrapolation, IDIIS=  1040.
 NGot=  2684354560 LenX=  2683850103 LenY=  2683846637
 Requested convergence on RMS density matrix=1.00D-08 within 120 cycles.
 Requested convergence on MAX density matrix=1.00D-06.
 Requested convergence on             energy=1.00D-06.
 No special actions if energy rises.
 Integral accuracy reduced to 1.0D-05 until final iterations.

 Cycle   1  Pass 0  IDiag  1:
 E= -599.733917869171    
 DIIS: error= 9.59D-02 at cycle   1 NSaved=   1.
 NSaved= 1 IEnMin= 1 EnMin= -599.733917869171     IErMin= 1 ErrMin= 9.59D-02
 ErrMax= 9.59D-02  0.00D+00 EMaxC= 1.00D-01 BMatC= 2.22D-01 BMatP= 2.22D-01
 IDIUse=3 WtCom= 4.09D-02 WtEn= 9.59D-01
 Coeff-Com:  0.100D+01
 Coeff-En:   0.100D+01
 Coeff:      0.100D+01
 Gap=     0.426 Goal=   None    Shift=    0.000
 GapD=    0.426 DampG=2.000 DampE=0.500 DampFc=1.0000 IDamp=-1.
 RMSDP=8.13D-02 MaxDP=1.77D+00              OVMax= 8.73D-01

 Cycle   2  Pass 0  IDiag  1:
 E= -597.915093513729     Delta-E=        1.818824355442 Rises=F Damp=F
 DIIS: error= 2.28D-01 at cycle   2 NSaved=   2.
 NSaved= 2 IEnMin= 1 EnMin= -599.733917869171     IErMin= 1 ErrMin= 9.59D-02
 ErrMax= 2.28D-01  0.00D+00 EMaxC= 1.00D-01 BMatC= 1.85D+00 BMatP= 2.22D-01
 IDIUse=2 WtCom= 0.00D+00 WtEn= 1.00D+00
 Coeff-En:   0.883D+00 0.117D+00
 Coeff:      0.883D+00 0.117D+00
 Gap=     0.069 Goal=   None    Shift=    0.000
 RMSDP=7.23D-02 MaxDP=1.68D+00 DE= 1.82D+00 OVMax= 7.66D-01

 Cycle   3  Pass 0  IDiag  1:
 E= -599.814578579233     Delta-E=       -1.899485065504 Rises=F Damp=F
 DIIS: error= 6.33D-02 at cycle   3 NSaved=   3.
 NSaved= 3 IEnMin= 3 EnMin= -599.814578579233     IErMin= 3 ErrMin= 6.33D-02
 ErrMax= 6.33D-02  0.00D+00 EMaxC= 1.00D-01 BMatC= 1.25D-01 BMatP= 2.22D-01
 IDIUse=3 WtCom= 3.67D-01 WtEn= 6.33D-01
 Coeff-Com:  0.438D+00 0.182D-01 0.544D+00
 Coeff-En:   0.370D+00 0.000D+00 0.630D+00
 Coeff:      0.395D+00 0.668D-02 0.599D+00
 Gap=     0.148 Goal=   None    Shift=    0.000
 RMSDP=7.08D-03 MaxDP=7.54D-02 DE=-1.90D+00 OVMax= 1.21D-01

 Cycle   4  Pass 0  IDiag  1:
 E= -599.911678037481     Delta-E=       -0.097099458248 Rises=F Damp=F
 DIIS: error= 1.43D-02 at cycle   4 NSaved=   4.
 NSaved= 4 IEnMin= 4 EnMin= -599.911678037481     IErMin= 4 ErrMin= 1.43D-02
 ErrMax= 1.43D-02  0.00D+00 EMaxC= 1.00D-01 BMatC= 7.36D-03 BMatP= 1.25D-01
 IDIUse=3 WtCom= 8.57D-01 WtEn= 1.43D-01
 Coeff-Com:  0.155D+00-0.183D-01 0.302D+00 0.561D+00
 Coeff-En:   0.000D+00 0.000D+00 0.000D+00 0.100D+01
 Coeff:      0.133D+00-0.157D-01 0.258D+00 0.624D+00
 Gap=     0.159 Goal=   None    Shift=    0.000
 RMSDP=1.86D-03 MaxDP=2.46D-02 DE=-9.71D-02 OVMax= 4.41D-02

 Cycle   5  Pass 0  IDiag  1:
 E= -599.918608893190     Delta-E=       -0.006930855709 Rises=F Damp=F
 DIIS: error= 3.95D-03 at cycle   5 NSaved=   5.
 NSaved= 5 IEnMin= 5 EnMin= -599.918608893190     IErMin= 5 ErrMin= 3.95D-03
 ErrMax= 3.95D-03  0.00D+00 EMaxC= 1.00D-01 BMatC= 6.75D-04 BMatP= 7.36D-03
 IDIUse=3 WtCom= 9.61D-01 WtEn= 3.95D-02
 Coeff-Com:  0.197D-01-0.470D-02 0.195D-01 0.225D+00 0.740D+00
 Coeff-En:   0.000D+00 0.000D+00 0.000D+00 0.255D-01 0.975D+00
 Coeff:      0.189D-01-0.451D-02 0.188D-01 0.217D+00 0.750D+00
 Gap=     0.165 Goal=   None    Shift=    0.000
 RMSDP=7.79D-04 MaxDP=1.12D-02 DE=-6.93D-03 OVMax= 1.39D-02

 Cycle   6  Pass 0  IDiag  1:
 E= -599.919355239774     Delta-E=       -0.000746346583 Rises=F Damp=F
 DIIS: error= 6.33D-04 at cycle   6 NSaved=   6.
 NSaved= 6 IEnMin= 6 EnMin= -599.919355239774     IErMin= 6 ErrMin= 6.33D-04
 ErrMax= 6.33D-04  0.00D+00 EMaxC= 1.00D-01 BMatC= 2.43D-05 BMatP= 6.75D-04
 IDIUse=3 WtCom= 9.94D-01 WtEn= 6.33D-03
 Coeff-Com:  0.812D-03-0.500D-03-0.784D-02 0.635D-01 0.334D+00 0.610D+00
 Coeff-En:   0.000D+00 0.000D+00 0.000D+00 0.000D+00 0.000D+00 0.100D+01
 Coeff:      0.807D-03-0.497D-03-0.779D-02 0.631D-01 0.332D+00 0.613D+00
 Gap=     0.164 Goal=   None    Shift=    0.000
 RMSDP=1.37D-04 MaxDP=2.72D-03 DE=-7.46D-04 OVMax= 2.20D-03

 Cycle   7  Pass 0  IDiag  1:
 E= -599.919384875807     Delta-E=       -0.000029636033 Rises=F Damp=F
 DIIS: error= 2.03D-04 at cycle   7 NSaved=   7.
 NSaved= 7 IEnMin= 7 EnMin= -599.919384875807     IErMin= 7 ErrMin= 2.03D-04
 ErrMax= 2.03D-04  0.00D+00 EMaxC= 1.00D-01 BMatC= 1.19D-06 BMatP= 2.43D-05
 IDIUse=3 WtCom= 9.98D-01 WtEn= 2.03D-03
 Coeff-Com: -0.541D-03 0.558D-04-0.133D-02 0.187D-01 0.749D-01 0.162D+00
 Coeff-Com:  0.746D+00
 Coeff-En:   0.000D+00 0.000D+00 0.000D+00 0.000D+00 0.000D+00 0.000D+00
 Coeff-En:   0.100D+01
 Coeff:     -0.540D-03 0.557D-04-0.133D-02 0.187D-01 0.748D-01 0.161D+00
 Coeff:      0.747D+00
 Gap=     0.163 Goal=   None    Shift=    0.000
 RMSDP=3.49D-05 MaxDP=3.35D-04 DE=-2.96D-05 OVMax= 5.16D-04

 Cycle   8  Pass 0  IDiag  1:
 E= -599.919385918369     Delta-E=       -0.000001042562 Rises=F Damp=F
 DIIS: error= 3.85D-05 at cycle   8 NSaved=   8.
 NSaved= 8 IEnMin= 8 EnMin= -599.919385918369     IErMin= 8 ErrMin= 3.85D-05
 ErrMax= 3.85D-05  0.00D+00 EMaxC= 1.00D-01 BMatC= 5.88D-08 BMatP= 1.19D-06
 IDIUse=1 WtCom= 1.00D+00 WtEn= 0.00D+00
 Coeff-Com: -0.381D-03 0.352D-04-0.105D-03 0.462D-02 0.122D-01 0.232D-01
 Coeff-Com:  0.179D+00 0.782D+00
 Coeff:     -0.381D-03 0.352D-04-0.105D-03 0.462D-02 0.122D-01 0.232D-01
 Coeff:      0.179D+00 0.782D+00
 Gap=     0.163 Goal=   None    Shift=    0.000
 RMSDP=7.39D-06 MaxDP=7.17D-05 DE=-1.04D-06 OVMax= 1.04D-04

 Initial convergence to 1.0D-05 achieved.  Increase integral accuracy.
 Cycle   9  Pass 1  IDiag  1:
 E= -599.919385539933     Delta-E=        0.000000378436 Rises=F Damp=F
 DIIS: error= 7.62D-06 at cycle   1 NSaved=   1.
 NSaved= 1 IEnMin= 1 EnMin= -599.919385539933     IErMin= 1 ErrMin= 7.62D-06
 ErrMax= 7.62D-06  0.00D+00 EMaxC= 1.00D-01 BMatC= 1.68D-09 BMatP= 1.68D-09
 IDIUse=1 WtCom= 1.00D+00 WtEn= 0.00D+00
 Coeff-Com:  0.100D+01
 Coeff:      0.100D+01
 Gap=     0.163 Goal=   None    Shift=    0.000
 RMSDP=7.39D-06 MaxDP=7.17D-05 DE= 3.78D-07 OVMax= 6.77D-05

 Cycle  10  Pass 1  IDiag  1:
 E= -599.919385536542     Delta-E=        0.000000003391 Rises=F Damp=F
 DIIS: error= 1.69D-05 at cycle   2 NSaved=   2.
 NSaved= 2 IEnMin= 1 EnMin= -599.919385539933     IErMin= 1 ErrMin= 7.62D-06
 ErrMax= 1.69D-05  0.00D+00 EMaxC= 1.00D-01 BMatC= 6.45D-09 BMatP= 1.68D-09
 IDIUse=1 WtCom= 1.00D+00 WtEn= 0.00D+00
 Coeff-Com:  0.665D+00 0.335D+00
 Coeff:      0.665D+00 0.335D+00
 Gap=     0.163 Goal=   None    Shift=    0.000
 RMSDP=2.39D-06 MaxDP=2.49D-05 DE= 3.39D-09 OVMax= 4.81D-05

 Cycle  11  Pass 1  IDiag  1:
 E= -599.919385541566     Delta-E=       -0.000000005024 Rises=F Damp=F
 DIIS: error= 5.49D-07 at cycle   3 NSaved=   3.
 NSaved= 3 IEnMin= 3 EnMin= -599.919385541566     IErMin= 3 ErrMin= 5.49D-07
 ErrMax= 5.49D-07  0.00D+00 EMaxC= 1.00D-01 BMatC= 1.96D-11 BMatP= 1.68D-09
 IDIUse=1 WtCom= 1.00D+00 WtEn= 0.00D+00
 Coeff-Com:  0.191D+00 0.107D+00 0.702D+00
 Coeff:      0.191D+00 0.107D+00 0.702D+00
 Gap=     0.163 Goal=   None    Shift=    0.000
 RMSDP=1.39D-07 MaxDP=1.47D-06 DE=-5.02D-09 OVMax= 1.56D-06

 Cycle  12  Pass 1  IDiag  1:
 E= -599.919385541587     Delta-E=       -0.000000000021 Rises=F Damp=F
 DIIS: error= 1.28D-07 at cycle   4 NSaved=   4.
 NSaved= 4 IEnMin= 4 EnMin= -599.919385541587     IErMin= 4 ErrMin= 1.28D-07
 ErrMax= 1.28D-07  0.00D+00 EMaxC= 1.00D-01 BMatC= 1.38D-12 BMatP= 1.96D-11
 IDIUse=1 WtCom= 1.00D+00 WtEn= 0.00D+00
 Coeff-Com:  0.825D-02 0.899D-02 0.197D+00 0.786D+00
 Coeff:      0.825D-02 0.899D-02 0.197D+00 0.786D+00
 Gap=     0.163 Goal=   None    Shift=    0.000
 RMSDP=4.53D-08 MaxDP=3.79D-07 DE=-2.08D-11 OVMax= 8.33D-07

 Cycle  13  Pass 1  IDiag  1:
 E= -599.919385541588     Delta-E=       -0.000000000002 Rises=F Damp=F
 DIIS: error= 1.33D-07 at cycle   5 NSaved=   5.
 NSaved= 5 IEnMin= 5 EnMin= -599.919385541588     IErMin= 4 ErrMin= 1.28D-07
 ErrMax= 1.33D-07  0.00D+00 EMaxC= 1.00D-01 BMatC= 5.17D-13 BMatP= 1.38D-12
 IDIUse=1 WtCom= 1.00D+00 WtEn= 0.00D+00
 Coeff-Com: -0.138D-01-0.281D-02 0.396D-01 0.402D+00 0.575D+00
 Coeff:     -0.138D-01-0.281D-02 0.396D-01 0.402D+00 0.575D+00
 Gap=     0.163 Goal=   None    Shift=    0.000
 RMSDP=1.62D-08 MaxDP=1.96D-07 DE=-1.59D-12 OVMax= 2.03D-07

 Cycle  14  Pass 1  IDiag  1:
 E= -599.919385541589     Delta-E=       -0.000000000001 Rises=F Damp=F
 DIIS: error= 2.42D-08 at cycle   6 NSaved=   6.
 NSaved= 6 IEnMin= 6 EnMin= -599.919385541589     IErMin= 6 ErrMin= 2.42D-08
 ErrMax= 2.42D-08  0.00D+00 EMaxC= 1.00D-01 BMatC= 2.22D-14 BMatP= 5.17D-13
 IDIUse=1 WtCom= 1.00D+00 WtEn= 0.00D+00
 Coeff-Com: -0.500D-02-0.318D-03 0.399D-02 0.105D+00 0.224D+00 0.673D+00
 Coeff:     -0.500D-02-0.318D-03 0.399D-02 0.105D+00 0.224D+00 0.673D+00
 Gap=     0.163 Goal=   None    Shift=    0.000
 RMSDP=6.24D-09 MaxDP=7.76D-08 DE=-1.14D-12 OVMax= 8.67D-08

 SCF Done:  E(RB3LYP) =  -599.919385542     A.U. after   14 cycles
            NFock= 14  Conv=0.62D-08     -V/T= 2.0021
 KE= 5.986706250557D+02 PE=-1.607325073997D+03 EE= 3.226636637077D+02
 Leave Link  502 at Tue Oct  6 20:15:22 2020, MaxMem=  2684354560 cpu:              18.2 elap:               2.0
 (Enter /udrive/faculty/rpeverati/g16/g16/l508.exe)
 QCSCF skips out because SCF is already converged.
 Leave Link  508 at Tue Oct  6 20:15:23 2020, MaxMem=  2684354560 cpu:               1.1 elap:               0.6
 (Enter /udrive/faculty/rpeverati/g16/g16/l601.exe)
 Copying SCF densities to generalized density rwf, IOpCl= 0 IROHF=0.

 **********************************************************************

            Population analysis using the SCF density.

 **********************************************************************

 Orbital symmetries:
       Occupied  (A1) (A1) (A1) (A1) (A1) (E) (E) (A1) (A1) (A1)
                 (E) (E) (A1) (E) (E) (A1) (E) (E)
       Virtual   (A1) (A1) (E) (E) (A1) (E) (E) (A1) (E) (E) (A1)
                 (E) (E) (A1) (E) (E) (E) (E) (A1) (A1) (E) (E)
                 (A1) (E) (E) (A1) (E) (E) (E) (E) (A1) (E) (E)
                 (A1)
 The electronic state is 1-A1.
 Alpha  occ. eigenvalues -- -101.33435 -24.20550 -10.03301  -9.26737  -7.02891
 Alpha  occ. eigenvalues --   -7.02148  -7.02148  -0.66709  -0.65808  -0.48410
 Alpha  occ. eigenvalues --   -0.25357  -0.25357  -0.21801  -0.12621  -0.12621
 Alpha  occ. eigenvalues --    0.04857   0.05323   0.05323
 Alpha virt. eigenvalues --    0.21653   0.30089   0.34443   0.34443   0.55992
 Alpha virt. eigenvalues --    0.61767   0.61767   0.62794   0.71183   0.71183
 Alpha virt. eigenvalues --    0.86905   1.03523   1.03523   1.06723   1.08198
 Alpha virt. eigenvalues --    1.08198   1.11200   1.11200   1.21030   1.43120
 Alpha virt. eigenvalues --    1.58725   1.58725   1.64607   1.87506   1.87506
 Alpha virt. eigenvalues --    1.95899   2.26133   2.26133   2.26984   2.26984
 Alpha virt. eigenvalues --    2.30562   2.43976   2.43976   2.45298
          Condensed to atoms (all electrons):
               1          2          3          4          5          6
     1  Cl  17.502455  -0.054311  -0.044107  -0.044107  -0.044107   0.002582
     2  C   -0.054311   5.351746   0.373746   0.373746   0.373746   0.033574
     3  H   -0.044107   0.373746   0.530613  -0.027227  -0.027227   0.012166
     4  H   -0.044107   0.373746  -0.027227   0.530613  -0.027227   0.012166
     5  H   -0.044107   0.373746  -0.027227  -0.027227   0.530613   0.012166
     6  F    0.002582   0.033574   0.012166   0.012166   0.012166   9.702799
 Mulliken charges:
               1
     1  Cl  -0.318405
     2  C   -0.452248
     3  H    0.182035
     4  H    0.182035
     5  H    0.182035
     6  F   -0.775453
 Sum of Mulliken charges =  -1.00000
 Mulliken charges with hydrogens summed into heavy atoms:
               1
     1  Cl  -0.318405
     2  C    0.093858
     6  F   -0.775453
 Electronic spatial extent (au):  <R**2>=            498.6062
 Charge=             -1.0000 electrons
 Dipole moment (field-independent basis, Debye):
    X=             -0.0000    Y=             -0.0000    Z=              6.5147  Tot=              6.5147
 Quadrupole moment (field-independent basis, Debye-Ang):
   XX=            -26.0595   YY=            -26.0595   ZZ=            -60.2717
   XY=             -0.0000   XZ=              0.0000   YZ=              0.0000
 Traceless Quadrupole moment (field-independent basis, Debye-Ang):
   XX=             11.4041   YY=             11.4041   ZZ=            -22.8082
   XY=             -0.0000   XZ=              0.0000   YZ=              0.0000
 Octapole moment (field-independent basis, Debye-Ang**2):
  XXX=             -0.0000  YYY=              0.6975  ZZZ=             55.2753  XYY=              0.0000
  XXY=             -0.6975  XXZ=             -5.4819  XZZ=              0.0000  YZZ=              0.0000
  YYZ=             -5.4819  XYZ=              0.0000
 Hexadecapole moment (field-independent basis, Debye-Ang**3):
 XXXX=            -31.9470 YYYY=            -31.9470 ZZZZ=           -701.6354 XXXY=              0.0000
 XXXZ=              0.0000 YYYX=              0.0000 YYYZ=             -0.3708 ZZZX=              0.0000
 ZZZY=              0.0000 XXYY=            -10.6490 XXZZ=            -88.7966 YYZZ=            -88.7966
 XXYZ=              0.3708 YYXZ=             -0.0000 ZZXY=              0.0000
 N-N= 8.607139969224D+01 E-N=-1.607325074548D+03  KE= 5.986706250557D+02
 No NMR shielding tensors so no spin-rotation constants.
 Leave Link  601 at Tue Oct  6 20:15:24 2020, MaxMem=  2684354560 cpu:               7.2 elap:               1.1
 (Enter /udrive/faculty/rpeverati/g16/g16/l701.exe)
 ... and contract with generalized density number  0.
 Compute integral first derivatives.
 R6Disp: Adding Grimme-D3(BJ) dispersion energy 1st derivatives to the gradient.
 Leave Link  701 at Tue Oct  6 20:15:25 2020, MaxMem=  2684354560 cpu:               3.3 elap:               0.6
 (Enter /udrive/faculty/rpeverati/g16/g16/l702.exe)
 L702 exits ... SP integral derivatives will be done elsewhere.
 Leave Link  702 at Tue Oct  6 20:15:26 2020, MaxMem=  2684354560 cpu:               1.8 elap:               0.6
 (Enter /udrive/faculty/rpeverati/g16/g16/l703.exe)
 Integral derivatives from FoFJK, PRISM(SPDF).
 Compute integral first derivatives, UseDBF=F ICtDFT=           0.
 Calling FoFJK, ICntrl=      2127 FMM=F ISym2X=1 I1Cent= 0 IOpClX= 0 NMat=1 NMatS=1 NMatT=0.
 FoFJK:  IHMeth= 1 ICntrl=    2127 DoSepK=F KAlg= 0 I1Cent=           0 FoldK=F
 IRaf=         0 NMat=       1 IRICut=       1 DoRegI=T DoRafI=F ISym2E= 1 IDoP0=0 IntGTp=1.
 FoFCou: FMM=F IPFlag=           0 FMFlag=      100000 FMFlg1=         800
         NFxFlg=           0 DoJE=F BraDBF=F KetDBF=F FulRan=T
         wScrn=  0.000000 ICntrl=      2127 IOpCl=  0 I1Cent=           0 NGrid=           0
         NMat0=    1 NMatS0=      1 NMatT0=    0 NMatD0=    1 NMtDS0=    0 NMtDT0=    0
 Petite list used in FoFCou.
 Leave Link  703 at Tue Oct  6 20:15:28 2020, MaxMem=  2684354560 cpu:               6.7 elap:               0.9
 (Enter /udrive/faculty/rpeverati/g16/g16/l716.exe)
 Dipole        =-2.22044605D-16-4.44089210D-16 2.56306145D+00
 ***** Axes restored to original set *****
 -------------------------------------------------------------------
 Center     Atomic                   Forces (Hartrees/Bohr)
 Number     Number              X              Y              Z
 -------------------------------------------------------------------
      1       17           0.000000000   -0.000000000    0.025700513
      2        6           0.000000000    0.000000000   -0.022083084
      3        1          -0.001022312   -0.001770696   -0.004495556
      4        1          -0.001022312    0.001770696   -0.004495556
      5        1           0.002044624    0.000000000   -0.004495556
      6        9           0.000000000    0.000000000    0.009869240
 -------------------------------------------------------------------
 Cartesian Forces:  Max     0.025700513 RMS     0.008559441
 Leave Link  716 at Tue Oct  6 20:15:28 2020, MaxMem=  2684354560 cpu:               2.5 elap:               0.5
 (Enter /udrive/faculty/rpeverati/g16/g16/l103.exe)

 GradGradGradGradGradGradGradGradGradGradGradGradGradGradGradGradGradGrad
 Berny optimization.
 Optmz: redundant internal coordinate code flag= 1
 FormGI is forming the generalized inverse of G from B-inverse, IUseBI=4.
 Internal  Forces:  Max     0.025700513 RMS     0.005611033
 Search for a local minimum.
 Step number   1 out of a maximum of  100
 All quantities printed in internal units (Hartrees-Bohrs-Radians)
 RMS Force = .56110D-02 SwitMx=.10000D-02 MixMth= 1
 Mixed Optimization -- RFO/linear search
 Second derivative matrix not updated -- first step.
 The second derivative matrix:
                          R1        R2        R3        R4        R5
           R1           0.22511
           R2           0.00000   0.36311
           R3           0.00000   0.00000   0.36311
           R4           0.00000   0.00000   0.00000   0.36311
           R5           0.00000   0.00000   0.00000   0.00000   0.03586
           R6           0.00000   0.00000   0.00000   0.00000   0.00000
           R7           0.00000   0.00000   0.00000   0.00000   0.00000
           R8           0.00000   0.00000   0.00000   0.00000   0.00000
           A1           0.00000   0.00000   0.00000   0.00000   0.00000
           A2           0.00000   0.00000   0.00000   0.00000   0.00000
           A3           0.00000   0.00000   0.00000   0.00000   0.00000
           A4           0.00000   0.00000   0.00000   0.00000   0.00000
           A5           0.00000   0.00000   0.00000   0.00000   0.00000
           A6           0.00000   0.00000   0.00000   0.00000   0.00000
           A7           0.00000   0.00000   0.00000   0.00000   0.00000
           A8           0.00000   0.00000   0.00000   0.00000   0.00000
           A9           0.00000   0.00000   0.00000   0.00000   0.00000
           A10          0.00000   0.00000   0.00000   0.00000   0.00000
           A11          0.00000   0.00000   0.00000   0.00000   0.00000
           D1           0.00000   0.00000   0.00000   0.00000   0.00000
           D2           0.00000   0.00000   0.00000   0.00000   0.00000
           D3           0.00000   0.00000   0.00000   0.00000   0.00000
           D4           0.00000   0.00000   0.00000   0.00000   0.00000
                          R6        R7        R8        A1        A2
           R6           0.02355
           R7           0.00000   0.02355
           R8           0.00000   0.00000   0.02355
           A1           0.00000   0.00000   0.00000   0.16000
           A2           0.00000   0.00000   0.00000   0.00000   0.16000
           A3           0.00000   0.00000   0.00000   0.00000   0.00000
           A4           0.00000   0.00000   0.00000   0.00000   0.00000
           A5           0.00000   0.00000   0.00000   0.00000   0.00000
           A6           0.00000   0.00000   0.00000   0.00000   0.00000
           A7           0.00000   0.00000   0.00000   0.00000   0.00000
           A8           0.00000   0.00000   0.00000   0.00000   0.00000
           A9           0.00000   0.00000   0.00000   0.00000   0.00000
           A10          0.00000   0.00000   0.00000   0.00000   0.00000
           A11          0.00000   0.00000   0.00000   0.00000   0.00000
           D1           0.00000   0.00000   0.00000   0.00000   0.00000
           D2           0.00000   0.00000   0.00000   0.00000   0.00000
           D3           0.00000   0.00000   0.00000   0.00000   0.00000
           D4           0.00000   0.00000   0.00000   0.00000   0.00000
                          A3        A4        A5        A6        A7
           A3           0.16000
           A4           0.00000   0.16000
           A5           0.00000   0.00000   0.16000
           A6           0.00000   0.00000   0.00000   0.16000
           A7           0.00000   0.00000   0.00000   0.00000   0.16000
           A8           0.00000   0.00000   0.00000   0.00000   0.00000
           A9           0.00000   0.00000   0.00000   0.00000   0.00000
           A10          0.00000   0.00000   0.00000   0.00000   0.00000
           A11          0.00000   0.00000   0.00000   0.00000   0.00000
           D1           0.00000   0.00000   0.00000   0.00000   0.00000
           D2           0.00000   0.00000   0.00000   0.00000   0.00000
           D3           0.00000   0.00000   0.00000   0.00000   0.00000
           D4           0.00000   0.00000   0.00000   0.00000   0.00000
                          A8        A9        A10       A11       D1
           A8           0.16000
           A9           0.00000   0.16000
           A10          0.00000   0.00000   0.00230
           A11          0.00000   0.00000   0.00000   0.00230
           D1           0.00000   0.00000   0.00000   0.00000   0.00402
           D2           0.00000   0.00000   0.00000   0.00000   0.00000
           D3           0.00000   0.00000   0.00000   0.00000   0.00000
           D4           0.00000   0.00000   0.00000   0.00000   0.00000
                          D2        D3        D4
           D2           0.00230
           D3           0.00000   0.00230
           D4           0.00000   0.00000   0.00230
 ITU=  0
 Eigenvectors of the second derivative matrix:
                           1         2         3         4         5
     Eigenvalues --     0.02063   0.02080   0.02938   0.06208   0.10074
   1         R1         0.00000  -0.00000  -0.00000   0.00000   0.00000
   2         R2         0.00076   0.00278  -0.01216   0.00370  -0.00017
   3         R3        -0.00374   0.00036  -0.01185   0.01005  -0.01204
   4         R4         0.00296  -0.00307  -0.01187  -0.00354   0.01194
   5         R5         0.00033  -0.00067  -0.48750   0.40434   0.01860
   6         R6         0.18817   0.71135  -0.49606  -0.08937  -0.00376
   7         R7        -0.70691  -0.19213  -0.49480  -0.08436  -0.20863
   8         R8         0.51792  -0.51971  -0.49478  -0.07681   0.19571
   9         A1         0.00925   0.03404   0.02609   0.22076   0.00184
  10         A2        -0.03662  -0.00857   0.02619   0.22189   0.56577
  11         A3         0.02822  -0.02611   0.02619   0.22565  -0.53436
  12         A4        -0.00830   0.00630  -0.02957  -0.38933   0.03283
  13         A5         0.00838   0.00180  -0.02179  -0.11678  -0.06408
  14         A6        -0.00087  -0.00750  -0.02180  -0.11699   0.00026
  15         A7         0.04258  -0.04314   0.07402  -0.08822   0.02516
  16         A8        -0.05882  -0.01635   0.07614  -0.01725  -0.03198
  17         A9         0.01616   0.05977   0.07608  -0.01650   0.00118
  18         A10        0.10228   0.38661  -0.00047  -0.00493  -0.00834
  19         A11       -0.40684   0.10887  -0.00001  -0.00508   0.54630
  20         D1        -0.00527   0.00401  -0.07049  -0.67799  -0.00424
  21         D2        -0.05079   0.08667   0.01276   0.10766  -0.05312
  22         D3        -0.08769  -0.04940  -0.00792   0.06292  -0.05962
  23         D4        -0.04927  -0.08917   0.00808  -0.06291  -0.01146
                           6         7         8         9        10
     Eigenvalues --     0.10346   0.11690   0.11910   0.22511   0.33151
   1         R1        -0.00000  -0.00000   0.00000   1.00000  -0.00000
   2         R2         0.00575  -0.00983  -0.01988  -0.00000  -0.10157
   3         R3         0.00234   0.04591   0.01777  -0.00000   0.16188
   4         R4        -0.00771  -0.03050   0.00184   0.00000   0.91954
   5         R5        -0.01725  -0.20927   0.01156  -0.00000  -0.01221
   6         R6         0.21542   0.01476  -0.08143   0.00000   0.00994
   7         R7        -0.09515   0.04748   0.07654   0.00000   0.01928
   8         R8        -0.10452   0.13340  -0.00590  -0.00000   0.02803
   9         A1        -0.65257  -0.07034   0.08546  -0.00000  -0.00676
  10         A2         0.30246  -0.10505  -0.07032  -0.00000  -0.00026
  11         A3         0.31914  -0.20247   0.00573  -0.00000   0.02610
  12         A4        -0.03262  -0.49886   0.02830   0.00000  -0.02233
  13         A5        -0.03124   0.39890  -0.60477   0.00000   0.01816
  14         A6         0.09273   0.45225   0.55701   0.00000  -0.01361
  15         A7        -0.01784  -0.13438   0.00773  -0.00000   0.00314
  16         A8        -0.01861   0.08788  -0.16072  -0.00000   0.16147
  17         A9         0.04171   0.11044   0.14947  -0.00000   0.20348
  18         A10       -0.53848   0.03137   0.04123   0.00000   0.01025
  19         A11       -0.00769   0.03023  -0.02196   0.00000   0.01133
  20         D1         0.00279  -0.02296   0.00170   0.00000  -0.02569
  21         D2         0.04755   0.38401  -0.01892   0.00000   0.06099
  22         D3        -0.04400   0.17539  -0.36209  -0.00000  -0.15435
  23         D4        -0.08229  -0.21140  -0.34007   0.00000   0.13732
                          11        12
     Eigenvalues --     0.33869   0.34280
   1         R1         0.00000  -0.00000
   2         R2         0.68641   0.65323
   3         R3         0.64493  -0.67787
   4         R4        -0.05628   0.18585
   5         R5        -0.01033  -0.01812
   6         R6         0.02177   0.03362
   7         R7         0.02052  -0.00858
   8         R8         0.01232  -0.00231
   9         A1         0.02255   0.00612
  10         A2         0.02188  -0.03098
  11         A3        -0.00228  -0.00025
  12         A4         0.02481  -0.07616
  13         A5        -0.03455  -0.02990
  14         A6        -0.02956   0.12949
  15         A7         0.26323  -0.02777
  16         A8         0.11074   0.15308
  17         A9         0.10410  -0.05990
  18         A10       -0.00677  -0.01167
  19         A11       -0.01059   0.01361
  20         D1        -0.01487  -0.02583
  21         D2        -0.00634  -0.14333
  22         D3         0.07916   0.03742
  23         D4        -0.07643   0.05012
 Iter=   1 RLamda= 0.00000000D+00 Sum=-4.00541290D-03.
 Iter=   2 RLamda=-4.00541290D-03 Sum=-3.83799512D-03.
 Iter=   3 RLamda=-3.83799512D-03 Sum=-3.84440426D-03.
 Iter=   4 RLamda=-3.84440426D-03 Sum=-3.84415806D-03.
 Iter=   5 RLamda=-3.84415806D-03 Sum=-3.84416752D-03.
 RFO step:  Lambda=-3.84415806D-03 EMin= 2.06253828D-02
 Linear search not attempted -- first point.
 Iteration  1 RMS(Cart)=  0.02637128 RMS(Int)=  0.00012929
 Iteration  2 RMS(Cart)=  0.00006952 RMS(Int)=  0.00009296
 Iteration  3 RMS(Cart)=  0.00000000 RMS(Int)=  0.00009296
 ITry= 1 IFail=0 DXMaxC= 9.14D-02 DCOld= 1.00D+10 DXMaxT= 3.00D-01 DXLimC= 3.00D+00 Rises=F
 ClnCor:  largest displacement from symmetrization is 2.92D-04 for atom     4.
 Variable       Old X    -DE/DX   Delta X   Delta X   Delta X     New X
                                 (Linear)    (Quad)   (Total)
    R1        3.49693   0.02570   0.00000   0.11225   0.11225   3.60919
    R2        2.03598   0.00312   0.00000   0.00741   0.00739   2.04337
    R3        2.03598   0.00312   0.00000   0.00740   0.00739   2.04337
    R4        2.03598   0.00302   0.00000   0.00740   0.00739   2.04337
    R5        4.72800  -0.00210   0.00000  -0.07016  -0.07016   4.65784
    R6        4.54335  -0.00258   0.00000  -0.07989  -0.07984   4.46352
    R7        4.54335  -0.00258   0.00000  -0.07988  -0.07984   4.46352
    R8        4.54335  -0.00261   0.00000  -0.07995  -0.07984   4.46352
    A1        1.87993   0.00054   0.00000   0.00864   0.00865   1.88858
    A2        1.87993   0.00054   0.00000   0.00864   0.00865   1.88858
    A3        1.87993   0.00055   0.00000   0.00864   0.00865   1.88858
    A4        1.94031  -0.00019   0.00000  -0.00769  -0.00815   1.93216
    A5        1.94031  -0.00067   0.00000  -0.00824  -0.00815   1.93216
    A6        1.94031  -0.00067   0.00000  -0.00824  -0.00815   1.93216
    A7        0.75735   0.00162   0.00000   0.01479   0.01492   0.77227
    A8        0.75735   0.00147   0.00000   0.01465   0.01492   0.77227
    A9        0.75735   0.00147   0.00000   0.01464   0.01492   0.77227
   A10        3.14159   0.00000   0.00000   0.00001   0.00000   3.14159
   A11        3.14159   0.00000   0.00000   0.00002   0.00000   3.14159
    D1        2.17165  -0.00122   0.00000  -0.02210  -0.02218   2.14946
    D2        0.56821  -0.00000   0.00000   0.00164   0.00192   0.57013
    D3       -0.56821  -0.00028   0.00000  -0.00198  -0.00192  -0.57013
    D4        0.56821   0.00028   0.00000   0.00198   0.00192   0.57013
         Item               Value     Threshold  Converged?
 Maximum Force            0.025701     0.000450     NO 
 RMS     Force            0.005611     0.000300     NO 
 Maximum Displacement     0.091384     0.001800     NO 
 RMS     Displacement     0.026383     0.001200     NO 
 Predicted change in Energy=-1.994787D-03
 Lowest energy point so far.  Saving SCF results.
 Largest change from initial coordinates is atom    1       0.026 Angstoms.
 GradGradGradGradGradGradGradGradGradGradGradGradGradGradGradGradGradGrad

 Leave Link  103 at Tue Oct  6 20:15:30 2020, MaxMem=  2684354560 cpu:               6.4 elap:               1.0
 (Enter /udrive/faculty/rpeverati/g16/g16/l202.exe)
                          Input orientation:                          
 ---------------------------------------------------------------------
 Center     Atomic      Atomic             Coordinates (Angstroms)
 Number     Number       Type             X           Y           Z
 ---------------------------------------------------------------------
      1         17           0       -0.000000   -0.000000    2.171323
      2          6           0       -0.000000   -0.000000    0.261423
      3          1           0       -0.513583   -0.889552   -0.076448
      4          1           0       -0.513583    0.889552   -0.076448
      5          1           0        1.027166   -0.000000   -0.076448
      6          9           0       -0.000000   -0.000000   -2.203402
 ---------------------------------------------------------------------
                    Distance matrix (angstroms):
                    1          2          3          4          5
     1  Cl   0.000000
     2  C    1.909900   0.000000
     3  H    2.471344   1.081307   0.000000
     4  H    2.471344   1.081307   1.779103   0.000000
     5  H    2.471344   1.081307   1.779103   1.779103   0.000000
     6  F    4.374724   2.464824   2.361991   2.361991   2.361991
                    6
     6  F    0.000000
 Stoichiometry    CH3ClF(1-)
 Framework group  C3V[C3(FCCl),3SGV(H)]
 Deg. of freedom     4
 Full point group                 C3V     NOp   6
 RotChk:  IX=0 Diff= 0.00D+00
 Largest Abelian subgroup         CS      NOp   2
 Largest concise Abelian subgroup CS      NOp   2
                         Standard orientation:                         
 ---------------------------------------------------------------------
 Center     Atomic      Atomic             Coordinates (Angstroms)
 Number     Number       Type             X           Y           Z
 ---------------------------------------------------------------------
      1         17           0        0.000000    0.000000    1.645007
      2          6           0        0.000000    0.000000   -0.264893
      3          1           0        0.000000    1.027166   -0.602764
      4          1           0        0.889552   -0.513583   -0.602764
      5          1           0       -0.889552   -0.513583   -0.602764
      6          9           0        0.000000    0.000000   -2.729718
 ---------------------------------------------------------------------
 Rotational constants (GHZ):         158.4272403           2.1082018           2.1082018
 Leave Link  202 at Tue Oct  6 20:15:31 2020, MaxMem=  2684354560 cpu:               2.0 elap:               0.6
 (Enter /udrive/faculty/rpeverati/g16/g16/l301.exe)
 Standard basis: 6-31G(d) (5D, 7F)
 Ernie: Thresh=  0.10000D-02 Tol=  0.10000D-05 Strict=F.
 There are    40 symmetry adapted cartesian basis functions of A'  symmetry.
 There are    15 symmetry adapted cartesian basis functions of A"  symmetry.
 There are    37 symmetry adapted basis functions of A'  symmetry.
 There are    15 symmetry adapted basis functions of A"  symmetry.
    52 basis functions,   120 primitive gaussians,    55 cartesian basis functions
    18 alpha electrons       18 beta electrons
       nuclear repulsion energy        85.0325129032 Hartrees.
 IExCor=  402 DFT=T Ex+Corr=B3LYP ExCW=0 ScaHFX=  0.200000
 ScaDFX=  0.800000  0.720000  1.000000  0.810000 ScalE2=  1.000000  1.000000
 IRadAn=      5 IRanWt=     -1 IRanGd=            0 ICorTp=0 IEmpDi=141
 NAtoms=    6 NActive=    6 NUniq=    4 SFac= 2.25D+00 NAtFMM=   60 NAOKFM=F Big=F
 Integral buffers will be    131072 words long.
 Raffenetti 2 integral format.
 Two-electron integral symmetry is turned on.
 R6Disp:  Grimme-D3(BJ) Dispersion energy=       -0.0048732449 Hartrees.
 Nuclear repulsion after empirical dispersion term =       85.0276396584 Hartrees.
 Leave Link  301 at Tue Oct  6 20:15:32 2020, MaxMem=  2684354560 cpu:               2.7 elap:               0.8
 (Enter /udrive/faculty/rpeverati/g16/g16/l302.exe)
 NPDir=0 NMtPBC=     1 NCelOv=     1 NCel=       1 NClECP=     1 NCelD=      1
         NCelK=      1 NCelE2=     1 NClLst=     1 CellRange=     0.0.
 One-electron integrals computed using PRISM.
 One-electron integral symmetry used in STVInt
 NBasis=    52 RedAO= T EigKep=  1.98D-02  NBF=    37    15
 NBsUse=    52 1.00D-06 EigRej= -1.00D+00 NBFU=    37    15
 Precomputing XC quadrature grid using
 IXCGrd= 4 IRadAn=           5 IRanWt=          -1 IRanGd=           0 AccXCQ= 0.00D+00.
 Generated NRdTot=       0 NPtTot=           0 NUsed=           0 NTot=          32
 NSgBfM=    55    55    55    55    55 MxSgAt=     6 MxSgA2=     6.
 Leave Link  302 at Tue Oct  6 20:15:33 2020, MaxMem=  2684354560 cpu:               2.8 elap:               0.7
 (Enter /udrive/faculty/rpeverati/g16/g16/l303.exe)
 DipDrv:  MaxL=1.
 Leave Link  303 at Tue Oct  6 20:15:34 2020, MaxMem=  2684354560 cpu:               0.9 elap:               0.5
 (Enter /udrive/faculty/rpeverati/g16/g16/l401.exe)
 Initial guess from the checkpoint file:  "MN_35_fch3clcomp1_BH76_B3LYP_6-31Gs.chk"
 SCF N**3 symmetry information disabled.
 B after Tr=     0.000000    0.000000   -0.000000
         Rot=    1.000000   -0.000000    0.000000    0.000000 Ang=   0.00 deg.
 Guess basis will be translated and rotated to current coordinates.
 JPrj=2 DoOrth=T DoCkMO=T.
 Initial guess orbital symmetries:
       Occupied  (A1) (A1) (A1) (A1) (A1) (E) (E) (A1) (A1) (A1)
                 (E) (E) (A1) (E) (E) (A1) (E) (E)
       Virtual   (A1) (A1) (E) (E) (A1) (E) (E) (A1) (E) (E) (A1)
                 (E) (E) (A1) (E) (E) (E) (E) (A1) (A1) (E) (E)
                 (A1) (E) (E) (A1) (E) (E) (E) (E) (A1) (E) (E)
                 (A1)
 The electronic state of the initial guess is 1-A1.
 Generating alternative initial guess.
 ExpMin= 1.43D-01 ExpMax= 2.52D+04 ExpMxC= 3.78D+03 IAcc=2 IRadAn=         4 AccDes= 0.00D+00
 Harris functional with IExCor=  402 and IRadAn=       4 diagonalized for initial guess.
 HarFok:  IExCor=  402 AccDes= 0.00D+00 IRadAn=         4 IDoV= 1 UseB2=F ITyADJ=14
 ICtDFT=  3500011 ScaDFX=  1.000000  1.000000  1.000000  1.000000
 FoFCou: FMM=F IPFlag=           0 FMFlag=      100000 FMFlg1=           0
         NFxFlg=           0 DoJE=T BraDBF=F KetDBF=T FulRan=T
         wScrn=  0.000000 ICntrl=       500 IOpCl=  0 I1Cent=   200000004 NGrid=           0
         NMat0=    1 NMatS0=      1 NMatT0=    0 NMatD0=    1 NMtDS0=    0 NMtDT0=    0
 Petite list used in FoFCou.
 Harris En= -600.097706681129    
 Leave Link  401 at Tue Oct  6 20:15:35 2020, MaxMem=  2684354560 cpu:               5.1 elap:               0.9
 (Enter /udrive/faculty/rpeverati/g16/g16/l502.exe)
 Keep R1 ints in memory in symmetry-blocked form, NReq=11461374.
 FoFCou: FMM=F IPFlag=           0 FMFlag=           0 FMFlg1=           0
         NFxFlg=           0 DoJE=F BraDBF=F KetDBF=F FulRan=T
         wScrn=  0.000000 ICntrl=       600 IOpCl=  0 I1Cent=           0 NGrid=           0
         NMat0=    1 NMatS0=   1378 NMatT0=    0 NMatD0=    1 NMtDS0=    0 NMtDT0=    0
 Petite list used in FoFCou.
 Closed shell SCF:
 Using DIIS extrapolation, IDIIS=  1040.
 NGot=  2684354560 LenX=  2683850103 LenY=  2683846637
 Requested convergence on RMS density matrix=1.00D-08 within 120 cycles.
 Requested convergence on MAX density matrix=1.00D-06.
 Requested convergence on             energy=1.00D-06.
 No special actions if energy rises.
 Integral accuracy reduced to 1.0D-05 until final iterations.

 Cycle   1  Pass 0  IDiag  1:
 E= -599.921396504003    
 DIIS: error= 2.18D-03 at cycle   1 NSaved=   1.
 NSaved= 1 IEnMin= 1 EnMin= -599.921396504003     IErMin= 1 ErrMin= 2.18D-03
 ErrMax= 2.18D-03  0.00D+00 EMaxC= 1.00D-01 BMatC= 4.78D-04 BMatP= 4.78D-04
 IDIUse=3 WtCom= 9.78D-01 WtEn= 2.18D-02
 Coeff-Com:  0.100D+01
 Coeff-En:   0.100D+01
 Coeff:      0.100D+01
 Gap=     0.163 Goal=   None    Shift=    0.000
 GapD=    0.163 DampG=1.000 DampE=1.000 DampFc=1.0000 IDamp=-1.
 RMSDP=9.14D-04 MaxDP=9.41D-03              OVMax= 1.54D-02

 Cycle   2  Pass 0  IDiag  1:
 E= -599.922062405895     Delta-E=       -0.000665901892 Rises=F Damp=F
 DIIS: error= 1.62D-03 at cycle   2 NSaved=   2.
 NSaved= 2 IEnMin= 2 EnMin= -599.922062405895     IErMin= 2 ErrMin= 1.62D-03
 ErrMax= 1.62D-03  0.00D+00 EMaxC= 1.00D-01 BMatC= 1.15D-04 BMatP= 4.78D-04
 IDIUse=3 WtCom= 9.84D-01 WtEn= 1.62D-02
 Coeff-Com:  0.258D+00 0.742D+00
 Coeff-En:   0.000D+00 0.100D+01
 Coeff:      0.254D+00 0.746D+00
 Gap=     0.158 Goal=   None    Shift=    0.000
 RMSDP=3.43D-04 MaxDP=4.54D-03 DE=-6.66D-04 OVMax= 8.48D-03

 Cycle   3  Pass 0  IDiag  1:
 E= -599.922093495648     Delta-E=       -0.000031089752 Rises=F Damp=F
 DIIS: error= 1.50D-03 at cycle   3 NSaved=   3.
 NSaved= 3 IEnMin= 3 EnMin= -599.922093495648     IErMin= 3 ErrMin= 1.50D-03
 ErrMax= 1.50D-03  0.00D+00 EMaxC= 1.00D-01 BMatC= 8.99D-05 BMatP= 1.15D-04
 IDIUse=3 WtCom= 9.85D-01 WtEn= 1.50D-02
 Coeff-Com: -0.182D-01 0.469D+00 0.549D+00
 Coeff-En:   0.000D+00 0.438D+00 0.562D+00
 Coeff:     -0.179D-01 0.469D+00 0.549D+00
 Gap=     0.162 Goal=   None    Shift=    0.000
 RMSDP=2.61D-04 MaxDP=2.33D-03 DE=-3.11D-05 OVMax= 4.90D-03

 Cycle   4  Pass 0  IDiag  1:
 E= -599.922180716563     Delta-E=       -0.000087220916 Rises=F Damp=F
 DIIS: error= 5.86D-04 at cycle   4 NSaved=   4.
 NSaved= 4 IEnMin= 4 EnMin= -599.922180716563     IErMin= 4 ErrMin= 5.86D-04
 ErrMax= 5.86D-04  0.00D+00 EMaxC= 1.00D-01 BMatC= 8.16D-06 BMatP= 8.99D-05
 IDIUse=3 WtCom= 9.94D-01 WtEn= 5.86D-03
 Coeff-Com: -0.930D-02 0.300D+00 0.380D+00 0.329D+00
 Coeff-En:   0.000D+00 0.000D+00 0.000D+00 0.100D+01
 Coeff:     -0.925D-02 0.298D+00 0.378D+00 0.333D+00
 Gap=     0.161 Goal=   None    Shift=    0.000
 RMSDP=8.21D-05 MaxDP=8.30D-04 DE=-8.72D-05 OVMax= 1.79D-03

 Cycle   5  Pass 0  IDiag  1:
 E= -599.922187659206     Delta-E=       -0.000006942643 Rises=F Damp=F
 DIIS: error= 5.30D-05 at cycle   5 NSaved=   5.
 NSaved= 5 IEnMin= 5 EnMin= -599.922187659206     IErMin= 5 ErrMin= 5.30D-05
 ErrMax= 5.30D-05  0.00D+00 EMaxC= 1.00D-01 BMatC= 1.12D-07 BMatP= 8.16D-06
 IDIUse=1 WtCom= 1.00D+00 WtEn= 0.00D+00
 Coeff-Com: -0.502D-02 0.606D-01 0.974D-01 0.646D-01 0.782D+00
 Coeff:     -0.502D-02 0.606D-01 0.974D-01 0.646D-01 0.782D+00
 Gap=     0.161 Goal=   None    Shift=    0.000
 RMSDP=8.74D-06 MaxDP=1.03D-04 DE=-6.94D-06 OVMax= 1.22D-04

 Initial convergence to 1.0D-05 achieved.  Increase integral accuracy.
 Cycle   6  Pass 1  IDiag  1:
 E= -599.922192781188     Delta-E=       -0.000005121981 Rises=F Damp=F
 DIIS: error= 1.52D-05 at cycle   1 NSaved=   1.
 NSaved= 1 IEnMin= 1 EnMin= -599.922192781188     IErMin= 1 ErrMin= 1.52D-05
 ErrMax= 1.52D-05  0.00D+00 EMaxC= 1.00D-01 BMatC= 9.12D-09 BMatP= 9.12D-09
 IDIUse=1 WtCom= 1.00D+00 WtEn= 0.00D+00
 Coeff-Com:  0.100D+01
 Coeff:      0.100D+01
 Gap=     0.161 Goal=   None    Shift=    0.000
 RMSDP=8.74D-06 MaxDP=1.03D-04 DE=-5.12D-06 OVMax= 1.75D-04

 Cycle   7  Pass 1  IDiag  1:
 E= -599.922192764969     Delta-E=        0.000000016219 Rises=F Damp=F
 DIIS: error= 3.33D-05 at cycle   2 NSaved=   2.
 NSaved= 2 IEnMin= 1 EnMin= -599.922192781188     IErMin= 1 ErrMin= 1.52D-05
 ErrMax= 3.33D-05  0.00D+00 EMaxC= 1.00D-01 BMatC= 3.02D-08 BMatP= 9.12D-09
 IDIUse=1 WtCom= 1.00D+00 WtEn= 0.00D+00
 Coeff-Com:  0.654D+00 0.346D+00
 Coeff:      0.654D+00 0.346D+00
 Gap=     0.161 Goal=   None    Shift=    0.000
 RMSDP=5.29D-06 MaxDP=5.35D-05 DE= 1.62D-08 OVMax= 1.18D-04

 Cycle   8  Pass 1  IDiag  1:
 E= -599.922192790451     Delta-E=       -0.000000025482 Rises=F Damp=F
 DIIS: error= 4.12D-06 at cycle   3 NSaved=   3.
 NSaved= 3 IEnMin= 3 EnMin= -599.922192790451     IErMin= 3 ErrMin= 4.12D-06
 ErrMax= 4.12D-06  0.00D+00 EMaxC= 1.00D-01 BMatC= 7.22D-10 BMatP= 9.12D-09
 IDIUse=1 WtCom= 1.00D+00 WtEn= 0.00D+00
 Coeff-Com:  0.271D+00 0.174D+00 0.554D+00
 Coeff:      0.271D+00 0.174D+00 0.554D+00
 Gap=     0.161 Goal=   None    Shift=    0.000
 RMSDP=6.37D-07 MaxDP=5.99D-06 DE=-2.55D-08 OVMax= 1.21D-05

 Cycle   9  Pass 1  IDiag  1:
 E= -599.922192791050     Delta-E=       -0.000000000599 Rises=F Damp=F
 DIIS: error= 6.91D-07 at cycle   4 NSaved=   4.
 NSaved= 4 IEnMin= 4 EnMin= -599.922192791050     IErMin= 4 ErrMin= 6.91D-07
 ErrMax= 6.91D-07  0.00D+00 EMaxC= 1.00D-01 BMatC= 2.01D-11 BMatP= 7.22D-10
 IDIUse=1 WtCom= 1.00D+00 WtEn= 0.00D+00
 Coeff-Com:  0.884D-01 0.498D-01 0.223D+00 0.638D+00
 Coeff:      0.884D-01 0.498D-01 0.223D+00 0.638D+00
 Gap=     0.161 Goal=   None    Shift=    0.000
 RMSDP=1.22D-07 MaxDP=1.94D-06 DE=-5.99D-10 OVMax= 2.25D-06

 Cycle  10  Pass 1  IDiag  1:
 E= -599.922192791068     Delta-E=       -0.000000000018 Rises=F Damp=F
 DIIS: error= 2.20D-07 at cycle   5 NSaved=   5.
 NSaved= 5 IEnMin= 5 EnMin= -599.922192791068     IErMin= 5 ErrMin= 2.20D-07
 ErrMax= 2.20D-07  0.00D+00 EMaxC= 1.00D-01 BMatC= 2.89D-12 BMatP= 2.01D-11
 IDIUse=1 WtCom= 1.00D+00 WtEn= 0.00D+00
 Coeff-Com: -0.265D-02-0.846D-02 0.191D-01 0.297D+00 0.695D+00
 Coeff:     -0.265D-02-0.846D-02 0.191D-01 0.297D+00 0.695D+00
 Gap=     0.161 Goal=   None    Shift=    0.000
 RMSDP=5.97D-08 MaxDP=7.09D-07 DE=-1.80D-11 OVMax= 7.91D-07

 Cycle  11  Pass 1  IDiag  1:
 E= -599.922192791071     Delta-E=       -0.000000000002 Rises=F Damp=F
 DIIS: error= 6.68D-08 at cycle   6 NSaved=   6.
 NSaved= 6 IEnMin= 6 EnMin= -599.922192791071     IErMin= 6 ErrMin= 6.68D-08
 ErrMax= 6.68D-08  0.00D+00 EMaxC= 1.00D-01 BMatC= 1.49D-13 BMatP= 2.89D-12
 IDIUse=1 WtCom= 1.00D+00 WtEn= 0.00D+00
 Coeff-Com: -0.666D-02-0.696D-02-0.614D-02 0.977D-01 0.329D+00 0.593D+00
 Coeff:     -0.666D-02-0.696D-02-0.614D-02 0.977D-01 0.329D+00 0.593D+00
 Gap=     0.161 Goal=   None    Shift=    0.000
 RMSDP=9.69D-09 MaxDP=1.08D-07 DE=-2.16D-12 OVMax= 1.12D-07

 SCF Done:  E(RB3LYP) =  -599.922192791     A.U. after   11 cycles
            NFock= 11  Conv=0.97D-08     -V/T= 2.0022
 KE= 5.985877643262D+02 PE=-1.605183438150D+03 EE= 3.216458413740D+02
 Leave Link  502 at Tue Oct  6 20:15:38 2020, MaxMem=  2684354560 cpu:              20.3 elap:               2.2
 (Enter /udrive/faculty/rpeverati/g16/g16/l508.exe)
 QCSCF skips out because SCF is already converged.
 Leave Link  508 at Tue Oct  6 20:15:39 2020, MaxMem=  2684354560 cpu:               0.3 elap:               0.5
 (Enter /udrive/faculty/rpeverati/g16/g16/l701.exe)
 ... and contract with generalized density number  0.
 Compute integral first derivatives.
 R6Disp: Adding Grimme-D3(BJ) dispersion energy 1st derivatives to the gradient.
 Leave Link  701 at Tue Oct  6 20:15:40 2020, MaxMem=  2684354560 cpu:               3.5 elap:               0.8
 (Enter /udrive/faculty/rpeverati/g16/g16/l702.exe)
 L702 exits ... SP integral derivatives will be done elsewhere.
 Leave Link  702 at Tue Oct  6 20:15:41 2020, MaxMem=  2684354560 cpu:               1.3 elap:               0.6
 (Enter /udrive/faculty/rpeverati/g16/g16/l703.exe)
 Integral derivatives from FoFJK, PRISM(SPDF).
 Compute integral first derivatives, UseDBF=F ICtDFT=           0.
 Calling FoFJK, ICntrl=      2127 FMM=F ISym2X=1 I1Cent= 0 IOpClX= 0 NMat=1 NMatS=1 NMatT=0.
 FoFJK:  IHMeth= 1 ICntrl=    2127 DoSepK=F KAlg= 0 I1Cent=           0 FoldK=F
 IRaf=         0 NMat=       1 IRICut=       1 DoRegI=T DoRafI=F ISym2E= 1 IDoP0=0 IntGTp=1.
 FoFCou: FMM=F IPFlag=           0 FMFlag=      100000 FMFlg1=         800
         NFxFlg=           0 DoJE=F BraDBF=F KetDBF=F FulRan=T
         wScrn=  0.000000 ICntrl=      2127 IOpCl=  0 I1Cent=           0 NGrid=           0
         NMat0=    1 NMatS0=      1 NMatT0=    0 NMatD0=    1 NMtDS0=    0 NMtDT0=    0
 Petite list used in FoFCou.
 Leave Link  703 at Tue Oct  6 20:15:43 2020, MaxMem=  2684354560 cpu:               7.0 elap:               1.1
 (Enter /udrive/faculty/rpeverati/g16/g16/l716.exe)
 Dipole        = 0.00000000D+00-3.33066907D-16 2.34377326D+00
 ***** Axes restored to original set *****
 -------------------------------------------------------------------
 Center     Atomic                   Forces (Hartrees/Bohr)
 Number     Number              X              Y              Z
 -------------------------------------------------------------------
      1       17          -0.000000000    0.000000000    0.010166781
      2        6           0.000000000   -0.000000000   -0.020523196
      3        1          -0.000271809   -0.000470788    0.000031659
      4        1          -0.000271809    0.000470788    0.000031659
      5        1           0.000543619    0.000000000    0.000031659
      6        9          -0.000000000   -0.000000000    0.010261439
 -------------------------------------------------------------------
 Cartesian Forces:  Max     0.020523196 RMS     0.005919608
 Leave Link  716 at Tue Oct  6 20:15:43 2020, MaxMem=  2684354560 cpu:               1.4 elap:               0.5
 (Enter /udrive/faculty/rpeverati/g16/g16/l103.exe)

 GradGradGradGradGradGradGradGradGradGradGradGradGradGradGradGradGradGrad
 Berny optimization.
 Optmz: redundant internal coordinate code flag= 1
 Using GEDIIS/GDIIS optimizer.
 Red2BG:  D1=  3.85D-01 OD1=  3.46D-02 B2RMS=  0.00D+00 IAprox=0
 FormGI is forming the generalized inverse of G from B-inverse, IUseBI=4.
 Internal  Forces:  Max     0.010166781 RMS     0.002588215
 Search for a local minimum.
 Step number   2 out of a maximum of  100
 All quantities printed in internal units (Hartrees-Bohrs-Radians)
 RMS Force = .25882D-02 SwitMx=.10000D-02 MixMth= 1
 Mixed Optimization -- RFO/linear search
 Update second derivatives using D2CorX and points    1    2
 DE= -2.81D-03 DEPred=-1.99D-03 R= 1.41D+00
 TightC=F SS=  1.41D+00  RLast= 1.96D-01 DXNew= 5.0454D-01 5.8791D-01
 Trust test= 1.41D+00 RLast= 1.96D-01 DXMaxT set to 5.05D-01
 The second derivative matrix:
                          R1        R2        R3        R4        R5
           R1           0.17421
           R2           0.00207   0.36458
           R3           0.00319   0.00166   0.36497
           R4           0.00190   0.00145   0.00163   0.36453
           R5           0.03784   0.00529   0.00548   0.00526   0.03766
           R6           0.00774   0.00051   0.00046   0.00052  -0.00215
           R7           0.00764   0.00049   0.00044   0.00050  -0.00216
           R8           0.00668   0.00033   0.00027   0.00034  -0.00233
           A1           0.00368   0.00120   0.00132   0.00118   0.00317
           A2           0.00373   0.00121   0.00133   0.00119   0.00318
           A3           0.00389   0.00123   0.00136   0.00122   0.00321
           A4           0.00416   0.00015   0.00011   0.00016  -0.00169
           A5          -0.00741  -0.00179  -0.00194  -0.00177  -0.00366
           A6          -0.00753  -0.00181  -0.00196  -0.00179  -0.00368
           A7          -0.00866  -0.00045  -0.00038  -0.00046   0.00292
           A8          -0.01205  -0.00102  -0.00098  -0.00102   0.00235
           A9          -0.01185  -0.00098  -0.00094  -0.00099   0.00238
           A10          0.00013   0.00002   0.00002   0.00002   0.00002
           A11          0.00014   0.00002   0.00002   0.00002   0.00002
           D1          -0.02875  -0.00486  -0.00513  -0.00482  -0.00504
           D2          -0.00395  -0.00066  -0.00070  -0.00065  -0.00066
           D3          -0.00298  -0.00050  -0.00053  -0.00050  -0.00051
           D4           0.00288   0.00048   0.00051   0.00048   0.00050
                          R6        R7        R8        A1        A2
           R6           0.02281
           R7          -0.00074   0.02282
           R8          -0.00070  -0.00069   0.02291
           A1           0.00015   0.00014   0.00004   0.16090
           A2           0.00015   0.00014   0.00004   0.00091   0.16091
           A3           0.00014   0.00013   0.00003   0.00092   0.00093
           A4          -0.00046  -0.00046  -0.00042  -0.00002  -0.00003
           A5           0.00002   0.00003   0.00016  -0.00127  -0.00128
           A6           0.00003   0.00004   0.00017  -0.00129  -0.00129
           A7           0.00089   0.00089   0.00083  -0.00007  -0.00006
           A8           0.00103   0.00103   0.00100  -0.00043  -0.00043
           A9           0.00103   0.00102   0.00099  -0.00041  -0.00041
           A10         -0.00001  -0.00001  -0.00001   0.00001   0.00001
           A11         -0.00001  -0.00001  -0.00001   0.00001   0.00001
           D1           0.00119   0.00121   0.00144  -0.00314  -0.00315
           D2           0.00017   0.00017   0.00020  -0.00042  -0.00043
           D3           0.00012   0.00013   0.00015  -0.00032  -0.00032
           D4          -0.00012  -0.00012  -0.00015   0.00031   0.00031
                          A3        A4        A5        A6        A7
           A3           0.16095
           A4          -0.00003   0.15973
           A5          -0.00130   0.00018   0.16173
           A6          -0.00132   0.00018   0.00175   0.16176
           A7          -0.00005   0.00054  -0.00018  -0.00019   0.15894
           A8          -0.00043   0.00068   0.00027   0.00027  -0.00127
           A9          -0.00040   0.00067   0.00024   0.00024  -0.00126
           A10          0.00001  -0.00000  -0.00002  -0.00002   0.00001
           A11          0.00002  -0.00001  -0.00002  -0.00002   0.00001
           D1          -0.00319   0.00111   0.00391   0.00394  -0.00179
           D2          -0.00043   0.00015   0.00053   0.00053  -0.00025
           D3          -0.00033   0.00012   0.00040   0.00041  -0.00019
           D4           0.00032  -0.00011  -0.00039  -0.00039   0.00018
                          A8        A9        A10       A11       D1
           A8           0.15861
           A9          -0.00138   0.15862
           A10          0.00000   0.00000   0.00230
           A11          0.00000   0.00001   0.00000   0.00230
           D1          -0.00097  -0.00102  -0.00003  -0.00003   0.01110
           D2          -0.00014  -0.00015  -0.00000  -0.00000   0.00094
           D3          -0.00010  -0.00011  -0.00000  -0.00000   0.00073
           D4           0.00010   0.00010   0.00000   0.00000  -0.00070
                          D2        D3        D4
           D2           0.00243
           D3           0.00010   0.00237
           D4          -0.00009  -0.00007   0.00237
 ITU=  1  0
 Use linear search instead of GDIIS.
 Eigenvectors of the second derivative matrix:
                           1         2         3         4         5
     Eigenvalues --     0.01708   0.02068   0.02087   0.06687   0.10052
   1         R1         0.21333   0.00000  -0.00045  -0.25870  -0.02153
   2         R2         0.00116   0.00076   0.00306  -0.01852  -0.00159
   3         R3         0.00131  -0.00402   0.00029  -0.01025  -0.01365
   4         R4         0.00145   0.00318  -0.00320  -0.02716   0.01070
   5         R5        -0.52852  -0.00026   0.00133   0.28705   0.01602
   6         R6        -0.46457   0.17800   0.71552  -0.17092  -0.00837
   7         R7        -0.46601  -0.70432  -0.20002  -0.16511  -0.21288
   8         R8        -0.46792   0.52419  -0.51077  -0.15537   0.19112
   9         A1        -0.00467   0.00874   0.03421   0.20424   0.00288
  10         A2        -0.00472  -0.03674  -0.00901   0.20568   0.56552
  11         A3        -0.00480   0.02871  -0.02576   0.21188  -0.53244
  12         A4         0.00442  -0.00897   0.00676  -0.40792   0.03305
  13         A5         0.00456   0.00920   0.00211  -0.09187  -0.06687
  14         A6         0.00453  -0.00090  -0.00834  -0.09213  -0.00041
  15         A7         0.08649   0.04477  -0.04439  -0.08973   0.02641
  16         A8         0.08673  -0.06059  -0.01808  -0.00518  -0.03362
  17         A9         0.08689   0.01599   0.06182  -0.00414   0.00128
  18         A10        0.00086   0.09668   0.38667  -0.00655  -0.00827
  19         A11        0.00062  -0.40811   0.10329  -0.00736   0.54706
  20         D1         0.01199  -0.00566   0.00428  -0.64939  -0.00477
  21         D2         0.01166  -0.05354   0.08747   0.12792  -0.05504
  22         D3        -0.01135  -0.08917  -0.05114   0.07198  -0.06181
  23         D4         0.01111  -0.04856  -0.09211  -0.07206  -0.01174
                           6         7         8         9        10
     Eigenvalues --     0.10339   0.11533   0.11865   0.19660   0.33199
   1         R1         0.02085  -0.25962  -0.00859   0.90498   0.00283
   2         R2         0.00703  -0.00630  -0.02023  -0.00800  -0.20755
   3         R3         0.00395  -0.05830   0.01805  -0.03523   0.03450
   4         R4        -0.00654   0.01439   0.00062  -0.00588   0.91754
   5         R5        -0.01487   0.15253   0.00475   0.25070   0.00747
   6         R6         0.21802  -0.05295  -0.08475   0.03979   0.00931
   7         R7        -0.09022  -0.08263   0.07889   0.03614   0.01787
   8         R8        -0.09933  -0.17301  -0.00389   0.02245   0.02732
   9         A1        -0.65239   0.05865   0.08711   0.09193  -0.00368
  10         A2         0.30151   0.09388  -0.07632   0.09188   0.00212
  11         A3         0.31727   0.19998   0.00025   0.09879   0.03304
  12         A4        -0.03408   0.48044   0.01604   0.02100  -0.02798
  13         A5        -0.03169  -0.39523  -0.59192  -0.14699   0.01366
  14         A6         0.09776  -0.42079   0.56537  -0.14303  -0.01565
  15         A7        -0.01903   0.13448   0.00461  -0.00962  -0.04477
  16         A8        -0.01962  -0.08885  -0.16213  -0.04973   0.14176
  17         A9         0.04422  -0.10367   0.15573  -0.05370   0.18090
  18         A10       -0.53860  -0.03489   0.04448   0.00064   0.01109
  19         A11       -0.00726  -0.03450  -0.02239   0.00107   0.01327
  20         D1         0.00262   0.04362   0.00193  -0.17572  -0.03711
  21         D2         0.04972  -0.37176  -0.00975  -0.07699   0.05461
  22         D3        -0.04545  -0.17822  -0.35903  -0.03136  -0.16685
  23         D4        -0.08597   0.19692  -0.34645   0.03222   0.15164
                          11        12
     Eigenvalues --     0.34110   0.34273
   1         R1         0.00974  -0.01045
   2         R2         0.71660   0.59166
   3         R3         0.59308  -0.73793
   4         R4         0.11855   0.15872
   5         R5         0.02053  -0.01937
   6         R6         0.03122   0.03153
   7         R7         0.02729  -0.01106
   8         R8         0.01997  -0.00439
   9         A1         0.03447   0.00302
  10         A2         0.03143  -0.03393
  11         A3         0.01562  -0.00206
  12         A4         0.01074  -0.07607
  13         A5        -0.05161  -0.02625
  14         A6        -0.03673   0.13370
  15         A7         0.25826  -0.05234
  16         A8         0.14700   0.13945
  17         A9         0.12696  -0.07627
  18         A10       -0.00585  -0.01128
  19         A11       -0.00695   0.01407
  20         D1        -0.04798  -0.02209
  21         D2        -0.01551  -0.14324
  22         D3         0.05100   0.03437
  23         D4        -0.04313   0.05054
 Iter=   1 RLamda= 0.00000000D+00 Sum=-4.81849397D-03.
 Iter=   2 RLamda=-4.81849397D-03 Sum=-4.07963887D-03.
 Iter=   3 RLamda=-4.07963887D-03 Sum=-4.17272739D-03.
 Iter=   4 RLamda=-4.17272739D-03 Sum=-4.16067392D-03.
 Iter=   5 RLamda=-4.16067392D-03 Sum=-4.16222920D-03.
 Iter=   6 RLamda=-4.16222920D-03 Sum=-4.16202843D-03.
 Iter=   7 RLamda=-4.16202843D-03 Sum=-4.16205435D-03.
 Iter=   8 RLamda=-4.16205435D-03 Sum=-4.16205100D-03.
 RFO step:  Lambda=-4.16205435D-03 EMin= 1.70754809D-02
 Quartic linear search produced a step of  1.33509.
 Iteration  1 RMS(Cart)=  0.04864538 RMS(Int)=  0.02906168
 Iteration  2 RMS(Cart)=  0.01466182 RMS(Int)=  0.00122757
 Iteration  3 RMS(Cart)=  0.00005243 RMS(Int)=  0.00122595
 Iteration  4 RMS(Cart)=  0.00000001 RMS(Int)=  0.00122595
 ITry= 1 IFail=0 DXMaxC= 2.18D-01 DCOld= 1.00D+10 DXMaxT= 5.05D-01 DXLimC= 3.00D+00 Rises=F
 ClnCor:  largest displacement from symmetrization is 1.91D-03 for atom     3.
 Variable       Old X    -DE/DX   Delta X   Delta X   Delta X     New X
                                 (Linear)    (Quad)   (Total)
    R1        3.60919   0.01017   0.14987   0.04188   0.19174   3.80093
    R2        2.04337   0.00051   0.00987  -0.00597   0.00236   2.04573
    R3        2.04337   0.00037   0.00987  -0.00597   0.00236   2.04573
    R4        2.04337   0.00044   0.00987  -0.00603   0.00236   2.04573
    R5        4.65784  -0.00474  -0.09367  -0.22713  -0.32141   4.33644
    R6        4.46352  -0.00193  -0.10659  -0.14283  -0.24877   4.21475
    R7        4.46352  -0.00192  -0.10659  -0.14283  -0.24877   4.21475
    R8        4.46352  -0.00183  -0.10659  -0.14237  -0.24877   4.21475
    A1        1.88858  -0.00114   0.01155  -0.03092  -0.01883   1.86976
    A2        1.88858  -0.00114   0.01155  -0.03092  -0.01883   1.86976
    A3        1.88858  -0.00116   0.01155  -0.03093  -0.01883   1.86976
    A4        1.93216   0.00042  -0.01088   0.02704   0.01752   1.94968
    A5        1.93216   0.00142  -0.01088   0.03064   0.01752   1.94968
    A6        1.93216   0.00143  -0.01088   0.03064   0.01752   1.94968
    A7        0.77227   0.00064   0.01992   0.03124   0.05448   0.82675
    A8        0.77227   0.00093   0.01992   0.03220   0.05448   0.82675
    A9        0.77227   0.00091   0.01992   0.03220   0.05448   0.82675
   A10        3.14159  -0.00001   0.00000  -0.00007   0.00000   3.14159
   A11        3.14159  -0.00001   0.00000  -0.00014   0.00000   3.14159
    D1        2.14946   0.00253  -0.02962   0.07732   0.04869   2.19815
    D2        0.57013   0.00050   0.00256   0.00562   0.00744   0.57757
    D3       -0.57013   0.00011  -0.00256  -0.00341  -0.00744  -0.57757
    D4        0.57013  -0.00009   0.00256   0.00340   0.00744   0.57757
         Item               Value     Threshold  Converged?
 Maximum Force            0.010167     0.000450     NO 
 RMS     Force            0.002588     0.000300     NO 
 Maximum Displacement     0.217806     0.001800     NO 
 RMS     Displacement     0.059069     0.001200     NO 
 Predicted change in Energy=-1.960871D-03
 Lowest energy point so far.  Saving SCF results.
 Largest change from initial coordinates is atom    6       0.115 Angstoms.
 GradGradGradGradGradGradGradGradGradGradGradGradGradGradGradGradGradGrad

 Leave Link  103 at Tue Oct  6 20:15:45 2020, MaxMem=  2684354560 cpu:               3.7 elap:               0.9
 (Enter /udrive/faculty/rpeverati/g16/g16/l202.exe)
                          Input orientation:                          
 ---------------------------------------------------------------------
 Center     Atomic      Atomic             Coordinates (Angstroms)
 Number     Number       Type             X           Y           Z
 ---------------------------------------------------------------------
      1         17           0       -0.000000    0.000000    2.217966
      2          6           0       -0.000000    0.000000    0.206599
      3          1           0       -0.517268   -0.895934   -0.112242
      4          1           0       -0.517268    0.895934   -0.112242
      5          1           0        1.034535   -0.000000   -0.112242
      6          9           0       -0.000000    0.000000   -2.088143
 ---------------------------------------------------------------------
                    Distance matrix (angstroms):
                    1          2          3          4          5
     1  Cl   0.000000
     2  C    2.011367   0.000000
     3  H    2.549536   1.082554   0.000000
     4  H    2.549536   1.082554   1.791868   0.000000
     5  H    2.549536   1.082554   1.791868   1.791868   0.000000
     6  F    4.306109   2.294743   2.230347   2.230347   2.230347
                    6
     6  F    0.000000
 Stoichiometry    CH3ClF(1-)
 Framework group  C3V[C3(FCCl),3SGV(H)]
 Deg. of freedom     4
 Full point group                 C3V     NOp   6
 RotChk:  IX=0 Diff= 0.00D+00
 Largest Abelian subgroup         CS      NOp   2
 Largest concise Abelian subgroup CS      NOp   2
                         Standard orientation:                         
 ---------------------------------------------------------------------
 Center     Atomic      Atomic             Coordinates (Angstroms)
 Number     Number       Type             X           Y           Z
 ---------------------------------------------------------------------
      1         17           0        0.000000    0.000000    1.651823
      2          6           0        0.000000    0.000000   -0.359544
      3          1           0        0.000000    1.034535   -0.678385
      4          1           0        0.895934   -0.517268   -0.678385
      5          1           0       -0.895934   -0.517268   -0.678385
      6          9           0        0.000000    0.000000   -2.654286
 ---------------------------------------------------------------------
 Rotational constants (GHZ):         156.1781366           2.1615088           2.1615088
 Leave Link  202 at Tue Oct  6 20:15:46 2020, MaxMem=  2684354560 cpu:               1.4 elap:               0.5
 (Enter /udrive/faculty/rpeverati/g16/g16/l301.exe)
 Standard basis: 6-31G(d) (5D, 7F)
 Ernie: Thresh=  0.10000D-02 Tol=  0.10000D-05 Strict=F.
 There are    40 symmetry adapted cartesian basis functions of A'  symmetry.
 There are    15 symmetry adapted cartesian basis functions of A"  symmetry.
 There are    37 symmetry adapted basis functions of A'  symmetry.
 There are    15 symmetry adapted basis functions of A"  symmetry.
    52 basis functions,   120 primitive gaussians,    55 cartesian basis functions
    18 alpha electrons       18 beta electrons
[...]
   5         R5        -0.03210  -0.00058   0.00039   0.00808  -0.10193
   6         R6        -0.00745   0.11893  -0.64264   0.33813  -0.13497
   7         R7        -0.00779   0.43639   0.44384   0.34983  -0.25030
   8         R8        -0.00749  -0.57343   0.20560   0.27783   0.00237
   9         A1        -0.01045   0.00901  -0.04007  -0.20548   0.07160
  10         A2        -0.01046   0.02781   0.02627  -0.20115   0.46385
  11         A3        -0.01045  -0.02788   0.00993  -0.22126  -0.47117
  12         A4        -0.01122   0.04167  -0.00707  -0.32573  -0.25909
  13         A5        -0.01033  -0.02369  -0.02436  -0.15684   0.18453
  14         A6        -0.01035  -0.00889   0.02748  -0.15614   0.13995
  15         A7         0.00190  -0.05719   0.02263  -0.17235  -0.05099
  16         A8         0.00216   0.04859   0.04624  -0.10806   0.07558
  17         A9         0.00220   0.01330  -0.07151  -0.10887   0.07238
  18         A10        0.00009   0.10103  -0.52633   0.01480   0.04617
  19         A11       -0.00015   0.50629   0.12033   0.04217   0.46698
  20         D1         0.02559  -0.03133   0.00671   0.57573   0.12376
  21         D2         0.00081  -0.25046  -0.12991   0.04047   0.24262
  22         D3        -0.00007  -0.27358   0.00650   0.04158   0.15511
  23         D4         0.00012   0.22703  -0.16642  -0.04337  -0.11256
                           6         7         8         9        10
     Eigenvalues --     0.10751   0.11209   0.11720   0.14125   0.28481
   1         R1        -0.00146   0.02188   0.00398   0.03526   0.00120
   2         R2        -0.06890   0.02332   0.03047   0.07507   0.25458
   3         R3         0.04380  -0.02784  -0.02164   0.14035   0.34191
   4         R4         0.01509   0.10947   0.01227   0.01124  -0.73880
   5         R5        -0.01923   0.27028   0.05040   0.49264   0.00301
   6         R6        -0.27968   0.18812   0.14991   0.26481   0.07770
   7         R7         0.14907   0.07338  -0.07748   0.36163   0.10119
   8         R8         0.06586   0.48359   0.05383   0.13235  -0.20309
   9         A1         0.62330   0.12127  -0.14794   0.16279   0.04638
  10         A2        -0.37699   0.22581   0.16009   0.12026   0.07167
  11         A3        -0.24099  -0.31851   0.00360   0.23996  -0.17575
  12         A4        -0.03697   0.41087   0.05747  -0.17802   0.11626
  13         A5        -0.12461  -0.11162  -0.56319   0.36671  -0.08555
  14         A6         0.16699  -0.27019   0.52173   0.34334  -0.08941
  15         A7        -0.00237   0.10707   0.01276  -0.08791   0.15613
  16         A8        -0.02872  -0.08999  -0.20749   0.09637  -0.12617
  17         A9         0.04423  -0.14189   0.17890   0.09162  -0.11011
  18         A10        0.46514   0.07315  -0.08558  -0.00234  -0.04348
  19         A11       -0.05523   0.19334   0.04744  -0.01321  -0.08899
  20         D1         0.01995  -0.27363  -0.04523  -0.19884  -0.03843
  21         D2        -0.00240  -0.21181  -0.00491   0.21776   0.03498
  22         D3        -0.08061  -0.00525  -0.35823   0.09483   0.20424
  23         D4        -0.15930   0.12216  -0.33033  -0.08970  -0.20316
                          11        12
     Eigenvalues --     0.31281   0.34163
   1         R1         0.00259  -0.02203
   2         R2         0.62653   0.57599
   3         R3        -0.64088   0.46988
   4         R4        -0.09634   0.41175
   5         R5         0.04489  -0.35184
   6         R6         0.10212   0.06427
   7         R7        -0.11630   0.05395
   8         R8        -0.00972   0.04835
   9         A1         0.18578   0.03325
  10         A2        -0.14228   0.00416
  11         A3        -0.00137  -0.01289
  12         A4        -0.07796   0.03503
  13         A5         0.03521  -0.00699
  14         A6         0.08561  -0.00311
  15         A7        -0.02821   0.24017
  16         A8         0.12371   0.21301
  17         A9        -0.12637   0.19098
  18         A10       -0.12677  -0.02014
  19         A11        0.05645  -0.00746
  20         D1         0.02373  -0.03642
  21         D2        -0.18095   0.01005
  22         D3         0.04607  -0.01265
  23         D4        -0.07225   0.00977
 DoSqrt=T IScMMF=    -3 MM Scaling Factor =       0.00000
 En-DIIS/RFO-DIIS/Sim-DIIS IScMMF=       -3 using points:    15   14   13   12
 Iter=   1 RLamda=-3.97743498D-02 Sum=-2.85180916D-09.
 Iter=   2 RLamda=-2.85180916D-09 Sum=-1.02240174D-08.
 RFO step:  Lambda=-2.85180916D-09.
 NNeg= 0 NGDIIS= 4 SimSw=  2.50D-01 Rises=F DC= -2.07D-06 SmlDif=  1.00D-05
 NRisDI= 0 DoIntr=F SqrtH=F CThrHd= 10.0 CDAdj=  3.0
 RMS Error=  0.1945142758D-03 NUsed= 4 OKEnD=F EnDIS=F
 Total RFO-DIIS matrix:
                 1             2             3             4             5 
      1   0.000000D+00 -0.100000D+01 -0.100000D+01 -0.100000D+01 -0.100000D+01
      2  -0.100000D+01  0.870223D-06  0.174108D-04  0.104063D-03  0.216801D-03
      3  -0.100000D+01  0.174108D-04  0.356752D-03  0.212531D-02  0.437521D-02
      4  -0.100000D+01  0.104063D-03  0.212531D-02  0.127234D-01  0.263830D-01
      5  -0.100000D+01  0.216801D-03  0.437521D-02  0.263830D-01  0.554144D-01
 InvSVX:  RCond= 2.50D-08 Info=           0 Equed=N FErr=  2.94D-12 BErr=  8.52D-17
 DIIS inversion failure, remove point   4.
 InvSVX:  RCond= 2.85D-07 Info=           0 Equed=N FErr=  2.26D-14 BErr=  0.00D+00
 RFO-DIIS uses    3 points instead of    4
 DidBck=F Rises=F RFO-DIIS coefs:    1.01427   -0.00717   -0.00710    0.00000
 Iteration  1 RMS(Cart)=  0.00016023 RMS(Int)=  0.00000002
 Iteration  2 RMS(Cart)=  0.00000000 RMS(Int)=  0.00000002
 ITry= 1 IFail=0 DXMaxC= 6.99D-04 DCOld= 1.00D+10 DXMaxT= 1.40D+00 DXLimC= 3.00D+00 Rises=F
 ClnCor:  largest displacement from symmetrization is 2.13D-06 for atom     5.
 Variable       Old X    -DE/DX   Delta X   Delta X   Delta X     New X
                                 (Linear)    (Quad)   (Total)
    R1        6.03920   0.00001   0.00086   0.00000   0.00086   6.04006
    R2        2.06253   0.00000   0.00001  -0.00001   0.00000   2.06253
    R3        2.06253   0.00000   0.00001  -0.00001   0.00000   2.06253
    R4        2.06253   0.00000   0.00001  -0.00001   0.00000   2.06253
    R5        2.66732  -0.00001  -0.00001  -0.00008  -0.00008   2.66723
    R6        3.88860  -0.00001  -0.00002  -0.00005  -0.00007   3.88853
    R7        3.88860  -0.00001  -0.00002  -0.00005  -0.00007   3.88853
    R8        3.88860  -0.00001  -0.00002  -0.00005  -0.00007   3.88853
    A1        1.22276  -0.00000   0.00002  -0.00002  -0.00000   1.22275
    A2        1.22276  -0.00000   0.00002  -0.00002  -0.00000   1.22275
    A3        1.22276  -0.00000   0.00002  -0.00002  -0.00000   1.22275
    A4        1.90236  -0.00000   0.00002  -0.00002  -0.00000   1.90236
    A5        1.90236  -0.00000   0.00002  -0.00002  -0.00000   1.90236
    A6        1.90236  -0.00000   0.00002  -0.00002  -0.00000   1.90236
    A7        0.89298   0.00000   0.00002  -0.00000   0.00002   0.89300
    A8        0.89298   0.00000   0.00002  -0.00000   0.00002   0.89300
    A9        0.89298   0.00000   0.00002  -0.00000   0.00002   0.89300
   A10        3.14159  -0.00000   0.00000   0.00000   0.00000   3.14159
   A11        3.14159  -0.00000   0.00000   0.00000  -0.00000   3.14159
    D1       -2.07445   0.00000  -0.00005   0.00005   0.00001  -2.07444
    D2        0.58757  -0.00000   0.00000  -0.00000   0.00000   0.58758
    D3       -0.58757  -0.00000  -0.00000  -0.00000  -0.00000  -0.58758
    D4        0.58757   0.00000   0.00000   0.00000   0.00000   0.58758
         Item               Value     Threshold  Converged?
 Maximum Force            0.000009     0.000450     YES
 RMS     Force            0.000003     0.000300     YES
 Maximum Displacement     0.000699     0.001800     YES
 RMS     Displacement     0.000160     0.001200     YES
 Predicted change in Energy=-5.091389D-09
 Optimization completed.
    -- Stationary point found.
                           ----------------------------
                           !   Optimized Parameters   !
                           ! (Angstroms and Degrees)  !
 --------------------------                            --------------------------
 ! Name  Definition              Value          Derivative Info.                !
 --------------------------------------------------------------------------------
 ! R1    R(1,2)                  3.1958         -DE/DX =    0.0                 !
 ! R2    R(2,3)                  1.0914         -DE/DX =    0.0                 !
 ! R3    R(2,4)                  1.0914         -DE/DX =    0.0                 !
 ! R4    R(2,5)                  1.0914         -DE/DX =    0.0                 !
 ! R5    R(2,6)                  1.4115         -DE/DX =    0.0                 !
 ! R6    R(3,6)                  2.0578         -DE/DX =    0.0                 !
 ! R7    R(4,6)                  2.0578         -DE/DX =    0.0                 !
 ! R8    R(5,6)                  2.0578         -DE/DX =    0.0                 !
 ! A1    A(1,2,3)               70.0587         -DE/DX =    0.0                 !
 ! A2    A(1,2,4)               70.0587         -DE/DX =    0.0                 !
 ! A3    A(1,2,5)               70.0587         -DE/DX =    0.0                 !
 ! A4    A(3,2,4)              108.9971         -DE/DX =    0.0                 !
 ! A5    A(3,2,5)              108.9971         -DE/DX =    0.0                 !
 ! A6    A(4,2,5)              108.9971         -DE/DX =    0.0                 !
 ! A7    A(3,6,4)               51.164          -DE/DX =    0.0                 !
 ! A8    A(3,6,5)               51.164          -DE/DX =    0.0                 !
 ! A9    A(4,6,5)               51.164          -DE/DX =    0.0                 !
 ! A10   L(1,2,6,3,-1)         180.0            -DE/DX =    0.0                 !
 ! A11   L(1,2,6,3,-2)         180.0            -DE/DX =    0.0                 !
 ! D1    D(3,2,5,4)           -118.857          -DE/DX =    0.0                 !
 ! D2    D(4,3,6,2)             33.6655         -DE/DX =    0.0                 !
 ! D3    D(5,3,6,2)            -33.6655         -DE/DX =    0.0                 !
 ! D4    D(5,4,6,2)             33.6655         -DE/DX =    0.0                 !
 --------------------------------------------------------------------------------
 Lowest energy point so far.  Saving SCF results.
 Largest change from initial coordinates is atom    2       0.097 Angstoms.
 GradGradGradGradGradGradGradGradGradGradGradGradGradGradGradGradGradGrad

 Leave Link  103 at Tue Oct  6 20:18:44 2020, MaxMem=  2684354560 cpu:               4.1 elap:               0.9
 (Enter /udrive/faculty/rpeverati/g16/g16/l202.exe)
                          Input orientation:                          
 ---------------------------------------------------------------------
 Center     Atomic      Atomic             Coordinates (Angstroms)
 Number     Number       Type             X           Y           Z
 ---------------------------------------------------------------------
      1         17           0        0.000000   -0.000000    2.713058
      2          6           0        0.000000   -0.000000   -0.482751
      3          1           0       -0.513002   -0.888545   -0.110507
      4          1           0       -0.513002    0.888545   -0.110507
      5          1           0        1.026004   -0.000000   -0.110507
      6          9           0        0.000000   -0.000000   -1.894234
 ---------------------------------------------------------------------
                    Distance matrix (angstroms):
                    1          2          3          4          5
     1  Cl   0.000000
     2  C    3.195809   0.000000
     3  H    3.004197   1.091444   0.000000
     4  H    3.004197   1.091444   1.777091   0.000000
     5  H    3.004197   1.091444   1.777091   1.777091   0.000000
     6  F    4.607292   1.411484   2.057758   2.057758   2.057758
                    6
     6  F    0.000000
 Stoichiometry    CH3ClF(1-)
 Framework group  C3V[C3(FCCl),3SGV(H)]
 Deg. of freedom     4
 Full point group                 C3V     NOp   6
 RotChk:  IX=0 Diff= 0.00D+00
 Largest Abelian subgroup         CS      NOp   2
 Largest concise Abelian subgroup CS      NOp   2
                         Standard orientation:                         
 ---------------------------------------------------------------------
 Center     Atomic      Atomic             Coordinates (Angstroms)
 Number     Number       Type             X           Y           Z
 ---------------------------------------------------------------------
      1         17           0        0.000000    0.000000    1.974605
      2          6           0        0.000000    0.000000   -1.221204
      3          1           0        0.000000    1.026004   -0.848960
      4          1           0        0.888545   -0.513002   -0.848960
      5          1           0       -0.888545   -0.513002   -0.848960
      6          9           0        0.000000    0.000000   -2.632687
 ---------------------------------------------------------------------
 Rotational constants (GHZ):         158.7862156           1.7448309           1.7448309
 Leave Link  202 at Tue Oct  6 20:18:45 2020, MaxMem=  2684354560 cpu:               2.1 elap:               0.8
 (Enter /udrive/faculty/rpeverati/g16/g16/l601.exe)
 Copying SCF densities to generalized density rwf, IOpCl= 0 IROHF=0.

 **********************************************************************

            Population analysis using the SCF density.

 **********************************************************************

 Orbital symmetries:
       Occupied  (A1) (A1) (A1) (A1) (A1) (E) (E) (A1) (A1) (A1)
                 (A1) (E) (E) (E) (E) (A1) (E) (E)
       Virtual   (A1) (A1) (E) (E) (A1) (E) (E) (A1) (E) (E) (A1)
                 (E) (E) (A1) (A1) (E) (E) (E) (E) (A1) (A1) (E)
                 (E) (E) (E) (E) (E) (A1) (A1) (E) (E) (E) (E)
                 (A1)
 The electronic state is 1-A1.
 Alpha  occ. eigenvalues -- -101.19023 -24.50913 -10.07906  -9.11745  -6.87490
 Alpha  occ. eigenvalues --   -6.87458  -6.87458  -1.01530  -0.53097  -0.46007
 Alpha  occ. eigenvalues --   -0.31591  -0.30922  -0.30922  -0.18012  -0.18012
 Alpha  occ. eigenvalues --   -0.00989  -0.00797  -0.00797
 Alpha virt. eigenvalues --    0.26694   0.30320   0.33277   0.33277   0.62018
 Alpha virt. eigenvalues --    0.69410   0.69410   0.69668   0.73432   0.73432
 Alpha virt. eigenvalues --    0.82300   1.01834   1.01834   1.10608   1.14255
 Alpha virt. eigenvalues --    1.20078   1.20078   1.20459   1.20459   1.28330
 Alpha virt. eigenvalues --    1.39159   1.40500   1.40500   1.67725   1.67725
 Alpha virt. eigenvalues --    1.98270   1.98270   2.07511   2.23268   2.33372
 Alpha virt. eigenvalues --    2.33372   2.56760   2.56760   3.14864
          Condensed to atoms (all electrons):
               1          2          3          4          5          6
     1  Cl  17.938241  -0.008706   0.007701   0.007701   0.007701   0.000332
     2  C   -0.008706   4.785462   0.369567   0.369567   0.369567   0.212694
     3  H    0.007701   0.369567   0.578478  -0.037700  -0.037700  -0.028923
     4  H    0.007701   0.369567  -0.037700   0.578478  -0.037700  -0.028923
     5  H    0.007701   0.369567  -0.037700  -0.037700   0.578478  -0.028923
     6  F    0.000332   0.212694  -0.028923  -0.028923  -0.028923   9.268350
 Mulliken charges:
               1
     1  Cl  -0.952968
     2  C   -0.098152
     3  H    0.148576
     4  H    0.148576
     5  H    0.148576
     6  F   -0.394608
 Sum of Mulliken charges =  -1.00000
 Mulliken charges with hydrogens summed into heavy atoms:
               1
     1  Cl  -0.952968
     2  C    0.347576
     6  F   -0.394608
 Electronic spatial extent (au):  <R**2>=            591.2448
 Charge=             -1.0000 electrons
 Dipole moment (field-independent basis, Debye):
    X=             -0.0000    Y=             -0.0000    Z=             -6.4233  Tot=              6.4233
 Quadrupole moment (field-independent basis, Debye-Ang):
   XX=            -27.2786   YY=            -27.2786   ZZ=            -54.1567
   XY=             -0.0000   XZ=              0.0000   YZ=              0.0000
 Traceless Quadrupole moment (field-independent basis, Debye-Ang):
   XX=              8.9593   YY=              8.9593   ZZ=            -17.9187
   XY=             -0.0000   XZ=              0.0000   YZ=              0.0000
 Octapole moment (field-independent basis, Debye-Ang**2):
  XXX=             -0.0000  YYY=              0.4909  ZZZ=            -38.3846  XYY=              0.0000
  XXY=             -0.4909  XXZ=            -10.0169  XZZ=             -0.0000  YZZ=              0.0000
  YYZ=            -10.0169  XYZ=              0.0000
 Hexadecapole moment (field-independent basis, Debye-Ang**3):
 XXXX=            -35.3927 YYYY=            -35.3927 ZZZZ=           -777.7457 XXXY=              0.0000
 XXXZ=              0.0000 YYYX=              0.0000 YYYZ=             -0.3537 ZZZX=             -0.0000
 ZZZY=             -0.0000 XXYY=            -11.7976 XXZZ=           -113.6268 YYZZ=           -113.6268
 XXYZ=              0.3537 YYXZ=             -0.0000 ZZXY=              0.0000
 N-N= 8.025094105756D+01 E-N=-1.595042966881D+03  KE= 5.984381532716D+02
 No NMR shielding tensors so no spin-rotation constants.
 Leave Link  601 at Tue Oct  6 20:18:47 2020, MaxMem=  2684354560 cpu:               3.5 elap:               0.9
 (Enter /udrive/faculty/rpeverati/g16/g16/l9999.exe)

 Test job not archived.
 1\1\GINC-NODE62\FOpt\RB3LYP\6-31G(d)\C1H3Cl1F1(1-)\RPEVERATI\06-Oct-20
 20\0\\#P Opt(MaxCyc=100) B3LYP/6-31G* 5D 7F Integral=UltraFineGrid SCF
 =(NoSymm,XQC,MaxCyc=120) IOp(1/33=1) EmpiricalDispersion=GD3BJ\\TS sea
 rch on BH76.\\-1,1\Cl,0.,0.,2.7130579878\C,0.,0.,-0.4827506115\H,-0.51
 30019384,-0.8885454216,-0.1105066163\H,-0.5130019384,0.8885454216,-0.1
 105066163\H,1.0260038767,0.,-0.1105066163\F,0.,0.,-1.8942343058\\Versi
 on=ES64L-G16RevA.03\State=1-A1\HF=-599.9999219\RMSD=5.964e-09\RMSF=8.2
 57e-06\Dipole=0.,0.,-2.5271218\Quadrupole=6.6610544,6.6610544,-13.3221
 088,0.,0.,0.\PG=C03V [C3(F1C1Cl1),3SGV(H1)]\\@


 THOUGH I SPEAK WITH THE TONGUES OF MEN AND OF ANGELS, 
 AND HAVE NOT LOVE,
 I AM BECOME AS SOUNDING BRASS, A TINKLING CYMBAL.
 AND THOUGH I HAVE THE GIFT OF PROPHECY,
 AND UNDERSTAND ALL MYSTERIES, AND ALL KNOWLEDGE.
 AND THOUGH I HAVE ALL FAITH, SO THAT I COULD REMOVE MOUNTAINS,
 AND HAVE NOT LOVE, I AM NOTHING.
 AND THOUGH I BESTOW ALL MY GOODS TO FEED THE POOR,
 AND THOUGH I GIVE MY BODY TO BE BURNED,
 AND HAVE NOT LOVE IT PROFITETH ME NOTHING.
 LOVE SUFFERETH LONG, AND IS KIND,
 LOVE ENVIETH NOT,
 LOVE VAUNTETH NOT ITSELF, IS NOT PUFFED UP,
 DOTH NOT BEHAVE ITSELF UNSEEMLY, SEEKETH NOT HER OWN,
 IS NOT EASILY PROVOKED, THINKETH NO EVIL,
 REJOICETH NOT IN INIQUITY, BUT REJOICETH IN THE TRUTH,
 BEARETH ALL THINGS, BELIEVETH ALL THINGS,
 HOPETH ALL THINGS, ENDURETH ALL THINGS.
 LOVE NEVER FAILETH, BUT WHETHER THERE BE PROPHECIES, THEY SHALL FAIL, 
 WHETHER THERE BE TONGUES, THEY SHALL CEASE,
 WHETHER THERE BE KNOWLEDGE, IT SHALL VANISH AWAY.
 FOR WE KNOW IN PART, AND WE PROPHESY IN PART.
 BUT WHEN THAT WHICH IS PERFECT IS COME, THEN THAT WHICH IS IN PART 
 SHALL BE DONE AWAY. 
 WHEN I WAS A CHILD, I SPAKE AS A CHILD, I UNDERSTOOD AS A CHILD, 
 I THOUGHT AS A CHILD.
 BUT WHEN I BECAME A MAN, I PUT AWAY CHILDISH THINGS.
 FOR NOW WE SEE THROUGH A GLASS, DARKLY, BUT THEN FACE TO FACE.
 NOW I KNOW IN PART. BUT THEN SHALL I KNOW EVEN AS ALSO I AM KNOWN.
 AND NOW ABIDETH FAITH, HOPE AND LOVE, THESE THREE.
 BUT THE GREATEST OF THESE IS LOVE.

                     I CORINTHIANS 13
 Job cpu time:       0 days  0 hours 13 minutes 30.9 seconds.
 Elapsed time:       0 days  0 hours  2 minutes 35.4 seconds.
 File lengths (MBytes):  RWF=      5 Int=      0 D2E=      0 Chk=      1 Scr=      1
 Normal termination of Gaussian 16 at Tue Oct  6 20:18:49 2020.
