 Entering Gaussian System, Link 0=g16
 Input=MN_49_hcnts_BH76_B3LYP_631Gs.in
 Output=MN_49_hcnts_BH76_B3LYP_631Gs.log
 Initial command:
 /udrive/faculty/rpeverati/g16/g16/l1.exe "/udrive/scratch-directories/gaussian09/rpeverati/Gau-31572.inp" -scrdir="/udrive/scratch-directories/gaussian09/rpeverati/"
 Entering Link 1 = /udrive/faculty/rpeverati/g16/g16/l1.exe PID=     31584.
  
 Copyright (c) 1988,1990,1992,1993,1995,1998,2003,2009,2016,
            Gaussian, Inc.  All Rights Reserved.
  
 This is part of the Gaussian(R) 16 program.  It is based on
 the Gaussian(R) 09 system (copyright 2009, Gaussian, Inc.),
 the Gaussian(R) 03 system (copyright 2003, Gaussian, Inc.),
 the Gaussian(R) 98 system (copyright 1998, Gaussian, Inc.),
 the Gaussian(R) 94 system (copyright 1995, Gaussian, Inc.),
 the Gaussian 92(TM) system (copyright 1992, Gaussian, Inc.),
 the Gaussian 90(TM) system (copyright 1990, Gaussian, Inc.),
 the Gaussian 88(TM) system (copyright 1988, Gaussian, Inc.),
 the Gaussian 86(TM) system (copyright 1986, Carnegie Mellon
 University), and the Gaussian 82(TM) system (copyright 1983,
 Carnegie Mellon University). Gaussian is a federally registered
 trademark of Gaussian, Inc.
  
 This software contains proprietary and confidential information,
 including trade secrets, belonging to Gaussian, Inc.
  
 This software is provided under written license and may be
 used, copied, transmitted, or stored only in accord with that
 written license.
  
 The following legend is applicable only to US Government
 contracts under FAR:
  
                    RESTRICTED RIGHTS LEGEND
  
 Use, reproduction and disclosure by the US Government is
 subject to restrictions as set forth in subparagraphs (a)
 and (c) of the Commercial Computer Software - Restricted
 Rights clause in FAR 52.227-19.
  
 Gaussian, Inc.
 340 Quinnipiac St., Bldg. 40, Wallingford CT 06492
  
  
 ---------------------------------------------------------------
 Warning -- This program may not be used in any manner that
 competes with the business of Gaussian, Inc. or will provide
 assistance to any competitor of Gaussian, Inc.  The licensee
 of this program is prohibited from giving any competitor of
 Gaussian, Inc. access to this program.  By using this program,
 the user acknowledges that Gaussian, Inc. is engaged in the
 business of creating and licensing software in the field of
 computational chemistry and represents and warrants to the
 licensee that it is not a competitor of Gaussian, Inc. and that
 it will not use this program in any manner prohibited above.
 ---------------------------------------------------------------
  

 Cite this work as:
 Gaussian 16, Revision A.03,
 M. J. Frisch, G. W. Trucks, H. B. Schlegel, G. E. Scuseria, 
 M. A. Robb, J. R. Cheeseman, G. Scalmani, V. Barone, 
 G. A. Petersson, H. Nakatsuji, X. Li, M. Caricato, A. V. Marenich, 
 J. Bloino, B. G. Janesko, R. Gomperts, B. Mennucci, H. P. Hratchian, 
 J. V. Ortiz, A. F. Izmaylov, J. L. Sonnenberg, D. Williams-Young, 
 F. Ding, F. Lipparini, F. Egidi, J. Goings, B. Peng, A. Petrone, 
 T. Henderson, D. Ranasinghe, V. G. Zakrzewski, J. Gao, N. Rega, 
 G. Zheng, W. Liang, M. Hada, M. Ehara, K. Toyota, R. Fukuda, 
 J. Hasegawa, M. Ishida, T. Nakajima, Y. Honda, O. Kitao, H. Nakai, 
 T. Vreven, K. Throssell, J. A. Montgomery, Jr., J. E. Peralta, 
 F. Ogliaro, M. J. Bearpark, J. J. Heyd, E. N. Brothers, K. N. Kudin, 
 V. N. Staroverov, T. A. Keith, R. Kobayashi, J. Normand, 
 K. Raghavachari, A. P. Rendell, J. C. Burant, S. S. Iyengar, 
 J. Tomasi, M. Cossi, J. M. Millam, M. Klene, C. Adamo, R. Cammi, 
 J. W. Ochterski, R. L. Martin, K. Morokuma, O. Farkas, 
 J. B. Foresman, and D. J. Fox, Gaussian, Inc., Wallingford CT, 2016.
 
 ******************************************
 Gaussian 16:  ES64L-G16RevA.03 25-Dec-2016
                 6-Oct-2020 
 ******************************************
 %NoSave
 %nproc=12
 Will use up to   12 processors via shared memory.
 %mem=20GB
 %chk=MN_49_hcnts_BH76_B3LYP_631Gs
 ----------------------------------------------------------------------
 #P Opt(TS,MaxCyc=50,NoEigenTest,MaxStep=10,CalcFC) B3LYP/6-31G* 5D 7F 
 Integral=UltraFineGrid SCF=(NoSymm,XQC,MaxCyc=120) IOp(1/33=1) Empiric
 alDispersion=GD3BJ
 ----------------------------------------------------------------------
 1/5=1,6=50,8=10,10=4,11=1,18=20,26=4,33=1,38=1/1,3;
 2/9=110,12=2,17=6,18=5,40=1/2;
 3/5=1,6=6,7=1,8=11,11=2,25=1,30=1,71=2,74=-5,75=-5,124=41,140=1/1,2,3;
 4/9=2/1;
 5/5=2,7=120,8=3,13=1,38=5/2,8;
 8/6=4,10=90,11=11/1;
 11/6=1,8=1,9=11,15=111,16=1/1,2,10;
 10/6=1,13=1/2;
 6/7=2,8=2,9=2,10=2,28=1/1;
 7/10=1,18=20,25=1/1,2,3,16;
 1/5=1,6=50,8=10,10=4,11=1,18=20,26=4,33=1/3(2);
 2/9=110/2;
 99//99;
 2/9=110/2;
 3/5=1,6=6,7=1,8=11,11=2,25=1,30=1,71=1,74=-5,75=-5,124=41/1,2,3;
 4/5=5,9=2,16=3,69=1/1;
 5/5=2,7=120,8=3,13=1,38=5/2,8;
 7//1,2,3,16;
 1/5=1,6=50,8=10,11=1,18=20,26=4,33=1/3(-5);
 2/9=110/2;
 6/7=2,8=2,9=2,10=2,19=2,28=1/1;
 99/9=1/99;
 Leave Link    1 at Tue Oct  6 20:43:55 2020, MaxMem=  2684354560 cpu:               8.1 elap:               0.8
 (Enter /udrive/faculty/rpeverati/g16/g16/l101.exe)
 ONIOM data not found on unit 2.
 ------------------
 TS search on BH76.
 ------------------
 TstMul:  ICh=     0
 TstMul:  Mul=     1
 TstMul:  ICh=     0
 TstMul:  Mul=     1
 Symbolic Z-matrix:
 Charge =  0 Multiplicity = 1
 C                     0.08032   0.62026   0. 
 N                     0.08032  -0.56809   0. 
 H                    -1.04415   0.25512   0. 
 
 RdStrC is calling ZToCFu for IStruc=1 NZ=     3.
 PrtBox:  NBox=     1 Levels=  1 BoxLen=    8.00 SMaxX=        2.25
          Shift=            1.973150            1.073540            0.000000
 Box      1 Number                   0 centers from      1 to      3:
 After GenITR:
 ITRead=  0  0  0
 MicOpt= -1 -1 -1
 ITRead=  0  0  0
 MicOpt= -1 -1 -1
 NAtoms=      3 NQM=        3 NQMF=       0 NMMI=      0 NMMIF=      0
                NMic=       0 NMicF=      0.
                    Isotopes and Nuclear Properties:
 (Nuclear quadrupole moments (NQMom) in fm**2, nuclear magnetic moments (NMagM)
  in nuclear magnetons)

  Atom         1           2           3
 IAtWgt=          12          14           1
 AtmWgt=  12.0000000  14.0030740   1.0078250
 NucSpn=           0           2           1
 AtZEff=   0.0000000   0.0000000   0.0000000
 NQMom=    0.0000000   2.0440000   0.0000000
 NMagM=    0.0000000   0.4037610   2.7928460
 AtZNuc=   6.0000000   7.0000000   1.0000000
 No MM parameters found.
 Leave Link  101 at Tue Oct  6 20:43:56 2020, MaxMem=  2684354560 cpu:               4.6 elap:               0.7
 (Enter /udrive/faculty/rpeverati/g16/g16/l103.exe)

 GradGradGradGradGradGradGradGradGradGradGradGradGradGradGradGradGradGrad
 Berny optimization.
 Optmz: redundant internal coordinate code flag= 1
 Initialization pass.
                           ----------------------------
                           !    Initial Parameters    !
                           ! (Angstroms and Degrees)  !
 --------------------------                            --------------------------
 ! Name  Definition              Value          Derivative Info.                !
 --------------------------------------------------------------------------------
 ! R1    R(1,2)                  1.1884         calculate D2E/DX2 analytically  !
 ! R2    R(1,3)                  1.1823         calculate D2E/DX2 analytically  !
 ! A1    A(2,1,3)               72.0103         calculate D2E/DX2 analytically  !
 --------------------------------------------------------------------------------
 Maximum allowed force set to 1.00D+20.
 Trust Radius=1.00D-01 FncErr=1.00D-07 GrdErr=1.00D-06 EigMax=2.50D+02 EigMin=1.00D-04
 Number of steps in this run=     50 maximum allowed number of steps=    100.
 Search for a saddle point of order  1.
 GradGradGradGradGradGradGradGradGradGradGradGradGradGradGradGradGradGrad

 Leave Link  103 at Tue Oct  6 20:43:58 2020, MaxMem=  2684354560 cpu:               1.2 elap:               0.8
 (Enter /udrive/faculty/rpeverati/g16/g16/l202.exe)
                          Input orientation:                          
 ---------------------------------------------------------------------
 Center     Atomic      Atomic             Coordinates (Angstroms)
 Number     Number       Type             X           Y           Z
 ---------------------------------------------------------------------
      1          6           0        0.080319    0.620259    0.000000
      2          7           0        0.080319   -0.568093    0.000000
      3          1           0       -1.044146    0.255121    0.000000
 ---------------------------------------------------------------------
                    Distance matrix (angstroms):
                    1          2          3
     1  C    0.000000
     2  N    1.188352   0.000000
     3  H    1.182264   1.393594   0.000000
 Stoichiometry    CHN
 Framework group  CS[SG(CHN)]
 Deg. of freedom     3
 Full point group                 CS      NOp   2
 Largest Abelian subgroup         CS      NOp   2
 Largest concise Abelian subgroup C1      NOp   1
                         Standard orientation:                         
 ---------------------------------------------------------------------
 Center     Atomic      Atomic             Coordinates (Angstroms)
 Number     Number       Type             X           Y           Z
 ---------------------------------------------------------------------
      1          6           0        0.080319    0.620257    0.000000
      2          7           0        0.080319   -0.568095    0.000000
      3          1           0       -1.044146    0.255119    0.000000
 ---------------------------------------------------------------------
 Rotational constants (GHZ):         415.7753317          54.8709834          48.4737702
 Leave Link  202 at Tue Oct  6 20:43:59 2020, MaxMem=  2684354560 cpu:               2.0 elap:               0.7
 (Enter /udrive/faculty/rpeverati/g16/g16/l301.exe)
 Standard basis: 6-31G(d) (5D, 7F)
 Ernie: Thresh=  0.10000D-02 Tol=  0.10000D-05 Strict=F.
 There are    24 symmetry adapted cartesian basis functions of A'  symmetry.
 There are     8 symmetry adapted cartesian basis functions of A"  symmetry.
 There are    22 symmetry adapted basis functions of A'  symmetry.
 There are     8 symmetry adapted basis functions of A"  symmetry.
    30 basis functions,    60 primitive gaussians,    32 cartesian basis functions
     7 alpha electrons        7 beta electrons
       nuclear repulsion energy        24.0463711332 Hartrees.
 IExCor=  402 DFT=T Ex+Corr=B3LYP ExCW=0 ScaHFX=  0.200000
 ScaDFX=  0.800000  0.720000  1.000000  0.810000 ScalE2=  1.000000  1.000000
 IRadAn=      5 IRanWt=     -1 IRanGd=            0 ICorTp=0 IEmpDi=141
 NAtoms=    3 NActive=    3 NUniq=    3 SFac= 1.00D+00 NAtFMM=   60 NAOKFM=F Big=F
 Integral buffers will be    131072 words long.
 Raffenetti 2 integral format.
 Two-electron integral symmetry is turned on.
 R6Disp:  Grimme-D3(BJ) Dispersion energy=       -0.0014486568 Hartrees.
 Nuclear repulsion after empirical dispersion term =       24.0449224764 Hartrees.
 Leave Link  301 at Tue Oct  6 20:44:00 2020, MaxMem=  2684354560 cpu:               1.9 elap:               0.8
 (Enter /udrive/faculty/rpeverati/g16/g16/l302.exe)
 NPDir=0 NMtPBC=     1 NCelOv=     1 NCel=       1 NClECP=     1 NCelD=      1
         NCelK=      1 NCelE2=     1 NClLst=     1 CellRange=     0.0.
 One-electron integrals computed using PRISM.
 One-electron integral symmetry used in STVInt
 NBasis=    30 RedAO= T EigKep=  7.88D-03  NBF=    22     8
 NBsUse=    30 1.00D-06 EigRej= -1.00D+00 NBFU=    22     8
 Precomputing XC quadrature grid using
 IXCGrd= 4 IRadAn=           5 IRanWt=          -1 IRanGd=           0 AccXCQ= 0.00D+00.
 Generated NRdTot=       0 NPtTot=           0 NUsed=           0 NTot=          32
 NSgBfM=    32    32    32    32    32 MxSgAt=     3 MxSgA2=     3.
 Leave Link  302 at Tue Oct  6 20:44:01 2020, MaxMem=  2684354560 cpu:               8.1 elap:               1.4
 (Enter /udrive/faculty/rpeverati/g16/g16/l303.exe)
 DipDrv:  MaxL=1.
 Leave Link  303 at Tue Oct  6 20:44:02 2020, MaxMem=  2684354560 cpu:               2.3 elap:               0.7
 (Enter /udrive/faculty/rpeverati/g16/g16/l401.exe)
 SCF N**3 symmetry information disabled.
 ExpMin= 1.61D-01 ExpMax= 4.17D+03 ExpMxC= 6.27D+02 IAcc=3 IRadAn=         5 AccDes= 0.00D+00
 Harris functional with IExCor=  402 and IRadAn=       5 diagonalized for initial guess.
 HarFok:  IExCor=  402 AccDes= 0.00D+00 IRadAn=         5 IDoV= 1 UseB2=F ITyADJ=14
 ICtDFT=  3500011 ScaDFX=  1.000000  1.000000  1.000000  1.000000
 FoFCou: FMM=F IPFlag=           0 FMFlag=      100000 FMFlg1=           0
         NFxFlg=           0 DoJE=T BraDBF=F KetDBF=T FulRan=T
         wScrn=  0.000000 ICntrl=       500 IOpCl=  0 I1Cent=   200000004 NGrid=           0
         NMat0=    1 NMatS0=      1 NMatT0=    0 NMatD0=    1 NMtDS0=    0 NMtDT0=    0
 Petite list used in FoFCou.
 Harris En= -93.3314229001031    
 JPrj=0 DoOrth=F DoCkMO=F.
 Initial guess orbital symmetries:
       Occupied  (A') (A') (A') (A') (A') (A") (A')
       Virtual   (A') (A") (A') (A') (A") (A') (A') (A') (A') (A")
                 (A') (A') (A') (A") (A') (A") (A') (A") (A') (A')
                 (A') (A") (A')
 The electronic state of the initial guess is 1-A'.
 Leave Link  401 at Tue Oct  6 20:44:04 2020, MaxMem=  2684354560 cpu:               8.9 elap:               1.3
 (Enter /udrive/faculty/rpeverati/g16/g16/l502.exe)
 Keep R1 ints in memory in symmetry-blocked form, NReq=10459184.
 FoFCou: FMM=F IPFlag=           0 FMFlag=           0 FMFlg1=           0
         NFxFlg=           0 DoJE=F BraDBF=F KetDBF=F FulRan=T
         wScrn=  0.000000 ICntrl=       600 IOpCl=  0 I1Cent=           0 NGrid=           0
         NMat0=    1 NMatS0=    465 NMatT0=    0 NMatD0=    1 NMtDS0=    0 NMtDT0=    0
 Petite list used in FoFCou.
 Closed shell SCF:
 Using DIIS extrapolation, IDIIS=  1040.
 NGot=  2684354560 LenX=  2684292770 LenY=  2684291305
 Requested convergence on RMS density matrix=1.00D-08 within 120 cycles.
 Requested convergence on MAX density matrix=1.00D-06.
 Requested convergence on             energy=1.00D-06.
 No special actions if energy rises.
 Integral accuracy reduced to 1.0D-05 until final iterations.

 Cycle   1  Pass 0  IDiag  1:
 E= -93.3189099176505    
 DIIS: error= 2.68D-02 at cycle   1 NSaved=   1.
 NSaved= 1 IEnMin= 1 EnMin= -93.3189099176505     IErMin= 1 ErrMin= 2.68D-02
 ErrMax= 2.68D-02  0.00D+00 EMaxC= 1.00D-01 BMatC= 1.86D-02 BMatP= 1.86D-02
 IDIUse=3 WtCom= 7.32D-01 WtEn= 2.68D-01
 Coeff-Com:  0.100D+01
 Coeff-En:   0.100D+01
 Coeff:      0.100D+01
 Gap=     0.266 Goal=   None    Shift=    0.000
 GapD=    0.266 DampG=1.000 DampE=0.500 DampFc=0.5000 IDamp=-1.
 Damping current iteration by 5.00D-01
 RMSDP=9.18D-03 MaxDP=8.74D-02              OVMax= 1.05D-01

 Cycle   2  Pass 0  IDiag  1:
 E= -93.3308544132087     Delta-E=       -0.011944495558 Rises=F Damp=T
 DIIS: error= 3.77D-03 at cycle   2 NSaved=   2.
 NSaved= 2 IEnMin= 2 EnMin= -93.3308544132087     IErMin= 2 ErrMin= 3.77D-03
 ErrMax= 3.77D-03  0.00D+00 EMaxC= 1.00D-01 BMatC= 7.20D-04 BMatP= 1.86D-02
 IDIUse=3 WtCom= 9.62D-01 WtEn= 3.77D-02
 Coeff-Com: -0.121D+00 0.112D+01
 Coeff-En:   0.000D+00 0.100D+01
 Coeff:     -0.116D+00 0.112D+01
 Gap=     0.278 Goal=   None    Shift=    0.000
 RMSDP=1.25D-03 MaxDP=1.11D-02 DE=-1.19D-02 OVMax= 4.62D-02

 Cycle   3  Pass 0  IDiag  1:
 E= -93.3412580175449     Delta-E=       -0.010403604336 Rises=F Damp=F
 DIIS: error= 3.40D-03 at cycle   3 NSaved=   3.
 NSaved= 3 IEnMin= 3 EnMin= -93.3412580175449     IErMin= 3 ErrMin= 3.40D-03
 ErrMax= 3.40D-03  0.00D+00 EMaxC= 1.00D-01 BMatC= 2.24D-04 BMatP= 7.20D-04
 IDIUse=3 WtCom= 9.66D-01 WtEn= 3.40D-02
 Coeff-Com: -0.566D-01 0.401D+00 0.656D+00
 Coeff-En:   0.000D+00 0.000D+00 0.100D+01
 Coeff:     -0.547D-01 0.387D+00 0.667D+00
 Gap=     0.273 Goal=   None    Shift=    0.000
 RMSDP=7.55D-04 MaxDP=6.97D-03 DE=-1.04D-02 OVMax= 1.16D-02

 Cycle   4  Pass 0  IDiag  1:
 E= -93.3411753483804     Delta-E=        0.000082669164 Rises=F Damp=F
 DIIS: error= 4.11D-03 at cycle   4 NSaved=   4.
 NSaved= 4 IEnMin= 3 EnMin= -93.3412580175449     IErMin= 3 ErrMin= 3.40D-03
 ErrMax= 4.11D-03  0.00D+00 EMaxC= 1.00D-01 BMatC= 3.29D-04 BMatP= 2.24D-04
 IDIUse=3 WtCom= 1.35D-01 WtEn= 8.65D-01
 Coeff-Com: -0.186D-01 0.737D-01 0.534D+00 0.411D+00
 Coeff-En:   0.000D+00 0.000D+00 0.561D+00 0.439D+00
 Coeff:     -0.251D-02 0.995D-02 0.557D+00 0.435D+00
 Gap=     0.275 Goal=   None    Shift=    0.000
 RMSDP=3.95D-04 MaxDP=4.07D-03 DE= 8.27D-05 OVMax= 6.22D-03

 Cycle   5  Pass 0  IDiag  1:
 E= -93.3414663437847     Delta-E=       -0.000290995404 Rises=F Damp=F
 DIIS: error= 4.37D-04 at cycle   5 NSaved=   5.
 NSaved= 5 IEnMin= 5 EnMin= -93.3414663437847     IErMin= 5 ErrMin= 4.37D-04
 ErrMax= 4.37D-04  0.00D+00 EMaxC= 1.00D-01 BMatC= 4.96D-06 BMatP= 2.24D-04
 IDIUse=3 WtCom= 9.96D-01 WtEn= 4.37D-03
 Coeff-Com:  0.260D-02-0.836D-02 0.207D+00 0.171D+00 0.628D+00
 Coeff-En:   0.000D+00 0.000D+00 0.000D+00 0.000D+00 0.100D+01
 Coeff:      0.259D-02-0.832D-02 0.206D+00 0.170D+00 0.630D+00
 Gap=     0.275 Goal=   None    Shift=    0.000
 RMSDP=7.74D-05 MaxDP=5.84D-04 DE=-2.91D-04 OVMax= 1.18D-03

 Cycle   6  Pass 0  IDiag  1:
 E= -93.3414719871032     Delta-E=       -0.000005643319 Rises=F Damp=F
 DIIS: error= 3.56D-05 at cycle   6 NSaved=   6.
 NSaved= 6 IEnMin= 6 EnMin= -93.3414719871032     IErMin= 6 ErrMin= 3.56D-05
 ErrMax= 3.56D-05  0.00D+00 EMaxC= 1.00D-01 BMatC= 2.64D-08 BMatP= 4.96D-06
 IDIUse=1 WtCom= 1.00D+00 WtEn= 0.00D+00
 Coeff-Com:  0.973D-03-0.278D-02 0.179D-02-0.234D-03 0.750D-01 0.925D+00
 Coeff:      0.973D-03-0.278D-02 0.179D-02-0.234D-03 0.750D-01 0.925D+00
 Gap=     0.275 Goal=   None    Shift=    0.000
 RMSDP=7.23D-06 MaxDP=8.95D-05 DE=-5.64D-06 OVMax= 8.99D-05

 Initial convergence to 1.0D-05 achieved.  Increase integral accuracy.
 Cycle   7  Pass 1  IDiag  1:
 E= -93.3414711052836     Delta-E=        0.000000881820 Rises=F Damp=F
 DIIS: error= 4.23D-06 at cycle   1 NSaved=   1.
 NSaved= 1 IEnMin= 1 EnMin= -93.3414711052836     IErMin= 1 ErrMin= 4.23D-06
 ErrMax= 4.23D-06  0.00D+00 EMaxC= 1.00D-01 BMatC= 4.25D-10 BMatP= 4.25D-10
 IDIUse=1 WtCom= 1.00D+00 WtEn= 0.00D+00
 Coeff-Com:  0.100D+01
 Coeff:      0.100D+01
 Gap=     0.275 Goal=   None    Shift=    0.000
 RMSDP=7.23D-06 MaxDP=8.95D-05 DE= 8.82D-07 OVMax= 2.02D-05

 Cycle   8  Pass 1  IDiag  1:
 E= -93.3414711056682     Delta-E=       -0.000000000385 Rises=F Damp=F
 DIIS: error= 3.66D-06 at cycle   2 NSaved=   2.
 NSaved= 2 IEnMin= 2 EnMin= -93.3414711056682     IErMin= 2 ErrMin= 3.66D-06
 ErrMax= 3.66D-06  0.00D+00 EMaxC= 1.00D-01 BMatC= 3.68D-10 BMatP= 4.25D-10
 IDIUse=1 WtCom= 1.00D+00 WtEn= 0.00D+00
 Coeff-Com:  0.478D+00 0.522D+00
 Coeff:      0.478D+00 0.522D+00
 Gap=     0.275 Goal=   None    Shift=    0.000
 RMSDP=6.53D-07 MaxDP=6.64D-06 DE=-3.85D-10 OVMax= 9.79D-06

 Cycle   9  Pass 1  IDiag  1:
 E= -93.3414711058259     Delta-E=       -0.000000000158 Rises=F Damp=F
 DIIS: error= 3.37D-06 at cycle   3 NSaved=   3.
 NSaved= 3 IEnMin= 3 EnMin= -93.3414711058259     IErMin= 3 ErrMin= 3.37D-06
 ErrMax= 3.37D-06  0.00D+00 EMaxC= 1.00D-01 BMatC= 1.88D-10 BMatP= 3.68D-10
 IDIUse=1 WtCom= 1.00D+00 WtEn= 0.00D+00
 Coeff-Com:  0.163D+00 0.395D+00 0.442D+00
 Coeff:      0.163D+00 0.395D+00 0.442D+00
 Gap=     0.275 Goal=   None    Shift=    0.000
 RMSDP=3.69D-07 MaxDP=3.37D-06 DE=-1.58D-10 OVMax= 6.03D-06

 Cycle  10  Pass 1  IDiag  1:
 E= -93.3414711059987     Delta-E=       -0.000000000173 Rises=F Damp=F
 DIIS: error= 2.07D-07 at cycle   4 NSaved=   4.
 NSaved= 4 IEnMin= 4 EnMin= -93.3414711059987     IErMin= 4 ErrMin= 2.07D-07
 ErrMax= 2.07D-07  0.00D+00 EMaxC= 1.00D-01 BMatC= 2.48D-12 BMatP= 1.88D-10
 IDIUse=1 WtCom= 1.00D+00 WtEn= 0.00D+00
 Coeff-Com: -0.324D-02 0.190D-01 0.102D+00 0.882D+00
 Coeff:     -0.324D-02 0.190D-01 0.102D+00 0.882D+00
 Gap=     0.275 Goal=   None    Shift=    0.000
 RMSDP=8.89D-08 MaxDP=7.08D-07 DE=-1.73D-10 OVMax= 1.51D-06

 Cycle  11  Pass 1  IDiag  1:
 E= -93.3414711060018     Delta-E=       -0.000000000003 Rises=F Damp=F
 DIIS: error= 9.40D-08 at cycle   5 NSaved=   5.
 NSaved= 5 IEnMin= 5 EnMin= -93.3414711060018     IErMin= 5 ErrMin= 9.40D-08
 ErrMax= 9.40D-08  0.00D+00 EMaxC= 1.00D-01 BMatC= 3.87D-13 BMatP= 2.48D-12
 IDIUse=1 WtCom= 1.00D+00 WtEn= 0.00D+00
 Coeff-Com: -0.199D-01-0.385D-01-0.124D-01 0.357D+00 0.714D+00
 Coeff:     -0.199D-01-0.385D-01-0.124D-01 0.357D+00 0.714D+00
 Gap=     0.275 Goal=   None    Shift=    0.000
 RMSDP=2.56D-08 MaxDP=3.32D-07 DE=-3.07D-12 OVMax= 3.21D-07

 Cycle  12  Pass 1  IDiag  1:
 E= -93.3414711060022     Delta-E=       -0.000000000000 Rises=F Damp=F
 DIIS: error= 6.06D-09 at cycle   6 NSaved=   6.
 NSaved= 6 IEnMin= 6 EnMin= -93.3414711060022     IErMin= 6 ErrMin= 6.06D-09
 ErrMax= 6.06D-09  0.00D+00 EMaxC= 1.00D-01 BMatC= 7.23D-16 BMatP= 3.87D-13
 IDIUse=1 WtCom= 1.00D+00 WtEn= 0.00D+00
 Coeff-Com: -0.140D-02-0.264D-02-0.329D-02 0.116D-01 0.429D-01 0.953D+00
 Coeff:     -0.140D-02-0.264D-02-0.329D-02 0.116D-01 0.429D-01 0.953D+00
 Gap=     0.275 Goal=   None    Shift=    0.000
 RMSDP=1.12D-09 MaxDP=9.74D-09 DE=-3.98D-13 OVMax= 1.79D-08

 SCF Done:  E(RB3LYP) =  -93.3414711060     A.U. after   12 cycles
            NFock= 12  Conv=0.11D-08     -V/T= 2.0061
 KE= 9.277681195328D+01 PE=-2.655696035331D+02 EE= 5.540639799745D+01
 Leave Link  502 at Tue Oct  6 20:44:07 2020, MaxMem=  2684354560 cpu:              27.2 elap:               3.2
 (Enter /udrive/faculty/rpeverati/g16/g16/l508.exe)
 QCSCF skips out because SCF is already converged.
 Leave Link  508 at Tue Oct  6 20:44:08 2020, MaxMem=  2684354560 cpu:               1.2 elap:               0.6
 (Enter /udrive/faculty/rpeverati/g16/g16/l801.exe)
 DoSCS=F DFT=T ScalE2(SS,OS)=  1.000000  1.000000
 Range of M.O.s used for correlation:     1    30
 NBasis=    30 NAE=     7 NBE=     7 NFC=     0 NFV=     0
 NROrb=     30 NOA=     7 NOB=     7 NVA=    23 NVB=    23
 Leave Link  801 at Tue Oct  6 20:44:09 2020, MaxMem=  2684354560 cpu:               1.7 elap:               0.7
 (Enter /udrive/faculty/rpeverati/g16/g16/l1101.exe)
 Using compressed storage, NAtomX=     3.
 Will process      4 centers per pass.
 R6Disp: Adding Grimme-D3(BJ) dispersion energy 1st derivatives to the gradient.
 Leave Link 1101 at Tue Oct  6 20:44:11 2020, MaxMem=  2684354560 cpu:               6.5 elap:               1.0
 (Enter /udrive/faculty/rpeverati/g16/g16/l1102.exe)
 Symmetrizing basis deriv contribution to polar:
 IMax=3 JMax=2 DiffMx= 0.00D+00
 Leave Link 1102 at Tue Oct  6 20:44:12 2020, MaxMem=  2684354560 cpu:               2.9 elap:               0.7
 (Enter /udrive/faculty/rpeverati/g16/g16/l1110.exe)
 Forming Gx(P) for the SCF density, NAtomX=     3.
 Integral derivatives from FoFJK, PRISM(SPDF).
 Do as many integral derivatives as possible in FoFJK.
 G2DrvN: MDV=    2684354220.
 G2DrvN: will do     4 centers at a time, making    1 passes.
 Calling FoFCou, ICntrl=  3107 FMM=F I1Cent=   0 AccDes= 0.00D+00.
 FoFJK:  IHMeth= 1 ICntrl=    3107 DoSepK=F KAlg= 0 I1Cent=           0 FoldK=F
 IRaf=         0 NMat=       1 IRICut=       1 DoRegI=T DoRafI=F ISym2E= 1 IDoP0=0 IntGTp=1.
 FoFCou: FMM=F IPFlag=           0 FMFlag=      100000 FMFlg1=           0
         NFxFlg=           0 DoJE=F BraDBF=F KetDBF=F FulRan=T
         wScrn=  0.000000 ICntrl=      3107 IOpCl=  0 I1Cent=           0 NGrid=           0
         NMat0=    1 NMatS0=      1 NMatT0=    0 NMatD0=    1 NMtDS0=    0 NMtDT0=    0
 Petite list used in FoFCou.
 End of G2Drv F.D. properties file   721 does not exist.
 End of G2Drv F.D. properties file   722 does not exist.
 End of G2Drv F.D. properties file   788 does not exist.
 Leave Link 1110 at Tue Oct  6 20:44:13 2020, MaxMem=  2684354560 cpu:               8.9 elap:               1.2
 (Enter /udrive/faculty/rpeverati/g16/g16/l1002.exe)
 Minotr:  Closed shell wavefunction.
          IDoAtm=111
          Direct CPHF calculation.
          Differentiating once with respect to nuclear coordinates.
          Using symmetry in CPHF.
          Requested convergence is 1.0D-08 RMS, and 1.0D-07 maximum.
          Secondary convergence is 1.0D-12 RMS, and 1.0D-12 maximum.
          NewPWx=T KeepS1=F KeepF1=F KeepIn=T MapXYZ=F SortEE=F KeepMc=T.
          867 words used for storage of precomputed grid.
 Keep R1 ints in memory in symmetry-blocked form, NReq=10419920.
 FoFCou: FMM=F IPFlag=           0 FMFlag=           0 FMFlg1=           0
         NFxFlg=           0 DoJE=F BraDBF=F KetDBF=F FulRan=T
         wScrn=  0.000000 ICntrl=       600 IOpCl=  0 I1Cent=           0 NGrid=           0
         NMat0=    1 NMatS0=    465 NMatT0=    0 NMatD0=    1 NMtDS0=    0 NMtDT0=    0
 Petite list used in FoFCou.
          MDV=    2684354560 using IRadAn=       1.
          Solving linear equations simultaneously, MaxMat=       0.
          There are    12 degrees of freedom in the 1st order CPHF.  IDoFFX=6 NUNeed=     0.
      6 vectors produced by pass  0 Test12= 1.34D-15 8.33D-09 XBig12= 1.63D-01 2.47D-01.
 AX will form     6 AO Fock derivatives at one time.
      6 vectors produced by pass  1 Test12= 1.34D-15 8.33D-09 XBig12= 3.95D-02 1.23D-01.
      6 vectors produced by pass  2 Test12= 1.34D-15 8.33D-09 XBig12= 4.39D-04 7.05D-03.
      6 vectors produced by pass  3 Test12= 1.34D-15 8.33D-09 XBig12= 7.20D-06 1.01D-03.
      6 vectors produced by pass  4 Test12= 1.34D-15 8.33D-09 XBig12= 4.27D-08 6.07D-05.
      6 vectors produced by pass  5 Test12= 1.34D-15 8.33D-09 XBig12= 3.65D-11 1.90D-06.
      2 vectors produced by pass  6 Test12= 1.34D-15 8.33D-09 XBig12= 2.22D-14 3.85D-08.
 InvSVY:  IOpt=1 It=  1 EMax= 4.44D-16
 Solved reduced A of dimension    38 with     6 vectors.
 End of Minotr F.D. properties file   721 does not exist.
 End of Minotr F.D. properties file   722 does not exist.
 End of Minotr F.D. properties file   788 does not exist.
 Leave Link 1002 at Tue Oct  6 20:44:15 2020, MaxMem=  2684354560 cpu:              14.0 elap:               1.8
 (Enter /udrive/faculty/rpeverati/g16/g16/l601.exe)
 Copying SCF densities to generalized density rwf, IOpCl= 0 IROHF=0.

 **********************************************************************

            Population analysis using the SCF density.

 **********************************************************************

 Orbital symmetries:
       Occupied  (A') (A') (A') (A') (A') (A") (A')
       Virtual   (A') (A") (A') (A') (A") (A') (A') (A') (A') (A")
                 (A') (A') (A') (A") (A') (A") (A') (A") (A') (A')
                 (A') (A") (A')
 The electronic state is 1-A'.
 Alpha  occ. eigenvalues --  -14.40568 -10.24463  -0.98844  -0.52621  -0.44944
 Alpha  occ. eigenvalues --   -0.38371  -0.33448
 Alpha virt. eigenvalues --   -0.05956   0.00995   0.06667   0.31655   0.52539
 Alpha virt. eigenvalues --    0.52749   0.56978   0.66913   0.71088   0.73970
 Alpha virt. eigenvalues --    0.77195   0.83964   1.25882   1.47140   1.49237
 Alpha virt. eigenvalues --    1.51137   1.77838   1.89372   1.97678   2.32382
 Alpha virt. eigenvalues --    2.51116   2.53054   2.82724
          Condensed to atoms (all electrons):
               1          2          3
     1  C    5.369743   0.454707   0.221617
     2  N    0.454707   6.712990   0.047110
     3  H    0.221617   0.047110   0.470399
 Mulliken charges:
               1
     1  C   -0.046067
     2  N   -0.214807
     3  H    0.260874
 Sum of Mulliken charges =  -0.00000
 Mulliken charges with hydrogens summed into heavy atoms:
               1
     1  C    0.214807
     2  N   -0.214807
 APT charges:
               1
     1  C   -0.177432
     2  N   -0.139967
     3  H    0.317399
 Sum of APT charges =  -0.00000
 APT charges with hydrogens summed into heavy atoms:
               1
     1  C    0.139967
     2  N   -0.139967
 Electronic spatial extent (au):  <R**2>=             46.9560
 Charge=             -0.0000 electrons
 Dipole moment (field-independent basis, Debye):
    X=             -1.2547    Y=              0.1652    Z=              0.0000  Tot=              1.2656
 Quadrupole moment (field-independent basis, Debye-Ang):
   XX=             -9.4725   YY=            -14.0342   ZZ=            -11.7603
   XY=             -0.3165   XZ=              0.0000   YZ=              0.0000
 Traceless Quadrupole moment (field-independent basis, Debye-Ang):
   XX=              2.2832   YY=             -2.2785   ZZ=             -0.0046
   XY=             -0.3165   XZ=              0.0000   YZ=              0.0000
 Octapole moment (field-independent basis, Debye-Ang**2):
  XXX=             -2.0782  YYY=             -2.6626  ZZZ=              0.0000  XYY=             -0.1790
  XXY=             -0.4336  XXZ=              0.0000  XZZ=             -0.2158  YZZ=             -0.5040
  YYZ=              0.0000  XYZ=              0.0000
 Hexadecapole moment (field-independent basis, Debye-Ang**3):
 XXXX=            -12.0982 YYYY=            -40.6410 ZZZZ=            -10.7930 XXXY=             -0.0490
 XXXZ=              0.0000 YYYX=              0.4275 YYYZ=              0.0000 ZZZX=              0.0000
 ZZZY=              0.0000 XXYY=             -8.5148 XXZZ=             -4.1840 YYZZ=             -8.0787
 XXYZ=              0.0000 YYXZ=              0.0000 ZZXY=              0.1430
 N-N= 2.404492247640D+01 E-N=-2.655696036250D+02  KE= 9.277681195328D+01
  Exact polarizability:   0.000   0.000   0.000   0.000   0.000   0.000
 Approx polarizability:  19.223   1.288  35.390  -0.000  -0.000  11.734
 No NMR shielding tensors so no spin-rotation constants.
 Leave Link  601 at Tue Oct  6 20:44:17 2020, MaxMem=  2684354560 cpu:               7.2 elap:               1.2
 (Enter /udrive/faculty/rpeverati/g16/g16/l701.exe)
 ... and contract with generalized density number  0.
 Compute integral second derivatives.
 R6Disp: Adding Grimme-D3(BJ) dispersion energy 2nd derivatives to the Hessian.
 Leave Link  701 at Tue Oct  6 20:44:18 2020, MaxMem=  2684354560 cpu:               5.3 elap:               0.9
 (Enter /udrive/faculty/rpeverati/g16/g16/l702.exe)
 L702 exits ... SP integral derivatives will be done elsewhere.
 Leave Link  702 at Tue Oct  6 20:44:19 2020, MaxMem=  2684354560 cpu:               1.5 elap:               0.5
 (Enter /udrive/faculty/rpeverati/g16/g16/l703.exe)
 Integral derivatives from FoFJK, PRISM(SPDF).
 Compute integral second derivatives, UseDBF=F ICtDFT=           0.
 Calling FoFJK, ICntrl=    100147 FMM=F ISym2X=1 I1Cent= 0 IOpClX= 0 NMat=1 NMatS=1 NMatT=0.
 FoFJK:  IHMeth= 1 ICntrl=  100147 DoSepK=F KAlg= 0 I1Cent=           0 FoldK=F
 IRaf=         0 NMat=       1 IRICut=       1 DoRegI=T DoRafI=F ISym2E= 1 IDoP0=0 IntGTp=1.
 FoFCou: FMM=F IPFlag=           0 FMFlag=      100000 FMFlg1=         800
         NFxFlg=           0 DoJE=F BraDBF=F KetDBF=F FulRan=T
         wScrn=  0.000000 ICntrl=    100147 IOpCl=  0 I1Cent=           0 NGrid=           0
         NMat0=    1 NMatS0=      1 NMatT0=    0 NMatD0=    1 NMtDS0=    0 NMtDT0=    0
 Petite list used in FoFCou.
 Leave Link  703 at Tue Oct  6 20:44:21 2020, MaxMem=  2684354560 cpu:               8.9 elap:               1.4
 (Enter /udrive/faculty/rpeverati/g16/g16/l716.exe)
 Dipole        =-4.93650360D-01 6.49958443D-02 0.00000000D+00
 Polarizability= 0.00000000D+00 0.00000000D+00 0.00000000D+00
                 0.00000000D+00 0.00000000D+00 0.00000000D+00
 ***** Axes restored to original set *****
 -------------------------------------------------------------------
 Center     Atomic                   Forces (Hartrees/Bohr)
 Number     Number              X              Y              Z
 -------------------------------------------------------------------
      1        6           0.000031789    0.003681695   -0.000000000
      2        7           0.003008460   -0.005874070   -0.000000000
      3        1          -0.003040249    0.002192375   -0.000000000
 -------------------------------------------------------------------
 Cartesian Forces:  Max     0.005874070 RMS     0.002811900
 Force constants in Cartesian coordinates: 
                1             2             3             4             5 
      1  0.125371D+00
      2 -0.330006D-01  0.101621D+01
      3  0.000000D+00  0.000000D+00 -0.164621D-02
      4  0.793771D-01  0.592308D-01  0.000000D+00 -0.315760D-01
      5  0.173300D-01 -0.107030D+01  0.000000D+00 -0.131078D-01  0.108411D+01
      6  0.000000D+00  0.000000D+00  0.163553D-02  0.000000D+00  0.000000D+00
      7 -0.204748D+00 -0.262303D-01  0.000000D+00 -0.478011D-01 -0.422217D-02
      8  0.156706D-01  0.540900D-01  0.000000D+00 -0.461230D-01 -0.138072D-01
      9  0.000000D+00  0.000000D+00  0.106800D-04  0.000000D+00  0.000000D+00
                6             7             8             9 
      6 -0.305440D-02
      7  0.000000D+00  0.252549D+00
      8  0.000000D+00  0.304524D-01 -0.402828D-01
      9  0.141888D-02  0.000000D+00  0.000000D+00 -0.142956D-02
 FormGI is forming the generalized inverse of G from B-inverse, IUseBI=4.
 Force constants in internal coordinates: 
                1             2             3 
      1  0.108411D+01
      2 -0.828176D-02  0.242511D+00
      3  0.264237D-01  0.134095D+00 -0.146024D+00
 Leave Link  716 at Tue Oct  6 20:44:22 2020, MaxMem=  2684354560 cpu:               1.6 elap:               0.5
 (Enter /udrive/faculty/rpeverati/g16/g16/l103.exe)

 GradGradGradGradGradGradGradGradGradGradGradGradGradGradGradGradGradGrad
 Berny optimization.
 Optmz: redundant internal coordinate code flag= 1
 Red2BG:  D1=  4.77D-01 OD1=  5.54D-16 B2RMS=  0.00D+00 IAprox=1
 Red2BG is reusing G-inverse.
 Internal  Forces:  Max     0.006756216 RMS     0.005324621
 Search for a saddle point.
 Step number   1 out of a maximum of   50
 All quantities printed in internal units (Hartrees-Bohrs-Radians)
 Swapping is turned off.
 Second derivative matrix not updated -- analytic derivatives used.
 The second derivative matrix:
                          R1        R2        A1
           R1           1.08411
           R2          -0.00828   0.24251
           A1           0.02642   0.13410  -0.14602
 ITU=  0
 Eigenvectors of the second derivative matrix:
                           1         2         3
     Eigenvalues --    -0.18841   0.28430   1.08471
   1         R1         0.02176  -0.00006   0.99976
   2         R2         0.29744  -0.95472  -0.00653
   3         A1        -0.95449  -0.29751   0.02075
 RLam0= 1.70D-04.
 Iter=   1 RLamda= 0.00000000D+00 Sum=-9.30125643D-05.
 Iter=   2 RLamda=-9.30125643D-05 Sum=-9.29901483D-05.
 Iter=   3 RLamda=-9.29901483D-05 Sum=-9.29901537D-05.
 RFO step:  Lambda0=1.700118632D-04 Lambda=-9.29901483D-05.
 Linear search not attempted -- option 19 set.
 Iteration  1 RMS(Cart)=  0.01781747 RMS(Int)=  0.00016574
 Iteration  2 RMS(Cart)=  0.00019577 RMS(Int)=  0.00000001
 Iteration  3 RMS(Cart)=  0.00000001 RMS(Int)=  0.00000000
 ITry= 1 IFail=0 DXMaxC= 1.71D-02 DCOld= 1.00D+10 DXMaxT= 1.00D-01 DXLimC= 3.00D+00 Rises=F
 ClnCor:  largest displacement from symmetrization is 1.37D-15 for atom     3.
 Variable       Old X    -DE/DX   Delta X   Delta X   Delta X     New X
                                 (Linear)    (Quad)   (Total)
    R1        2.24566   0.00587   0.00000   0.00618   0.00618   2.25184
    R2        2.23415   0.00221   0.00000   0.02274   0.02274   2.25690
    A1        1.25682   0.00676   0.00000  -0.02423  -0.02423   1.23259
         Item               Value     Threshold  Converged?
 Maximum Force            0.006756     0.000450     NO 
 RMS     Force            0.005325     0.000300     NO 
 Maximum Displacement     0.017062     0.001800     NO 
 RMS     Displacement     0.017937     0.001200     NO 
 Predicted change in Energy= 3.857629D-05
 Lowest energy point so far.  Saving SCF results.
 Largest change from initial coordinates is atom    1       0.009 Angstoms.
 GradGradGradGradGradGradGradGradGradGradGradGradGradGradGradGradGradGrad

 Leave Link  103 at Tue Oct  6 20:44:23 2020, MaxMem=  2684354560 cpu:               5.3 elap:               1.1
 (Enter /udrive/faculty/rpeverati/g16/g16/l202.exe)
                          Input orientation:                          
 ---------------------------------------------------------------------
 Center     Atomic      Atomic             Coordinates (Angstroms)
 Number     Number       Type             X           Y           Z
 ---------------------------------------------------------------------
      1          6           0        0.088509    0.626350    0.000000
      2          7           0        0.071619   -0.565154    0.000000
      3          1           0       -1.043636    0.246092    0.000000
 ---------------------------------------------------------------------
                    Distance matrix (angstroms):
                    1          2          3
     1  C    0.000000
     2  N    1.191624   0.000000
     3  H    1.194298   1.379099   0.000000
 Stoichiometry    CHN
 Framework group  CS[SG(CHN)]
 Deg. of freedom     3
 Full point group                 CS      NOp   2
 RotChk:  IX=0 Diff= 2.00D-02
 Largest Abelian subgroup         CS      NOp   2
 Largest concise Abelian subgroup C1      NOp   1
                         Standard orientation:                         
 ---------------------------------------------------------------------
 Center     Atomic      Atomic             Coordinates (Angstroms)
 Number     Number       Type             X           Y           Z
 ---------------------------------------------------------------------
      1          6           0        0.080474    0.624117    0.000000
      2          7           0        0.080474   -0.567507    0.000000
      3          1           0       -1.046167    0.227850    0.000000
 ---------------------------------------------------------------------
 Rotational constants (GHZ):         413.3851208          54.6738027          48.2873745
 Leave Link  202 at Tue Oct  6 20:44:24 2020, MaxMem=  2684354560 cpu:               1.9 elap:               0.7
 (Enter /udrive/faculty/rpeverati/g16/g16/l301.exe)
 Standard basis: 6-31G(d) (5D, 7F)
 Ernie: Thresh=  0.10000D-02 Tol=  0.10000D-05 Strict=F.
 There are    24 symmetry adapted cartesian basis functions of A'  symmetry.
 There are     8 symmetry adapted cartesian basis functions of A"  symmetry.
 There are    22 symmetry adapted basis functions of A'  symmetry.
 There are     8 symmetry adapted basis functions of A"  symmetry.
    30 basis functions,    60 primitive gaussians,    32 cartesian basis functions
     7 alpha electrons        7 beta electrons
       nuclear repulsion energy        23.9959002196 Hartrees.
 IExCor=  402 DFT=T Ex+Corr=B3LYP ExCW=0 ScaHFX=  0.200000
 ScaDFX=  0.800000  0.720000  1.000000  0.810000 ScalE2=  1.000000  1.000000
 IRadAn=      5 IRanWt=     -1 IRanGd=            0 ICorTp=0 IEmpDi=141
 NAtoms=    3 NActive=    3 NUniq=    3 SFac= 1.00D+00 NAtFMM=   60 NAOKFM=F Big=F
 Integral buffers will be    131072 words long.
 Raffenetti 2 integral format.
 Two-electron integral symmetry is turned on.
 R6Disp:  Grimme-D3(BJ) Dispersion energy=       -0.0014435697 Hartrees.
 Nuclear repulsion after empirical dispersion term =       23.9944566499 Hartrees.
 Leave Link  301 at Tue Oct  6 20:44:25 2020, MaxMem=  2684354560 cpu:               2.2 elap:               0.6
 (Enter /udrive/faculty/rpeverati/g16/g16/l302.exe)
 NPDir=0 NMtPBC=     1 NCelOv=     1 NCel=       1 NClECP=     1 NCelD=      1
         NCelK=      1 NCelE2=     1 NClLst=     1 CellRange=     0.0.
 One-electron integrals computed using PRISM.
 One-electron integral symmetry used in STVInt
 NBasis=    30 RedAO= T EigKep=  8.02D-03  NBF=    22     8
 NBsUse=    30 1.00D-06 EigRej= -1.00D+00 NBFU=    22     8
 Precomputing XC quadrature grid using
 IXCGrd= 4 IRadAn=           5 IRanWt=          -1 IRanGd=           0 AccXCQ= 0.00D+00.
 Generated NRdTot=       0 NPtTot=           0 NUsed=           0 NTot=          32
 NSgBfM=    32    32    32    32    32 MxSgAt=     3 MxSgA2=     3.
 Leave Link  302 at Tue Oct  6 20:44:26 2020, MaxMem=  2684354560 cpu:               7.6 elap:               1.2
 (Enter /udrive/faculty/rpeverati/g16/g16/l303.exe)
 DipDrv:  MaxL=1.
 Leave Link  303 at Tue Oct  6 20:44:28 2020, MaxMem=  2684354560 cpu:               3.5 elap:               1.0
 (Enter /udrive/faculty/rpeverati/g16/g16/l401.exe)
 Initial guess from the checkpoint file:  "MN_49_hcnts_BH76_B3LYP_631Gs.chk"
 SCF N**3 symmetry information disabled.
 B after Tr=     0.000000   -0.000000    0.000000
         Rot=    0.999996    0.000000    0.000000   -0.002685 Ang=  -0.31 deg.
 Guess basis will be translated and rotated to current coordinates.
 JPrj=2 DoOrth=T DoCkMO=T.
 Initial guess orbital symmetries:
       Occupied  (A') (A') (A') (A') (A') (A") (A')
       Virtual   (A') (A") (A') (A') (A") (A') (A') (A') (A') (A")
                 (A') (A') (A') (A") (A') (A") (A') (A") (A') (A')
                 (A') (A") (A')
 The electronic state of the initial guess is 1-A'.
 Leave Link  401 at Tue Oct  6 20:44:29 2020, MaxMem=  2684354560 cpu:               5.9 elap:               1.2
 (Enter /udrive/faculty/rpeverati/g16/g16/l502.exe)
 Keep R1 ints in memory in symmetry-blocked form, NReq=10459184.
 FoFCou: FMM=F IPFlag=           0 FMFlag=           0 FMFlg1=           0
         NFxFlg=           0 DoJE=F BraDBF=F KetDBF=F FulRan=T
         wScrn=  0.000000 ICntrl=       600 IOpCl=  0 I1Cent=           0 NGrid=           0
         NMat0=    1 NMatS0=    465 NMatT0=    0 NMatD0=    1 NMtDS0=    0 NMtDT0=    0
 Petite list used in FoFCou.
 Closed shell SCF:
 Using DIIS extrapolation, IDIIS=  1040.
 NGot=  2684354560 LenX=  2684292770 LenY=  2684291305
 Requested convergence on RMS density matrix=1.00D-08 within 120 cycles.
 Requested convergence on MAX density matrix=1.00D-06.
 Requested convergence on             energy=1.00D-06.
 No special actions if energy rises.

 Cycle   1  Pass 1  IDiag  1:
 E= -93.3412637117579    
 DIIS: error= 1.15D-03 at cycle   1 NSaved=   1.
 NSaved= 1 IEnMin= 1 EnMin= -93.3412637117579     IErMin= 1 ErrMin= 1.15D-03
 ErrMax= 1.15D-03  0.00D+00 EMaxC= 1.00D-01 BMatC= 7.15D-05 BMatP= 7.15D-05
 IDIUse=3 WtCom= 9.88D-01 WtEn= 1.15D-02
 Coeff-Com:  0.100D+01
 Coeff-En:   0.100D+01
 Coeff:      0.100D+01
 Gap=     0.276 Goal=   None    Shift=    0.000
 GapD=    0.276 DampG=1.000 DampE=1.000 DampFc=1.0000 IDamp=-1.
 RMSDP=6.05D-04 MaxDP=7.29D-03              OVMax= 7.85D-03

 Cycle   2  Pass 1  IDiag  1:
 E= -93.3413980300518     Delta-E=       -0.000134318294 Rises=F Damp=F
 DIIS: error= 1.38D-03 at cycle   2 NSaved=   2.
 NSaved= 2 IEnMin= 2 EnMin= -93.3413980300518     IErMin= 1 ErrMin= 1.15D-03
 ErrMax= 1.38D-03  0.00D+00 EMaxC= 1.00D-01 BMatC= 3.84D-05 BMatP= 7.15D-05
 IDIUse=3 WtCom= 9.86D-01 WtEn= 1.38D-02
 Coeff-Com:  0.383D+00 0.617D+00
 Coeff-En:   0.000D+00 0.100D+01
 Coeff:      0.378D+00 0.622D+00
 Gap=     0.278 Goal=   None    Shift=    0.000
 RMSDP=2.83D-04 MaxDP=2.53D-03 DE=-1.34D-04 OVMax= 4.48D-03

 Cycle   3  Pass 1  IDiag  1:
 E= -93.3413944309596     Delta-E=        0.000003599092 Rises=F Damp=F
 DIIS: error= 1.55D-03 at cycle   3 NSaved=   3.
 NSaved= 3 IEnMin= 2 EnMin= -93.3413980300518     IErMin= 1 ErrMin= 1.15D-03
 ErrMax= 1.55D-03  0.00D+00 EMaxC= 1.00D-01 BMatC= 4.33D-05 BMatP= 3.84D-05
 IDIUse=3 WtCom= 2.03D-01 WtEn= 7.97D-01
 Coeff-Com:  0.294D-02 0.515D+00 0.482D+00
 Coeff-En:   0.000D+00 0.518D+00 0.482D+00
 Coeff:      0.595D-03 0.518D+00 0.482D+00
 Gap=     0.277 Goal=   None    Shift=    0.000
 RMSDP=1.63D-04 MaxDP=1.55D-03 DE= 3.60D-06 OVMax= 2.53D-03

 Cycle   4  Pass 1  IDiag  1:
 E= -93.3414337693981     Delta-E=       -0.000039338439 Rises=F Damp=F
 DIIS: error= 1.06D-04 at cycle   4 NSaved=   4.
 NSaved= 4 IEnMin= 4 EnMin= -93.3414337693981     IErMin= 4 ErrMin= 1.06D-04
 ErrMax= 1.06D-04  0.00D+00 EMaxC= 1.00D-01 BMatC= 4.96D-07 BMatP= 3.84D-05
 IDIUse=3 WtCom= 9.99D-01 WtEn= 1.06D-03
 Coeff-Com: -0.229D-01 0.112D+00 0.163D+00 0.747D+00
 Coeff-En:   0.000D+00 0.000D+00 0.000D+00 0.100D+01
 Coeff:     -0.229D-01 0.112D+00 0.163D+00 0.748D+00
 Gap=     0.277 Goal=   None    Shift=    0.000
 RMSDP=2.61D-05 MaxDP=1.52D-04 DE=-3.93D-05 OVMax= 4.56D-04

 Cycle   5  Pass 1  IDiag  1:
 E= -93.3414343282897     Delta-E=       -0.000000558892 Rises=F Damp=F
 DIIS: error= 1.56D-05 at cycle   5 NSaved=   5.
 NSaved= 5 IEnMin= 5 EnMin= -93.3414343282897     IErMin= 5 ErrMin= 1.56D-05
 ErrMax= 1.56D-05  0.00D+00 EMaxC= 1.00D-01 BMatC= 1.14D-08 BMatP= 4.96D-07
 IDIUse=1 WtCom= 1.00D+00 WtEn= 0.00D+00
 Coeff-Com: -0.333D-02 0.873D-03 0.164D-01 0.171D+00 0.815D+00
 Coeff:     -0.333D-02 0.873D-03 0.164D-01 0.171D+00 0.815D+00
 Gap=     0.277 Goal=   None    Shift=    0.000
 RMSDP=4.95D-06 MaxDP=2.72D-05 DE=-5.59D-07 OVMax= 7.84D-05

 Cycle   6  Pass 1  IDiag  1:
 E= -93.3414343428158     Delta-E=       -0.000000014526 Rises=F Damp=F
 DIIS: error= 4.41D-06 at cycle   6 NSaved=   6.
 NSaved= 6 IEnMin= 6 EnMin= -93.3414343428158     IErMin= 6 ErrMin= 4.41D-06
 ErrMax= 4.41D-06  0.00D+00 EMaxC= 1.00D-01 BMatC= 6.11D-10 BMatP= 1.14D-08
 IDIUse=1 WtCom= 1.00D+00 WtEn= 0.00D+00
 Coeff-Com:  0.671D-03-0.818D-02-0.928D-02-0.655D-02 0.147D+00 0.876D+00
 Coeff:      0.671D-03-0.818D-02-0.928D-02-0.655D-02 0.147D+00 0.876D+00
 Gap=     0.277 Goal=   None    Shift=    0.000
 RMSDP=1.21D-06 MaxDP=1.86D-05 DE=-1.45D-08 OVMax= 1.25D-05

 Cycle   7  Pass 1  IDiag  1:
 E= -93.3414343435612     Delta-E=       -0.000000000745 Rises=F Damp=F
 DIIS: error= 1.01D-06 at cycle   7 NSaved=   7.
 NSaved= 7 IEnMin= 7 EnMin= -93.3414343435612     IErMin= 7 ErrMin= 1.01D-06
 ErrMax= 1.01D-06  0.00D+00 EMaxC= 1.00D-01 BMatC= 4.09D-11 BMatP= 6.11D-10
 IDIUse=1 WtCom= 1.00D+00 WtEn= 0.00D+00
 Coeff-Com:  0.419D-03-0.319D-02-0.421D-02-0.664D-02 0.354D-01 0.316D+00
 Coeff-Com:  0.663D+00
 Coeff:      0.419D-03-0.319D-02-0.421D-02-0.664D-02 0.354D-01 0.316D+00
 Coeff:      0.663D+00
 Gap=     0.277 Goal=   None    Shift=    0.000
 RMSDP=2.46D-07 MaxDP=1.93D-06 DE=-7.45D-10 OVMax= 3.24D-06

 Cycle   8  Pass 1  IDiag  1:
 E= -93.3414343436054     Delta-E=       -0.000000000044 Rises=F Damp=F
 DIIS: error= 2.41D-07 at cycle   8 NSaved=   8.
 NSaved= 8 IEnMin= 8 EnMin= -93.3414343436054     IErMin= 8 ErrMin= 2.41D-07
 ErrMax= 2.41D-07  0.00D+00 EMaxC= 1.00D-01 BMatC= 1.54D-12 BMatP= 4.09D-11
 IDIUse=1 WtCom= 1.00D+00 WtEn= 0.00D+00
 Coeff-Com:  0.320D-04-0.687D-04-0.256D-03-0.728D-03-0.255D-02-0.116D-01
 Coeff-Com:  0.115D+00 0.900D+00
 Coeff:      0.320D-04-0.687D-04-0.256D-03-0.728D-03-0.255D-02-0.116D-01
 Coeff:      0.115D+00 0.900D+00
 Gap=     0.277 Goal=   None    Shift=    0.000
 RMSDP=5.19D-08 MaxDP=3.64D-07 DE=-4.43D-11 OVMax= 7.47D-07

 Cycle   9  Pass 1  IDiag  1:
 E= -93.3414343436076     Delta-E=       -0.000000000002 Rises=F Damp=F
 DIIS: error= 2.11D-08 at cycle   9 NSaved=   9.
 NSaved= 9 IEnMin= 9 EnMin= -93.3414343436076     IErMin= 9 ErrMin= 2.11D-08
 ErrMax= 2.11D-08  0.00D+00 EMaxC= 1.00D-01 BMatC= 2.35D-14 BMatP= 1.54D-12
 IDIUse=1 WtCom= 1.00D+00 WtEn= 0.00D+00
 Coeff-Com: -0.693D-05 0.571D-04 0.886D-04 0.126D-03-0.342D-03-0.845D-02
 Coeff-Com: -0.157D-01 0.625D-01 0.962D+00
 Coeff:     -0.693D-05 0.571D-04 0.886D-04 0.126D-03-0.342D-03-0.845D-02
 Coeff:     -0.157D-01 0.625D-01 0.962D+00
 Gap=     0.277 Goal=   None    Shift=    0.000
 RMSDP=5.98D-09 MaxDP=4.91D-08 DE=-2.13D-12 OVMax= 7.19D-08

 SCF Done:  E(RB3LYP) =  -93.3414343436     A.U. after    9 cycles
            NFock=  9  Conv=0.60D-08     -V/T= 2.0062
 KE= 9.276238188794D+01 PE=-2.654528384114D+02 EE= 5.535456552991D+01
 Leave Link  502 at Tue Oct  6 20:44:32 2020, MaxMem=  2684354560 cpu:              17.9 elap:               2.1
 (Enter /udrive/faculty/rpeverati/g16/g16/l508.exe)
 QCSCF skips out because SCF is already converged.
 Leave Link  508 at Tue Oct  6 20:44:32 2020, MaxMem=  2684354560 cpu:               0.9 elap:               0.4
 (Enter /udrive/faculty/rpeverati/g16/g16/l701.exe)
 ... and contract with generalized density number  0.
 Compute integral first derivatives.
 R6Disp: Adding Grimme-D3(BJ) dispersion energy 1st derivatives to the gradient.
 Leave Link  701 at Tue Oct  6 20:44:34 2020, MaxMem=  2684354560 cpu:               5.9 elap:               1.5
 (Enter /udrive/faculty/rpeverati/g16/g16/l702.exe)
 L702 exits ... SP integral derivatives will be done elsewhere.
 Leave Link  702 at Tue Oct  6 20:44:35 2020, MaxMem=  2684354560 cpu:               1.0 elap:               0.6
 (Enter /udrive/faculty/rpeverati/g16/g16/l703.exe)
 Integral derivatives from FoFJK, PRISM(SPDF).
 Compute integral first derivatives, UseDBF=F ICtDFT=           0.
 Calling FoFJK, ICntrl=      2127 FMM=F ISym2X=1 I1Cent= 0 IOpClX= 0 NMat=1 NMatS=1 NMatT=0.
 FoFJK:  IHMeth= 1 ICntrl=    2127 DoSepK=F KAlg= 0 I1Cent=           0 FoldK=F
 IRaf=         0 NMat=       1 IRICut=       1 DoRegI=T DoRafI=F ISym2E= 1 IDoP0=0 IntGTp=1.
 FoFCou: FMM=F IPFlag=           0 FMFlag=      100000 FMFlg1=         800
         NFxFlg=           0 DoJE=F BraDBF=F KetDBF=F FulRan=T
         wScrn=  0.000000 ICntrl=      2127 IOpCl=  0 I1Cent=           0 NGrid=           0
         NMat0=    1 NMatS0=      1 NMatT0=    0 NMatD0=    1 NMtDS0=    0 NMtDT0=    0
 Petite list used in FoFCou.
 Leave Link  703 at Tue Oct  6 20:44:36 2020, MaxMem=  2684354560 cpu:               5.2 elap:               1.0
 (Enter /udrive/faculty/rpeverati/g16/g16/l716.exe)
 Dipole        =-4.94707808D-01 5.06996552D-02 0.00000000D+00
 ***** Axes restored to original set *****
 -------------------------------------------------------------------
 Center     Atomic                   Forces (Hartrees/Bohr)
 Number     Number              X              Y              Z
 -------------------------------------------------------------------
      1        6           0.000199842    0.000131998   -0.000000000
      2        7          -0.000003294   -0.000063785   -0.000000000
      3        1          -0.000196548   -0.000068214   -0.000000000
 -------------------------------------------------------------------
 Cartesian Forces:  Max     0.000199842 RMS     0.000107870
 Leave Link  716 at Tue Oct  6 20:44:37 2020, MaxMem=  2684354560 cpu:               1.1 elap:               0.7
 (Enter /udrive/faculty/rpeverati/g16/g16/l103.exe)

 GradGradGradGradGradGradGradGradGradGradGradGradGradGradGradGradGradGrad
 Berny optimization.
 Optmz: redundant internal coordinate code flag= 1
 Red2BG:  D1=  4.69D-01 OD1=  1.91D-02 B2RMS=  0.00D+00 IAprox=0
 FormGI is forming the generalized inverse of G from B-inverse, IUseBI=4.
 Internal  Forces:  Max     0.000208123 RMS     0.000125702
 Search for a saddle point.
 Step number   2 out of a maximum of   50
 All quantities printed in internal units (Hartrees-Bohrs-Radians)
 Swapping is turned off.
 Update second derivatives using D2CorX and points    1    2
 The second derivative matrix:
                          R1        R2        A1
           R1           1.08347
           R2          -0.01043   0.23533
           A1           0.02685   0.13541  -0.14511
 ITU=  0  0
 Eigenvectors of the second derivative matrix:
                           1         2         3
     Eigenvalues --    -0.18903   0.27860   1.08412
   1         R1         0.02259  -0.00219   0.99974
   2         R2         0.30441  -0.95250  -0.00896
   3         A1        -0.95227  -0.30453   0.02085
 RLam0= 2.56D-08.
 Iter=   1 RLamda= 0.00000000D+00 Sum=-1.42591559D-07.
 Iter=   2 RLamda=-1.42591559D-07 Sum=-1.42591488D-07.
 RFO step:  Lambda0=2.562414128D-08 Lambda=-1.42591559D-07.
 Linear search not attempted -- option 19 set.
 Iteration  1 RMS(Cart)=  0.00059504 RMS(Int)=  0.00000010
 Iteration  2 RMS(Cart)=  0.00000008 RMS(Int)=  0.00000000
 ITry= 1 IFail=0 DXMaxC= 6.85D-04 DCOld= 1.00D+10 DXMaxT= 1.00D-01 DXLimC= 3.00D+00 Rises=F
 ClnCor:  largest displacement from symmetrization is 9.04D-16 for atom     3.
 Variable       Old X    -DE/DX   Delta X   Delta X   Delta X     New X
                                 (Linear)    (Quad)   (Total)
    R1        2.25184   0.00006   0.00000   0.00005   0.00005   2.25189
    R2        2.25690   0.00021   0.00000   0.00056   0.00056   2.25746
    A1        1.23259  -0.00001   0.00000   0.00057   0.00057   1.23315
         Item               Value     Threshold  Converged?
 Maximum Force            0.000208     0.000450     YES
 RMS     Force            0.000126     0.000300     YES
 Maximum Displacement     0.000685     0.001800     YES
 RMS     Displacement     0.000595     0.001200     YES
 Predicted change in Energy=-5.848371D-08
 Optimization completed.
    -- Stationary point found.
                           ----------------------------
                           !   Optimized Parameters   !
                           ! (Angstroms and Degrees)  !
 --------------------------                            --------------------------
 ! Name  Definition              Value          Derivative Info.                !
 --------------------------------------------------------------------------------
 ! R1    R(1,2)                  1.1916         -DE/DX =    0.0001              !
 ! R2    R(1,3)                  1.1943         -DE/DX =    0.0002              !
 ! A1    A(2,1,3)               70.622          -DE/DX =    0.0                 !
 --------------------------------------------------------------------------------
 Largest change from initial coordinates is atom    3       0.027 Angstoms.
 GradGradGradGradGradGradGradGradGradGradGradGradGradGradGradGradGradGrad

 Leave Link  103 at Tue Oct  6 20:44:38 2020, MaxMem=  2684354560 cpu:               4.6 elap:               1.0
 (Enter /udrive/faculty/rpeverati/g16/g16/l202.exe)
                          Input orientation:                          
 ---------------------------------------------------------------------
 Center     Atomic      Atomic             Coordinates (Angstroms)
 Number     Number       Type             X           Y           Z
 ---------------------------------------------------------------------
      1          6           0        0.088509    0.626350    0.000000
      2          7           0        0.071619   -0.565154    0.000000
      3          1           0       -1.043636    0.246092    0.000000
 ---------------------------------------------------------------------
                    Distance matrix (angstroms):
                    1          2          3
     1  C    0.000000
     2  N    1.191624   0.000000
     3  H    1.194298   1.379099   0.000000
 Stoichiometry    CHN
 Framework group  CS[SG(CHN)]
 Deg. of freedom     3
 Full point group                 CS      NOp   2
 RotChk:  IX=0 Diff= 1.57D-16
 Largest Abelian subgroup         CS      NOp   2
 Largest concise Abelian subgroup C1      NOp   1
                         Standard orientation:                         
 ---------------------------------------------------------------------
 Center     Atomic      Atomic             Coordinates (Angstroms)
 Number     Number       Type             X           Y           Z
 ---------------------------------------------------------------------
      1          6           0        0.080474    0.624117    0.000000
      2          7           0        0.080474   -0.567507    0.000000
      3          1           0       -1.046167    0.227850    0.000000
 ---------------------------------------------------------------------
 Rotational constants (GHZ):         413.3851208          54.6738027          48.2873745
 Leave Link  202 at Tue Oct  6 20:44:39 2020, MaxMem=  2684354560 cpu:               2.0 elap:               0.7
 (Enter /udrive/faculty/rpeverati/g16/g16/l601.exe)
 Copying SCF densities to generalized density rwf, IOpCl= 0 IROHF=0.

 **********************************************************************

            Population analysis using the SCF density.

 **********************************************************************

 Orbital symmetries:
       Occupied  (A') (A') (A') (A') (A') (A") (A')
       Virtual   (A') (A") (A') (A') (A") (A') (A') (A') (A') (A")
                 (A') (A') (A') (A") (A') (A") (A') (A") (A') (A')
                 (A') (A") (A')
 The electronic state is 1-A'.
 Alpha  occ. eigenvalues --  -14.40621 -10.24641  -0.98910  -0.52361  -0.45162
 Alpha  occ. eigenvalues --   -0.38355  -0.33383
 Alpha virt. eigenvalues --   -0.05697   0.00888   0.06165   0.31800   0.52556
 Alpha virt. eigenvalues --    0.52724   0.56804   0.66927   0.70659   0.73894
 Alpha virt. eigenvalues --    0.77178   0.83225   1.25639   1.47194   1.49193
 Alpha virt. eigenvalues --    1.50906   1.78847   1.89196   1.96201   2.32102
 Alpha virt. eigenvalues --    2.50486   2.52686   2.82129
          Condensed to atoms (all electrons):
               1          2          3
     1  C    5.389241   0.442879   0.211455
     2  N    0.442879   6.722849   0.054346
     3  H    0.211455   0.054346   0.470549
 Mulliken charges:
               1
     1  C   -0.043576
     2  N   -0.220074
     3  H    0.263650
 Sum of Mulliken charges =  -0.00000
 Mulliken charges with hydrogens summed into heavy atoms:
               1
     1  C    0.220074
     2  N   -0.220074
 Electronic spatial extent (au):  <R**2>=             47.0617
 Charge=             -0.0000 electrons
 Dipole moment (field-independent basis, Debye):
    X=             -1.2574    Y=              0.1289    Z=              0.0000  Tot=              1.2640
 Quadrupole moment (field-independent basis, Debye-Ang):
   XX=             -9.4604   YY=            -14.0941   ZZ=            -11.7801
   XY=             -0.2821   XZ=              0.0000   YZ=              0.0000
 Traceless Quadrupole moment (field-independent basis, Debye-Ang):
   XX=              2.3178   YY=             -2.3159   ZZ=             -0.0019
   XY=             -0.2821   XZ=              0.0000   YZ=              0.0000
 Octapole moment (field-independent basis, Debye-Ang**2):
  XXX=             -2.0686  YYY=             -2.7600  ZZZ=              0.0000  XYY=             -0.1554
  XXY=             -0.4690  XXZ=              0.0000  XZZ=             -0.2111  YZZ=             -0.5160
  YYZ=              0.0000  XYZ=              0.0000
 Hexadecapole moment (field-independent basis, Debye-Ang**3):
 XXXX=            -12.0990 YYYY=            -40.8550 ZZZZ=            -10.8235 XXXY=             -0.0558
 XXXZ=              0.0000 YYYX=              0.3678 YYYZ=              0.0000 ZZZX=              0.0000
 ZZZY=              0.0000 XXYY=             -8.5583 XXZZ=             -4.1922 YYZZ=             -8.1149
 XXYZ=              0.0000 YYXZ=              0.0000 ZZXY=              0.1253
 N-N= 2.399445664993D+01 E-N=-2.654528381198D+02  KE= 9.276238188794D+01
 No NMR shielding tensors so no spin-rotation constants.
 Leave Link  601 at Tue Oct  6 20:44:41 2020, MaxMem=  2684354560 cpu:               6.2 elap:               1.3
 (Enter /udrive/faculty/rpeverati/g16/g16/l9999.exe)

 Test job not archived.
 1\1\GINC-NODE52\FTS\RB3LYP\6-31G(d)\C1H1N1\RPEVERATI\06-Oct-2020\0\\#P
  Opt(TS,MaxCyc=50,NoEigenTest,MaxStep=10,CalcFC) B3LYP/6-31G* 5D 7F In
 tegral=UltraFineGrid SCF=(NoSymm,XQC,MaxCyc=120) IOp(1/33=1) Empirical
 Dispersion=GD3BJ\\TS search on BH76.\\0,1\C,0.0885090482,0.6263495144,
 0.\N,0.0716188675,-0.5651543482,0.\H,-1.0436358367,0.2460922191,0.\\Ve
 rsion=ES64L-G16RevA.03\State=1-A'\HF=-93.3414343\RMSD=5.983e-09\RMSF=1
 .079e-04\Dipole=-0.4939395,0.0577066,0.\Quadrupole=1.7165898,-1.715159
 7,-0.0014301,-0.2584695,0.,0.\PG=CS [SG(C1H1N1)]\\@


 WE THE UNWILLING
 LED BY THE UNQUALIFIED
 HAVE BEEN DOING THE UNBELIEVABLE SO LONG WITH SO LITTLE
 THAT WE NOW ATTEMPT THE IMPOSSIBLE WITH NOTHING.

                                    -- ANONYMOUS
 Job cpu time:       0 days  0 hours  3 minutes 17.4 seconds.
 Elapsed time:       0 days  0 hours  0 minutes 36.7 seconds.
 File lengths (MBytes):  RWF=      5 Int=      0 D2E=      0 Chk=      1 Scr=      1
 Normal termination of Gaussian 16 at Tue Oct  6 20:44:43 2020.
 Initial command:
 /udrive/faculty/rpeverati/g16/g16/l1.exe "/udrive/scratch-directories/gaussian09/rpeverati/Gau-31572.inp" -scrdir="/udrive/scratch-directories/gaussian09/rpeverati/"
 Entering Link 1 = /udrive/faculty/rpeverati/g16/g16/l1.exe PID=     32766.
  
 Copyright (c) 1988,1990,1992,1993,1995,1998,2003,2009,2016,
            Gaussian, Inc.  All Rights Reserved.
  
 This is part of the Gaussian(R) 16 program.  It is based on
 the Gaussian(R) 09 system (copyright 2009, Gaussian, Inc.),
 the Gaussian(R) 03 system (copyright 2003, Gaussian, Inc.),
 the Gaussian(R) 98 system (copyright 1998, Gaussian, Inc.),
 the Gaussian(R) 94 system (copyright 1995, Gaussian, Inc.),
 the Gaussian 92(TM) system (copyright 1992, Gaussian, Inc.),
 the Gaussian 90(TM) system (copyright 1990, Gaussian, Inc.),
 the Gaussian 88(TM) system (copyright 1988, Gaussian, Inc.),
 the Gaussian 86(TM) system (copyright 1986, Carnegie Mellon
 University), and the Gaussian 82(TM) system (copyright 1983,
 Carnegie Mellon University). Gaussian is a federally registered
 trademark of Gaussian, Inc.
  
 This software contains proprietary and confidential information,
 including trade secrets, belonging to Gaussian, Inc.
  
 This software is provided under written license and may be
 used, copied, transmitted, or stored only in accord with that
 written license.
  
 The following legend is applicable only to US Government
 contracts under FAR:
  
                    RESTRICTED RIGHTS LEGEND
  
 Use, reproduction and disclosure by the US Government is
 subject to restrictions as set forth in subparagraphs (a)
 and (c) of the Commercial Computer Software - Restricted
 Rights clause in FAR 52.227-19.
  
 Gaussian, Inc.
 340 Quinnipiac St., Bldg. 40, Wallingford CT 06492
  
  
 ---------------------------------------------------------------
 Warning -- This program may not be used in any manner that
 competes with the business of Gaussian, Inc. or will provide
 assistance to any competitor of Gaussian, Inc.  The licensee
 of this program is prohibited from giving any competitor of
 Gaussian, Inc. access to this program.  By using this program,
 the user acknowledges that Gaussian, Inc. is engaged in the
 business of creating and licensing software in the field of
 computational chemistry and represents and warrants to the
 licensee that it is not a competitor of Gaussian, Inc. and that
 it will not use this program in any manner prohibited above.
 ---------------------------------------------------------------
  

 Cite this work as:
 Gaussian 16, Revision A.03,
 M. J. Frisch, G. W. Trucks, H. B. Schlegel, G. E. Scuseria, 
 M. A. Robb, J. R. Cheeseman, G. Scalmani, V. Barone, 
 G. A. Petersson, H. Nakatsuji, X. Li, M. Caricato, A. V. Marenich, 
 J. Bloino, B. G. Janesko, R. Gomperts, B. Mennucci, H. P. Hratchian, 
 J. V. Ortiz, A. F. Izmaylov, J. L. Sonnenberg, D. Williams-Young, 
 F. Ding, F. Lipparini, F. Egidi, J. Goings, B. Peng, A. Petrone, 
 T. Henderson, D. Ranasinghe, V. G. Zakrzewski, J. Gao, N. Rega, 
 G. Zheng, W. Liang, M. Hada, M. Ehara, K. Toyota, R. Fukuda, 
 J. Hasegawa, M. Ishida, T. Nakajima, Y. Honda, O. Kitao, H. Nakai, 
 T. Vreven, K. Throssell, J. A. Montgomery, Jr., J. E. Peralta, 
 F. Ogliaro, M. J. Bearpark, J. J. Heyd, E. N. Brothers, K. N. Kudin, 
 V. N. Staroverov, T. A. Keith, R. Kobayashi, J. Normand, 
 K. Raghavachari, A. P. Rendell, J. C. Burant, S. S. Iyengar, 
 J. Tomasi, M. Cossi, J. M. Millam, M. Klene, C. Adamo, R. Cammi, 
 J. W. Ochterski, R. L. Martin, K. Morokuma, O. Farkas, 
 J. B. Foresman, and D. J. Fox, Gaussian, Inc., Wallingford CT, 2016.
 
 ******************************************
 Gaussian 16:  ES64L-G16RevA.03 25-Dec-2016
                 6-Oct-2020 
 ******************************************
 %NoSave
 %nproc=12
 Will use up to   12 processors via shared memory.
 %mem=20GB
 %chk=MN_49_hcnts_BH76_B3LYP_631Gs
 ----------------------------------------------------------------------
 #P Freq B3LYP/6-31G* 5D 7F Integral=UltraFineGrid SCF=(NoSymm,XQC,MaxC
 yc=120) IOp(1/33=1) EmpiricalDispersion=GD3BJ Geom=Check Guess=Read
 ----------------------------------------------------------------------
 1/10=4,29=2,30=1,33=1,38=1/1,3;
 2/12=2,40=1/2;
 3/5=1,6=6,7=1,8=11,11=2,14=-4,25=1,30=1,71=2,74=-5,75=-5,116=-2,124=41,140=1/1,2,3;
 4/5=1,9=2/1;
 5/5=2,7=120,8=3,13=1,38=6,98=1/2,8;
 8/6=4,10=90,11=11/1;
 11/6=1,8=1,9=11,15=111,16=1/1,2,10;
 10/6=1/2;
 6/7=2,8=2,9=2,10=2,28=1/1;
 7/8=1,10=1,25=1/1,2,3,16;
 1/10=4,30=1,33=1/3;
 99//99;
 Leave Link    1 at Tue Oct  6 20:44:44 2020, MaxMem=  2684354560 cpu:               5.5 elap:               0.7
 (Enter /udrive/faculty/rpeverati/g16/g16/l101.exe)
 ONIOM results not found on unit 2.
 ------------------
 TS search on BH76.
 ------------------
 TstMul:  ICh=     0
 TstMul:  Mul=     1
 TstMul:  ICh=     0
 TstMul:  Mul=     1
 Structure from the checkpoint file:  "MN_49_hcnts_BH76_B3LYP_631Gs.chk"
 Charge =  0 Multiplicity = 1
 Redundant internal coordinates found in file.  (old form).
 C,0,0.0885090482,0.6263495144,0.
 N,0,0.0716188675,-0.5651543482,0.
 H,0,-1.0436358367,0.2460922191,0.
 Recover connectivity data from disk.
 After GenITR:
 ITRead=  0  0  0
 MicOpt= -1 -1 -1
 ITRead=  0  0  0
 MicOpt= -1 -1 -1
 NAtoms=      3 NQM=        3 NQMF=       0 NMMI=      0 NMMIF=      0
                NMic=       0 NMicF=      0.
                    Isotopes and Nuclear Properties:
 (Nuclear quadrupole moments (NQMom) in fm**2, nuclear magnetic moments (NMagM)
  in nuclear magnetons)

  Atom         1           2           3
 IAtWgt=          12          14           1
 AtmWgt=  12.0000000  14.0030740   1.0078250
 NucSpn=           0           2           1
 AtZEff=   3.6000000   4.5500000   1.0000000
 NQMom=    0.0000000   2.0440000   0.0000000
 NMagM=    0.0000000   0.4037610   2.7928460
 AtZNuc=   6.0000000   7.0000000   1.0000000
 No MM parameters found.
 Leave Link  101 at Tue Oct  6 20:44:45 2020, MaxMem=  2684354560 cpu:               4.1 elap:               0.6
 (Enter /udrive/faculty/rpeverati/g16/g16/l103.exe)

 GradGradGradGradGradGradGradGradGradGradGradGradGradGradGradGradGradGrad
 Berny optimization.
 Optmz: redundant internal coordinate code flag= 1
 Initialization pass.
                           ----------------------------
                           !    Initial Parameters    !
                           ! (Angstroms and Degrees)  !
 --------------------------                            --------------------------
 ! Name  Definition              Value          Derivative Info.                !
 --------------------------------------------------------------------------------
 ! R1    R(1,2)                  1.1916         calculate D2E/DX2 analytically  !
 ! R2    R(1,3)                  1.1943         calculate D2E/DX2 analytically  !
 ! A1    A(2,1,3)               70.622          calculate D2E/DX2 analytically  !
 --------------------------------------------------------------------------------
 Maximum allowed force set to 1.00D+20.
 Trust Radius=3.00D-01 FncErr=1.00D-07 GrdErr=1.00D-07 EigMax=2.50D+02 EigMin=1.00D-04
 Number of steps in this run=      2 maximum allowed number of steps=      2.
 GradGradGradGradGradGradGradGradGradGradGradGradGradGradGradGradGradGrad

 Leave Link  103 at Tue Oct  6 20:44:46 2020, MaxMem=  2684354560 cpu:               0.9 elap:               0.4
 (Enter /udrive/faculty/rpeverati/g16/g16/l202.exe)
                          Input orientation:                          
 ---------------------------------------------------------------------
 Center     Atomic      Atomic             Coordinates (Angstroms)
 Number     Number       Type             X           Y           Z
 ---------------------------------------------------------------------
      1          6           0        0.088509    0.626350    0.000000
      2          7           0        0.071619   -0.565154    0.000000
      3          1           0       -1.043636    0.246092    0.000000
 ---------------------------------------------------------------------
                    Distance matrix (angstroms):
                    1          2          3
     1  C    0.000000
     2  N    1.191624   0.000000
     3  H    1.194298   1.379099   0.000000
 Stoichiometry    CHN
 Framework group  CS[SG(CHN)]
 Deg. of freedom     3
 Full point group                 CS      NOp   2
 RotChk:  IX=0 Diff= 1.58D-16
 Largest Abelian subgroup         CS      NOp   2
 Largest concise Abelian subgroup C1      NOp   1
                         Standard orientation:                         
 ---------------------------------------------------------------------
 Center     Atomic      Atomic             Coordinates (Angstroms)
 Number     Number       Type             X           Y           Z
 ---------------------------------------------------------------------
      1          6           0        0.080474    0.624117    0.000000
      2          7           0        0.080474   -0.567507    0.000000
      3          1           0       -1.046167    0.227850    0.000000
 ---------------------------------------------------------------------
 Rotational constants (GHZ):         413.3851208          54.6738027          48.2873745
 Leave Link  202 at Tue Oct  6 20:44:47 2020, MaxMem=  2684354560 cpu:               2.3 elap:               0.6
 (Enter /udrive/faculty/rpeverati/g16/g16/l301.exe)
 Standard basis: 6-31G(d) (5D, 7F)
 Ernie: Thresh=  0.10000D-02 Tol=  0.10000D-05 Strict=F.
 There are    24 symmetry adapted cartesian basis functions of A'  symmetry.
 There are     8 symmetry adapted cartesian basis functions of A"  symmetry.
 There are    22 symmetry adapted basis functions of A'  symmetry.
 There are     8 symmetry adapted basis functions of A"  symmetry.
    30 basis functions,    60 primitive gaussians,    32 cartesian basis functions
     7 alpha electrons        7 beta electrons
       nuclear repulsion energy        23.9959002196 Hartrees.
 IExCor=  402 DFT=T Ex+Corr=B3LYP ExCW=0 ScaHFX=  0.200000
 ScaDFX=  0.800000  0.720000  1.000000  0.810000 ScalE2=  1.000000  1.000000
 IRadAn=      5 IRanWt=     -1 IRanGd=            0 ICorTp=0 IEmpDi=141
 NAtoms=    3 NActive=    3 NUniq=    3 SFac= 1.00D+00 NAtFMM=   60 NAOKFM=F Big=F
 Integral buffers will be    131072 words long.
 Raffenetti 2 integral format.
 Two-electron integral symmetry is turned on.
 R6Disp:  Grimme-D3(BJ) Dispersion energy=       -0.0014435697 Hartrees.
 Nuclear repulsion after empirical dispersion term =       23.9944566499 Hartrees.
 Leave Link  301 at Tue Oct  6 20:44:48 2020, MaxMem=  2684354560 cpu:               2.5 elap:               0.6
 (Enter /udrive/faculty/rpeverati/g16/g16/l302.exe)
 NPDir=0 NMtPBC=     1 NCelOv=     1 NCel=       1 NClECP=     1 NCelD=      1
         NCelK=      1 NCelE2=     1 NClLst=     1 CellRange=     0.0.
 One-electron integrals computed using PRISM.
 One-electron integral symmetry used in STVInt
 NBasis=    30 RedAO= T EigKep=  8.02D-03  NBF=    22     8
 NBsUse=    30 1.00D-06 EigRej= -1.00D+00 NBFU=    22     8
 Precomputing XC quadrature grid using
 IXCGrd= 4 IRadAn=           5 IRanWt=          -1 IRanGd=           0 AccXCQ= 0.00D+00.
 Generated NRdTot=       0 NPtTot=           0 NUsed=           0 NTot=          32
 NSgBfM=    32    32    32    32    32 MxSgAt=     3 MxSgA2=     3.
 Leave Link  302 at Tue Oct  6 20:44:49 2020, MaxMem=  2684354560 cpu:               4.5 elap:               0.8
 (Enter /udrive/faculty/rpeverati/g16/g16/l303.exe)
 DipDrv:  MaxL=1.
 Leave Link  303 at Tue Oct  6 20:44:50 2020, MaxMem=  2684354560 cpu:               2.4 elap:               0.7
 (Enter /udrive/faculty/rpeverati/g16/g16/l401.exe)
 Initial guess from the checkpoint file:  "MN_49_hcnts_BH76_B3LYP_631Gs.chk"
 SCF N**3 symmetry information disabled.
 B after Tr=    -0.000000    0.000000    0.000000
         Rot=    1.000000    0.000000    0.000000    0.000000 Ang=   0.00 deg.
 Guess basis will be translated and rotated to current coordinates.
 JPrj=2 DoOrth=T DoCkMO=T.
 Initial guess orbital symmetries:
       Occupied  (A') (A') (A') (A') (A') (A") (A')
       Virtual   (A') (A") (A') (A') (A") (A') (A') (A') (A') (A")
                 (A') (A') (A') (A") (A') (A") (A') (A") (A') (A')
                 (A') (A") (A')
 The electronic state of the initial guess is 1-A'.
 Leave Link  401 at Tue Oct  6 20:44:51 2020, MaxMem=  2684354560 cpu:               4.8 elap:               0.9
 (Enter /udrive/faculty/rpeverati/g16/g16/l502.exe)
 Keep R1 ints in memory in symmetry-blocked form, NReq=10459184.
 FoFCou: FMM=F IPFlag=           0 FMFlag=           0 FMFlg1=           0
         NFxFlg=           0 DoJE=F BraDBF=F KetDBF=F FulRan=T
         wScrn=  0.000000 ICntrl=       600 IOpCl=  0 I1Cent=           0 NGrid=           0
         NMat0=    1 NMatS0=    465 NMatT0=    0 NMatD0=    1 NMtDS0=    0 NMtDT0=    0
 Petite list used in FoFCou.
 Closed shell SCF:
 Using DIIS extrapolation, IDIIS=  1040.
 NGot=  2684354560 LenX=  2684292770 LenY=  2684291305
 Requested convergence on RMS density matrix=1.00D-08 within 120 cycles.
 Requested convergence on MAX density matrix=1.00D-06.
 Requested convergence on             energy=1.00D-06.
 No special actions if energy rises.

 Cycle   1  Pass 1  IDiag  1:
 E= -93.3414343436075    
 DIIS: error= 1.69D-09 at cycle   1 NSaved=   1.
 NSaved= 1 IEnMin= 1 EnMin= -93.3414343436075     IErMin= 1 ErrMin= 1.69D-09
 ErrMax= 1.69D-09  0.00D+00 EMaxC= 1.00D-01 BMatC= 1.29D-16 BMatP= 1.29D-16
 IDIUse=1 WtCom= 1.00D+00 WtEn= 0.00D+00
 Coeff-Com:  0.100D+01
 Coeff:      0.100D+01
 Gap=     0.277 Goal=   None    Shift=    0.000
 RMSDP=7.73D-10 MaxDP=6.00D-09              OVMax= 9.28D-09

 SCF Done:  E(RB3LYP) =  -93.3414343436     A.U. after    1 cycles
            NFock=  1  Conv=0.77D-09     -V/T= 2.0062
 KE= 9.276238186978D+01 PE=-2.654528381016D+02 EE= 5.535456523828D+01
 Leave Link  502 at Tue Oct  6 20:44:52 2020, MaxMem=  2684354560 cpu:               5.3 elap:               0.9
 (Enter /udrive/faculty/rpeverati/g16/g16/l508.exe)
 QCSCF skips out because SCF is already converged.
 Leave Link  508 at Tue Oct  6 20:44:53 2020, MaxMem=  2684354560 cpu:               1.0 elap:               0.6
 (Enter /udrive/faculty/rpeverati/g16/g16/l801.exe)
 DoSCS=F DFT=T ScalE2(SS,OS)=  1.000000  1.000000
 Range of M.O.s used for correlation:     1    30
 NBasis=    30 NAE=     7 NBE=     7 NFC=     0 NFV=     0
 NROrb=     30 NOA=     7 NOB=     7 NVA=    23 NVB=    23
 Leave Link  801 at Tue Oct  6 20:44:54 2020, MaxMem=  2684354560 cpu:               1.8 elap:               0.6
 (Enter /udrive/faculty/rpeverati/g16/g16/l1101.exe)
 Using compressed storage, NAtomX=     3.
 Will process      4 centers per pass.
 R6Disp: Adding Grimme-D3(BJ) dispersion energy 1st derivatives to the gradient.
 Leave Link 1101 at Tue Oct  6 20:44:56 2020, MaxMem=  2684354560 cpu:               8.6 elap:               1.3
 (Enter /udrive/faculty/rpeverati/g16/g16/l1102.exe)
 Symmetrizing basis deriv contribution to polar:
 IMax=3 JMax=2 DiffMx= 0.00D+00
 Leave Link 1102 at Tue Oct  6 20:44:56 2020, MaxMem=  2684354560 cpu:               2.5 elap:               0.6
 (Enter /udrive/faculty/rpeverati/g16/g16/l1110.exe)
 Forming Gx(P) for the SCF density, NAtomX=     3.
 Integral derivatives from FoFJK, PRISM(SPDF).
 Do as many integral derivatives as possible in FoFJK.
 G2DrvN: MDV=    2684354220.
 G2DrvN: will do     4 centers at a time, making    1 passes.
 Calling FoFCou, ICntrl=  3107 FMM=F I1Cent=   0 AccDes= 0.00D+00.
 FoFJK:  IHMeth= 1 ICntrl=    3107 DoSepK=F KAlg= 0 I1Cent=           0 FoldK=F
 IRaf=         0 NMat=       1 IRICut=       1 DoRegI=T DoRafI=F ISym2E= 1 IDoP0=0 IntGTp=1.
 FoFCou: FMM=F IPFlag=           0 FMFlag=      100000 FMFlg1=           0
         NFxFlg=           0 DoJE=F BraDBF=F KetDBF=F FulRan=T
         wScrn=  0.000000 ICntrl=      3107 IOpCl=  0 I1Cent=           0 NGrid=           0
         NMat0=    1 NMatS0=      1 NMatT0=    0 NMatD0=    1 NMtDS0=    0 NMtDT0=    0
 Petite list used in FoFCou.
 End of G2Drv F.D. properties file   721 does not exist.
 End of G2Drv F.D. properties file   722 does not exist.
 End of G2Drv F.D. properties file   788 does not exist.
 Leave Link 1110 at Tue Oct  6 20:44:58 2020, MaxMem=  2684354560 cpu:              11.6 elap:               1.5
 (Enter /udrive/faculty/rpeverati/g16/g16/l1002.exe)
 Minotr:  Closed shell wavefunction.
          IDoAtm=111
          Direct CPHF calculation.
          Differentiating once with respect to electric field.
                with respect to dipole field.
          Differentiating once with respect to nuclear coordinates.
          Using symmetry in CPHF.
          Requested convergence is 1.0D-08 RMS, and 1.0D-07 maximum.
          Secondary convergence is 1.0D-12 RMS, and 1.0D-12 maximum.
          NewPWx=T KeepS1=F KeepF1=F KeepIn=T MapXYZ=F SortEE=F KeepMc=T.
          867 words used for storage of precomputed grid.
 Keep R1 ints in memory in symmetry-blocked form, NReq=10419920.
 FoFCou: FMM=F IPFlag=           0 FMFlag=           0 FMFlg1=           0
         NFxFlg=           0 DoJE=F BraDBF=F KetDBF=F FulRan=T
         wScrn=  0.000000 ICntrl=       600 IOpCl=  0 I1Cent=           0 NGrid=           0
         NMat0=    1 NMatS0=    465 NMatT0=    0 NMatD0=    1 NMtDS0=    0 NMtDT0=    0
 Petite list used in FoFCou.
          MDV=    2684354560 using IRadAn=       1.
          Solving linear equations simultaneously, MaxMat=       0.
          There are    12 degrees of freedom in the 1st order CPHF.  IDoFFX=6 NUNeed=     3.
      9 vectors produced by pass  0 Test12= 1.34D-15 8.33D-09 XBig12= 2.04D+01 2.90D+00.
 AX will form     9 AO Fock derivatives at one time.
      9 vectors produced by pass  1 Test12= 1.34D-15 8.33D-09 XBig12= 9.21D+00 1.43D+00.
      9 vectors produced by pass  2 Test12= 1.34D-15 8.33D-09 XBig12= 4.57D-02 8.51D-02.
      9 vectors produced by pass  3 Test12= 1.34D-15 8.33D-09 XBig12= 3.66D-05 1.85D-03.
      9 vectors produced by pass  4 Test12= 1.34D-15 8.33D-09 XBig12= 1.91D-08 4.25D-05.
      7 vectors produced by pass  5 Test12= 1.34D-15 8.33D-09 XBig12= 8.90D-12 7.48D-07.
      1 vectors produced by pass  6 Test12= 1.34D-15 8.33D-09 XBig12= 4.86D-15 1.88D-08.
 InvSVY:  IOpt=1 It=  1 EMax= 6.66D-16
 Solved reduced A of dimension    53 with     9 vectors.
 FullF1:  Do perturbations      1 to       3.
 Isotropic polarizability for W=    0.000000       12.98 Bohr**3.
 End of Minotr F.D. properties file   721 does not exist.
 End of Minotr F.D. properties file   722 does not exist.
 End of Minotr F.D. properties file   788 does not exist.
 Leave Link 1002 at Tue Oct  6 20:45:01 2020, MaxMem=  2684354560 cpu:              22.8 elap:               2.7
 (Enter /udrive/faculty/rpeverati/g16/g16/l601.exe)
 Copying SCF densities to generalized density rwf, IOpCl= 0 IROHF=0.

 **********************************************************************

            Population analysis using the SCF density.

 **********************************************************************

 Orbital symmetries:
       Occupied  (A') (A') (A') (A') (A') (A") (A')
       Virtual   (A') (A") (A') (A') (A") (A') (A') (A') (A') (A")
                 (A') (A') (A') (A") (A') (A") (A') (A") (A') (A')
                 (A') (A") (A')
 The electronic state is 1-A'.
 Alpha  occ. eigenvalues --  -14.40621 -10.24641  -0.98910  -0.52361  -0.45162
 Alpha  occ. eigenvalues --   -0.38355  -0.33383
 Alpha virt. eigenvalues --   -0.05697   0.00888   0.06165   0.31800   0.52556
 Alpha virt. eigenvalues --    0.52724   0.56804   0.66927   0.70659   0.73894
 Alpha virt. eigenvalues --    0.77178   0.83225   1.25639   1.47194   1.49193
 Alpha virt. eigenvalues --    1.50906   1.78847   1.89196   1.96201   2.32102
[...]
 Traceless Quadrupole moment (field-independent basis, Debye-Ang):
   XX=              2.3178   YY=             -2.3159   ZZ=             -0.0019
   XY=             -0.2821   XZ=              0.0000   YZ=              0.0000
 Octapole moment (field-independent basis, Debye-Ang**2):
  XXX=             -2.0686  YYY=             -2.7600  ZZZ=              0.0000  XYY=             -0.1554
  XXY=             -0.4690  XXZ=              0.0000  XZZ=             -0.2111  YZZ=             -0.5160
  YYZ=              0.0000  XYZ=              0.0000
 Hexadecapole moment (field-independent basis, Debye-Ang**3):
 XXXX=            -12.0990 YYYY=            -40.8550 ZZZZ=            -10.8235 XXXY=             -0.0558
 XXXZ=              0.0000 YYYX=              0.3678 YYYZ=              0.0000 ZZZX=              0.0000
 ZZZY=              0.0000 XXYY=             -8.5583 XXZZ=             -4.1922 YYZZ=             -8.1149
 XXYZ=              0.0000 YYXZ=              0.0000 ZZXY=              0.1253
 N-N= 2.399445664993D+01 E-N=-2.654528380650D+02  KE= 9.276238186978D+01
  Exact polarizability:  12.956   0.288  17.423   0.000  -0.000   8.569
 Approx polarizability:  19.444   1.166  35.031   0.000   0.000  11.783
 No NMR shielding tensors so no spin-rotation constants.
 Leave Link  601 at Tue Oct  6 20:45:03 2020, MaxMem=  2684354560 cpu:               5.2 elap:               0.9
 (Enter /udrive/faculty/rpeverati/g16/g16/l701.exe)
 ... and contract with generalized density number  0.
 Compute integral second derivatives.
 R6Disp: Adding Grimme-D3(BJ) dispersion energy 2nd derivatives to the Hessian.
 Leave Link  701 at Tue Oct  6 20:45:04 2020, MaxMem=  2684354560 cpu:               6.2 elap:               1.0
 (Enter /udrive/faculty/rpeverati/g16/g16/l702.exe)
 L702 exits ... SP integral derivatives will be done elsewhere.
 Leave Link  702 at Tue Oct  6 20:45:05 2020, MaxMem=  2684354560 cpu:               1.7 elap:               1.0
 (Enter /udrive/faculty/rpeverati/g16/g16/l703.exe)
 Integral derivatives from FoFJK, PRISM(SPDF).
 Compute integral second derivatives, UseDBF=F ICtDFT=           0.
 Calling FoFJK, ICntrl=    100127 FMM=F ISym2X=1 I1Cent= 0 IOpClX= 0 NMat=1 NMatS=1 NMatT=0.
 FoFJK:  IHMeth= 1 ICntrl=  100127 DoSepK=F KAlg= 0 I1Cent=           0 FoldK=F
 IRaf=         0 NMat=       1 IRICut=       1 DoRegI=T DoRafI=F ISym2E= 1 IDoP0=0 IntGTp=1.
 FoFCou: FMM=F IPFlag=           0 FMFlag=      100000 FMFlg1=         800
         NFxFlg=           0 DoJE=F BraDBF=F KetDBF=F FulRan=T
         wScrn=  0.000000 ICntrl=    100127 IOpCl=  0 I1Cent=           0 NGrid=           0
         NMat0=    1 NMatS0=      1 NMatT0=    0 NMatD0=    1 NMtDS0=    0 NMtDT0=    0
 Petite list used in FoFCou.
 Leave Link  703 at Tue Oct  6 20:45:07 2020, MaxMem=  2684354560 cpu:              10.9 elap:               1.5
 (Enter /udrive/faculty/rpeverati/g16/g16/l716.exe)
 Dipole        =-4.94707807D-01 5.06995569D-02 0.00000000D+00
 Polarizability= 1.29564542D+01 2.88008664D-01 1.74230979D+01
                 2.61165296D-14-2.26824802D-13 8.56852009D+00
 Full mass-weighted force constant matrix:
 Low frequencies ----1144.9186  -51.7411  -20.9591  -11.0663   -0.0009   -0.0005
 Low frequencies ---   -0.0001 2065.4690 2599.3487
 ******    1 imaginary frequencies (negative Signs) ****** 
 Diagonal vibrational polarizability:
        0.4824715       1.3322462       0.0000000
 Harmonic frequencies (cm**-1), IR intensities (KM/Mole), Raman scattering
 activities (A**4/AMU), depolarization ratios for plane and unpolarized
 incident light, reduced masses (AMU), force constants (mDyne/A),
 and normal coordinates:
                      1                      2                      3
                     A'                     A'                     A'
 Frequencies --  -1144.9184              2065.4690              2599.3487
 Red. masses --      1.1655                12.1233                 1.0580
 Frc consts  --      0.9001                30.4725                 4.2118
 IR Inten    --     64.2710                 9.9651               108.5600
  Atom  AN      X      Y      Z        X      Y      Z        X      Y      Z
     1   6    -0.07  -0.05  -0.00    -0.02   0.73   0.00    -0.06  -0.01  -0.00
     2   7     0.07  -0.02  -0.00     0.01  -0.64   0.00    -0.02   0.00  -0.00
     3   1    -0.15   0.98   0.00     0.08   0.24   0.00     0.99   0.11   0.00

 -------------------
 - Thermochemistry -
 -------------------
 Temperature   298.150 Kelvin.  Pressure   1.00000 Atm.
 Atom     1 has atomic number  6 and mass  12.00000
 Atom     2 has atomic number  7 and mass  14.00307
 Atom     3 has atomic number  1 and mass   1.00783
 Molecular mass:    27.01090 amu.
 Principal axes and moments of inertia in atomic units:
                           1         2         3
     Eigenvalues --     4.36576  33.00925  37.37501
           X           -0.03347   0.99944   0.00000
           Y            0.99944   0.03347   0.00000
           Z            0.00000   0.00000   1.00000
 This molecule is an asymmetric top.
 Rotational symmetry number  1.
 Rotational temperatures (Kelvin)     19.83936     2.62393     2.31743
 Rotational constants (GHZ):         413.38512    54.67380    48.28737
    1 imaginary frequencies ignored.
 Zero-point vibrational energy      27901.8 (Joules/Mol)
                                    6.66869 (Kcal/Mol)
 Vibrational temperatures:   2971.75  3739.88
          (Kelvin)
 
 Zero-point correction=                           0.010627 (Hartree/Particle)
 Thermal correction to Energy=                    0.013460
 Thermal correction to Enthalpy=                  0.014404
 Thermal correction to Gibbs Free Energy=        -0.010377
 Sum of electronic and zero-point Energies=            -93.330807
 Sum of electronic and thermal Energies=               -93.327974
 Sum of electronic and thermal Enthalpies=             -93.327030
 Sum of electronic and thermal Free Energies=          -93.351811
 
                     E (Thermal)             CV                S
                      KCal/Mol        Cal/Mol-Kelvin    Cal/Mol-Kelvin
 Total                    8.446              5.972             52.157
 Electronic               0.000              0.000              0.000
 Translational            0.889              2.981             35.816
 Rotational               0.889              2.981             16.340
 Vibrational              6.669              0.010              0.001
                       Q            Log10(Q)             Ln(Q)
 Total Bot       0.593039D+05          4.773083         10.990430
 Total V=0       0.458425D+10          9.661269         22.245893
 Vib (Bot)       0.129371D-04         -4.888163        -11.255412
 Vib (V=0)       0.100005D+01          0.000022          0.000050
 Electronic      0.100000D+01          0.000000          0.000000
 Translational   0.551776D+07          6.741762         15.523482
 Rotational      0.830776D+03          2.919484          6.722361
 
                                                          TS search on BH76.
                                                             IR Spectrum
 
     2                          2                                                                                                    
     5                          0                                                                                                    
     9                          6                                                                                                    
     9                          5                                                                                                    
 
     X                          X                                                                                                    
     X                          X                                                                                                    
     X                                                                                                                               
     X                                                                                                                               
     X                                                                                                                               
     X                                                                                                                               
     X                                                                                                                               
     X                                                                                                                               
     X                                                                                                                               
     X                                                                                                                               
     X                                                                                                                               
     X                                                                                                                               
     X                                                                                                                               
     X                                                                                                                               
     X                                                                                                                               
     X                                                                                                                               
     X                                                                                                                               
     X                                                                                                                               
     X                                                                                                                               
     X                                                                                                                               
 
 ***** Axes restored to original set *****
 -------------------------------------------------------------------
 Center     Atomic                   Forces (Hartrees/Bohr)
 Number     Number              X              Y              Z
 -------------------------------------------------------------------
      1        6           0.000199842    0.000131994   -0.000000000
      2        7          -0.000003294   -0.000063779   -0.000000000
      3        1          -0.000196548   -0.000068215   -0.000000000
 -------------------------------------------------------------------
 Cartesian Forces:  Max     0.000199842 RMS     0.000107869
 Force constants in Cartesian coordinates: 
                1             2             3             4             5 
      1  0.113555D+00
      2 -0.175481D-01  0.998016D+00
      3  0.000000D+00  0.000000D+00 -0.122317D-03
      4  0.780089D-01  0.423336D-01  0.000000D+00 -0.280083D-01
      5 -0.153643D-03 -0.105000D+01  0.000000D+00  0.396072D-02  0.106297D+01
      6  0.000000D+00  0.000000D+00  0.296620D-04  0.000000D+00  0.000000D+00
      7 -0.191564D+00 -0.247855D-01  0.000000D+00 -0.500006D-01 -0.380708D-02
      8  0.177017D-01  0.519857D-01  0.000000D+00 -0.462943D-01 -0.129703D-01
      9  0.000000D+00  0.000000D+00  0.926550D-04  0.000000D+00  0.000000D+00
                6             7             8             9 
      6 -0.312601D-04
      7  0.000000D+00  0.241565D+00
      8  0.000000D+00  0.285926D-01 -0.390153D-01
      9  0.159814D-05  0.000000D+00  0.000000D+00 -0.942532D-04
 FormGI is forming the generalized inverse of G from B-inverse, IUseBI=4.
 Force constants in internal coordinates: 
                1             2             3 
      1  0.106287D+01
      2 -0.862063D-02  0.230385D+00
      3  0.259025D-01  0.139676D+00 -0.141313D+00
 Leave Link  716 at Tue Oct  6 20:45:08 2020, MaxMem=  2684354560 cpu:               4.9 elap:               1.2
 (Enter /udrive/faculty/rpeverati/g16/g16/l103.exe)

 GradGradGradGradGradGradGradGradGradGradGradGradGradGradGradGradGradGrad
 Berny optimization.
 Optmz: redundant internal coordinate code flag= 1
 Red2BG:  D1=  4.69D-01 OD1=  4.72D-16 B2RMS=  0.00D+00 IAprox=1
 Red2BG is reusing G-inverse.
 Internal  Forces:  Max     0.000208123 RMS     0.000125702
 Search for a local minimum.
 Step number   1 out of a maximum of    2
 All quantities printed in internal units (Hartrees-Bohrs-Radians)
 Second derivative matrix not updated -- analytic derivatives used.
 The second derivative matrix:
                          R1        R2        A1
           R1           1.06287
           R2          -0.00862   0.23038
           A1           0.02590   0.13968  -0.14131
 ITU=  0
 Eigenvectors of the second derivative matrix:
                           1         2         3
     Eigenvalues --    -0.18855   0.27702   1.06346
   1         R1         0.02181   0.00003   0.99976
   2         R2         0.31662  -0.94853  -0.00688
   3         A1        -0.94830  -0.31670   0.02070
 Eigenvalue     1 is  -1.89D-01 should be greater than     0.000000 Eigenvector:
                          A1        R2        R1
   1                   -0.94830   0.31662   0.02181
 Angle between quadratic step and forces=  14.81 degrees.
 Linear search not attempted -- first point.
 Iteration  1 RMS(Cart)=  0.00032434 RMS(Int)=  0.00000002
 Iteration  2 RMS(Cart)=  0.00000001 RMS(Int)=  0.00000000
 ITry= 1 IFail=0 DXMaxC= 3.90D-04 DCOld= 1.00D+10 DXMaxT= 3.00D-01 DXLimC= 3.00D+00 Rises=F
 ClnCor:  largest displacement from symmetrization is 9.16D-16 for atom     3.
 Variable       Old X    -DE/DX   Delta X   Delta X   Delta X     New X
                                 (Linear)    (Quad)   (Total)
    R1        2.25184   0.00006   0.00000   0.00007   0.00007   2.25191
    R2        2.25690   0.00021   0.00000   0.00079   0.00079   2.25769
    A1        1.23259  -0.00001   0.00000  -0.00014  -0.00014   1.23245
         Item               Value     Threshold  Converged?
 Maximum Force            0.000208     0.000450     YES
 RMS     Force            0.000126     0.000300     YES
 Maximum Displacement     0.000390     0.001800     YES
 RMS     Displacement     0.000324     0.001200     YES
 Predicted change in Energy=-1.123445D-07
 Optimization completed.
    -- Stationary point found.
                           ----------------------------
                           !   Optimized Parameters   !
                           ! (Angstroms and Degrees)  !
 --------------------------                            --------------------------
 ! Name  Definition              Value          Derivative Info.                !
 --------------------------------------------------------------------------------
 ! R1    R(1,2)                  1.1916         -DE/DX =    0.0001              !
 ! R2    R(1,3)                  1.1943         -DE/DX =    0.0002              !
 ! A1    A(2,1,3)               70.622          -DE/DX =    0.0                 !
 --------------------------------------------------------------------------------
 GradGradGradGradGradGradGradGradGradGradGradGradGradGradGradGradGradGrad

 Leave Link  103 at Tue Oct  6 20:45:10 2020, MaxMem=  2684354560 cpu:               7.2 elap:               1.3
 (Enter /udrive/faculty/rpeverati/g16/g16/l9999.exe)

 ----------------------------------------------------------------------

 Electric dipole moment (input orientation):
 (Debye = 10**-18 statcoulomb cm , SI units = C m)
                  (au)            (Debye)         (10**-30 SI)
   Tot        0.497299D+00      0.126401D+01      0.421628D+01
   x         -0.493939D+00     -0.125547D+01     -0.418779D+01
   y          0.577065D-01      0.146675D+00      0.489256D+00
   z          0.000000D+00      0.000000D+00      0.000000D+00

 Dipole polarizability, Alpha (input orientation).
 (esu units = cm**3 , SI units = C**2 m**2 J**-1)
 Alpha(0;0):
               (au)            (10**-24 esu)      (10**-40 SI)
   iso        0.129827D+02      0.192384D+01      0.214056D+01
   aniso      0.768460D+01      0.113874D+01      0.126702D+01
   xx         0.129655D+02      0.192129D+01      0.213772D+01
   yx         0.351197D+00      0.520421D-01      0.579046D-01
   yy         0.174140D+02      0.258049D+01      0.287119D+01
   zx         0.000000D+00      0.000000D+00      0.000000D+00
   zy         0.000000D+00      0.000000D+00      0.000000D+00
   zz         0.856852D+01      0.126972D+01      0.141276D+01

 ----------------------------------------------------------------------

 Dipole orientation:
     6          0.13867246          1.18696865         -0.02877982
     7         -0.12126946         -1.03800748         -0.25835481
     1          0.02704345          0.23147877          2.01282689

 Electric dipole moment (dipole orientation):
 (Debye = 10**-18 statcoulomb cm , SI units = C m)
                  (au)            (Debye)         (10**-30 SI)
   Tot        0.497299D+00      0.126401D+01      0.421628D+01
   x          0.000000D+00      0.000000D+00      0.000000D+00
   y          0.000000D+00      0.000000D+00      0.000000D+00
   z          0.497299D+00      0.126401D+01      0.421628D+01

 Dipole polarizability, Alpha (dipole orientation).
 (esu units = cm**3 , SI units = C**2 m**2 J**-1)
 Alpha(0;0):
               (au)            (10**-24 esu)      (10**-40 SI)
   iso        0.129827D+02      0.192384D+01      0.214056D+01
   aniso      0.768460D+01      0.113874D+01      0.126702D+01
   xx         0.868791D+01      0.128742D+01      0.143244D+01
   yx         0.102193D+01      0.151434D+00      0.168493D+00
   yy         0.173157D+02      0.256592D+01      0.285497D+01
   zx         0.198404D-01      0.294005D-02      0.327124D-02
   zy         0.169824D+00      0.251654D-01      0.280002D-01
   zz         0.129445D+02      0.191817D+01      0.213425D+01

 ----------------------------------------------------------------------

 Test job not archived.
 1\1\GINC-NODE52\Freq\RB3LYP\6-31G(d)\C1H1N1\RPEVERATI\06-Oct-2020\0\\#
 P Freq B3LYP/6-31G* 5D 7F Integral=UltraFineGrid SCF=(NoSymm,XQC,MaxCy
 c=120) IOp(1/33=1) EmpiricalDispersion=GD3BJ Geom=Check Guess=Read\\TS
  search on BH76.\\0,1\C,0.0885090482,0.6263495144,0.\N,0.0716188675,-0
 .5651543482,0.\H,-1.0436358367,0.2460922191,0.\\Version=ES64L-G16RevA.
 03\State=1-A'\HF=-93.3414343\RMSD=7.734e-10\RMSF=1.079e-04\ZeroPoint=0
 .0106272\Thermal=0.0134603\Dipole=-0.4939395,0.0577065,0.\DipoleDeriv=
 -0.2107866,0.0420552,0.,0.2115179,-0.0833204,0.,0.,0.,-0.132576,-0.111
 8732,0.0537483,0.,-0.2325942,-0.1745451,0.,0.,0.,-0.0997849,0.3226598,
 -0.0958036,0.,0.0210763,0.2578655,0.,0.,0.,0.2323608\Polar=12.9655153,
 0.3511972,17.4140369,0.,0.,8.5685201\Quadrupole=1.7165898,-1.7151597,-
 0.0014301,-0.2584695,0.,0.\PG=CS [SG(C1H1N1)]\NImag=1\\0.11355500,-0.0
 1754807,0.99801619,0.,0.,-0.00012232,0.07800892,0.04233356,0.,-0.02800
 835,-0.00015364,-1.05000189,0.,0.00396072,1.06297224,0.,0.,0.00002966,
 0.,0.,-0.00003126,-0.19156393,-0.02478549,0.,-0.05000058,-0.00380708,0
 .,0.24156450,0.01770172,0.05198570,0.,-0.04629428,-0.01297035,0.,0.028
 59256,-0.03901535,0.,0.,0.00009266,0.,0.,0.00000160,0.,0.,-0.00009425\
 \-0.00019984,-0.00013199,0.,0.00000329,0.00006378,0.,0.00019655,0.0000
 6821,0.\\\@


 RESEARCH IS WHAT I AM DOING WHEN I DON'T KNOW WHAT I AM DOING.
     -- WERNER VON BRAUN
 Job cpu time:       0 days  0 hours  1 minutes 59.5 seconds.
 Elapsed time:       0 days  0 hours  0 minutes 21.3 seconds.
 File lengths (MBytes):  RWF=      5 Int=      0 D2E=      0 Chk=      1 Scr=      1
 Normal termination of Gaussian 16 at Tue Oct  6 20:45:12 2020.
