 Entering Gaussian System, Link 0=g16
 Input=MN_51_hcots_BH76_B3LYP_631Gs.in
 Output=MN_51_hcots_BH76_B3LYP_631Gs.log
 Initial command:
 /udrive/faculty/rpeverati/g16/g16/l1.exe "/udrive/scratch-directories/gaussian09/rpeverati/Gau-29548.inp" -scrdir="/udrive/scratch-directories/gaussian09/rpeverati/"
 Entering Link 1 = /udrive/faculty/rpeverati/g16/g16/l1.exe PID=     29549.
  
 Copyright (c) 1988,1990,1992,1993,1995,1998,2003,2009,2016,
            Gaussian, Inc.  All Rights Reserved.
  
 This is part of the Gaussian(R) 16 program.  It is based on
 the Gaussian(R) 09 system (copyright 2009, Gaussian, Inc.),
 the Gaussian(R) 03 system (copyright 2003, Gaussian, Inc.),
 the Gaussian(R) 98 system (copyright 1998, Gaussian, Inc.),
 the Gaussian(R) 94 system (copyright 1995, Gaussian, Inc.),
 the Gaussian 92(TM) system (copyright 1992, Gaussian, Inc.),
 the Gaussian 90(TM) system (copyright 1990, Gaussian, Inc.),
 the Gaussian 88(TM) system (copyright 1988, Gaussian, Inc.),
 the Gaussian 86(TM) system (copyright 1986, Carnegie Mellon
 University), and the Gaussian 82(TM) system (copyright 1983,
 Carnegie Mellon University). Gaussian is a federally registered
 trademark of Gaussian, Inc.
  
 This software contains proprietary and confidential information,
 including trade secrets, belonging to Gaussian, Inc.
  
 This software is provided under written license and may be
 used, copied, transmitted, or stored only in accord with that
 written license.
  
 The following legend is applicable only to US Government
 contracts under FAR:
  
                    RESTRICTED RIGHTS LEGEND
  
 Use, reproduction and disclosure by the US Government is
 subject to restrictions as set forth in subparagraphs (a)
 and (c) of the Commercial Computer Software - Restricted
 Rights clause in FAR 52.227-19.
  
 Gaussian, Inc.
 340 Quinnipiac St., Bldg. 40, Wallingford CT 06492
  
  
 ---------------------------------------------------------------
 Warning -- This program may not be used in any manner that
 competes with the business of Gaussian, Inc. or will provide
 assistance to any competitor of Gaussian, Inc.  The licensee
 of this program is prohibited from giving any competitor of
 Gaussian, Inc. access to this program.  By using this program,
 the user acknowledges that Gaussian, Inc. is engaged in the
 business of creating and licensing software in the field of
 computational chemistry and represents and warrants to the
 licensee that it is not a competitor of Gaussian, Inc. and that
 it will not use this program in any manner prohibited above.
 ---------------------------------------------------------------
  

 Cite this work as:
 Gaussian 16, Revision A.03,
 M. J. Frisch, G. W. Trucks, H. B. Schlegel, G. E. Scuseria, 
 M. A. Robb, J. R. Cheeseman, G. Scalmani, V. Barone, 
 G. A. Petersson, H. Nakatsuji, X. Li, M. Caricato, A. V. Marenich, 
 J. Bloino, B. G. Janesko, R. Gomperts, B. Mennucci, H. P. Hratchian, 
 J. V. Ortiz, A. F. Izmaylov, J. L. Sonnenberg, D. Williams-Young, 
 F. Ding, F. Lipparini, F. Egidi, J. Goings, B. Peng, A. Petrone, 
 T. Henderson, D. Ranasinghe, V. G. Zakrzewski, J. Gao, N. Rega, 
 G. Zheng, W. Liang, M. Hada, M. Ehara, K. Toyota, R. Fukuda, 
 J. Hasegawa, M. Ishida, T. Nakajima, Y. Honda, O. Kitao, H. Nakai, 
 T. Vreven, K. Throssell, J. A. Montgomery, Jr., J. E. Peralta, 
 F. Ogliaro, M. J. Bearpark, J. J. Heyd, E. N. Brothers, K. N. Kudin, 
 V. N. Staroverov, T. A. Keith, R. Kobayashi, J. Normand, 
 K. Raghavachari, A. P. Rendell, J. C. Burant, S. S. Iyengar, 
 J. Tomasi, M. Cossi, J. M. Millam, M. Klene, C. Adamo, R. Cammi, 
 J. W. Ochterski, R. L. Martin, K. Morokuma, O. Farkas, 
 J. B. Foresman, and D. J. Fox, Gaussian, Inc., Wallingford CT, 2016.
 
 ******************************************
 Gaussian 16:  ES64L-G16RevA.03 25-Dec-2016
                 6-Oct-2020 
 ******************************************
 %NoSave
 %nproc=12
 Will use up to   12 processors via shared memory.
 %mem=20GB
 %chk=MN_51_hcots_BH76_B3LYP_631Gs
 ----------------------------------------------------------------------
 #P Opt(TS,MaxCyc=50,NoEigenTest,MaxStep=10,CalcFC) B3LYP/6-31G* 5D 7F 
 Integral=UltraFineGrid SCF=(NoSymm,XQC,MaxCyc=120) IOp(1/33=1) Empiric
 alDispersion=GD3BJ
 ----------------------------------------------------------------------
 1/5=1,6=50,8=10,10=4,11=1,18=20,26=4,33=1,38=1/1,3;
 2/9=110,12=2,17=6,18=5,40=1/2;
 3/5=1,6=6,7=1,8=11,11=2,25=1,30=1,71=2,74=-5,75=-5,124=41,140=1/1,2,3;
 4/9=2/1;
 5/5=2,7=120,8=3,13=1,38=5/2,8;
 8/6=4,10=90,11=11/1;
 11/6=1,8=1,9=11,15=111,16=1/1,2,10;
 10/6=1,13=1/2;
 6/7=2,8=2,9=2,10=2,28=1/1;
 7/10=1,18=20,25=1/1,2,3,16;
 1/5=1,6=50,8=10,10=4,11=1,18=20,26=4,33=1/3(2);
 2/9=110/2;
 99//99;
 2/9=110/2;
 3/5=1,6=6,7=1,8=11,11=2,25=1,30=1,71=1,74=-5,75=-5,124=41/1,2,3;
 4/5=5,9=2,16=3,69=1/1;
 5/5=2,7=120,8=3,13=1,38=5/2,8;
 7//1,2,3,16;
 1/5=1,6=50,8=10,11=1,18=20,26=4,33=1/3(-5);
 2/9=110/2;
 6/7=2,8=2,9=2,10=2,19=2,28=1/1;
 99/9=1/99;
 Leave Link    1 at Tue Oct  6 20:43:56 2020, MaxMem=  2684354560 cpu:              10.2 elap:               1.0
 (Enter /udrive/faculty/rpeverati/g16/g16/l101.exe)
 ONIOM data not found on unit 2.
 ------------------
 TS search on BH76.
 ------------------
 TstMul:  ICh=     0
 TstMul:  Mul=     2
 TstMul:  ICh=     0
 TstMul:  Mul=     2
 Symbolic Z-matrix:
 Charge =  0 Multiplicity = 2
 H                    -1.52087   1.38883   0. 
 C                     0.10863   0.54933   0. 
 O                     0.10863  -0.5856    0. 
 
 RdStrC is calling ZToCFu for IStruc=1 NZ=     3.
 PrtBox:  NBox=     1 Levels=  1 BoxLen=    8.00 SMaxX=        3.73
          Shift=            2.874020            1.106630            0.000000
 Box      1 Number                   0 centers from      1 to      3:
 After GenITR:
 ITRead=  0  0  0
 MicOpt= -1 -1 -1
 Add virtual bond connecting atoms C2         and H1         Dist= 3.46D+00.
 ITRead=  0  0  0
 MicOpt= -1 -1 -1
 NAtoms=      3 NQM=        3 NQMF=       0 NMMI=      0 NMMIF=      0
                NMic=       0 NMicF=      0.
                    Isotopes and Nuclear Properties:
 (Nuclear quadrupole moments (NQMom) in fm**2, nuclear magnetic moments (NMagM)
  in nuclear magnetons)

  Atom         1           2           3
 IAtWgt=           1          12          16
 AtmWgt=   1.0078250  12.0000000  15.9949146
 NucSpn=           1           0           0
 AtZEff=   0.0000000   0.0000000   0.0000000
 NQMom=    0.0000000   0.0000000   0.0000000
 NMagM=    2.7928460   0.0000000   0.0000000
 AtZNuc=   1.0000000   6.0000000   8.0000000
 No MM parameters found.
 Leave Link  101 at Tue Oct  6 20:43:58 2020, MaxMem=  2684354560 cpu:              14.6 elap:               1.5
 (Enter /udrive/faculty/rpeverati/g16/g16/l103.exe)

 GradGradGradGradGradGradGradGradGradGradGradGradGradGradGradGradGradGrad
 Berny optimization.
 Optmz: redundant internal coordinate code flag= 1
 Initialization pass.
                           ----------------------------
                           !    Initial Parameters    !
                           ! (Angstroms and Degrees)  !
 --------------------------                            --------------------------
 ! Name  Definition              Value          Derivative Info.                !
 --------------------------------------------------------------------------------
 ! R1    R(1,2)                  1.833          calculate D2E/DX2 analytically  !
 ! R2    R(2,3)                  1.1349         calculate D2E/DX2 analytically  !
 ! A1    A(1,2,3)              117.2571         calculate D2E/DX2 analytically  !
 --------------------------------------------------------------------------------
 Maximum allowed force set to 1.00D+20.
 Trust Radius=1.00D-01 FncErr=1.00D-07 GrdErr=1.00D-06 EigMax=2.50D+02 EigMin=1.00D-04
 Number of steps in this run=     50 maximum allowed number of steps=    100.
 Search for a saddle point of order  1.
 GradGradGradGradGradGradGradGradGradGradGradGradGradGradGradGradGradGrad

 Leave Link  103 at Tue Oct  6 20:43:59 2020, MaxMem=  2684354560 cpu:               0.8 elap:               0.3
 (Enter /udrive/faculty/rpeverati/g16/g16/l202.exe)
                          Input orientation:                          
 ---------------------------------------------------------------------
 Center     Atomic      Atomic             Coordinates (Angstroms)
 Number     Number       Type             X           Y           Z
 ---------------------------------------------------------------------
      1          1           0       -1.520866    1.388831    0.000000
      2          6           0        0.108633    0.549328    0.000000
      3          8           0        0.108633   -0.585603    0.000000
 ---------------------------------------------------------------------
                    Distance matrix (angstroms):
                    1          2          3
     1  H    0.000000
     2  C    1.833039   0.000000
     3  O    2.560011   1.134932   0.000000
 Stoichiometry    CHO(2)
 Framework group  CS[SG(CHO)]
 Deg. of freedom     3
 Full point group                 CS      NOp   2
 Largest Abelian subgroup         CS      NOp   2
 Largest concise Abelian subgroup C1      NOp   1
                         Standard orientation:                         
 ---------------------------------------------------------------------
 Center     Atomic      Atomic             Coordinates (Angstroms)
 Number     Number       Type             X           Y           Z
 ---------------------------------------------------------------------
      1          1           0       -1.520866    1.388833    0.000000
      2          6           0        0.108633    0.549330    0.000000
      3          8           0        0.108633   -0.585602    0.000000
 ---------------------------------------------------------------------
 Rotational constants (GHZ):         257.0333471          43.5600102          37.2475803
 Leave Link  202 at Tue Oct  6 20:44:00 2020, MaxMem=  2684354560 cpu:               1.0 elap:               0.5
 (Enter /udrive/faculty/rpeverati/g16/g16/l301.exe)
 Standard basis: 6-31G(d) (5D, 7F)
 Ernie: Thresh=  0.10000D-02 Tol=  0.10000D-05 Strict=F.
 There are    24 symmetry adapted cartesian basis functions of A'  symmetry.
 There are     8 symmetry adapted cartesian basis functions of A"  symmetry.
 There are    22 symmetry adapted basis functions of A'  symmetry.
 There are     8 symmetry adapted basis functions of A"  symmetry.
    30 basis functions,    60 primitive gaussians,    32 cartesian basis functions
     8 alpha electrons        7 beta electrons
       nuclear repulsion energy        25.7664504753 Hartrees.
 IExCor=  402 DFT=T Ex+Corr=B3LYP ExCW=0 ScaHFX=  0.200000
 ScaDFX=  0.800000  0.720000  1.000000  0.810000 ScalE2=  1.000000  1.000000
 IRadAn=      5 IRanWt=     -1 IRanGd=            0 ICorTp=0 IEmpDi=141
 NAtoms=    3 NActive=    3 NUniq=    3 SFac= 1.00D+00 NAtFMM=   60 NAOKFM=F Big=F
 Integral buffers will be    131072 words long.
 Raffenetti 2 integral format.
 Two-electron integral symmetry is turned on.
 R6Disp:  Grimme-D3(BJ) Dispersion energy=       -0.0016641389 Hartrees.
 Nuclear repulsion after empirical dispersion term =       25.7647863364 Hartrees.
 Leave Link  301 at Tue Oct  6 20:44:01 2020, MaxMem=  2684354560 cpu:               2.3 elap:               0.6
 (Enter /udrive/faculty/rpeverati/g16/g16/l302.exe)
 NPDir=0 NMtPBC=     1 NCelOv=     1 NCel=       1 NClECP=     1 NCelD=      1
         NCelK=      1 NCelE2=     1 NClLst=     1 CellRange=     0.0.
 One-electron integrals computed using PRISM.
 One-electron integral symmetry used in STVInt
 NBasis=    30 RedAO= T EigKep=  1.52D-02  NBF=    22     8
 NBsUse=    30 1.00D-06 EigRej= -1.00D+00 NBFU=    22     8
 Precomputing XC quadrature grid using
 IXCGrd= 4 IRadAn=           5 IRanWt=          -1 IRanGd=           0 AccXCQ= 0.00D+00.
 Generated NRdTot=       0 NPtTot=           0 NUsed=           0 NTot=          32
 NSgBfM=    32    32    32    32    32 MxSgAt=     3 MxSgA2=     3.
 Leave Link  302 at Tue Oct  6 20:44:01 2020, MaxMem=  2684354560 cpu:               3.7 elap:               0.5
 (Enter /udrive/faculty/rpeverati/g16/g16/l303.exe)
 DipDrv:  MaxL=1.
 Leave Link  303 at Tue Oct  6 20:44:02 2020, MaxMem=  2684354560 cpu:               1.8 elap:               0.6
 (Enter /udrive/faculty/rpeverati/g16/g16/l401.exe)
 SCF N**3 symmetry information disabled.
 ExpMin= 1.61D-01 ExpMax= 5.48D+03 ExpMxC= 8.25D+02 IAcc=3 IRadAn=         5 AccDes= 0.00D+00
 Harris functional with IExCor=  402 and IRadAn=       5 diagonalized for initial guess.
 HarFok:  IExCor=  402 AccDes= 0.00D+00 IRadAn=         5 IDoV= 1 UseB2=F ITyADJ=14
 ICtDFT=  3500011 ScaDFX=  1.000000  1.000000  1.000000  1.000000
 FoFCou: FMM=F IPFlag=           0 FMFlag=      100000 FMFlg1=           0
         NFxFlg=           0 DoJE=T BraDBF=F KetDBF=T FulRan=T
         wScrn=  0.000000 ICntrl=       500 IOpCl=  0 I1Cent=   200000004 NGrid=           0
         NMat0=    1 NMatS0=      1 NMatT0=    0 NMatD0=    1 NMtDS0=    0 NMtDT0=    0
 Petite list used in FoFCou.
 Harris En= -113.772318957582    
 JPrj=0 DoOrth=F DoCkMO=F.
 Initial guess orbital symmetries:
 Alpha Orbitals:
       Occupied  (A') (A') (A') (A') (A') (A") (A') (A')
       Virtual   (A") (A') (A') (A") (A') (A') (A') (A') (A') (A")
                 (A') (A") (A') (A') (A') (A") (A") (A') (A') (A")
                 (A') (A')
 Beta  Orbitals:
       Occupied  (A') (A') (A') (A') (A') (A") (A')
       Virtual   (A') (A") (A') (A') (A") (A') (A') (A') (A') (A')
                 (A") (A') (A") (A') (A') (A') (A") (A") (A') (A')
                 (A") (A') (A')
 The electronic state of the initial guess is 2-A'.
 Initial guess <Sx>= 0.0000 <Sy>= 0.0000 <Sz>= 0.5000 <S**2>= 0.7500 S= 0.5000
 Leave Link  401 at Tue Oct  6 20:44:03 2020, MaxMem=  2684354560 cpu:               4.5 elap:               0.8
 (Enter /udrive/faculty/rpeverati/g16/g16/l502.exe)
 Keep R1 and R2 ints in memory in symmetry-blocked form, NReq=10465801.
 FoFCou: FMM=F IPFlag=           0 FMFlag=           0 FMFlg1=           0
         NFxFlg=           0 DoJE=F BraDBF=F KetDBF=F FulRan=T
         wScrn=  0.000000 ICntrl=       600 IOpCl=  0 I1Cent=           0 NGrid=           0
         NMat0=    1 NMatS0=    465 NMatT0=    0 NMatD0=    1 NMtDS0=    0 NMtDT0=    0
 Petite list used in FoFCou.
 UHF open shell SCF:
 Using DIIS extrapolation, IDIIS=  1040.
 NGot=  2684354560 LenX=  2684235289 LenY=  2684233824
 Requested convergence on RMS density matrix=1.00D-08 within 120 cycles.
 Requested convergence on MAX density matrix=1.00D-06.
 Requested convergence on             energy=1.00D-06.
 No special actions if energy rises.
 Integral accuracy reduced to 1.0D-05 until final iterations.

 Cycle   1  Pass 0  IDiag  1:
 E= -113.779009774222    
 DIIS: error= 3.40D-02 at cycle   1 NSaved=   1.
 NSaved= 1 IEnMin= 1 EnMin= -113.779009774222     IErMin= 1 ErrMin= 3.40D-02
 ErrMax= 3.40D-02  0.00D+00 EMaxC= 1.00D-01 BMatC= 1.44D-01 BMatP= 1.44D-01
 IDIUse=3 WtCom= 6.60D-01 WtEn= 3.40D-01
 Coeff-Com:  0.100D+01
 Coeff-En:   0.100D+01
 Coeff:      0.100D+01
 Gap=     0.260 Goal=   None    Shift=    0.000
 Gap=     0.261 Goal=   None    Shift=    0.000
 GapD=    0.260 DampG=1.000 DampE=0.500 DampFc=0.5000 IDamp=-1.
 Damping current iteration by 5.00D-01
 RMSDP=1.12D-02 MaxDP=1.39D-01              OVMax= 2.01D-01

 Cycle   2  Pass 0  IDiag  1:
 E= -113.774038117674     Delta-E=        0.004971656548 Rises=F Damp=T
 DIIS: error= 2.81D-02 at cycle   2 NSaved=   2.
 NSaved= 2 IEnMin= 1 EnMin= -113.779009774222     IErMin= 2 ErrMin= 2.81D-02
 ErrMax= 2.81D-02  0.00D+00 EMaxC= 1.00D-01 BMatC= 6.37D-02 BMatP= 1.44D-01
 IDIUse=3 WtCom= 7.19D-01 WtEn= 2.81D-01
 Coeff-Com:  0.387D+00 0.613D+00
 Coeff-En:   0.553D+00 0.447D+00
 Coeff:      0.434D+00 0.566D+00
 Gap=     0.239 Goal=   None    Shift=    0.000
 Gap=     0.278 Goal=   None    Shift=    0.000
 RMSDP=3.50D-03 MaxDP=4.50D-02 DE= 4.97D-03 OVMax= 1.35D-01

 Cycle   3  Pass 0  IDiag  1:
 E= -113.809029540596     Delta-E=       -0.034991422922 Rises=F Damp=F
 DIIS: error= 4.81D-03 at cycle   3 NSaved=   3.
 NSaved= 3 IEnMin= 3 EnMin= -113.809029540596     IErMin= 3 ErrMin= 4.81D-03
 ErrMax= 4.81D-03  0.00D+00 EMaxC= 1.00D-01 BMatC= 3.23D-03 BMatP= 6.37D-02
 IDIUse=3 WtCom= 9.52D-01 WtEn= 4.81D-02
 Coeff-Com:  0.124D+00 0.176D+00 0.700D+00
 Coeff-En:   0.000D+00 0.000D+00 0.100D+01
 Coeff:      0.118D+00 0.167D+00 0.715D+00
 Gap=     0.229 Goal=   None    Shift=    0.000
 Gap=     0.276 Goal=   None    Shift=    0.000
 RMSDP=1.56D-03 MaxDP=2.46D-02 DE=-3.50D-02 OVMax= 3.95D-02

 Cycle   4  Pass 0  IDiag  1:
 E= -113.810266553918     Delta-E=       -0.001237013321 Rises=F Damp=F
 DIIS: error= 2.62D-03 at cycle   4 NSaved=   4.
 NSaved= 4 IEnMin= 4 EnMin= -113.810266553918     IErMin= 4 ErrMin= 2.62D-03
 ErrMax= 2.62D-03  0.00D+00 EMaxC= 1.00D-01 BMatC= 4.73D-04 BMatP= 3.23D-03
 IDIUse=3 WtCom= 9.74D-01 WtEn= 2.62D-02
 Coeff-Com: -0.229D-01-0.503D-01 0.210D+00 0.863D+00
 Coeff-En:   0.000D+00 0.000D+00 0.000D+00 0.100D+01
 Coeff:     -0.223D-01-0.490D-01 0.204D+00 0.867D+00
 Gap=     0.237 Goal=   None    Shift=    0.000
 Gap=     0.277 Goal=   None    Shift=    0.000
 RMSDP=6.77D-04 MaxDP=8.13D-03 DE=-1.24D-03 OVMax= 1.57D-02

 Cycle   5  Pass 0  IDiag  1:
 E= -113.810515350035     Delta-E=       -0.000248796117 Rises=F Damp=F
 DIIS: error= 6.38D-04 at cycle   5 NSaved=   5.
 NSaved= 5 IEnMin= 5 EnMin= -113.810515350035     IErMin= 5 ErrMin= 6.38D-04
 ErrMax= 6.38D-04  0.00D+00 EMaxC= 1.00D-01 BMatC= 2.23D-05 BMatP= 4.73D-04
 IDIUse=3 WtCom= 9.94D-01 WtEn= 6.38D-03
 Coeff-Com: -0.167D-02-0.143D-01-0.465D-01-0.888D-01 0.115D+01
 Coeff-En:   0.000D+00 0.000D+00 0.000D+00 0.000D+00 0.100D+01
 Coeff:     -0.166D-02-0.143D-01-0.462D-01-0.883D-01 0.115D+01
 Gap=     0.237 Goal=   None    Shift=    0.000
 Gap=     0.279 Goal=   None    Shift=    0.000
 RMSDP=2.15D-04 MaxDP=2.57D-03 DE=-2.49D-04 OVMax= 5.72D-03

 Cycle   6  Pass 0  IDiag  1:
 E= -113.810534800866     Delta-E=       -0.000019450831 Rises=F Damp=F
 DIIS: error= 1.44D-04 at cycle   6 NSaved=   6.
 NSaved= 6 IEnMin= 6 EnMin= -113.810534800866     IErMin= 6 ErrMin= 1.44D-04
 ErrMax= 1.44D-04  0.00D+00 EMaxC= 1.00D-01 BMatC= 1.81D-06 BMatP= 2.23D-05
 IDIUse=3 WtCom= 9.99D-01 WtEn= 1.44D-03
 Coeff-Com:  0.930D-03 0.154D-02-0.201D-01-0.840D-01 0.239D+00 0.863D+00
 Coeff-En:   0.000D+00 0.000D+00 0.000D+00 0.000D+00 0.000D+00 0.100D+01
 Coeff:      0.928D-03 0.154D-02-0.201D-01-0.839D-01 0.238D+00 0.863D+00
 Gap=     0.237 Goal=   None    Shift=    0.000
 Gap=     0.279 Goal=   None    Shift=    0.000
 RMSDP=4.67D-05 MaxDP=5.84D-04 DE=-1.95D-05 OVMax= 9.54D-04

 Cycle   7  Pass 0  IDiag  1:
 E= -113.810535778887     Delta-E=       -0.000000978021 Rises=F Damp=F
 DIIS: error= 3.20D-05 at cycle   7 NSaved=   7.
 NSaved= 7 IEnMin= 7 EnMin= -113.810535778887     IErMin= 7 ErrMin= 3.20D-05
 ErrMax= 3.20D-05  0.00D+00 EMaxC= 1.00D-01 BMatC= 9.96D-08 BMatP= 1.81D-06
 IDIUse=1 WtCom= 1.00D+00 WtEn= 0.00D+00
 Coeff-Com:  0.561D-04 0.104D-02 0.162D-02-0.366D-02-0.328D-01 0.557D-01
 Coeff-Com:  0.978D+00
 Coeff:      0.561D-04 0.104D-02 0.162D-02-0.366D-02-0.328D-01 0.557D-01
 Coeff:      0.978D+00
 Gap=     0.237 Goal=   None    Shift=    0.000
 Gap=     0.279 Goal=   None    Shift=    0.000
 RMSDP=1.19D-05 MaxDP=1.88D-04 DE=-9.78D-07 OVMax= 2.49D-04

 Cycle   8  Pass 0  IDiag  1:
 E= -113.810535857558     Delta-E=       -0.000000078671 Rises=F Damp=F
 DIIS: error= 2.18D-05 at cycle   8 NSaved=   8.
 NSaved= 8 IEnMin= 8 EnMin= -113.810535857558     IErMin= 8 ErrMin= 2.18D-05
 ErrMax= 2.18D-05  0.00D+00 EMaxC= 1.00D-01 BMatC= 1.83D-08 BMatP= 9.96D-08
 IDIUse=1 WtCom= 1.00D+00 WtEn= 0.00D+00
 Coeff-Com:  0.915D-05-0.366D-03 0.243D-02 0.919D-02-0.255D-01-0.105D+00
 Coeff-Com: -0.428D-01 0.116D+01
 Coeff:      0.915D-05-0.366D-03 0.243D-02 0.919D-02-0.255D-01-0.105D+00
 Coeff:     -0.428D-01 0.116D+01
 Gap=     0.237 Goal=   None    Shift=    0.000
 Gap=     0.280 Goal=   None    Shift=    0.000
 RMSDP=6.10D-06 MaxDP=8.78D-05 DE=-7.87D-08 OVMax= 1.13D-04

 Initial convergence to 1.0D-05 achieved.  Increase integral accuracy.
 Cycle   9  Pass 1  IDiag  1:
 E= -113.810535835545     Delta-E=        0.000000022013 Rises=F Damp=F
 DIIS: error= 7.44D-06 at cycle   1 NSaved=   1.
 NSaved= 1 IEnMin= 1 EnMin= -113.810535835545     IErMin= 1 ErrMin= 7.44D-06
 ErrMax= 7.44D-06  0.00D+00 EMaxC= 1.00D-01 BMatC= 1.93D-09 BMatP= 1.93D-09
 IDIUse=1 WtCom= 1.00D+00 WtEn= 0.00D+00
 Coeff-Com:  0.100D+01
 Coeff:      0.100D+01
 Gap=     0.237 Goal=   None    Shift=    0.000
 Gap=     0.280 Goal=   None    Shift=    0.000
 RMSDP=6.10D-06 MaxDP=8.78D-05 DE= 2.20D-08 OVMax= 3.50D-05

 Cycle  10  Pass 1  IDiag  1:
 E= -113.810535836634     Delta-E=       -0.000000001090 Rises=F Damp=F
 DIIS: error= 7.79D-06 at cycle   2 NSaved=   2.
 NSaved= 2 IEnMin= 2 EnMin= -113.810535836634     IErMin= 1 ErrMin= 7.44D-06
 ErrMax= 7.79D-06  0.00D+00 EMaxC= 1.00D-01 BMatC= 2.94D-09 BMatP= 1.93D-09
 IDIUse=1 WtCom= 1.00D+00 WtEn= 0.00D+00
 Coeff-Com:  0.584D+00 0.416D+00
 Coeff:      0.584D+00 0.416D+00
 Gap=     0.237 Goal=   None    Shift=    0.000
 Gap=     0.280 Goal=   None    Shift=    0.000
 RMSDP=6.92D-07 MaxDP=1.01D-05 DE=-1.09D-09 OVMax= 1.53D-05

 Cycle  11  Pass 1  IDiag  1:
 E= -113.810535837257     Delta-E=       -0.000000000623 Rises=F Damp=F
 DIIS: error= 4.40D-06 at cycle   3 NSaved=   3.
 NSaved= 3 IEnMin= 3 EnMin= -113.810535837257     IErMin= 3 ErrMin= 4.40D-06
 ErrMax= 4.40D-06  0.00D+00 EMaxC= 1.00D-01 BMatC= 6.74D-10 BMatP= 1.93D-09
 IDIUse=1 WtCom= 1.00D+00 WtEn= 0.00D+00
 Coeff-Com: -0.509D+00 0.274D+00 0.124D+01
 Coeff:     -0.509D+00 0.274D+00 0.124D+01
 Gap=     0.237 Goal=   None    Shift=    0.000
 Gap=     0.280 Goal=   None    Shift=    0.000
 RMSDP=9.02D-07 MaxDP=1.31D-05 DE=-6.23D-10 OVMax= 2.12D-05

 Cycle  12  Pass 1  IDiag  1:
 E= -113.810535837679     Delta-E=       -0.000000000422 Rises=F Damp=F
 DIIS: error= 4.68D-07 at cycle   4 NSaved=   4.
 NSaved= 4 IEnMin= 4 EnMin= -113.810535837679     IErMin= 4 ErrMin= 4.68D-07
 ErrMax= 4.68D-07  0.00D+00 EMaxC= 1.00D-01 BMatC= 2.98D-11 BMatP= 6.74D-10
 IDIUse=1 WtCom= 1.00D+00 WtEn= 0.00D+00
 Coeff-Com: -0.224D+00 0.474D-01 0.373D+00 0.804D+00
 Coeff:     -0.224D+00 0.474D-01 0.373D+00 0.804D+00
 Gap=     0.237 Goal=   None    Shift=    0.000
 Gap=     0.280 Goal=   None    Shift=    0.000
 RMSDP=2.08D-07 MaxDP=2.38D-06 DE=-4.22D-10 OVMax= 4.74D-06

 Cycle  13  Pass 1  IDiag  1:
 E= -113.810535837701     Delta-E=       -0.000000000022 Rises=F Damp=F
 DIIS: error= 2.03D-07 at cycle   5 NSaved=   5.
 NSaved= 5 IEnMin= 5 EnMin= -113.810535837701     IErMin= 5 ErrMin= 2.03D-07
 ErrMax= 2.03D-07  0.00D+00 EMaxC= 1.00D-01 BMatC= 2.99D-12 BMatP= 2.98D-11
 IDIUse=1 WtCom= 1.00D+00 WtEn= 0.00D+00
 Coeff-Com: -0.205D-01-0.705D-02-0.110D-01 0.234D+00 0.804D+00
 Coeff:     -0.205D-01-0.705D-02-0.110D-01 0.234D+00 0.804D+00
 Gap=     0.237 Goal=   None    Shift=    0.000
 Gap=     0.280 Goal=   None    Shift=    0.000
 RMSDP=4.82D-08 MaxDP=8.02D-07 DE=-2.21D-11 OVMax= 9.83D-07

 Cycle  14  Pass 1  IDiag  1:
 E= -113.810535837702     Delta-E=       -0.000000000002 Rises=F Damp=F
 DIIS: error= 4.70D-08 at cycle   6 NSaved=   6.
 NSaved= 6 IEnMin= 6 EnMin= -113.810535837702     IErMin= 6 ErrMin= 4.70D-08
 ErrMax= 4.70D-08  0.00D+00 EMaxC= 1.00D-01 BMatC= 1.48D-13 BMatP= 2.99D-12
 IDIUse=1 WtCom= 1.00D+00 WtEn= 0.00D+00
 Coeff-Com:  0.186D-01-0.790D-02-0.369D-01-0.268D-01 0.443D-01 0.101D+01
 Coeff:      0.186D-01-0.790D-02-0.369D-01-0.268D-01 0.443D-01 0.101D+01
 Gap=     0.237 Goal=   None    Shift=    0.000
 Gap=     0.280 Goal=   None    Shift=    0.000
 RMSDP=1.38D-08 MaxDP=1.20D-07 DE=-1.59D-12 OVMax= 2.42D-07

 Cycle  15  Pass 1  IDiag  1:
 E= -113.810535837703     Delta-E=       -0.000000000000 Rises=F Damp=F
 DIIS: error= 1.67D-08 at cycle   7 NSaved=   7.
 NSaved= 7 IEnMin= 7 EnMin= -113.810535837703     IErMin= 7 ErrMin= 1.67D-08
 ErrMax= 1.67D-08  0.00D+00 EMaxC= 1.00D-01 BMatC= 1.69D-14 BMatP= 1.48D-13
 IDIUse=1 WtCom= 1.00D+00 WtEn= 0.00D+00
 Coeff-Com:  0.286D-02 0.128D-03-0.584D-03-0.212D-01-0.861D-01 0.586D-01
 Coeff-Com:  0.105D+01
 Coeff:      0.286D-02 0.128D-03-0.584D-03-0.212D-01-0.861D-01 0.586D-01
 Coeff:      0.105D+01
 Gap=     0.237 Goal=   None    Shift=    0.000
 Gap=     0.280 Goal=   None    Shift=    0.000
 RMSDP=5.41D-09 MaxDP=5.39D-08 DE=-1.71D-13 OVMax= 9.41D-08

 SCF Done:  E(UB3LYP) =  -113.810535838     A.U. after   15 cycles
            NFock= 15  Conv=0.54D-08     -V/T= 2.0064
 <Sx>= 0.0000 <Sy>= 0.0000 <Sz>= 0.5000 <S**2>= 0.7611 S= 0.5055
 <L.S>= 0.000000000000E+00
 KE= 1.130894617465D+02 PE=-3.184457283044D+02 EE= 6.578094438385D+01
 Annihilation of the first spin contaminant:
 S**2 before annihilation     0.7611,   after     0.7500
 Leave Link  502 at Tue Oct  6 20:44:05 2020, MaxMem=  2684354560 cpu:              14.5 elap:               1.6
 (Enter /udrive/faculty/rpeverati/g16/g16/l508.exe)
 QCSCF skips out because SCF is already converged.
 Leave Link  508 at Tue Oct  6 20:44:06 2020, MaxMem=  2684354560 cpu:               0.5 elap:               0.4
 (Enter /udrive/faculty/rpeverati/g16/g16/l801.exe)
 DoSCS=F DFT=T ScalE2(SS,OS)=  1.000000  1.000000
 Range of M.O.s used for correlation:     1    30
 NBasis=    30 NAE=     8 NBE=     7 NFC=     0 NFV=     0
 NROrb=     30 NOA=     8 NOB=     7 NVA=    22 NVB=    23
 Leave Link  801 at Tue Oct  6 20:44:07 2020, MaxMem=  2684354560 cpu:               1.5 elap:               0.5
 (Enter /udrive/faculty/rpeverati/g16/g16/l1101.exe)
 Using compressed storage, NAtomX=     3.
 Will process      4 centers per pass.
 R6Disp: Adding Grimme-D3(BJ) dispersion energy 1st derivatives to the gradient.
 Leave Link 1101 at Tue Oct  6 20:44:08 2020, MaxMem=  2684354560 cpu:               6.7 elap:               0.9
 (Enter /udrive/faculty/rpeverati/g16/g16/l1102.exe)
 Symmetrizing basis deriv contribution to polar:
 IMax=3 JMax=2 DiffMx= 0.00D+00
 Leave Link 1102 at Tue Oct  6 20:44:09 2020, MaxMem=  2684354560 cpu:               1.3 elap:               0.5
 (Enter /udrive/faculty/rpeverati/g16/g16/l1110.exe)
 Forming Gx(P) for the SCF density, NAtomX=     3.
 Integral derivatives from FoFJK, PRISM(SPDF).
 Do as many integral derivatives as possible in FoFJK.
 G2DrvN: MDV=    2684354220.
 G2DrvN: will do     4 centers at a time, making    1 passes.
 Calling FoFCou, ICntrl=  3107 FMM=F I1Cent=   0 AccDes= 0.00D+00.
 FoFJK:  IHMeth= 1 ICntrl=    3107 DoSepK=F KAlg= 0 I1Cent=           0 FoldK=F
 IRaf=         0 NMat=       1 IRICut=       1 DoRegI=T DoRafI=F ISym2E= 1 IDoP0=0 IntGTp=1.
 FoFCou: FMM=F IPFlag=           0 FMFlag=      100000 FMFlg1=           0
         NFxFlg=           0 DoJE=F BraDBF=F KetDBF=F FulRan=T
         wScrn=  0.000000 ICntrl=      3107 IOpCl=  1 I1Cent=           0 NGrid=           0
         NMat0=    1 NMatS0=      1 NMatT0=    0 NMatD0=    1 NMtDS0=    0 NMtDT0=    0
 Petite list used in FoFCou.
 End of G2Drv F.D. properties file   721 does not exist.
 End of G2Drv F.D. properties file   722 does not exist.
 End of G2Drv F.D. properties file   788 does not exist.
 Leave Link 1110 at Tue Oct  6 20:44:10 2020, MaxMem=  2684354560 cpu:               9.1 elap:               1.1
 (Enter /udrive/faculty/rpeverati/g16/g16/l1002.exe)
 Minotr:  UHF open shell wavefunction.
          IDoAtm=111
          Direct CPHF calculation.
          Differentiating once with respect to nuclear coordinates.
          Using symmetry in CPHF.
          Requested convergence is 1.0D-08 RMS, and 1.0D-07 maximum.
          Secondary convergence is 1.0D-12 RMS, and 1.0D-12 maximum.
          NewPWx=T KeepS1=F KeepF1=F KeepIn=T MapXYZ=F SortEE=F KeepMc=T.
          874 words used for storage of precomputed grid.
 Keep R1 and R2 ints in memory in symmetry-blocked form, NReq=10426574.
 FoFCou: FMM=F IPFlag=           0 FMFlag=           0 FMFlg1=           0
         NFxFlg=           0 DoJE=F BraDBF=F KetDBF=F FulRan=T
         wScrn=  0.000000 ICntrl=       600 IOpCl=  0 I1Cent=           0 NGrid=           0
         NMat0=    1 NMatS0=    465 NMatT0=    0 NMatD0=    1 NMtDS0=    0 NMtDT0=    0
 Petite list used in FoFCou.
          MDV=    2684354560 using IRadAn=       1.
          Solving linear equations simultaneously, MaxMat=       0.
          There are    12 degrees of freedom in the 1st order CPHF.  IDoFFX=6 NUNeed=     0.
      6 vectors produced by pass  0 Test12= 2.81D-15 8.33D-09 XBig12= 1.98D-01 2.19D-01.
 AX will form     6 AO Fock derivatives at one time.
      6 vectors produced by pass  1 Test12= 2.81D-15 8.33D-09 XBig12= 3.14D-02 7.29D-02.
      6 vectors produced by pass  2 Test12= 2.81D-15 8.33D-09 XBig12= 6.45D-04 1.25D-02.
      6 vectors produced by pass  3 Test12= 2.81D-15 8.33D-09 XBig12= 1.31D-05 1.12D-03.
      6 vectors produced by pass  4 Test12= 2.81D-15 8.33D-09 XBig12= 1.59D-07 2.21D-04.
      6 vectors produced by pass  5 Test12= 2.81D-15 8.33D-09 XBig12= 4.02D-09 2.21D-05.
      6 vectors produced by pass  6 Test12= 2.81D-15 8.33D-09 XBig12= 3.32D-11 1.62D-06.
      4 vectors produced by pass  7 Test12= 2.81D-15 8.33D-09 XBig12= 1.11D-13 1.02D-07.
 InvSVY:  IOpt=1 It=  1 EMax= 4.44D-16
 Solved reduced A of dimension    46 with     6 vectors.
 End of Minotr F.D. properties file   721 does not exist.
 End of Minotr F.D. properties file   722 does not exist.
 End of Minotr F.D. properties file   788 does not exist.
 Leave Link 1002 at Tue Oct  6 20:44:13 2020, MaxMem=  2684354560 cpu:              18.8 elap:               1.9
 (Enter /udrive/faculty/rpeverati/g16/g16/l601.exe)
 Copying SCF densities to generalized density rwf, IOpCl= 1 IROHF=0.

 **********************************************************************

            Population analysis using the SCF density.

 **********************************************************************

 Orbital symmetries:
 Alpha Orbitals:
       Occupied  (A') (A') (A') (A') (A') (A") (A') (A')
       Virtual   (A") (A') (A') (A") (A') (A') (A') (A') (A') (A")
                 (A') (A") (A') (A') (A') (A") (A") (A') (A') (A")
                 (A') (A')
 Beta  Orbitals:
       Occupied  (A') (A') (A') (A') (A") (A') (A')
       Virtual   (A') (A") (A') (A') (A") (A') (A') (A') (A') (A')
                 (A") (A') (A") (A') (A') (A") (A') (A") (A') (A')
                 (A") (A') (A')
 The electronic state is 2-A'.
 Alpha  occ. eigenvalues --  -19.25029 -10.31011  -1.16033  -0.57309  -0.48178
 Alpha  occ. eigenvalues --   -0.46884  -0.41913  -0.26573
 Alpha virt. eigenvalues --   -0.02843   0.00644   0.25260   0.50321   0.51901
 Alpha virt. eigenvalues --    0.66347   0.73223   0.76092   0.83378   0.91700
 Alpha virt. eigenvalues --    0.95538   1.47349   1.48186   1.50813   1.53595
 Alpha virt. eigenvalues --    1.53692   1.93917   1.94338   2.41638   2.59644
 Alpha virt. eigenvalues --    2.60379   2.95704
  Beta  occ. eigenvalues --  -19.24751 -10.30693  -1.15542  -0.56652  -0.46618
  Beta  occ. eigenvalues --   -0.46529  -0.38675
  Beta virt. eigenvalues --   -0.10725  -0.02230   0.04060   0.25480   0.50595
  Beta virt. eigenvalues --    0.53543   0.67356   0.75565   0.83436   0.85094
  Beta virt. eigenvalues --    0.91838   0.98108   1.47835   1.48761   1.51243
  Beta virt. eigenvalues --    1.54259   1.54424   1.94611   1.95102   2.42542
  Beta virt. eigenvalues --    2.60175   2.61182   2.96014
          Condensed to atoms (all electrons):
               1          2          3
     1  H    0.984310   0.029794  -0.014834
     2  C    0.029794   5.223245   0.595083
     3  O   -0.014834   0.595083   7.572356
          Atomic-Atomic Spin Densities.
               1          2          3
     1  H    0.895100  -0.089049  -0.008595
     2  C   -0.089049   0.234704  -0.028847
     3  O   -0.008595  -0.028847   0.123180
 Mulliken charges and spin densities:
               1          2
     1  H    0.000729   0.797456
     2  C    0.151877   0.116807
     3  O   -0.152606   0.085737
 Sum of Mulliken charges =  -0.00000   1.00000
 Mulliken charges and spin densities with hydrogens summed into heavy atoms:
               1          2
     2  C    0.152606   0.914263
     3  O   -0.152606   0.085737
 APT charges:
               1
     1  H    0.037564
     2  C    0.060378
     3  O   -0.097942
 Sum of APT charges =  -0.00000
 APT charges with hydrogens summed into heavy atoms:
               1
     2  C    0.097942
     3  O   -0.097942
 Electronic spatial extent (au):  <R**2>=             58.3398
 Charge=             -0.0000 electrons
 Dipole moment (field-independent basis, Debye):
    X=             -0.0054    Y=              0.0621    Z=              0.0000  Tot=              0.0623
 Quadrupole moment (field-independent basis, Debye-Ang):
   XX=            -11.3940   YY=            -12.9701   ZZ=            -11.0630
   XY=              0.0108   XZ=              0.0000   YZ=              0.0000
 Traceless Quadrupole moment (field-independent basis, Debye-Ang):
   XX=              0.4150   YY=             -1.1611   ZZ=              0.7460
   XY=              0.0108   XZ=              0.0000   YZ=              0.0000
 Octapole moment (field-independent basis, Debye-Ang**2):
  XXX=              2.7449  YYY=             -7.0281  ZZZ=              0.0000  XYY=              0.6299
  XXY=             -2.0475  XXZ=              0.0000  XZZ=              0.8673  YZZ=             -1.8080
  YYZ=              0.0000  XYZ=              0.0000
 Hexadecapole moment (field-independent basis, Debye-Ang**3):
 XXXX=            -28.1644 YYYY=            -47.8113 ZZZZ=             -9.0605 XXXY=              8.1717
 XXXZ=              0.0000 YYYX=              7.7840 YYYZ=              0.0000 ZZZX=              0.0000
 ZZZY=              0.0000 XXYY=            -12.5288 XXZZ=             -6.1879 YYZZ=             -9.1327
 XXYZ=              0.0000 YYXZ=              0.0000 ZZXY=              2.6816
 N-N= 2.576478633639D+01 E-N=-3.184457279509D+02  KE= 1.130894617465D+02
  Exact polarizability:   0.000   0.000   0.000   0.000   0.000   0.000
 Approx polarizability:  23.852  -7.084  27.827   0.000  -0.000  10.715
                          Isotropic Fermi Contact Couplings
        Atom                 a.u.       MegaHertz       Gauss      10(-4) cm-1
     1  H(1)               0.25937    1159.34934     413.68467     386.71731
     2  C(13)              0.22691     255.08633      91.02115      85.08764
     3  O(17)              0.02115     -12.82317      -4.57563      -4.27735
 --------------------------------------------------------
       Center         ----  Spin Dipole Couplings  ----
                      3XX-RR        3YY-RR        3ZZ-RR
 --------------------------------------------------------
     1   Atom       -0.010166      0.004607      0.005559
     2   Atom       -0.015043      0.072984     -0.057940
     3   Atom        0.403452     -0.161388     -0.242064
 --------------------------------------------------------
                        XY            XZ            YZ
 --------------------------------------------------------
     1   Atom        0.005669      0.000000      0.000000
     2   Atom        0.200361      0.000000      0.000000
     3   Atom        0.247591      0.000000      0.000000
 --------------------------------------------------------


 ---------------------------------------------------------------------------------
              Anisotropic Spin Dipole Couplings in Principal Axis System
 ---------------------------------------------------------------------------------

       Atom             a.u.   MegaHertz   Gauss  10(-4) cm-1        Axes

              Baa    -0.0121    -6.451    -2.302    -2.152  0.9469 -0.3215  0.0000
     1 H(1)   Bbb     0.0056     2.966     1.058     0.989  0.0000  0.0000  1.0000
              Bcc     0.0065     3.485     1.243     1.162  0.3215  0.9469  0.0000
 
              Baa    -0.1762   -23.640    -8.435    -7.885  0.7793 -0.6267  0.0000
     2 C(13)  Bbb    -0.0579    -7.775    -2.774    -2.593  0.0000  0.0000  1.0000
              Bcc     0.2341    31.415    11.210    10.479  0.6267  0.7793  0.0000
 
              Baa    -0.2546    18.419     6.572     6.144 -0.3522  0.9359  0.0000
     3 O(17)  Bbb    -0.2421    17.516     6.250     5.843  0.0000  0.0000  1.0000
              Bcc     0.4966   -35.935   -12.822   -11.987  0.9359  0.3522  0.0000
 

 ---------------------------------------------------------------------------------

 No NMR shielding tensors so no spin-rotation constants.
 Leave Link  601 at Tue Oct  6 20:44:14 2020, MaxMem=  2684354560 cpu:               5.1 elap:               0.8
 (Enter /udrive/faculty/rpeverati/g16/g16/l701.exe)
 ... and contract with generalized density number  0.
 Compute integral second derivatives.
 R6Disp: Adding Grimme-D3(BJ) dispersion energy 2nd derivatives to the Hessian.
 Leave Link  701 at Tue Oct  6 20:44:15 2020, MaxMem=  2684354560 cpu:               4.0 elap:               0.8
 (Enter /udrive/faculty/rpeverati/g16/g16/l702.exe)
 L702 exits ... SP integral derivatives will be done elsewhere.
 Leave Link  702 at Tue Oct  6 20:44:16 2020, MaxMem=  2684354560 cpu:               4.4 elap:               0.7
 (Enter /udrive/faculty/rpeverati/g16/g16/l703.exe)
 Integral derivatives from FoFJK, PRISM(SPDF).
 Compute integral second derivatives, UseDBF=F ICtDFT=           0.
 Calling FoFJK, ICntrl=    100147 FMM=F ISym2X=1 I1Cent= 0 IOpClX= 1 NMat=1 NMatS=1 NMatT=0.
 FoFJK:  IHMeth= 1 ICntrl=  100147 DoSepK=F KAlg= 0 I1Cent=           0 FoldK=F
 IRaf=         0 NMat=       1 IRICut=       1 DoRegI=T DoRafI=F ISym2E= 1 IDoP0=0 IntGTp=1.
 FoFCou: FMM=F IPFlag=           0 FMFlag=      100000 FMFlg1=         800
         NFxFlg=           0 DoJE=F BraDBF=F KetDBF=F FulRan=T
         wScrn=  0.000000 ICntrl=    100147 IOpCl=  1 I1Cent=           0 NGrid=           0
         NMat0=    1 NMatS0=      1 NMatT0=    0 NMatD0=    1 NMtDS0=    0 NMtDT0=    0
 Petite list used in FoFCou.
 Leave Link  703 at Tue Oct  6 20:44:17 2020, MaxMem=  2684354560 cpu:               9.6 elap:               1.2
 (Enter /udrive/faculty/rpeverati/g16/g16/l716.exe)
 Dipole        =-2.13575850D-03 2.44178795D-02 0.00000000D+00
 Polarizability= 0.00000000D+00 0.00000000D+00 0.00000000D+00
                 0.00000000D+00 0.00000000D+00 0.00000000D+00
 ***** Axes restored to original set *****
 -------------------------------------------------------------------
 Center     Atomic                   Forces (Hartrees/Bohr)
 Number     Number              X              Y              Z
 -------------------------------------------------------------------
      1        1           0.008093115   -0.003602964   -0.000000000
      2        6          -0.008905644    0.026864916   -0.000000000
      3        8           0.000812529   -0.023261952   -0.000000000
 -------------------------------------------------------------------
 Cartesian Forces:  Max     0.026864916 RMS     0.012566678
 Force constants in Cartesian coordinates: 
                1             2             3             4             5 
      1 -0.212428D-01
      2  0.129833D-01  0.189837D-02
      3  0.000000D+00  0.000000D+00  0.262777D-02
      4  0.199910D-01 -0.215393D-01  0.000000D+00 -0.163814D-01
      5 -0.413562D-01  0.161999D-01  0.000000D+00  0.445339D-01  0.124570D+01
      6  0.000000D+00  0.000000D+00 -0.289288D-02  0.000000D+00  0.000000D+00
      7  0.125182D-02  0.855604D-02  0.000000D+00 -0.360957D-02 -0.317767D-02
      8  0.283730D-01 -0.180983D-01  0.000000D+00 -0.229946D-01 -0.126190D+01
      9  0.000000D+00  0.000000D+00  0.265109D-03  0.000000D+00  0.000000D+00
                6             7             8             9 
      6 -0.749572D-02
      7  0.000000D+00  0.235775D-02
      8  0.000000D+00 -0.537837D-02  0.128000D+01
      9  0.103886D-01  0.000000D+00  0.000000D+00 -0.106537D-01
 FormGI is forming the generalized inverse of G from B-inverse, IUseBI=4.
 Force constants in internal coordinates: 
                1             2             3 
      1 -0.269601D-01
      2  0.335106D-01  0.128000D+01
      3  0.602062D-02  0.107198D-01  0.607495D-01
 Leave Link  716 at Tue Oct  6 20:44:18 2020, MaxMem=  2684354560 cpu:               1.9 elap:               0.6
 (Enter /udrive/faculty/rpeverati/g16/g16/l103.exe)

 GradGradGradGradGradGradGradGradGradGradGradGradGradGradGradGradGradGrad
 Berny optimization.
 Optmz: redundant internal coordinate code flag= 1
 Red2BG:  D1=  5.02D-01 OD1=  8.40D-16 B2RMS=  0.00D+00 IAprox=1
 Red2BG is reusing G-inverse.
 Internal  Forces:  Max     0.023261807 RMS     0.014403415
 Search for a saddle point.
 Step number   1 out of a maximum of   50
 All quantities printed in internal units (Hartrees-Bohrs-Radians)
 Swapping is turned off.
 Second derivative matrix not updated -- analytic derivatives used.
 The second derivative matrix:
                          R1        R2        A1
           R1          -0.02696
           R2           0.03351   1.28000
           A1           0.00602   0.01072   0.06075
 ITU=  0
 Eigenvectors of the second derivative matrix:
                           1         2         3
     Eigenvalues --    -0.02819   0.06102   1.28096
   1         R1         0.99760  -0.06427   0.02565
   2         R2        -0.02503   0.01054   0.99963
   3         A1        -0.06451  -0.99788   0.00891
 RLam0= 2.91D-03.
 Iter=   1 RLamda= 0.00000000D+00 Sum=-4.28525284D-04.
 Iter=   2 RLamda=-4.28525284D-04 Sum=-4.28288713D-04.
 Iter=   3 RLamda=-4.28288713D-04 Sum=-4.28288843D-04.
 RFO step:  Lambda0=2.912609128D-03 Lambda=-4.28288713D-04.
 Linear search not attempted -- option 19 set.
 Maximum step size (   0.100) exceeded in Quadratic search.
    -- Step size scaled by   0.326
 Iteration  1 RMS(Cart)=  0.04605462 RMS(Int)=  0.00006293
 Iteration  2 RMS(Cart)=  0.00007751 RMS(Int)=  0.00000000
 Iteration  3 RMS(Cart)=  0.00000000 RMS(Int)=  0.00000000
 ITry= 1 IFail=0 DXMaxC= 5.10D-02 DCOld= 1.00D+10 DXMaxT= 1.00D-01 DXLimC= 3.00D+00 Rises=F
 ClnCor:  largest displacement from symmetrization is 0.00D+00 for atom     0.
 Variable       Old X    -DE/DX   Delta X   Delta X   Delta X     New X
                                 (Linear)    (Quad)   (Total)
    R1        3.46394  -0.00884   0.00000   0.09993   0.09993   3.56388
    R2        2.14471   0.02326   0.00000   0.00331   0.00331   2.14802
    A1        2.04652   0.00174   0.00000  -0.00148  -0.00148   2.04504
         Item               Value     Threshold  Converged?
 Maximum Force            0.023262     0.000450     NO 
 RMS     Force            0.014403     0.000300     NO 
 Maximum Displacement     0.051001     0.001800     NO 
 RMS     Displacement     0.046083     0.001200     NO 
 Predicted change in Energy= 6.920504D-04
 Lowest energy point so far.  Saving SCF results.
 Largest change from initial coordinates is atom    1       0.015 Angstoms.
 GradGradGradGradGradGradGradGradGradGradGradGradGradGradGradGradGradGrad

 Leave Link  103 at Tue Oct  6 20:44:19 2020, MaxMem=  2684354560 cpu:               1.3 elap:               0.7
 (Enter /udrive/faculty/rpeverati/g16/g16/l202.exe)
                          Input orientation:                          
 ---------------------------------------------------------------------
 Center     Atomic      Atomic             Coordinates (Angstroms)
 Number     Number       Type             X           Y           Z
 ---------------------------------------------------------------------
      1          1           0       -1.547854    1.409978    0.000000
      2          6           0        0.125221    0.539622    0.000000
      3          8           0        0.119034   -0.597044    0.000000
 ---------------------------------------------------------------------
                    Distance matrix (angstroms):
                    1          2          3
     1  H    0.000000
     2  C    1.885922   0.000000
     3  O    2.608957   1.136683   0.000000
 Stoichiometry    CHO(2)
 Framework group  CS[SG(CHO)]
 Deg. of freedom     3
 Full point group                 CS      NOp   2
 RotChk:  IX=0 Diff= 7.70D-03
 Largest Abelian subgroup         CS      NOp   2
 Largest concise Abelian subgroup C1      NOp   1
                         Standard orientation:                         
 ---------------------------------------------------------------------
 Center     Atomic      Atomic             Coordinates (Angstroms)
 Number     Number       Type             X           Y           Z
 ---------------------------------------------------------------------
      1          1           0       -1.565935    1.410052    0.000000
      2          6           0        0.111853    0.548815    0.000000
      3          8           0        0.111853   -0.587868    0.000000
 ---------------------------------------------------------------------
 Rotational constants (GHZ):         244.8531924          42.9997984          36.5764409
 Leave Link  202 at Tue Oct  6 20:44:20 2020, MaxMem=  2684354560 cpu:               1.6 elap:               0.5
 (Enter /udrive/faculty/rpeverati/g16/g16/l301.exe)
 Standard basis: 6-31G(d) (5D, 7F)
 Ernie: Thresh=  0.10000D-02 Tol=  0.10000D-05 Strict=F.
 There are    24 symmetry adapted cartesian basis functions of A'  symmetry.
 There are     8 symmetry adapted cartesian basis functions of A"  symmetry.
 There are    22 symmetry adapted basis functions of A'  symmetry.
 There are     8 symmetry adapted basis functions of A"  symmetry.
    30 basis functions,    60 primitive gaussians,    32 cartesian basis functions
     8 alpha electrons        7 beta electrons
       nuclear repulsion energy        25.6523703322 Hartrees.
 IExCor=  402 DFT=T Ex+Corr=B3LYP ExCW=0 ScaHFX=  0.200000
 ScaDFX=  0.800000  0.720000  1.000000  0.810000 ScalE2=  1.000000  1.000000
 IRadAn=      5 IRanWt=     -1 IRanGd=            0 ICorTp=0 IEmpDi=141
 NAtoms=    3 NActive=    3 NUniq=    3 SFac= 1.00D+00 NAtFMM=   60 NAOKFM=F Big=F
 Integral buffers will be    131072 words long.
 Raffenetti 2 integral format.
 Two-electron integral symmetry is turned on.
 R6Disp:  Grimme-D3(BJ) Dispersion energy=       -0.0016553120 Hartrees.
 Nuclear repulsion after empirical dispersion term =       25.6507150202 Hartrees.
 Leave Link  301 at Tue Oct  6 20:44:20 2020, MaxMem=  2684354560 cpu:               1.6 elap:               0.4
 (Enter /udrive/faculty/rpeverati/g16/g16/l302.exe)
 NPDir=0 NMtPBC=     1 NCelOv=     1 NCel=       1 NClECP=     1 NCelD=      1
         NCelK=      1 NCelE2=     1 NClLst=     1 CellRange=     0.0.
 One-electron integrals computed using PRISM.
 One-electron integral symmetry used in STVInt
 NBasis=    30 RedAO= T EigKep=  1.53D-02  NBF=    22     8
 NBsUse=    30 1.00D-06 EigRej= -1.00D+00 NBFU=    22     8
 Precomputing XC quadrature grid using
 IXCGrd= 4 IRadAn=           5 IRanWt=          -1 IRanGd=           0 AccXCQ= 0.00D+00.
 Generated NRdTot=       0 NPtTot=           0 NUsed=           0 NTot=          32
 NSgBfM=    32    32    32    32    32 MxSgAt=     3 MxSgA2=     3.
 Leave Link  302 at Tue Oct  6 20:44:21 2020, MaxMem=  2684354560 cpu:               3.7 elap:               0.6
 (Enter /udrive/faculty/rpeverati/g16/g16/l303.exe)
 DipDrv:  MaxL=1.
 Leave Link  303 at Tue Oct  6 20:44:22 2020, MaxMem=  2684354560 cpu:               2.9 elap:               0.8
 (Enter /udrive/faculty/rpeverati/g16/g16/l401.exe)
 Initial guess from the checkpoint file:  "MN_51_hcots_BH76_B3LYP_631Gs.chk"
 SCF N**3 symmetry information disabled.
 B after Tr=    -0.000000    0.000000    0.000000
         Rot=    0.999998    0.000000    0.000000   -0.001790 Ang=  -0.21 deg.
 Guess basis will be translated and rotated to current coordinates.
 JPrj=2 DoOrth=T DoCkMO=T.
 Initial guess orbital symmetries:
 Alpha Orbitals:
       Occupied  (A') (A') (A') (A') (A') (A") (A') (A')
       Virtual   (A") (A') (A') (A") (A') (A') (A') (A') (A') (A")
                 (A') (A") (A') (A') (A') (A") (A") (A') (A') (A")
                 (A') (A')
 Beta  Orbitals:
       Occupied  (A') (A') (A') (A') (A") (A') (A')
       Virtual   (A') (A") (A') (A') (A") (A') (A') (A') (A') (A')
                 (A") (A') (A") (A') (A') (A") (A') (A") (A') (A')
                 (A") (A') (A')
 The electronic state of the initial guess is 2-A'.
 Initial guess <Sx>= 0.0000 <Sy>= 0.0000 <Sz>= 0.5000 <S**2>= 0.7614 S= 0.5057
 Generating alternative initial guess.
 ExpMin= 1.61D-01 ExpMax= 5.48D+03 ExpMxC= 8.25D+02 IAcc=2 IRadAn=         4 AccDes= 0.00D+00
 Harris functional with IExCor=  402 and IRadAn=       4 diagonalized for initial guess.
 HarFok:  IExCor=  402 AccDes= 0.00D+00 IRadAn=         4 IDoV= 1 UseB2=F ITyADJ=14
 ICtDFT=  3500011 ScaDFX=  1.000000  1.000000  1.000000  1.000000
 FoFCou: FMM=F IPFlag=           0 FMFlag=      100000 FMFlg1=           0
         NFxFlg=           0 DoJE=T BraDBF=F KetDBF=T FulRan=T
         wScrn=  0.000000 ICntrl=       500 IOpCl=  0 I1Cent=   200000004 NGrid=           0
         NMat0=    1 NMatS0=      1 NMatT0=    0 NMatD0=    1 NMtDS0=    0 NMtDT0=    0
 Petite list used in FoFCou.
 Harris En= -113.769967705338    
 Leave Link  401 at Tue Oct  6 20:44:24 2020, MaxMem=  2684354560 cpu:               6.3 elap:               1.0
 (Enter /udrive/faculty/rpeverati/g16/g16/l502.exe)
 Keep R1 and R2 ints in memory in symmetry-blocked form, NReq=10465801.
 FoFCou: FMM=F IPFlag=           0 FMFlag=           0 FMFlg1=           0
         NFxFlg=           0 DoJE=F BraDBF=F KetDBF=F FulRan=T
         wScrn=  0.000000 ICntrl=       600 IOpCl=  0 I1Cent=           0 NGrid=           0
         NMat0=    1 NMatS0=    465 NMatT0=    0 NMatD0=    1 NMtDS0=    0 NMtDT0=    0
 Petite list used in FoFCou.
 UHF open shell SCF:
 Using DIIS extrapolation, IDIIS=  1040.
 NGot=  2684354560 LenX=  2684235289 LenY=  2684233824
 Requested convergence on RMS density matrix=1.00D-08 within 120 cycles.
 Requested convergence on MAX density matrix=1.00D-06.
 Requested convergence on             energy=1.00D-06.
 No special actions if energy rises.
 Integral accuracy reduced to 1.0D-05 until final iterations.

 Cycle   1  Pass 0  IDiag  1:
 E= -113.809605567670    
 DIIS: error= 1.43D-03 at cycle   1 NSaved=   1.
 NSaved= 1 IEnMin= 1 EnMin= -113.809605567670     IErMin= 1 ErrMin= 1.43D-03
 ErrMax= 1.43D-03  0.00D+00 EMaxC= 1.00D-01 BMatC= 2.26D-04 BMatP= 2.26D-04
 IDIUse=3 WtCom= 9.86D-01 WtEn= 1.43D-02
 Coeff-Com:  0.100D+01
 Coeff-En:   0.100D+01
 Coeff:      0.100D+01
 Gap=     0.241 Goal=   None    Shift=    0.000
 Gap=     0.276 Goal=   None    Shift=    0.000
 GapD=    0.241 DampG=1.000 DampE=1.000 DampFc=1.0000 IDamp=-1.
 RMSDP=6.13D-04 MaxDP=6.26D-03              OVMax= 1.41D-02

 Cycle   2  Pass 0  IDiag  1:
 E= -113.809805717790     Delta-E=       -0.000200150120 Rises=F Damp=F
 DIIS: error= 4.85D-04 at cycle   2 NSaved=   2.
 NSaved= 2 IEnMin= 2 EnMin= -113.809805717790     IErMin= 2 ErrMin= 4.85D-04
 ErrMax= 4.85D-04  0.00D+00 EMaxC= 1.00D-01 BMatC= 2.95D-05 BMatP= 2.26D-04
 IDIUse=3 WtCom= 9.95D-01 WtEn= 4.85D-03
 Coeff-Com:  0.385D-01 0.961D+00
 Coeff-En:   0.000D+00 0.100D+01
 Coeff:      0.383D-01 0.962D+00
 Gap=     0.241 Goal=   None    Shift=    0.000
 Gap=     0.278 Goal=   None    Shift=    0.000
 RMSDP=2.37D-04 MaxDP=1.95D-03 DE=-2.00D-04 OVMax= 5.58D-03

 Cycle   3  Pass 0  IDiag  1:
 E= -113.809815085233     Delta-E=       -0.000009367443 Rises=F Damp=F
 DIIS: error= 1.06D-03 at cycle   3 NSaved=   3.
 NSaved= 3 IEnMin= 3 EnMin= -113.809815085233     IErMin= 2 ErrMin= 4.85D-04
 ErrMax= 1.06D-03  0.00D+00 EMaxC= 1.00D-01 BMatC= 8.60D-05 BMatP= 2.95D-05
 IDIUse=3 WtCom= 2.35D-01 WtEn= 7.65D-01
 Coeff-Com: -0.894D-01 0.713D+00 0.376D+00
 Coeff-En:   0.000D+00 0.242D+00 0.758D+00
 Coeff:     -0.210D-01 0.353D+00 0.668D+00
 Gap=     0.241 Goal=   None    Shift=    0.000
 Gap=     0.277 Goal=   None    Shift=    0.000
 RMSDP=1.95D-04 MaxDP=2.37D-03 DE=-9.37D-06 OVMax= 3.51D-03

 Cycle   4  Pass 0  IDiag  1:
 E= -113.809811879473     Delta-E=        0.000003205761 Rises=F Damp=F
 DIIS: error= 1.17D-03 at cycle   4 NSaved=   4.
 NSaved= 4 IEnMin= 3 EnMin= -113.809815085233     IErMin= 2 ErrMin= 4.85D-04
 ErrMax= 1.17D-03  0.00D+00 EMaxC= 1.00D-01 BMatC= 1.20D-04 BMatP= 2.95D-05
 IDIUse=3 WtCom= 2.26D-01 WtEn= 7.74D-01
 Coeff-Com: -0.393D-01-0.472D-01 0.586D+00 0.501D+00
 Coeff-En:   0.000D+00 0.000D+00 0.530D+00 0.470D+00
 Coeff:     -0.888D-02-0.107D-01 0.543D+00 0.477D+00
 Gap=     0.242 Goal=   None    Shift=    0.000
 Gap=     0.278 Goal=   None    Shift=    0.000
 RMSDP=1.12D-04 MaxDP=1.34D-03 DE= 3.21D-06 OVMax= 1.69D-03

 Cycle   5  Pass 0  IDiag  1:
 E= -113.809835801118     Delta-E=       -0.000023921645 Rises=F Damp=F
 DIIS: error= 8.61D-05 at cycle   5 NSaved=   5.
 NSaved= 5 IEnMin= 5 EnMin= -113.809835801118     IErMin= 5 ErrMin= 8.61D-05
 ErrMax= 8.61D-05  0.00D+00 EMaxC= 1.00D-01 BMatC= 1.01D-06 BMatP= 2.95D-05
 IDIUse=1 WtCom= 1.00D+00 WtEn= 0.00D+00
 Coeff-Com:  0.144D-01-0.208D+00-0.247D-01 0.125D+00 0.109D+01
 Coeff:      0.144D-01-0.208D+00-0.247D-01 0.125D+00 0.109D+01
 Gap=     0.242 Goal=   None    Shift=    0.000
 Gap=     0.278 Goal=   None    Shift=    0.000
 RMSDP=5.24D-05 MaxDP=4.09D-04 DE=-2.39D-05 OVMax= 1.33D-03

 Cycle   6  Pass 0  IDiag  1:
 E= -113.809836580995     Delta-E=       -0.000000779877 Rises=F Damp=F
 DIIS: error= 1.70D-05 at cycle   6 NSaved=   6.
 NSaved= 6 IEnMin= 6 EnMin= -113.809836580995     IErMin= 6 ErrMin= 1.70D-05
 ErrMax= 1.70D-05  0.00D+00 EMaxC= 1.00D-01 BMatC= 2.63D-08 BMatP= 1.01D-06
 IDIUse=1 WtCom= 1.00D+00 WtEn= 0.00D+00
 Coeff-Com:  0.448D-02-0.213D-01-0.367D-01-0.907D-02 0.114D+00 0.948D+00
 Coeff:      0.448D-02-0.213D-01-0.367D-01-0.907D-02 0.114D+00 0.948D+00
 Gap=     0.242 Goal=   None    Shift=    0.000
 Gap=     0.278 Goal=   None    Shift=    0.000
 RMSDP=7.24D-06 MaxDP=8.86D-05 DE=-7.80D-07 OVMax= 1.34D-04

 Initial convergence to 1.0D-05 achieved.  Increase integral accuracy.
 Cycle   7  Pass 1  IDiag  1:
 E= -113.809836176426     Delta-E=        0.000000404570 Rises=F Damp=F
 DIIS: error= 6.07D-06 at cycle   1 NSaved=   1.
 NSaved= 1 IEnMin= 1 EnMin= -113.809836176426     IErMin= 1 ErrMin= 6.07D-06
 ErrMax= 6.07D-06  0.00D+00 EMaxC= 1.00D-01 BMatC= 3.89D-09 BMatP= 3.89D-09
 IDIUse=1 WtCom= 1.00D+00 WtEn= 0.00D+00
 Coeff-Com:  0.100D+01
 Coeff:      0.100D+01
 Gap=     0.242 Goal=   None    Shift=    0.000
 Gap=     0.278 Goal=   None    Shift=    0.000
 RMSDP=7.24D-06 MaxDP=8.86D-05 DE= 4.05D-07 OVMax= 4.64D-05

 Cycle   8  Pass 1  IDiag  1:
 E= -113.809836178569     Delta-E=       -0.000000002143 Rises=F Damp=F
 DIIS: error= 3.52D-06 at cycle   2 NSaved=   2.
 NSaved= 2 IEnMin= 2 EnMin= -113.809836178569     IErMin= 2 ErrMin= 3.52D-06
 ErrMax= 3.52D-06  0.00D+00 EMaxC= 1.00D-01 BMatC= 1.42D-09 BMatP= 3.89D-09
 IDIUse=1 WtCom= 1.00D+00 WtEn= 0.00D+00
 Coeff-Com:  0.324D+00 0.676D+00
 Coeff:      0.324D+00 0.676D+00
 Gap=     0.242 Goal=   None    Shift=    0.000
 Gap=     0.278 Goal=   None    Shift=    0.000
 RMSDP=8.99D-07 MaxDP=8.77D-06 DE=-2.14D-09 OVMax= 1.69D-05

 Cycle   9  Pass 1  IDiag  1:
 E= -113.809836179094     Delta-E=       -0.000000000525 Rises=F Damp=F
 DIIS: error= 1.86D-06 at cycle   3 NSaved=   3.
 NSaved= 3 IEnMin= 3 EnMin= -113.809836179094     IErMin= 3 ErrMin= 1.86D-06
 ErrMax= 1.86D-06  0.00D+00 EMaxC= 1.00D-01 BMatC= 4.19D-10 BMatP= 1.42D-09
 IDIUse=1 WtCom= 1.00D+00 WtEn= 0.00D+00
 Coeff-Com: -0.399D-01 0.261D+00 0.779D+00
 Coeff:     -0.399D-01 0.261D+00 0.779D+00
 Gap=     0.242 Goal=   None    Shift=    0.000
 Gap=     0.278 Goal=   None    Shift=    0.000
 RMSDP=4.88D-07 MaxDP=4.62D-06 DE=-5.25D-10 OVMax= 9.46D-06

 Cycle  10  Pass 1  IDiag  1:
 E= -113.809836179182     Delta-E=       -0.000000000088 Rises=F Damp=F
 DIIS: error= 2.28D-06 at cycle   4 NSaved=   4.
 NSaved= 4 IEnMin= 4 EnMin= -113.809836179182     IErMin= 3 ErrMin= 1.86D-06
 ErrMax= 2.28D-06  0.00D+00 EMaxC= 1.00D-01 BMatC= 4.65D-10 BMatP= 4.19D-10
 IDIUse=1 WtCom= 1.00D+00 WtEn= 0.00D+00
 Coeff-Com: -0.190D+00-0.906D-01 0.713D+00 0.568D+00
 Coeff:     -0.190D+00-0.906D-01 0.713D+00 0.568D+00
 Gap=     0.242 Goal=   None    Shift=    0.000
 Gap=     0.278 Goal=   None    Shift=    0.000
 RMSDP=3.67D-07 MaxDP=3.46D-06 DE=-8.84D-11 OVMax= 8.18D-06

 Cycle  11  Pass 1  IDiag  1:
 E= -113.809836179305     Delta-E=       -0.000000000122 Rises=F Damp=F
 DIIS: error= 2.24D-07 at cycle   5 NSaved=   5.
 NSaved= 5 IEnMin= 5 EnMin= -113.809836179305     IErMin= 5 ErrMin= 2.24D-07
 ErrMax= 2.24D-07  0.00D+00 EMaxC= 1.00D-01 BMatC= 5.76D-12 BMatP= 4.19D-10
 IDIUse=1 WtCom= 1.00D+00 WtEn= 0.00D+00
 Coeff-Com: -0.542D-01-0.400D-01 0.162D+00 0.183D+00 0.749D+00
 Coeff:     -0.542D-01-0.400D-01 0.162D+00 0.183D+00 0.749D+00
 Gap=     0.242 Goal=   None    Shift=    0.000
 Gap=     0.278 Goal=   None    Shift=    0.000
 RMSDP=7.12D-08 MaxDP=9.05D-07 DE=-1.22D-10 OVMax= 1.36D-06

 Cycle  12  Pass 1  IDiag  1:
 E= -113.809836179307     Delta-E=       -0.000000000003 Rises=F Damp=F
 DIIS: error= 6.58D-08 at cycle   6 NSaved=   6.
 NSaved= 6 IEnMin= 6 EnMin= -113.809836179307     IErMin= 6 ErrMin= 6.58D-08
 ErrMax= 6.58D-08  0.00D+00 EMaxC= 1.00D-01 BMatC= 4.13D-13 BMatP= 5.76D-12
 IDIUse=1 WtCom= 1.00D+00 WtEn= 0.00D+00
 Coeff-Com:  0.311D-01 0.111D-01-0.117D+00-0.888D-01-0.499D-01 0.121D+01
 Coeff:      0.311D-01 0.111D-01-0.117D+00-0.888D-01-0.499D-01 0.121D+01
 Gap=     0.242 Goal=   None    Shift=    0.000
 Gap=     0.278 Goal=   None    Shift=    0.000
 RMSDP=4.70D-08 MaxDP=3.75D-07 DE=-2.76D-12 OVMax= 1.17D-06

 Cycle  13  Pass 1  IDiag  1:
 E= -113.809836179308     Delta-E=       -0.000000000001 Rises=F Damp=F
 DIIS: error= 2.52D-08 at cycle   7 NSaved=   7.
 NSaved= 7 IEnMin= 7 EnMin= -113.809836179308     IErMin= 7 ErrMin= 2.52D-08
 ErrMax= 2.52D-08  0.00D+00 EMaxC= 1.00D-01 BMatC= 3.70D-14 BMatP= 4.13D-13
 IDIUse=1 WtCom= 1.00D+00 WtEn= 0.00D+00
 Coeff-Com:  0.216D-02 0.886D-03-0.641D-02-0.171D-02-0.534D-01-0.643D-01
 Coeff-Com:  0.112D+01
 Coeff:      0.216D-02 0.886D-03-0.641D-02-0.171D-02-0.534D-01-0.643D-01
 Coeff:      0.112D+01
 Gap=     0.242 Goal=   None    Shift=    0.000
 Gap=     0.278 Goal=   None    Shift=    0.000
 RMSDP=1.07D-08 MaxDP=1.44D-07 DE=-7.39D-13 OVMax= 2.11D-07

 Cycle  14  Pass 1  IDiag  1:
 E= -113.809836179308     Delta-E=       -0.000000000000 Rises=F Damp=F
 DIIS: error= 4.15D-09 at cycle   8 NSaved=   8.
 NSaved= 8 IEnMin= 8 EnMin= -113.809836179308     IErMin= 8 ErrMin= 4.15D-09
 ErrMax= 4.15D-09  0.00D+00 EMaxC= 1.00D-01 BMatC= 9.45D-16 BMatP= 3.70D-14
 IDIUse=1 WtCom= 1.00D+00 WtEn= 0.00D+00
 Coeff-Com: -0.154D-02-0.590D-03 0.570D-02 0.453D-02 0.167D-02-0.577D-01
 Coeff-Com:  0.151D-01 0.103D+01
 Coeff:     -0.154D-02-0.590D-03 0.570D-02 0.453D-02 0.167D-02-0.577D-01
 Coeff:      0.151D-01 0.103D+01
 Gap=     0.242 Goal=   None    Shift=    0.000
 Gap=     0.278 Goal=   None    Shift=    0.000
 RMSDP=1.30D-09 MaxDP=1.90D-08 DE=-2.27D-13 OVMax= 2.96D-08

 SCF Done:  E(UB3LYP) =  -113.809836179     A.U. after   14 cycles
            NFock= 14  Conv=0.13D-08     -V/T= 2.0064
 <Sx>= 0.0000 <Sy>= 0.0000 <Sz>= 0.5000 <S**2>= 0.7600 S= 0.5050
 <L.S>= 0.000000000000E+00
 KE= 1.130820187867D+02 PE=-3.182122478513D+02 EE= 6.566967786523D+01
 Annihilation of the first spin contaminant:
 S**2 before annihilation     0.7600,   after     0.7500
 Leave Link  502 at Tue Oct  6 20:44:26 2020, MaxMem=  2684354560 cpu:              22.2 elap:               2.2
 (Enter /udrive/faculty/rpeverati/g16/g16/l508.exe)
 QCSCF skips out because SCF is already converged.
 Leave Link  508 at Tue Oct  6 20:44:27 2020, MaxMem=  2684354560 cpu:               0.4 elap:               0.4
 (Enter /udrive/faculty/rpeverati/g16/g16/l701.exe)
 ... and contract with generalized density number  0.
 Compute integral first derivatives.
 R6Disp: Adding Grimme-D3(BJ) dispersion energy 1st derivatives to the gradient.
 Leave Link  701 at Tue Oct  6 20:44:28 2020, MaxMem=  2684354560 cpu:               3.3 elap:               0.8
 (Enter /udrive/faculty/rpeverati/g16/g16/l702.exe)
 L702 exits ... SP integral derivatives will be done elsewhere.
 Leave Link  702 at Tue Oct  6 20:44:29 2020, MaxMem=  2684354560 cpu:               1.3 elap:               0.4
 (Enter /udrive/faculty/rpeverati/g16/g16/l703.exe)
 Integral derivatives from FoFJK, PRISM(SPDF).
 Compute integral first derivatives, UseDBF=F ICtDFT=           0.
 Calling FoFJK, ICntrl=      2127 FMM=F ISym2X=1 I1Cent= 0 IOpClX= 1 NMat=1 NMatS=1 NMatT=0.
 FoFJK:  IHMeth= 1 ICntrl=    2127 DoSepK=F KAlg= 0 I1Cent=           0 FoldK=F
 IRaf=         0 NMat=       1 IRICut=       1 DoRegI=T DoRafI=F ISym2E= 1 IDoP0=0 IntGTp=1.
 FoFCou: FMM=F IPFlag=           0 FMFlag=      100000 FMFlg1=         800
         NFxFlg=           0 DoJE=F BraDBF=F KetDBF=F FulRan=T
         wScrn=  0.000000 ICntrl=      2127 IOpCl=  1 I1Cent=           0 NGrid=           0
         NMat0=    1 NMatS0=      1 NMatT0=    0 NMatD0=    1 NMtDS0=    0 NMtDT0=    0
 Petite list used in FoFCou.
 Leave Link  703 at Tue Oct  6 20:44:30 2020, MaxMem=  2684354560 cpu:               4.8 elap:               0.8
 (Enter /udrive/faculty/rpeverati/g16/g16/l716.exe)
 Dipole        = 3.69878006D-03 1.48525723D-02 0.00000000D+00
 ***** Axes restored to original set *****
 -------------------------------------------------------------------
 Center     Atomic                   Forces (Hartrees/Bohr)
 Number     Number              X              Y              Z
 -------------------------------------------------------------------
      1        1           0.005919164   -0.002682557   -0.000000000
      2        6          -0.006415276    0.018690935   -0.000000000
      3        8           0.000496112   -0.016008378   -0.000000000
 -------------------------------------------------------------------
 Cartesian Forces:  Max     0.018690935 RMS     0.008751214
 Leave Link  716 at Tue Oct  6 20:44:31 2020, MaxMem=  2684354560 cpu:               1.4 elap:               0.5
 (Enter /udrive/faculty/rpeverati/g16/g16/l103.exe)

 GradGradGradGradGradGradGradGradGradGradGradGradGradGradGradGradGradGrad
 Berny optimization.
 Optmz: redundant internal coordinate code flag= 1
 Red2BG:  D1=  4.94D-01 OD1=  9.71D-03 B2RMS=  0.00D+00 IAprox=0
 FormGI is forming the generalized inverse of G from B-inverse, IUseBI=4.
 Internal  Forces:  Max     0.016005339 RMS     0.009997490
 Search for a saddle point.
 Step number   2 out of a maximum of   50
 All quantities printed in internal units (Hartrees-Bohrs-Radians)
 Swapping is turned off.
 Update second derivatives using D2CorX and points    1    2
 The second derivative matrix:
                          R1        R2        A1
           R1          -0.02449
           R2           0.03034   1.28128
           A1           0.00544   0.01100   0.06081
 ITU=  0  0
 Eigenvectors of the second derivative matrix:
                           1         2         3
     Eigenvalues --    -0.02551   0.06102   1.28208
   1         R1         0.99794  -0.05979   0.02325
   2         R2        -0.02266   0.01048   0.99969
   3         A1        -0.06001  -0.99816   0.00911
 RLam0= 1.75D-03.
 Iter=   1 RLamda= 0.00000000D+00 Sum=-2.04137649D-04.
 Iter=   2 RLamda=-2.04137649D-04 Sum=-2.04080004D-04.
 Iter=   3 RLamda=-2.04080004D-04 Sum=-2.04080020D-04.
 RFO step:  Lambda0=1.753231889D-03 Lambda=-2.04080004D-04.
 Linear search not attempted -- option 19 set.
 Maximum step size (   0.100) exceeded in Quadratic search.
    -- Step size scaled by   0.393
 Iteration  1 RMS(Cart)=  0.04597680 RMS(Int)=  0.00006072
 Iteration  2 RMS(Cart)=  0.00007545 RMS(Int)=  0.00000000
 Iteration  3 RMS(Cart)=  0.00000000 RMS(Int)=  0.00000000
 ITry= 1 IFail=0 DXMaxC= 5.09D-02 DCOld= 1.00D+10 DXMaxT= 1.00D-01 DXLimC= 3.00D+00 Rises=F
 ClnCor:  largest displacement from symmetrization is 2.51D-15 for atom     1.
 Variable       Old X    -DE/DX   Delta X   Delta X   Delta X     New X
                                 (Linear)    (Quad)   (Total)
    R1        3.56388  -0.00649   0.00000   0.09996   0.09996   3.66383
    R2        2.14802   0.01601   0.00000   0.00256   0.00256   2.15058
    A1        2.04504   0.00125   0.00000  -0.00148  -0.00148   2.04356
         Item               Value     Threshold  Converged?
 Maximum Force            0.016005     0.000450     NO 
 RMS     Force            0.009997     0.000300     NO 
 Maximum Displacement     0.050906     0.001800     NO 
 RMS     Displacement     0.046004     0.001200     NO 
 Predicted change in Energy= 4.983554D-04
 Largest change from initial coordinates is atom    1       0.019 Angstoms.
 GradGradGradGradGradGradGradGradGradGradGradGradGradGradGradGradGradGrad

 Leave Link  103 at Tue Oct  6 20:44:32 2020, MaxMem=  2684354560 cpu:               1.5 elap:               0.4
 (Enter /udrive/faculty/rpeverati/g16/g16/l202.exe)
                          Input orientation:                          
 ---------------------------------------------------------------------
 Center     Atomic      Atomic             Coordinates (Angstroms)
 Number     Number       Type             X           Y           Z
 ---------------------------------------------------------------------
      1          1           0       -1.574793    1.431114    0.000000
      2          6           0        0.141737    0.529706    0.000000
      3          8           0        0.129456   -0.608264    0.000000
 ---------------------------------------------------------------------
                    Distance matrix (angstroms):
                    1          2          3
     1  H    0.000000
     2  C    1.938816   0.000000
     3  O    2.657729   1.138036   0.000000
 Stoichiometry    CHO(2)
 Framework group  CS[SG(CHO)]
 Deg. of freedom     3
 Full point group                 CS      NOp   2
 RotChk:  IX=0 Diff= 7.56D-03
 Largest Abelian subgroup         CS      NOp   2
 Largest concise Abelian subgroup C1      NOp   1
                         Standard orientation:                         
 ---------------------------------------------------------------------
 Center     Atomic      Atomic             Coordinates (Angstroms)
 Number     Number       Type             X           Y           Z
 ---------------------------------------------------------------------
      1          1           0       -1.611080    1.430928    0.000000
      2          6           0        0.115077    0.548097    0.000000
      3          8           0        0.115077   -0.589939    0.000000
 ---------------------------------------------------------------------
 Rotational constants (GHZ):         233.6987273          42.4615416          35.9327874
 Leave Link  202 at Tue Oct  6 20:44:32 2020, MaxMem=  2684354560 cpu:               2.0 elap:               0.6
 (Enter /udrive/faculty/rpeverati/g16/g16/l301.exe)
 Standard basis: 6-31G(d) (5D, 7F)
 Ernie: Thresh=  0.10000D-02 Tol=  0.10000D-05 Strict=F.
 There are    24 symmetry adapted cartesian basis functions of A'  symmetry.
 There are     8 symmetry adapted cartesian basis functions of A"  symmetry.
 There are    22 symmetry adapted basis functions of A'  symmetry.
 There are     8 symmetry adapted basis functions of A"  symmetry.
    30 basis functions,    60 primitive gaussians,    32 cartesian basis functions
     8 alpha electrons        7 beta electrons
       nuclear repulsion energy        25.5500913902 Hartrees.
 IExCor=  402 DFT=T Ex+Corr=B3LYP ExCW=0 ScaHFX=  0.200000
 ScaDFX=  0.800000  0.720000  1.000000  0.810000 ScalE2=  1.000000  1.000000
 IRadAn=      5 IRanWt=     -1 IRanGd=            0 ICorTp=0 IEmpDi=141
 NAtoms=    3 NActive=    3 NUniq=    3 SFac= 1.00D+00 NAtFMM=   60 NAOKFM=F Big=F
 Integral buffers will be    131072 words long.
 Raffenetti 2 integral format.
 Two-electron integral symmetry is turned on.
 R6Disp:  Grimme-D3(BJ) Dispersion energy=       -0.0016452092 Hartrees.
 Nuclear repulsion after empirical dispersion term =       25.5484461810 Hartrees.
 Leave Link  301 at Tue Oct  6 20:44:33 2020, MaxMem=  2684354560 cpu:               2.3 elap:               0.7
 (Enter /udrive/faculty/rpeverati/g16/g16/l302.exe)
 NPDir=0 NMtPBC=     1 NCelOv=     1 NCel=       1 NClECP=     1 NCelD=      1
         NCelK=      1 NCelE2=     1 NClLst=     1 CellRange=     0.0.
 One-electron integrals computed using PRISM.
 One-electron integral symmetry used in STVInt
 NBasis=    30 RedAO= T EigKep=  1.54D-02  NBF=    22     8
 NBsUse=    30 1.00D-06 EigRej= -1.00D+00 NBFU=    22     8
 Precomputing XC quadrature grid using
 IXCGrd= 4 IRadAn=           5 IRanWt=          -1 IRanGd=           0 AccXCQ= 0.00D+00.
 Generated NRdTot=       0 NPtTot=           0 NUsed=           0 NTot=          32
 NSgBfM=    32    32    32    32    32 MxSgAt=     3 MxSgA2=     3.
 Leave Link  302 at Tue Oct  6 20:44:34 2020, MaxMem=  2684354560 cpu:               4.3 elap:               0.7
 (Enter /udrive/faculty/rpeverati/g16/g16/l303.exe)
 DipDrv:  MaxL=1.
 Leave Link  303 at Tue Oct  6 20:44:35 2020, MaxMem=  2684354560 cpu:               1.6 elap:               0.5
 (Enter /udrive/faculty/rpeverati/g16/g16/l401.exe)
 Initial guess from the checkpoint file:  "MN_51_hcots_BH76_B3LYP_631Gs.chk"
 SCF N**3 symmetry information disabled.
 B after Tr=    -0.000000   -0.000000    0.000000
         Rot=    0.999998    0.000000    0.000000   -0.001784 Ang=  -0.20 deg.
 Guess basis will be translated and rotated to current coordinates.
 JPrj=2 DoOrth=T DoCkMO=T.
 Initial guess orbital symmetries:
 Alpha Orbitals:
       Occupied  (A') (A') (A') (A') (A') (A") (A') (A')
       Virtual   (A") (A') (A') (A") (A') (A') (A') (A') (A') (A")
                 (A') (A") (A') (A') (A') (A") (A") (A') (A') (A")
                 (A') (A')
 Beta  Orbitals:
       Occupied  (A') (A') (A') (A') (A") (A') (A')
       Virtual   (A') (A") (A') (A') (A") (A') (A') (A') (A') (A')
                 (A") (A') (A") (A') (A') (A") (A') (A") (A') (A')
                 (A") (A') (A')
 The electronic state of the initial guess is 2-A'.
 Initial guess <Sx>= 0.0000 <Sy>= 0.0000 <Sz>= 0.5000 <S**2>= 0.7602 S= 0.5051
 Generating alternative initial guess.
 ExpMin= 1.61D-01 ExpMax= 5.48D+03 ExpMxC= 8.25D+02 IAcc=2 IRadAn=         4 AccDes= 0.00D+00
 Harris functional with IExCor=  402 and IRadAn=       4 diagonalized for initial guess.
 HarFok:  IExCor=  402 AccDes= 0.00D+00 IRadAn=         4 IDoV= 1 UseB2=F ITyADJ=14
 ICtDFT=  3500011 ScaDFX=  1.000000  1.000000  1.000000  1.000000
 FoFCou: FMM=F IPFlag=           0 FMFlag=      100000 FMFlg1=           0
         NFxFlg=           0 DoJE=T BraDBF=F KetDBF=T FulRan=T
         wScrn=  0.000000 ICntrl=       500 IOpCl=  0 I1Cent=   200000004 NGrid=           0
         NMat0=    1 NMatS0=      1 NMatT0=    0 NMatD0=    1 NMtDS0=    0 NMtDT0=    0
 Petite list used in FoFCou.
 Harris En= -113.767915293024    
 Leave Link  401 at Tue Oct  6 20:44:36 2020, MaxMem=  2684354560 cpu:               7.2 elap:               1.0
 (Enter /udrive/faculty/rpeverati/g16/g16/l502.exe)
 Keep R1 and R2 ints in memory in symmetry-blocked form, NReq=10465801.
 FoFCou: FMM=F IPFlag=           0 FMFlag=           0 FMFlg1=           0
         NFxFlg=           0 DoJE=F BraDBF=F KetDBF=F FulRan=T
         wScrn=  0.000000 ICntrl=       600 IOpCl=  0 I1Cent=           0 NGrid=           0
         NMat0=    1 NMatS0=    465 NMatT0=    0 NMatD0=    1 NMtDS0=    0 NMtDT0=    0
 Petite list used in FoFCou.
 UHF open shell SCF:
 Using DIIS extrapolation, IDIIS=  1040.
 NGot=  2684354560 LenX=  2684235289 LenY=  2684233824
 Requested convergence on RMS density matrix=1.00D-08 within 120 cycles.
 Requested convergence on MAX density matrix=1.00D-06.
 Requested convergence on             energy=1.00D-06.
 No special actions if energy rises.
 Integral accuracy reduced to 1.0D-05 until final iterations.

 Cycle   1  Pass 0  IDiag  1:
 E= -113.809121268942    
 DIIS: error= 1.36D-03 at cycle   1 NSaved=   1.
 NSaved= 1 IEnMin= 1 EnMin= -113.809121268942     IErMin= 1 ErrMin= 1.36D-03
 ErrMax= 1.36D-03  0.00D+00 EMaxC= 1.00D-01 BMatC= 1.90D-04 BMatP= 1.90D-04
 IDIUse=3 WtCom= 9.86D-01 WtEn= 1.36D-02
 Coeff-Com:  0.100D+01
 Coeff-En:   0.100D+01
 Coeff:      0.100D+01
 Gap=     0.246 Goal=   None    Shift=    0.000
 Gap=     0.275 Goal=   None    Shift=    0.000
 GapD=    0.246 DampG=1.000 DampE=1.000 DampFc=1.0000 IDamp=-1.
 RMSDP=5.65D-04 MaxDP=5.93D-03              OVMax= 1.30D-02

 Cycle   2  Pass 0  IDiag  1:
 E= -113.809294157444     Delta-E=       -0.000172888502 Rises=F Damp=F
 DIIS: error= 4.49D-04 at cycle   2 NSaved=   2.
 NSaved= 2 IEnMin= 2 EnMin= -113.809294157444     IErMin= 2 ErrMin= 4.49D-04
 ErrMax= 4.49D-04  0.00D+00 EMaxC= 1.00D-01 BMatC= 2.39D-05 BMatP= 1.90D-04
 IDIUse=3 WtCom= 9.96D-01 WtEn= 4.49D-03
 Coeff-Com:  0.246D-01 0.975D+00
 Coeff-En:   0.000D+00 0.100D+01
 Coeff:      0.245D-01 0.976D+00
 Gap=     0.246 Goal=   None    Shift=    0.000
 Gap=     0.277 Goal=   None    Shift=    0.000
 RMSDP=2.17D-04 MaxDP=1.83D-03 DE=-1.73D-04 OVMax= 5.09D-03

 Cycle   3  Pass 0  IDiag  1:
 E= -113.809301684539     Delta-E=       -0.000007527095 Rises=F Damp=F
 DIIS: error= 9.71D-04 at cycle   3 NSaved=   3.
 NSaved= 3 IEnMin= 3 EnMin= -113.809301684539     IErMin= 2 ErrMin= 4.49D-04
 ErrMax= 9.71D-04  0.00D+00 EMaxC= 1.00D-01 BMatC= 7.34D-05 BMatP= 2.39D-05
 IDIUse=3 WtCom= 2.43D-01 WtEn= 7.57D-01
 Coeff-Com: -0.956D-01 0.726D+00 0.369D+00
 Coeff-En:   0.000D+00 0.249D+00 0.751D+00
 Coeff:     -0.232D-01 0.365D+00 0.658D+00
 Gap=     0.246 Goal=   None    Shift=    0.000
 Gap=     0.277 Goal=   None    Shift=    0.000
 RMSDP=1.76D-04 MaxDP=2.08D-03 DE=-7.53D-06 OVMax= 3.19D-03

 Cycle   4  Pass 0  IDiag  1:
 E= -113.809299435082     Delta-E=        0.000002249457 Rises=F Damp=F
 DIIS: error= 1.06D-03 at cycle   4 NSaved=   4.
 NSaved= 4 IEnMin= 3 EnMin= -113.809301684539     IErMin= 2 ErrMin= 4.49D-04
 ErrMax= 1.06D-03  0.00D+00 EMaxC= 1.00D-01 BMatC= 9.87D-05 BMatP= 2.39D-05
 IDIUse=3 WtCom= 2.35D-01 WtEn= 7.65D-01
 Coeff-Com: -0.312D-01-0.952D-01 0.592D+00 0.534D+00
 Coeff-En:   0.000D+00 0.000D+00 0.525D+00 0.475D+00
 Coeff:     -0.732D-02-0.223D-01 0.541D+00 0.489D+00
 Gap=     0.246 Goal=   None    Shift=    0.000
 Gap=     0.277 Goal=   None    Shift=    0.000
 RMSDP=1.01D-04 MaxDP=1.22D-03 DE= 2.25D-06 OVMax= 1.53D-03

 Cycle   5  Pass 0  IDiag  1:
 E= -113.809319147492     Delta-E=       -0.000019712410 Rises=F Damp=F
 DIIS: error= 7.01D-05 at cycle   5 NSaved=   5.
 NSaved= 5 IEnMin= 5 EnMin= -113.809319147492     IErMin= 5 ErrMin= 7.01D-05
 ErrMax= 7.01D-05  0.00D+00 EMaxC= 1.00D-01 BMatC= 7.73D-07 BMatP= 2.39D-05
 IDIUse=1 WtCom= 1.00D+00 WtEn= 0.00D+00
 Coeff-Com:  0.164D-01-0.207D+00-0.337D-01 0.116D+00 0.111D+01
 Coeff:      0.164D-01-0.207D+00-0.337D-01 0.116D+00 0.111D+01
 Gap=     0.246 Goal=   None    Shift=    0.000
 Gap=     0.277 Goal=   None    Shift=    0.000
 RMSDP=4.72D-05 MaxDP=3.68D-04 DE=-1.97D-05 OVMax= 1.18D-03

 Cycle   6  Pass 0  IDiag  1:
 E= -113.809319780436     Delta-E=       -0.000000632944 Rises=F Damp=F
 DIIS: error= 1.51D-05 at cycle   6 NSaved=   6.
 NSaved= 6 IEnMin= 6 EnMin= -113.809319780436     IErMin= 6 ErrMin= 1.51D-05
 ErrMax= 1.51D-05  0.00D+00 EMaxC= 1.00D-01 BMatC= 2.02D-08 BMatP= 7.73D-07
 IDIUse=1 WtCom= 1.00D+00 WtEn= 0.00D+00
 Coeff-Com:  0.286D-02-0.159D-03-0.361D-01-0.229D-01 0.112D-01 0.105D+01
 Coeff:      0.286D-02-0.159D-03-0.361D-01-0.229D-01 0.112D-01 0.105D+01
 Gap=     0.246 Goal=   None    Shift=    0.000
 Gap=     0.277 Goal=   None    Shift=    0.000
 RMSDP=6.88D-06 MaxDP=7.58D-05 DE=-6.33D-07 OVMax= 1.23D-04

 Initial convergence to 1.0D-05 achieved.  Increase integral accuracy.
 Cycle   7  Pass 1  IDiag  1:
 E= -113.809319044841     Delta-E=        0.000000735595 Rises=F Damp=F
 DIIS: error= 5.29D-06 at cycle   1 NSaved=   1.
 NSaved= 1 IEnMin= 1 EnMin= -113.809319044841     IErMin= 1 ErrMin= 5.29D-06
 ErrMax= 5.29D-06  0.00D+00 EMaxC= 1.00D-01 BMatC= 3.14D-09 BMatP= 3.14D-09
 IDIUse=1 WtCom= 1.00D+00 WtEn= 0.00D+00
 Coeff-Com:  0.100D+01
 Coeff:      0.100D+01
 Gap=     0.246 Goal=   None    Shift=    0.000
 Gap=     0.277 Goal=   None    Shift=    0.000
 RMSDP=6.88D-06 MaxDP=7.58D-05 DE= 7.36D-07 OVMax= 4.22D-05

 Cycle   8  Pass 1  IDiag  1:
 E= -113.809319046493     Delta-E=       -0.000000001651 Rises=F Damp=F
 DIIS: error= 2.93D-06 at cycle   2 NSaved=   2.
 NSaved= 2 IEnMin= 2 EnMin= -113.809319046493     IErMin= 2 ErrMin= 2.93D-06
 ErrMax= 2.93D-06  0.00D+00 EMaxC= 1.00D-01 BMatC= 1.08D-09 BMatP= 3.14D-09
 IDIUse=1 WtCom= 1.00D+00 WtEn= 0.00D+00
 Coeff-Com:  0.320D+00 0.680D+00
 Coeff:      0.320D+00 0.680D+00
 Gap=     0.246 Goal=   None    Shift=    0.000
 Gap=     0.277 Goal=   None    Shift=    0.000
 RMSDP=8.11D-07 MaxDP=9.13D-06 DE=-1.65D-09 OVMax= 1.38D-05

 Cycle   9  Pass 1  IDiag  1:
 E= -113.809319046917     Delta-E=       -0.000000000424 Rises=F Damp=F
 DIIS: error= 1.54D-06 at cycle   3 NSaved=   3.
 NSaved= 3 IEnMin= 3 EnMin= -113.809319046917     IErMin= 3 ErrMin= 1.54D-06
 ErrMax= 1.54D-06  0.00D+00 EMaxC= 1.00D-01 BMatC= 2.59D-10 BMatP= 1.08D-09
 IDIUse=1 WtCom= 1.00D+00 WtEn= 0.00D+00
 Coeff-Com: -0.206D-01 0.225D+00 0.795D+00
 Coeff:     -0.206D-01 0.225D+00 0.795D+00
 Gap=     0.246 Goal=   None    Shift=    0.000
 Gap=     0.277 Goal=   None    Shift=    0.000
 RMSDP=4.49D-07 MaxDP=4.31D-06 DE=-4.24D-10 OVMax= 8.08D-06

 Cycle  10  Pass 1  IDiag  1:
 E= -113.809319046975     Delta-E=       -0.000000000058 Rises=F Damp=F
 DIIS: error= 2.16D-06 at cycle   4 NSaved=   4.
 NSaved= 4 IEnMin= 4 EnMin= -113.809319046975     IErMin= 3 ErrMin= 1.54D-06
 ErrMax= 2.16D-06  0.00D+00 EMaxC= 1.00D-01 BMatC= 4.06D-10 BMatP= 2.59D-10
 IDIUse=1 WtCom= 1.00D+00 WtEn= 0.00D+00
 Coeff-Com: -0.189D+00-0.112D+00 0.759D+00 0.542D+00
 Coeff:     -0.189D+00-0.112D+00 0.759D+00 0.542D+00
 Gap=     0.246 Goal=   None    Shift=    0.000
 Gap=     0.277 Goal=   None    Shift=    0.000
 RMSDP=3.06D-07 MaxDP=2.65D-06 DE=-5.78D-11 OVMax= 5.91D-06

 Cycle  11  Pass 1  IDiag  1:
 E= -113.809319047074     Delta-E=       -0.000000000099 Rises=F Damp=F
 DIIS: error= 1.36D-07 at cycle   5 NSaved=   5.
 NSaved= 5 IEnMin= 5 EnMin= -113.809319047074     IErMin= 5 ErrMin= 1.36D-07
 ErrMax= 1.36D-07  0.00D+00 EMaxC= 1.00D-01 BMatC= 2.80D-12 BMatP= 2.59D-10
 IDIUse=1 WtCom= 1.00D+00 WtEn= 0.00D+00
 Coeff-Com: -0.403D-01-0.412D-01 0.126D+00 0.115D+00 0.841D+00
 Coeff:     -0.403D-01-0.412D-01 0.126D+00 0.115D+00 0.841D+00
 Gap=     0.246 Goal=   None    Shift=    0.000
 Gap=     0.277 Goal=   None    Shift=    0.000
 RMSDP=6.74D-08 MaxDP=6.76D-07 DE=-9.90D-11 OVMax= 1.58D-06

 Cycle  12  Pass 1  IDiag  1:
 E= -113.809319047076     Delta-E=       -0.000000000002 Rises=F Damp=F
 DIIS: error= 6.49D-08 at cycle   6 NSaved=   6.
 NSaved= 6 IEnMin= 6 EnMin= -113.809319047076     IErMin= 6 ErrMin= 6.49D-08
 ErrMax= 6.49D-08  0.00D+00 EMaxC= 1.00D-01 BMatC= 3.70D-13 BMatP= 2.80D-12
 IDIUse=1 WtCom= 1.00D+00 WtEn= 0.00D+00
 Coeff-Com:  0.237D-01 0.826D-02-0.963D-01-0.693D-01 0.382D-01 0.110D+01
 Coeff:      0.237D-01 0.826D-02-0.963D-01-0.693D-01 0.382D-01 0.110D+01
 Gap=     0.246 Goal=   None    Shift=    0.000
 Gap=     0.277 Goal=   None    Shift=    0.000
 RMSDP=3.91D-08 MaxDP=3.29D-07 DE=-2.19D-12 OVMax= 9.47D-07

 Cycle  13  Pass 1  IDiag  1:
 E= -113.809319047076     Delta-E=       -0.000000000000 Rises=F Damp=F
 DIIS: error= 2.51D-08 at cycle   7 NSaved=   7.
 NSaved= 7 IEnMin= 7 EnMin= -113.809319047076     IErMin= 7 ErrMin= 2.51D-08
 ErrMax= 2.51D-08  0.00D+00 EMaxC= 1.00D-01 BMatC= 4.74D-14 BMatP= 3.70D-13
 IDIUse=1 WtCom= 1.00D+00 WtEn= 0.00D+00
 Coeff-Com:  0.567D-02 0.305D-02-0.152D-01-0.206D-01-0.748D-01 0.501D-01
 Coeff-Com:  0.105D+01
 Coeff:      0.567D-02 0.305D-02-0.152D-01-0.206D-01-0.748D-01 0.501D-01
 Coeff:      0.105D+01
 Gap=     0.246 Goal=   None    Shift=    0.000
[...]
              Bcc     0.0029     1.523     0.543     0.508  0.3202  0.9473  0.0000
 
              Baa    -0.0674    -9.044    -3.227    -3.017  0.8112 -0.5848  0.0000
     2 C(13)  Bbb    -0.0249    -3.342    -1.193    -1.115  0.0000  0.0000  1.0000
              Bcc     0.0923    12.386     4.420     4.132  0.5848  0.8112  0.0000
 
              Baa    -0.1039     7.515     2.681     2.507 -0.3874  0.9219  0.0000
     3 O(17)  Bbb    -0.0950     6.874     2.453     2.293  0.0000  0.0000  1.0000
              Bcc     0.1988   -14.388    -5.134    -4.799  0.9219  0.3874  0.0000
 

 ---------------------------------------------------------------------------------

 No NMR shielding tensors so no spin-rotation constants.
 Leave Link  601 at Tue Oct  6 20:46:25 2020, MaxMem=  2684354560 cpu:              11.9 elap:               1.3
 (Enter /udrive/faculty/rpeverati/g16/g16/l701.exe)
 ... and contract with generalized density number  0.
 Compute integral second derivatives.
 R6Disp: Adding Grimme-D3(BJ) dispersion energy 2nd derivatives to the Hessian.
 Leave Link  701 at Tue Oct  6 20:46:26 2020, MaxMem=  2684354560 cpu:               3.9 elap:               0.8
 (Enter /udrive/faculty/rpeverati/g16/g16/l702.exe)
 L702 exits ... SP integral derivatives will be done elsewhere.
 Leave Link  702 at Tue Oct  6 20:46:27 2020, MaxMem=  2684354560 cpu:               1.3 elap:               0.5
 (Enter /udrive/faculty/rpeverati/g16/g16/l703.exe)
 Integral derivatives from FoFJK, PRISM(SPDF).
 Compute integral second derivatives, UseDBF=F ICtDFT=           0.
 Calling FoFJK, ICntrl=    100127 FMM=F ISym2X=1 I1Cent= 0 IOpClX= 1 NMat=1 NMatS=1 NMatT=0.
 FoFJK:  IHMeth= 1 ICntrl=  100127 DoSepK=F KAlg= 0 I1Cent=           0 FoldK=F
 IRaf=         0 NMat=       1 IRICut=       1 DoRegI=T DoRafI=F ISym2E= 1 IDoP0=0 IntGTp=1.
 FoFCou: FMM=F IPFlag=           0 FMFlag=      100000 FMFlg1=         800
         NFxFlg=           0 DoJE=F BraDBF=F KetDBF=F FulRan=T
         wScrn=  0.000000 ICntrl=    100127 IOpCl=  1 I1Cent=           0 NGrid=           0
         NMat0=    1 NMatS0=      1 NMatT0=    0 NMatD0=    1 NMtDS0=    0 NMtDT0=    0
 Petite list used in FoFCou.
 Leave Link  703 at Tue Oct  6 20:46:29 2020, MaxMem=  2684354560 cpu:              10.9 elap:               1.3
 (Enter /udrive/faculty/rpeverati/g16/g16/l716.exe)
 Dipole        = 8.77189061D-03-1.31821313D-02 0.00000000D+00
 Polarizability= 1.50717288D+01-3.93106581D+00 1.49566621D+01
                -5.55772785D-16 9.66563456D-16 7.91376757D+00
 Full mass-weighted force constant matrix:
 Low frequencies --- -307.4711   -2.5866    0.0014    0.0016    0.0021    5.8536
 Low frequencies ---    8.1770  225.0874 2188.7535
 ******    1 imaginary frequencies (negative Signs) ****** 
 Diagonal vibrational polarizability:
        0.4025955       0.7511399       0.0000000
 Harmonic frequencies (cm**-1), IR intensities (KM/Mole), Raman scattering
 activities (A**4/AMU), depolarization ratios for plane and unpolarized
 incident light, reduced masses (AMU), force constants (mDyne/A),
 and normal coordinates:
                      1                      2                      3
                     A'                     A'                     A'
 Frequencies --   -307.4711               225.0874              2188.7535
 Red. masses --      1.0816                 1.5952                13.3910
 Frc consts  --      0.0602                 0.0476                37.7969
 IR Inten    --      0.7565                 0.7062               100.2758
  Atom  AN      X      Y      Z        X      Y      Z        X      Y      Z
     1   1     0.90  -0.43   0.00     0.28   0.94   0.00    -0.06   0.03   0.00
     2   6    -0.08   0.02   0.00    -0.18  -0.03   0.00     0.00   0.80   0.00
     3   8     0.00   0.01   0.00     0.12  -0.03   0.00     0.00  -0.60   0.00

 -------------------
 - Thermochemistry -
 -------------------
 Temperature   298.150 Kelvin.  Pressure   1.00000 Atm.
 Atom     1 has atomic number  1 and mass   1.00783
 Atom     2 has atomic number  6 and mass  12.00000
 Atom     3 has atomic number  8 and mass  15.99491
 Molecular mass:    29.00274 amu.
 Principal axes and moments of inertia in atomic units:
                           1         2         3
     Eigenvalues --     9.49863  45.08436  54.58299
           X           -0.33419   0.94250   0.00000
           Y            0.94250   0.33419   0.00000
           Z            0.00000   0.00000   1.00000
 This molecule is an asymmetric top.
 Rotational symmetry number  1.
 Rotational temperatures (Kelvin)      9.11857     1.92115     1.58683
 Rotational constants (GHZ):         190.00019    40.03031    33.06417
    1 imaginary frequencies ignored.
 Zero-point vibrational energy      14438.0 (Joules/Mol)
                                    3.45076 (Kcal/Mol)
 Warning -- explicit consideration of   1 degrees of freedom as
           vibrations may cause significant error
 Vibrational temperatures:    323.85  3149.13
          (Kelvin)
 
 Zero-point correction=                           0.005499 (Hartree/Particle)
 Thermal correction to Energy=                    0.008854
 Thermal correction to Enthalpy=                  0.009799
 Thermal correction to Gibbs Free Energy=        -0.017342
 Sum of electronic and zero-point Energies=           -113.802982
 Sum of electronic and thermal Energies=              -113.799627
 Sum of electronic and thermal Enthalpies=            -113.798683
 Sum of electronic and thermal Free Energies=         -113.825823
 
                     E (Thermal)             CV                S
                      KCal/Mol        Cal/Mol-Kelvin    Cal/Mol-Kelvin
 Total                    5.556              7.770             57.122
 Electronic               0.000              0.000              1.377
 Translational            0.889              2.981             36.028
 Rotational               0.889              2.981             17.798
 Vibrational              3.779              1.809              1.918
 Vibration     1          0.650              1.803              1.918
                       Q            Log10(Q)             Ln(Q)
 Total Bot       0.947893D+08          7.976759         18.367167
 Total V=0       0.320762D+11         10.506183         24.191381
 Vib (Bot)       0.446066D-02         -2.350601         -5.412458
 Vib (Bot)    1  0.876893D+00         -0.057053         -0.131370
 Vib (V=0)       0.150947D+01          0.178823          0.411755
 Vib (V=0)    1  0.150943D+01          0.178812          0.411730
 Electronic      0.200000D+01          0.301030          0.693147
 Translational   0.613921D+07          6.788112         15.630206
 Rotational      0.173068D+04          3.238218          7.456272
 
                                                          TS search on BH76.
                                                             IR Spectrum
 
     2                                                                                                                               
     1                                                                                                                 2             
     8                                                                                                                 2             
     9                                                                                                                 5             
 
     X                                                                                                                 X             
     X                                                                                                                               
     X                                                                                                                               
     X                                                                                                                               
     X                                                                                                                               
     X                                                                                                                               
     X                                                                                                                               
     X                                                                                                                               
     X                                                                                                                               
     X                                                                                                                               
     X                                                                                                                               
     X                                                                                                                               
     X                                                                                                                               
     X                                                                                                                               
     X                                                                                                                               
     X                                                                                                                               
     X                                                                                                                               
     X                                                                                                                               
     X                                                                                                                               
     X                                                                                                                               
 
 ***** Axes restored to original set *****
 -------------------------------------------------------------------
 Center     Atomic                   Forces (Hartrees/Bohr)
 Number     Number              X              Y              Z
 -------------------------------------------------------------------
      1        1           0.000000444   -0.000002978   -0.000000000
      2        6           0.000003410    0.000002622   -0.000000000
      3        8          -0.000003854    0.000000356   -0.000000000
 -------------------------------------------------------------------
 Cartesian Forces:  Max     0.000003854 RMS     0.000002174
 Force constants in Cartesian coordinates: 
                1             2             3             4             5 
      1 -0.245010D-02
      2  0.170125D-02  0.336234D-03
      3  0.000000D+00  0.000000D+00  0.243321D-05
      4  0.160627D-02 -0.367428D-02  0.000000D+00  0.497413D-02
      5 -0.828673D-02  0.446014D-02  0.000000D+00  0.539199D-01  0.123673D+01
      6  0.000000D+00  0.000000D+00  0.000000D+00  0.000000D+00  0.000000D+00
      7  0.843832D-03  0.197303D-02  0.000000D+00 -0.658039D-02 -0.456332D-01
      8  0.658548D-02 -0.479637D-02  0.000000D+00 -0.502456D-01 -0.124119D+01
      9  0.000000D+00  0.000000D+00 -0.212108D-05  0.000000D+00  0.000000D+00
                6             7             8             9 
      6 -0.171602D-05
      7  0.000000D+00  0.573656D-02
      8  0.000000D+00  0.436601D-01  0.124599D+01
      9  0.202815D-05  0.000000D+00  0.000000D+00  0.000000D+00
 FormGI is forming the generalized inverse of G from B-inverse, IUseBI=4.
 Force constants in internal coordinates: 
                1             2             3 
      1 -0.324076D-02
      2  0.806751D-02  0.124752D+01
      3  0.108437D-02  0.400114D-02  0.194857D-01
 Leave Link  716 at Tue Oct  6 20:46:29 2020, MaxMem=  2684354560 cpu:               1.7 elap:               0.5
 (Enter /udrive/faculty/rpeverati/g16/g16/l103.exe)

 GradGradGradGradGradGradGradGradGradGradGradGradGradGradGradGradGradGrad
 Berny optimization.
 Optmz: redundant internal coordinate code flag= 1
 Red2BG:  D1=  4.56D-01 OD1=  4.44D-16 B2RMS=  0.00D+00 IAprox=1
 Red2BG is reusing G-inverse.
 Internal  Forces:  Max     0.000008745 RMS     0.000005165
 Search for a local minimum.
 Step number   1 out of a maximum of    2
 All quantities printed in internal units (Hartrees-Bohrs-Radians)
 Second derivative matrix not updated -- analytic derivatives used.
 The second derivative matrix:
                          R1        R2        A1
           R1          -0.00324
           R2           0.00807   1.24752
           A1           0.00108   0.00400   0.01949
 ITU=  0
 Eigenvectors of the second derivative matrix:
                           1         2         3
     Eigenvalues --    -0.00334   0.01952   1.24759
   1         R1         0.99891  -0.04633   0.00645
   2         R2        -0.00629   0.00356   0.99997
   3         A1        -0.04635  -0.99892   0.00326
 Eigenvalue     1 is  -3.34D-03 should be greater than     0.000000 Eigenvector:
                          R1        A1        R2
   1                    0.99891  -0.04635  -0.00629
 Angle between quadratic step and forces=  34.82 degrees.
 Linear search not attempted -- first point.
 Iteration  1 RMS(Cart)=  0.00047912 RMS(Int)=  0.00000006
 Iteration  2 RMS(Cart)=  0.00000005 RMS(Int)=  0.00000000
 ITry= 1 IFail=0 DXMaxC= 4.85D-04 DCOld= 1.00D+10 DXMaxT= 3.00D-01 DXLimC= 3.00D+00 Rises=F
 ClnCor:  largest displacement from symmetrization is 3.14D-15 for atom     1.
 Variable       Old X    -DE/DX   Delta X   Delta X   Delta X     New X
                                 (Linear)    (Quad)   (Total)
    R1        4.16308  -0.00000   0.00000  -0.00046  -0.00046   4.16262
    R2        2.15312  -0.00000   0.00000   0.00000   0.00000   2.15313
    A1        2.03555  -0.00001   0.00000  -0.00043  -0.00043   2.03512
         Item               Value     Threshold  Converged?
 Maximum Force            0.000009     0.000450     YES
 RMS     Force            0.000005     0.000300     YES
 Maximum Displacement     0.000485     0.001800     YES
 RMS     Displacement     0.000479     0.001200     YES
 Predicted change in Energy=-2.968648D-09
 Optimization completed.
    -- Stationary point found.
                           ----------------------------
                           !   Optimized Parameters   !
                           ! (Angstroms and Degrees)  !
 --------------------------                            --------------------------
 ! Name  Definition              Value          Derivative Info.                !
 --------------------------------------------------------------------------------
 ! R1    R(1,2)                  2.203          -DE/DX =    0.0                 !
 ! R2    R(2,3)                  1.1394         -DE/DX =    0.0                 !
 ! A1    A(1,2,3)              116.6283         -DE/DX =    0.0                 !
 --------------------------------------------------------------------------------
 GradGradGradGradGradGradGradGradGradGradGradGradGradGradGradGradGradGrad

 Leave Link  103 at Tue Oct  6 20:46:30 2020, MaxMem=  2684354560 cpu:               1.9 elap:               0.6
 (Enter /udrive/faculty/rpeverati/g16/g16/l9999.exe)

 ----------------------------------------------------------------------

 Electric dipole moment (input orientation):
 (Debye = 10**-18 statcoulomb cm , SI units = C m)
                  (au)            (Debye)         (10**-30 SI)
   Tot        0.158340D-01      0.402459D-01      0.134246D+00
   x          0.828315D-02      0.210537D-01      0.702275D-01
   y         -0.134946D-01     -0.342998D-01     -0.114412D+00
   z          0.000000D+00      0.000000D+00      0.000000D+00

 Dipole polarizability, Alpha (input orientation).
 (esu units = cm**3 , SI units = C**2 m**2 J**-1)
 Alpha(0;0):
               (au)            (10**-24 esu)      (10**-40 SI)
   iso        0.126474D+02      0.187415D+01      0.208527D+01
   aniso      0.983798D+01      0.145784D+01      0.162206D+01
   xx         0.147838D+02      0.219073D+01      0.243752D+01
   yx        -0.392473D+01     -0.581585D+00     -0.647100D+00
   yy         0.152446D+02      0.225902D+01      0.251350D+01
   zx         0.000000D+00      0.000000D+00      0.000000D+00
   zy         0.000000D+00      0.000000D+00      0.000000D+00
   zz         0.791377D+01      0.117270D+01      0.130480D+01

 ----------------------------------------------------------------------

 Dipole orientation:
     1         -1.05074584         -0.64496132         -4.16324058
     6          0.70878423          0.43506088         -0.54815180
     8         -0.30779637         -0.18892937          1.24436958

 Electric dipole moment (dipole orientation):
 (Debye = 10**-18 statcoulomb cm , SI units = C m)
                  (au)            (Debye)         (10**-30 SI)
   Tot        0.158340D-01      0.402459D-01      0.134246D+00
   x          0.000000D+00      0.000000D+00      0.000000D+00
   y          0.000000D+00      0.000000D+00      0.000000D+00
   z          0.158340D-01      0.402459D-01      0.134246D+00

 Dipole polarizability, Alpha (dipole orientation).
 (esu units = cm**3 , SI units = C**2 m**2 J**-1)
 Alpha(0;0):
               (au)            (10**-24 esu)      (10**-40 SI)
   iso        0.126474D+02      0.187415D+01      0.208527D+01
   aniso      0.983798D+01      0.145784D+01      0.162206D+01
   xx         0.104535D+02      0.154904D+01      0.172354D+01
   yx         0.155889D+01      0.231004D+00      0.257026D+00
   yy         0.887063D+01      0.131449D+01      0.146257D+01
   zx         0.133906D+01      0.198428D+00      0.220781D+00
   zy         0.821931D+00      0.121798D+00      0.135518D+00
   zz         0.186181D+02      0.275891D+01      0.306971D+01

 ----------------------------------------------------------------------

 Test job not archived.
 1\1\GINC-NODE53\Freq\UB3LYP\6-31G(d)\C1H1O1(2)\RPEVERATI\06-Oct-2020\0
 \\#P Freq B3LYP/6-31G* 5D 7F Integral=UltraFineGrid SCF=(NoSymm,XQC,Ma
 xCyc=120) IOp(1/33=1) EmpiricalDispersion=GD3BJ Geom=Check Guess=Read\
 \TS search on BH76.\\0,2\H,-1.7085243667,1.5362988339,0.\C,0.223329739
 6,0.4774376269,0.\O,0.1815951439,-0.6611806771,0.\\Version=ES64L-G16Re
 vA.03\State=2-A'\HF=-113.8084813\S2=0.753442\S2-1=0.\S2A=0.75\RMSD=7.4
 08e-10\RMSF=2.174e-06\ZeroPoint=0.0054991\Thermal=0.0088544\Dipole=0.0
 082832,-0.0134946,0.\DipoleDeriv=0.0207236,0.010066,0.,0.007888,-0.017
 5727,0.,0.,0.,-0.0023569,-0.0662936,0.0361549,0.,-0.1893801,0.82586,0.
 ,0.,0.,-0.0017169,0.04557,-0.046221,0.,0.1814922,-0.8082873,0.,0.,0.,0
 .0040738\Polar=14.7837847,-3.9247292,15.2446062,0.,0.,7.9137676\Quadru
 pole=0.4220411,-0.9602185,0.5381774,-0.0307834,0.,0.\PG=CS [SG(C1H1O1)
 ]\NImag=1\\-0.00245010,0.00170125,0.00033623,0.,0.,0.00000243,0.001606
 27,-0.00367428,0.,0.00497413,-0.00828673,0.00446014,0.,0.05391988,1.23
 673143,0.,0.,-0.00000031,0.,0.,-0.00000172,0.00084383,0.00197303,0.,-0
 .00658039,-0.04563315,0.,0.00573656,0.00658548,-0.00479637,0.,-0.05024
 560,-1.24119157,0.,0.04366012,1.24598794,0.,0.,-0.00000212,0.,0.,0.000
 00203,0.,0.,0.00000009\\-0.00000044,0.00000298,0.,-0.00000341,-0.00000
 262,0.,0.00000385,-0.00000036,0.\\\@


 MAN IS A SINGULAR CREATURE.  HE HAS A SET OF GIFTS
 WHICH MAKE HIM UNIQUE AMONG THE ANIMALS: SO THAT, 
 UNLIKE THEM, HE IS NOT A FIGURE IN THE LANDSCAPE --
 HE IS A SHAPER OF THE LANDSCAPE.

                       -- JACOB BRONOWSKI
 Job cpu time:       0 days  0 hours  1 minutes 50.9 seconds.
 Elapsed time:       0 days  0 hours  0 minutes 17.9 seconds.
 File lengths (MBytes):  RWF=      5 Int=      0 D2E=      0 Chk=      1 Scr=      1
 Normal termination of Gaussian 16 at Tue Oct  6 20:46:32 2020.
