 Entering Gaussian System, Link 0=g16
 Input=MN_63_hoch3fts_BH76_B3LYP_631Gs.in
 Output=MN_63_hoch3fts_BH76_B3LYP_631Gs.log
 Initial command:
 /udrive/faculty/rpeverati/g16/g16/l1.exe "/udrive/scratch-directories/gaussian09/rpeverati/Gau-28995.inp" -scrdir="/udrive/scratch-directories/gaussian09/rpeverati/"
 Entering Link 1 = /udrive/faculty/rpeverati/g16/g16/l1.exe PID=     28996.
  
 Copyright (c) 1988,1990,1992,1993,1995,1998,2003,2009,2016,
            Gaussian, Inc.  All Rights Reserved.
  
 This is part of the Gaussian(R) 16 program.  It is based on
 the Gaussian(R) 09 system (copyright 2009, Gaussian, Inc.),
 the Gaussian(R) 03 system (copyright 2003, Gaussian, Inc.),
 the Gaussian(R) 98 system (copyright 1998, Gaussian, Inc.),
 the Gaussian(R) 94 system (copyright 1995, Gaussian, Inc.),
 the Gaussian 92(TM) system (copyright 1992, Gaussian, Inc.),
 the Gaussian 90(TM) system (copyright 1990, Gaussian, Inc.),
 the Gaussian 88(TM) system (copyright 1988, Gaussian, Inc.),
 the Gaussian 86(TM) system (copyright 1986, Carnegie Mellon
 University), and the Gaussian 82(TM) system (copyright 1983,
 Carnegie Mellon University). Gaussian is a federally registered
 trademark of Gaussian, Inc.
  
 This software contains proprietary and confidential information,
 including trade secrets, belonging to Gaussian, Inc.
  
 This software is provided under written license and may be
 used, copied, transmitted, or stored only in accord with that
 written license.
  
 The following legend is applicable only to US Government
 contracts under FAR:
  
                    RESTRICTED RIGHTS LEGEND
  
 Use, reproduction and disclosure by the US Government is
 subject to restrictions as set forth in subparagraphs (a)
 and (c) of the Commercial Computer Software - Restricted
 Rights clause in FAR 52.227-19.
  
 Gaussian, Inc.
 340 Quinnipiac St., Bldg. 40, Wallingford CT 06492
  
  
 ---------------------------------------------------------------
 Warning -- This program may not be used in any manner that
 competes with the business of Gaussian, Inc. or will provide
 assistance to any competitor of Gaussian, Inc.  The licensee
 of this program is prohibited from giving any competitor of
 Gaussian, Inc. access to this program.  By using this program,
 the user acknowledges that Gaussian, Inc. is engaged in the
 business of creating and licensing software in the field of
 computational chemistry and represents and warrants to the
 licensee that it is not a competitor of Gaussian, Inc. and that
 it will not use this program in any manner prohibited above.
 ---------------------------------------------------------------
  

 Cite this work as:
 Gaussian 16, Revision A.03,
 M. J. Frisch, G. W. Trucks, H. B. Schlegel, G. E. Scuseria, 
 M. A. Robb, J. R. Cheeseman, G. Scalmani, V. Barone, 
 G. A. Petersson, H. Nakatsuji, X. Li, M. Caricato, A. V. Marenich, 
 J. Bloino, B. G. Janesko, R. Gomperts, B. Mennucci, H. P. Hratchian, 
 J. V. Ortiz, A. F. Izmaylov, J. L. Sonnenberg, D. Williams-Young, 
 F. Ding, F. Lipparini, F. Egidi, J. Goings, B. Peng, A. Petrone, 
 T. Henderson, D. Ranasinghe, V. G. Zakrzewski, J. Gao, N. Rega, 
 G. Zheng, W. Liang, M. Hada, M. Ehara, K. Toyota, R. Fukuda, 
 J. Hasegawa, M. Ishida, T. Nakajima, Y. Honda, O. Kitao, H. Nakai, 
 T. Vreven, K. Throssell, J. A. Montgomery, Jr., J. E. Peralta, 
 F. Ogliaro, M. J. Bearpark, J. J. Heyd, E. N. Brothers, K. N. Kudin, 
 V. N. Staroverov, T. A. Keith, R. Kobayashi, J. Normand, 
 K. Raghavachari, A. P. Rendell, J. C. Burant, S. S. Iyengar, 
 J. Tomasi, M. Cossi, J. M. Millam, M. Klene, C. Adamo, R. Cammi, 
 J. W. Ochterski, R. L. Martin, K. Morokuma, O. Farkas, 
 J. B. Foresman, and D. J. Fox, Gaussian, Inc., Wallingford CT, 2016.
 
 ******************************************
 Gaussian 16:  ES64L-G16RevA.03 25-Dec-2016
                 6-Oct-2020 
 ******************************************
 %NoSave
 %nproc=12
 Will use up to   12 processors via shared memory.
 %mem=20GB
 %chk=MN_63_hoch3fts_BH76_B3LYP_631Gs
 ----------------------------------------------------------------------
 #P Opt(TS,MaxCyc=50,NoEigenTest,MaxStep=10,CalcFC) B3LYP/6-31G* 5D 7F 
 Integral=UltraFineGrid SCF=(NoSymm,XQC,MaxCyc=120) IOp(1/33=1) Empiric
 alDispersion=GD3BJ
 ----------------------------------------------------------------------
 1/5=1,6=50,8=10,10=4,11=1,18=20,26=4,33=1,38=1/1,3;
 2/9=110,12=2,17=6,18=5,40=1/2;
 3/5=1,6=6,7=1,8=11,11=2,25=1,30=1,71=2,74=-5,75=-5,124=41,140=1/1,2,3;
 4/9=2/1;
 5/5=2,7=120,8=3,13=1,38=5/2,8;
 8/6=4,10=90,11=11/1;
 11/6=1,8=1,9=11,15=111,16=1/1,2,10;
 10/6=1,13=1/2;
 6/7=2,8=2,9=2,10=2,28=1/1;
 7/10=1,18=20,25=1/1,2,3,16;
 1/5=1,6=50,8=10,10=4,11=1,18=20,26=4,33=1/3(2);
 2/9=110/2;
 99//99;
 2/9=110/2;
 3/5=1,6=6,7=1,8=11,11=2,25=1,30=1,71=1,74=-5,75=-5,124=41/1,2,3;
 4/5=5,9=2,16=3,69=1/1;
 5/5=2,7=120,8=3,13=1,38=5/2,8;
 7//1,2,3,16;
 1/5=1,6=50,8=10,11=1,18=20,26=4,33=1/3(-5);
 2/9=110/2;
 6/7=2,8=2,9=2,10=2,19=2,28=1/1;
 99/9=1/99;
 Leave Link    1 at Tue Oct  6 20:44:48 2020, MaxMem=  2684354560 cpu:               8.1 elap:               0.8
 (Enter /udrive/faculty/rpeverati/g16/g16/l101.exe)
 ONIOM data not found on unit 2.
 ------------------
 TS search on BH76.
 ------------------
 TstMul:  ICh=    -1
 TstMul:  Mul=     1
 TstMul:  ICh=    -1
 TstMul:  Mul=     1
 Symbolic Z-matrix:
 Charge = -1 Multiplicity = 1
 F                     1.85062  -0.01318  -0.00013 
 C                     0.09086   0.01059   0.00027 
 H                     0.04091   1.07955  -0.01175 
 H                     0.03716  -0.52801  -0.92294 
 H                     0.03749  -0.50746   0.93513 
 O                    -1.8928    0.10327  -0.00012 
 H                    -2.17382  -0.81511   0.00004 
 
 RdStrC is calling ZToCFu for IStruc=1 NZ=     7.
 PrtBox:  NBox=     1 Levels=  1 BoxLen=    8.00 SMaxX=        7.61
          Shift=            4.107930            1.540340            1.744110
 Box      1 Number                   0 centers from      1 to      7:
 After GenITR:
 ITRead=  0  0  0  0  0  0  0
 MicOpt= -1 -1 -1 -1 -1 -1 -1
 Add virtual bond connecting atoms C2         and F1         Dist= 3.33D+00.
 Add virtual bond connecting atoms O6         and C2         Dist= 3.75D+00.
 ITRead=  0  0  0  0  0  0  0
 MicOpt= -1 -1 -1 -1 -1 -1 -1
 NAtoms=      7 NQM=        7 NQMF=       0 NMMI=      0 NMMIF=      0
                NMic=       0 NMicF=      0.
                    Isotopes and Nuclear Properties:
 (Nuclear quadrupole moments (NQMom) in fm**2, nuclear magnetic moments (NMagM)
  in nuclear magnetons)

  Atom         1           2           3           4           5           6           7
 IAtWgt=          19          12           1           1           1          16           1
 AtmWgt=  18.9984033  12.0000000   1.0078250   1.0078250   1.0078250  15.9949146   1.0078250
 NucSpn=           1           0           1           1           1           0           1
 AtZEff=   0.0000000   0.0000000   0.0000000   0.0000000   0.0000000   0.0000000   0.0000000
 NQMom=    0.0000000   0.0000000   0.0000000   0.0000000   0.0000000   0.0000000   0.0000000
 NMagM=    2.6288670   0.0000000   2.7928460   2.7928460   2.7928460   0.0000000   2.7928460
 AtZNuc=   9.0000000   6.0000000   1.0000000   1.0000000   1.0000000   8.0000000   1.0000000
 No MM parameters found.
 Leave Link  101 at Tue Oct  6 20:44:50 2020, MaxMem=  2684354560 cpu:              14.0 elap:               1.3
 (Enter /udrive/faculty/rpeverati/g16/g16/l103.exe)

 GradGradGradGradGradGradGradGradGradGradGradGradGradGradGradGradGradGrad
 Berny optimization.
 Optmz: redundant internal coordinate code flag= 1
 Initialization pass.
                           ----------------------------
                           !    Initial Parameters    !
                           ! (Angstroms and Degrees)  !
 --------------------------                            --------------------------
 ! Name  Definition              Value          Derivative Info.                !
 --------------------------------------------------------------------------------
 ! R1    R(1,2)                  1.7599         calculate D2E/DX2 analytically  !
 ! R2    R(2,3)                  1.0702         calculate D2E/DX2 analytically  !
 ! R3    R(2,4)                  1.0702         calculate D2E/DX2 analytically  !
 ! R4    R(2,5)                  1.0701         calculate D2E/DX2 analytically  !
 ! R5    R(2,6)                  1.9858         calculate D2E/DX2 analytically  !
 ! R6    R(6,7)                  0.9604         calculate D2E/DX2 analytically  !
 ! A1    A(1,2,3)               93.4487         calculate D2E/DX2 analytically  !
 ! A2    A(1,2,4)               92.4747         calculate D2E/DX2 analytically  !
 ! A3    A(1,2,5)               92.4948         calculate D2E/DX2 analytically  !
 ! A4    A(3,2,4)              119.3845         calculate D2E/DX2 analytically  !
 ! A5    A(3,2,5)              119.4077         calculate D2E/DX2 analytically  !
 ! A6    A(3,2,6)               84.6498         calculate D2E/DX2 analytically  !
 ! A7    A(4,2,5)              120.4962         calculate D2E/DX2 analytically  !
 ! A8    A(4,2,6)               88.4644         calculate D2E/DX2 analytically  !
 ! A9    A(5,2,6)               88.4497         calculate D2E/DX2 analytically  !
 ! A10   A(2,6,7)              104.3388         calculate D2E/DX2 analytically  !
 ! A11   L(1,2,6,3,-1)         178.0985         calculate D2E/DX2 analytically  !
 ! A12   L(1,2,6,3,-2)         179.9973         calculate D2E/DX2 analytically  !
 ! D1    D(3,2,6,7)            179.3673         calculate D2E/DX2 analytically  !
 ! D2    D(4,2,6,7)             59.6644         calculate D2E/DX2 analytically  !
 ! D3    D(5,2,6,7)            -60.9046         calculate D2E/DX2 analytically  !
 --------------------------------------------------------------------------------
 Maximum allowed force set to 1.00D+20.
 Trust Radius=1.00D-01 FncErr=1.00D-07 GrdErr=1.00D-06 EigMax=2.50D+02 EigMin=1.00D-04
 Number of steps in this run=     50 maximum allowed number of steps=    100.
 Search for a saddle point of order  1.
 GradGradGradGradGradGradGradGradGradGradGradGradGradGradGradGradGradGrad

 Leave Link  103 at Tue Oct  6 20:44:51 2020, MaxMem=  2684354560 cpu:               1.2 elap:               0.5
 (Enter /udrive/faculty/rpeverati/g16/g16/l202.exe)
                          Input orientation:                          
 ---------------------------------------------------------------------
 Center     Atomic      Atomic             Coordinates (Angstroms)
 Number     Number       Type             X           Y           Z
 ---------------------------------------------------------------------
      1          9           0        1.850617   -0.013179   -0.000128
      2          6           0        0.090857    0.010586    0.000269
      3          1           0        0.040907    1.079548   -0.011749
      4          1           0        0.037163   -0.528013   -0.922943
      5          1           0        0.037486   -0.507463    0.935130
      6          8           0       -1.892803    0.103266   -0.000118
      7          1           0       -2.173823   -0.815113    0.000039
 ---------------------------------------------------------------------
                    Distance matrix (angstroms):
                    1          2          3          4          5
     1  F    0.000000
     2  C    1.759921   0.000000
     3  H    2.114057   1.070196   0.000000
     4  H    2.098871   1.070184   1.847848   0.000000
     5  H    2.099159   1.070135   1.848025   1.858187   0.000000
     6  O    3.745231   1.985824   2.166217   2.230446   2.230179
     7  H    4.103562   2.410509   2.914602   2.413044   2.420523
                    6          7
     6  O    0.000000
     7  H    0.960413   0.000000
 Stoichiometry    CH4FO(1-)
 Framework group  C1[X(CH4FO)]
 Deg. of freedom    15
 Full point group                 C1      NOp   1
 Largest Abelian subgroup         C1      NOp   1
 Largest concise Abelian subgroup C1      NOp   1
                         Standard orientation:                         
 ---------------------------------------------------------------------
 Center     Atomic      Atomic             Coordinates (Angstroms)
 Number     Number       Type             X           Y           Z
 ---------------------------------------------------------------------
      1          9           0        1.850617   -0.013179   -0.000128
      2          6           0        0.090857    0.010586    0.000269
      3          1           0        0.040907    1.079548   -0.011749
      4          1           0        0.037163   -0.528013   -0.922943
      5          1           0        0.037486   -0.507463    0.935130
      6          8           0       -1.892804    0.103266   -0.000118
      7          1           0       -2.173823   -0.815113    0.000039
 ---------------------------------------------------------------------
 Rotational constants (GHZ):         118.5941215           3.9266217           3.9029222
 Leave Link  202 at Tue Oct  6 20:44:51 2020, MaxMem=  2684354560 cpu:               1.0 elap:               0.4
 (Enter /udrive/faculty/rpeverati/g16/g16/l301.exe)
 Standard basis: 6-31G(d) (5D, 7F)
 Ernie: Thresh=  0.10000D-02 Tol=  0.10000D-05 Strict=F.
 There are    53 symmetry adapted cartesian basis functions of A   symmetry.
 There are    50 symmetry adapted basis functions of A   symmetry.
    50 basis functions,   100 primitive gaussians,    53 cartesian basis functions
    14 alpha electrons       14 beta electrons
       nuclear repulsion energy        69.0054978827 Hartrees.
 IExCor=  402 DFT=T Ex+Corr=B3LYP ExCW=0 ScaHFX=  0.200000
 ScaDFX=  0.800000  0.720000  1.000000  0.810000 ScalE2=  1.000000  1.000000
 IRadAn=      5 IRanWt=     -1 IRanGd=            0 ICorTp=0 IEmpDi=141
 NAtoms=    7 NActive=    7 NUniq=    7 SFac= 1.00D+00 NAtFMM=   60 NAOKFM=F Big=F
 Integral buffers will be    131072 words long.
 Raffenetti 2 integral format.
 Two-electron integral symmetry is turned on.
 R6Disp:  Grimme-D3(BJ) Dispersion energy=       -0.0041994377 Hartrees.
 Nuclear repulsion after empirical dispersion term =       69.0012984450 Hartrees.
 Leave Link  301 at Tue Oct  6 20:44:52 2020, MaxMem=  2684354560 cpu:               1.7 elap:               0.5
 (Enter /udrive/faculty/rpeverati/g16/g16/l302.exe)
 NPDir=0 NMtPBC=     1 NCelOv=     1 NCel=       1 NClECP=     1 NCelD=      1
         NCelK=      1 NCelE2=     1 NClLst=     1 CellRange=     0.0.
 One-electron integrals computed using PRISM.
 One-electron integral symmetry used in STVInt
 NBasis=    50 RedAO= T EigKep=  1.72D-02  NBF=    50
 NBsUse=    50 1.00D-06 EigRej= -1.00D+00 NBFU=    50
 Precomputing XC quadrature grid using
 IXCGrd= 4 IRadAn=           5 IRanWt=          -1 IRanGd=           0 AccXCQ= 0.00D+00.
 Generated NRdTot=       0 NPtTot=           0 NUsed=           0 NTot=          32
 NSgBfM=    53    53    53    53    53 MxSgAt=     7 MxSgA2=     7.
 Leave Link  302 at Tue Oct  6 20:44:53 2020, MaxMem=  2684354560 cpu:               3.6 elap:               0.6
 (Enter /udrive/faculty/rpeverati/g16/g16/l303.exe)
 DipDrv:  MaxL=1.
 Leave Link  303 at Tue Oct  6 20:44:54 2020, MaxMem=  2684354560 cpu:               1.9 elap:               0.4
 (Enter /udrive/faculty/rpeverati/g16/g16/l401.exe)
 SCF N**3 symmetry information disabled.
 ExpMin= 1.61D-01 ExpMax= 7.00D+03 ExpMxC= 1.05D+03 IAcc=3 IRadAn=         5 AccDes= 0.00D+00
 Harris functional with IExCor=  402 and IRadAn=       5 diagonalized for initial guess.
 HarFok:  IExCor=  402 AccDes= 0.00D+00 IRadAn=         5 IDoV= 1 UseB2=F ITyADJ=14
 ICtDFT=  3500011 ScaDFX=  1.000000  1.000000  1.000000  1.000000
 FoFCou: FMM=F IPFlag=           0 FMFlag=      100000 FMFlg1=           0
         NFxFlg=           0 DoJE=T BraDBF=F KetDBF=T FulRan=T
         wScrn=  0.000000 ICntrl=       500 IOpCl=  0 I1Cent=   200000004 NGrid=           0
         NMat0=    1 NMatS0=      1 NMatT0=    0 NMatD0=    1 NMtDS0=    0 NMtDT0=    0
 Petite list used in FoFCou.
 Harris En= -215.746282364317    
 JPrj=0 DoOrth=F DoCkMO=F.
 Leave Link  401 at Tue Oct  6 20:44:55 2020, MaxMem=  2684354560 cpu:               5.9 elap:               0.8
 (Enter /udrive/faculty/rpeverati/g16/g16/l502.exe)
 Keep R1 ints in memory in canonical form, NReq=11319963.
 FoFCou: FMM=F IPFlag=           0 FMFlag=           0 FMFlg1=           0
         NFxFlg=           0 DoJE=F BraDBF=F KetDBF=F FulRan=T
         wScrn=  0.000000 ICntrl=       600 IOpCl=  0 I1Cent=           0 NGrid=           0
         NMat0=    1 NMatS0=   1275 NMatT0=    0 NMatD0=    1 NMtDS0=    0 NMtDT0=    0
 Symmetry not used in FoFCou.
 Two-electron integral symmetry not used.
 Closed shell SCF:
 Using DIIS extrapolation, IDIIS=  1040.
 NGot=  2684354560 LenX=  2683534065 LenY=  2683530815
 Requested convergence on RMS density matrix=1.00D-08 within 120 cycles.
 Requested convergence on MAX density matrix=1.00D-06.
 Requested convergence on             energy=1.00D-06.
 No special actions if energy rises.
 Integral accuracy reduced to 1.0D-05 until final iterations.

 Cycle   1  Pass 0  IDiag  1:
 E= -215.285131902256    
 DIIS: error= 8.10D-02 at cycle   1 NSaved=   1.
 NSaved= 1 IEnMin= 1 EnMin= -215.285131902256     IErMin= 1 ErrMin= 8.10D-02
 ErrMax= 8.10D-02  0.00D+00 EMaxC= 1.00D-01 BMatC= 2.50D-01 BMatP= 2.50D-01
 IDIUse=3 WtCom= 1.90D-01 WtEn= 8.10D-01
 Coeff-Com:  0.100D+01
 Coeff-En:   0.100D+01
 Coeff:      0.100D+01
 Gap=     0.168 Goal=   None    Shift=    0.000
 GapD=    0.168 DampG=1.000 DampE=0.500 DampFc=0.5000 IDamp=-1.
 Damping current iteration by 5.00D-01
 RMSDP=2.29D-02 MaxDP=2.94D-01              OVMax= 3.10D-01

 Cycle   2  Pass 0  IDiag  1:
 E= -215.339408275723     Delta-E=       -0.054276373467 Rises=F Damp=T
 DIIS: error= 1.76D-02 at cycle   2 NSaved=   2.
 NSaved= 2 IEnMin= 2 EnMin= -215.339408275723     IErMin= 2 ErrMin= 1.76D-02
 ErrMax= 1.76D-02  0.00D+00 EMaxC= 1.00D-01 BMatC= 2.43D-02 BMatP= 2.50D-01
 IDIUse=3 WtCom= 8.24D-01 WtEn= 1.76D-01
 Coeff-Com:  0.203D+00 0.797D+00
 Coeff-En:   0.346D+00 0.654D+00
 Coeff:      0.228D+00 0.772D+00
 Gap=     0.293 Goal=   None    Shift=    0.000
 RMSDP=6.37D-03 MaxDP=7.21D-02 DE=-5.43D-02 OVMax= 2.45D-01

 Cycle   3  Pass 0  IDiag  1:
 E= -215.464399423118     Delta-E=       -0.124991147395 Rises=F Damp=F
 DIIS: error= 1.78D-02 at cycle   3 NSaved=   3.
 NSaved= 3 IEnMin= 3 EnMin= -215.464399423118     IErMin= 2 ErrMin= 1.76D-02
 ErrMax= 1.78D-02  0.00D+00 EMaxC= 1.00D-01 BMatC= 1.71D-02 BMatP= 2.43D-02
 IDIUse=3 WtCom= 8.22D-01 WtEn= 1.78D-01
 Coeff-Com:  0.104D+00 0.484D+00 0.412D+00
 Coeff-En:   0.000D+00 0.000D+00 0.100D+01
 Coeff:      0.857D-01 0.397D+00 0.517D+00
 Gap=     0.279 Goal=   None    Shift=    0.000
 RMSDP=2.84D-03 MaxDP=3.37D-02 DE=-1.25D-01 OVMax= 7.91D-02

 Cycle   4  Pass 0  IDiag  1:
 E= -215.478192250921     Delta-E=       -0.013792827803 Rises=F Damp=F
 DIIS: error= 7.82D-03 at cycle   4 NSaved=   4.
 NSaved= 4 IEnMin= 4 EnMin= -215.478192250921     IErMin= 4 ErrMin= 7.82D-03
 ErrMax= 7.82D-03  0.00D+00 EMaxC= 1.00D-01 BMatC= 2.46D-03 BMatP= 1.71D-02
 IDIUse=3 WtCom= 9.22D-01 WtEn= 7.82D-02
 Coeff-Com:  0.203D-01 0.664D-01 0.279D+00 0.634D+00
 Coeff-En:   0.000D+00 0.000D+00 0.102D+00 0.898D+00
 Coeff:      0.187D-01 0.613D-01 0.266D+00 0.654D+00
 Gap=     0.268 Goal=   None    Shift=    0.000
 RMSDP=8.45D-04 MaxDP=1.15D-02 DE=-1.38D-02 OVMax= 2.41D-02

 Cycle   5  Pass 0  IDiag  1:
 E= -215.479842220833     Delta-E=       -0.001649969912 Rises=F Damp=F
 DIIS: error= 2.46D-03 at cycle   5 NSaved=   5.
 NSaved= 5 IEnMin= 5 EnMin= -215.479842220833     IErMin= 5 ErrMin= 2.46D-03
 ErrMax= 2.46D-03  0.00D+00 EMaxC= 1.00D-01 BMatC= 2.77D-04 BMatP= 2.46D-03
 IDIUse=3 WtCom= 9.75D-01 WtEn= 2.46D-02
 Coeff-Com:  0.393D-02-0.401D-02 0.130D+00 0.424D+00 0.446D+00
 Coeff-En:   0.000D+00 0.000D+00 0.000D+00 0.410D-01 0.959D+00
 Coeff:      0.383D-02-0.391D-02 0.126D+00 0.415D+00 0.459D+00
 Gap=     0.267 Goal=   None    Shift=    0.000
 RMSDP=2.55D-04 MaxDP=3.99D-03 DE=-1.65D-03 OVMax= 5.03D-03

 Cycle   6  Pass 0  IDiag  1:
 E= -215.480055563293     Delta-E=       -0.000213342460 Rises=F Damp=F
 DIIS: error= 3.43D-04 at cycle   6 NSaved=   6.
 NSaved= 6 IEnMin= 6 EnMin= -215.480055563293     IErMin= 6 ErrMin= 3.43D-04
 ErrMax= 3.43D-04  0.00D+00 EMaxC= 1.00D-01 BMatC= 4.77D-06 BMatP= 2.77D-04
 IDIUse=3 WtCom= 9.97D-01 WtEn= 3.43D-03
 Coeff-Com:  0.872D-03-0.464D-02 0.153D-01 0.423D-01 0.121D+00 0.825D+00
 Coeff-En:   0.000D+00 0.000D+00 0.000D+00 0.000D+00 0.000D+00 0.100D+01
 Coeff:      0.869D-03-0.462D-02 0.152D-01 0.422D-01 0.120D+00 0.826D+00
 Gap=     0.267 Goal=   None    Shift=    0.000
 RMSDP=3.27D-05 MaxDP=3.62D-04 DE=-2.13D-04 OVMax= 8.46D-04

 Cycle   7  Pass 0  IDiag  1:
 E= -215.480059369816     Delta-E=       -0.000003806524 Rises=F Damp=F
 DIIS: error= 2.60D-05 at cycle   7 NSaved=   7.
 NSaved= 7 IEnMin= 7 EnMin= -215.480059369816     IErMin= 7 ErrMin= 2.60D-05
 ErrMax= 2.60D-05  0.00D+00 EMaxC= 1.00D-01 BMatC= 3.56D-08 BMatP= 4.77D-06
 IDIUse=1 WtCom= 1.00D+00 WtEn= 0.00D+00
 Coeff-Com:  0.268D-03-0.864D-03 0.142D-02 0.182D-02 0.164D-01 0.129D+00
 Coeff-Com:  0.852D+00
 Coeff:      0.268D-03-0.864D-03 0.142D-02 0.182D-02 0.164D-01 0.129D+00
 Coeff:      0.852D+00
 Gap=     0.267 Goal=   None    Shift=    0.000
 RMSDP=3.78D-06 MaxDP=4.48D-05 DE=-3.81D-06 OVMax= 1.06D-04

 Initial convergence to 1.0D-05 achieved.  Increase integral accuracy.
 Cycle   8  Pass 1  IDiag  1:
 E= -215.480058577337     Delta-E=        0.000000792479 Rises=F Damp=F
 DIIS: error= 2.03D-06 at cycle   1 NSaved=   1.
 NSaved= 1 IEnMin= 1 EnMin= -215.480058577337     IErMin= 1 ErrMin= 2.03D-06
 ErrMax= 2.03D-06  0.00D+00 EMaxC= 1.00D-01 BMatC= 2.57D-10 BMatP= 2.57D-10
 IDIUse=1 WtCom= 1.00D+00 WtEn= 0.00D+00
 Coeff-Com:  0.100D+01
 Coeff:      0.100D+01
 Gap=     0.267 Goal=   None    Shift=    0.000
 RMSDP=3.78D-06 MaxDP=4.48D-05 DE= 7.92D-07 OVMax= 7.92D-06

 Cycle   9  Pass 1  IDiag  1:
 E= -215.480058577422     Delta-E=       -0.000000000086 Rises=F Damp=F
 DIIS: error= 2.35D-06 at cycle   2 NSaved=   2.
 NSaved= 2 IEnMin= 2 EnMin= -215.480058577422     IErMin= 1 ErrMin= 2.03D-06
 ErrMax= 2.35D-06  0.00D+00 EMaxC= 1.00D-01 BMatC= 2.04D-10 BMatP= 2.57D-10
 IDIUse=1 WtCom= 1.00D+00 WtEn= 0.00D+00
 Coeff-Com:  0.469D+00 0.531D+00
 Coeff:      0.469D+00 0.531D+00
 Gap=     0.267 Goal=   None    Shift=    0.000
 RMSDP=2.75D-07 MaxDP=2.83D-06 DE=-8.55D-11 OVMax= 4.89D-06

 Cycle  10  Pass 1  IDiag  1:
 E= -215.480058577579     Delta-E=       -0.000000000157 Rises=F Damp=F
 DIIS: error= 6.20D-07 at cycle   3 NSaved=   3.
 NSaved= 3 IEnMin= 3 EnMin= -215.480058577579     IErMin= 3 ErrMin= 6.20D-07
 ErrMax= 6.20D-07  0.00D+00 EMaxC= 1.00D-01 BMatC= 1.01D-11 BMatP= 2.04D-10
 IDIUse=1 WtCom= 1.00D+00 WtEn= 0.00D+00
 Coeff-Com:  0.136D+00 0.229D+00 0.635D+00
 Coeff:      0.136D+00 0.229D+00 0.635D+00
 Gap=     0.267 Goal=   None    Shift=    0.000
 RMSDP=5.54D-08 MaxDP=9.65D-07 DE=-1.57D-10 OVMax= 1.08D-06

 Cycle  11  Pass 1  IDiag  1:
 E= -215.480058577584     Delta-E=       -0.000000000005 Rises=F Damp=F
 DIIS: error= 2.35D-07 at cycle   4 NSaved=   4.
 NSaved= 4 IEnMin= 4 EnMin= -215.480058577584     IErMin= 4 ErrMin= 2.35D-07
 ErrMax= 2.35D-07  0.00D+00 EMaxC= 1.00D-01 BMatC= 2.57D-12 BMatP= 1.01D-11
 IDIUse=1 WtCom= 1.00D+00 WtEn= 0.00D+00
 Coeff-Com:  0.278D-01 0.793D-01 0.383D+00 0.509D+00
 Coeff:      0.278D-01 0.793D-01 0.383D+00 0.509D+00
 Gap=     0.267 Goal=   None    Shift=    0.000
 RMSDP=2.86D-08 MaxDP=3.60D-07 DE=-4.60D-12 OVMax= 7.13D-07

 Cycle  12  Pass 1  IDiag  1:
 E= -215.480058577586     Delta-E=       -0.000000000002 Rises=F Damp=F
 DIIS: error= 6.43D-08 at cycle   5 NSaved=   5.
 NSaved= 5 IEnMin= 5 EnMin= -215.480058577586     IErMin= 5 ErrMin= 6.43D-08
 ErrMax= 6.43D-08  0.00D+00 EMaxC= 1.00D-01 BMatC= 2.00D-13 BMatP= 2.57D-12
 IDIUse=1 WtCom= 1.00D+00 WtEn= 0.00D+00
 Coeff-Com: -0.611D-02 0.613D-02 0.894D-01 0.269D+00 0.642D+00
 Coeff:     -0.611D-02 0.613D-02 0.894D-01 0.269D+00 0.642D+00
 Gap=     0.267 Goal=   None    Shift=    0.000
 RMSDP=8.82D-09 MaxDP=1.32D-07 DE=-2.27D-12 OVMax= 2.42D-07

 SCF Done:  E(RB3LYP) =  -215.480058578     A.U. after   12 cycles
            NFock= 12  Conv=0.88D-08     -V/T= 2.0043
 KE= 2.145676603112D+02 PE=-6.569189165753D+02 EE= 1.578698992414D+02
 Leave Link  502 at Tue Oct  6 20:44:58 2020, MaxMem=  2684354560 cpu:              26.1 elap:               2.7
 (Enter /udrive/faculty/rpeverati/g16/g16/l508.exe)
 QCSCF skips out because SCF is already converged.
 Leave Link  508 at Tue Oct  6 20:44:58 2020, MaxMem=  2684354560 cpu:               0.3 elap:               0.3
 (Enter /udrive/faculty/rpeverati/g16/g16/l801.exe)
 DoSCS=F DFT=T ScalE2(SS,OS)=  1.000000  1.000000
 Range of M.O.s used for correlation:     1    50
 NBasis=    50 NAE=    14 NBE=    14 NFC=     0 NFV=     0
 NROrb=     50 NOA=    14 NOB=    14 NVA=    36 NVB=    36
 Leave Link  801 at Tue Oct  6 20:44:59 2020, MaxMem=  2684354560 cpu:               1.8 elap:               0.5
 (Enter /udrive/faculty/rpeverati/g16/g16/l1101.exe)
 Using compressed storage, NAtomX=     7.
 Will process      8 centers per pass.
 R6Disp: Adding Grimme-D3(BJ) dispersion energy 1st derivatives to the gradient.
 Leave Link 1101 at Tue Oct  6 20:45:00 2020, MaxMem=  2684354560 cpu:               3.5 elap:               0.6
 (Enter /udrive/faculty/rpeverati/g16/g16/l1102.exe)
 Symmetrizing basis deriv contribution to polar:
 IMax=3 JMax=2 DiffMx= 0.00D+00
 Leave Link 1102 at Tue Oct  6 20:45:01 2020, MaxMem=  2684354560 cpu:               1.9 elap:               0.5
 (Enter /udrive/faculty/rpeverati/g16/g16/l1110.exe)
 Forming Gx(P) for the SCF density, NAtomX=     7.
 Integral derivatives from FoFJK, PRISM(SPDF).
 Do as many integral derivatives as possible in FoFJK.
 G2DrvN: MDV=    2684353906.
 G2DrvN: will do     8 centers at a time, making    1 passes.
 Calling FoFCou, ICntrl=  3107 FMM=F I1Cent=   0 AccDes= 0.00D+00.
 FoFJK:  IHMeth= 1 ICntrl=    3107 DoSepK=F KAlg= 0 I1Cent=           0 FoldK=F
 IRaf=         0 NMat=       1 IRICut=       1 DoRegI=T DoRafI=F ISym2E= 0 IDoP0=0 IntGTp=1.
 FoFCou: FMM=F IPFlag=           0 FMFlag=      100000 FMFlg1=           0
         NFxFlg=           0 DoJE=F BraDBF=F KetDBF=F FulRan=T
         wScrn=  0.000000 ICntrl=      3107 IOpCl=  0 I1Cent=           0 NGrid=           0
         NMat0=    1 NMatS0=      1 NMatT0=    0 NMatD0=    1 NMtDS0=    0 NMtDT0=    0
 Symmetry not used in FoFCou.
 End of G2Drv F.D. properties file   721 does not exist.
 End of G2Drv F.D. properties file   722 does not exist.
 End of G2Drv F.D. properties file   788 does not exist.
 Leave Link 1110 at Tue Oct  6 20:45:03 2020, MaxMem=  2684354560 cpu:              24.7 elap:               2.3
 (Enter /udrive/faculty/rpeverati/g16/g16/l1002.exe)
 Minotr:  Closed shell wavefunction.
          IDoAtm=1111111
          Direct CPHF calculation.
          Differentiating once with respect to nuclear coordinates.
          Requested convergence is 1.0D-08 RMS, and 1.0D-07 maximum.
          Secondary convergence is 1.0D-12 RMS, and 1.0D-12 maximum.
          NewPWx=T KeepS1=F KeepF1=F KeepIn=T MapXYZ=F SortEE=F KeepMc=T.
         2052 words used for storage of precomputed grid.
 Keep R1 ints in memory in canonical form, NReq=11284309.
 FoFCou: FMM=F IPFlag=           0 FMFlag=           0 FMFlg1=           0
         NFxFlg=           0 DoJE=F BraDBF=F KetDBF=F FulRan=T
         wScrn=  0.000000 ICntrl=       600 IOpCl=  0 I1Cent=           0 NGrid=           0
         NMat0=    1 NMatS0=   1275 NMatT0=    0 NMatD0=    1 NMtDS0=    0 NMtDT0=    0
 Symmetry not used in FoFCou.
 Two-electron integral symmetry not used.
          MDV=    2684354560 using IRadAn=       1.
          Solving linear equations simultaneously, MaxMat=       0.
          There are    24 degrees of freedom in the 1st order CPHF.  IDoFFX=6 NUNeed=     0.
     18 vectors produced by pass  0 Test12= 2.10D-15 4.17D-09 XBig12= 6.43D-02 1.25D-01.
 AX will form    18 AO Fock derivatives at one time.
     18 vectors produced by pass  1 Test12= 2.10D-15 4.17D-09 XBig12= 1.84D-03 1.66D-02.
     18 vectors produced by pass  2 Test12= 2.10D-15 4.17D-09 XBig12= 2.47D-05 1.44D-03.
     18 vectors produced by pass  3 Test12= 2.10D-15 4.17D-09 XBig12= 1.19D-07 8.28D-05.
     18 vectors produced by pass  4 Test12= 2.10D-15 4.17D-09 XBig12= 1.55D-10 2.47D-06.
     12 vectors produced by pass  5 Test12= 2.10D-15 4.17D-09 XBig12= 9.52D-14 9.23D-08.
 InvSVY:  IOpt=1 It=  1 EMax= 1.44D-15
 Solved reduced A of dimension   102 with    18 vectors.
 End of Minotr F.D. properties file   721 does not exist.
 End of Minotr F.D. properties file   722 does not exist.
 End of Minotr F.D. properties file   788 does not exist.
 Leave Link 1002 at Tue Oct  6 20:45:06 2020, MaxMem=  2684354560 cpu:              25.9 elap:               2.5
 (Enter /udrive/faculty/rpeverati/g16/g16/l601.exe)
 Copying SCF densities to generalized density rwf, IOpCl= 0 IROHF=0.

 **********************************************************************

            Population analysis using the SCF density.

 **********************************************************************

 Orbital symmetries:
       Occupied  (A) (A) (A) (A) (A) (A) (A) (A) (A) (A) (A) (A)
                 (A) (A)
       Virtual   (A) (A) (A) (A) (A) (A) (A) (A) (A) (A) (A) (A)
                 (A) (A) (A) (A) (A) (A) (A) (A) (A) (A) (A) (A)
                 (A) (A) (A) (A) (A) (A) (A) (A) (A) (A) (A) (A)
 The electronic state is 1-A.
 Alpha  occ. eigenvalues --  -24.31034 -18.80497 -10.00597  -0.78430  -0.63727
 Alpha  occ. eigenvalues --   -0.44830  -0.21831  -0.21789  -0.13586  -0.09161
 Alpha  occ. eigenvalues --   -0.03892  -0.03734   0.02715   0.03018
 Alpha virt. eigenvalues --    0.29732   0.31160   0.37280   0.37701   0.38078
 Alpha virt. eigenvalues --    0.77095   0.78009   0.89281   1.03244   1.09660
 Alpha virt. eigenvalues --    1.11282   1.13852   1.20162   1.22801   1.34555
 Alpha virt. eigenvalues --    1.38839   1.50307   1.51529   1.56980   1.79311
 Alpha virt. eigenvalues --    1.82901   1.84374   1.95580   2.07786   2.09714
 Alpha virt. eigenvalues --    2.12523   2.13292   2.18250   2.18459   2.33892
 Alpha virt. eigenvalues --    2.34593   2.39732   2.52980   2.53222   2.77078
 Alpha virt. eigenvalues --    3.09117
          Condensed to atoms (all electrons):
               1          2          3          4          5          6
     1  F    9.588884   0.111381  -0.029551  -0.028972  -0.028985   0.001143
     2  C    0.111381   4.729699   0.389434   0.382274   0.382305   0.113994
     3  H   -0.029551   0.389434   0.582455  -0.021580  -0.021533  -0.029142
     4  H   -0.028972   0.382274  -0.021580   0.605435  -0.025214  -0.026705
     5  H   -0.028985   0.382305  -0.021533  -0.025214   0.604981  -0.026763
     6  O    0.001143   0.113994  -0.029142  -0.026705  -0.026763   8.709152
     7  H   -0.000177  -0.017785   0.002402   0.002026   0.002022   0.172346
               7
     1  F   -0.000177
     2  C   -0.017785
     3  H    0.002402
     4  H    0.002026
     5  H    0.002022
     6  O    0.172346
     7  H    0.573552
 Mulliken charges:
               1
     1  F   -0.613723
     2  C   -0.091301
     3  H    0.127515
     4  H    0.112735
     5  H    0.113186
     6  O   -0.914024
     7  H    0.265612
 Sum of Mulliken charges =  -1.00000
 Mulliken charges with hydrogens summed into heavy atoms:
               1
     1  F   -0.613723
     2  C    0.262136
     6  O   -0.648412
 APT charges:
               1
     1  F   -0.612770
     2  C   -0.713712
     3  H    0.339807
     4  H    0.325249
     5  H    0.325704
     6  O   -1.084285
     7  H    0.420007
 Sum of APT charges =  -1.00000
 APT charges with hydrogens summed into heavy atoms:
               1
     1  F   -0.612770
     2  C    0.277048
     6  O   -0.664278
 Electronic spatial extent (au):  <R**2>=            302.3206
 Charge=             -1.0000 electrons
 Dipole moment (field-independent basis, Debye):
    X=              0.5145    Y=             -1.2692    Z=              0.0011  Tot=              1.3695
 Quadrupole moment (field-independent basis, Debye-Ang):
   XX=            -40.1111   YY=            -18.2185   ZZ=            -19.5499
   XY=              3.1583   XZ=             -0.0000   YZ=             -0.0009
 Traceless Quadrupole moment (field-independent basis, Debye-Ang):
   XX=            -14.1512   YY=              7.7413   ZZ=              6.4099
   XY=              3.1583   XZ=             -0.0000   YZ=             -0.0009
 Octapole moment (field-independent basis, Debye-Ang**2):
  XXX=             10.7388  YYY=             -0.1215  ZZZ=              0.0176  XYY=              1.1478
  XXY=             -6.7678  XXZ=              0.0019  XZZ=              3.8239  YZZ=             -0.6503
  YYZ=             -0.0179  XYZ=              0.0003
 Hexadecapole moment (field-independent basis, Debye-Ang**3):
 XXXX=           -342.0558 YYYY=            -24.2910 ZZZZ=            -22.7345 XXXY=             15.5263
 XXXZ=             -0.0015 YYYX=              1.6240 YYYZ=             -0.0034 ZZZX=             -0.0008
 ZZZY=             -0.0012 XXYY=            -46.8758 XXZZ=            -51.8089 YYZZ=             -7.9971
 XXYZ=             -0.0005 YYXZ=             -0.0004 ZZXY=              0.2760
 N-N= 6.900129844505D+01 E-N=-6.569189147413D+02  KE= 2.145676603112D+02
  Exact polarizability:   0.000   0.000   0.000   0.000   0.000   0.000
 Approx polarizability:  60.635   1.230  25.166   0.002   0.001  18.866
 No NMR shielding tensors so no spin-rotation constants.
 Leave Link  601 at Tue Oct  6 20:45:07 2020, MaxMem=  2684354560 cpu:               2.5 elap:               0.5
 (Enter /udrive/faculty/rpeverati/g16/g16/l701.exe)
 ... and contract with generalized density number  0.
 Compute integral second derivatives.
 R6Disp: Adding Grimme-D3(BJ) dispersion energy 2nd derivatives to the Hessian.
 Leave Link  701 at Tue Oct  6 20:45:08 2020, MaxMem=  2684354560 cpu:               4.2 elap:               0.7
 (Enter /udrive/faculty/rpeverati/g16/g16/l702.exe)
 L702 exits ... SP integral derivatives will be done elsewhere.
 Leave Link  702 at Tue Oct  6 20:45:09 2020, MaxMem=  2684354560 cpu:               1.4 elap:               0.4
 (Enter /udrive/faculty/rpeverati/g16/g16/l703.exe)
 Integral derivatives from FoFJK, PRISM(SPDF).
 Compute integral second derivatives, UseDBF=F ICtDFT=           0.
 Calling FoFJK, ICntrl=    100147 FMM=F ISym2X=0 I1Cent= 0 IOpClX= 0 NMat=1 NMatS=1 NMatT=0.
 FoFJK:  IHMeth= 1 ICntrl=  100147 DoSepK=F KAlg= 0 I1Cent=           0 FoldK=F
 IRaf=         0 NMat=       1 IRICut=       1 DoRegI=T DoRafI=F ISym2E= 0 IDoP0=0 IntGTp=1.
 FoFCou: FMM=F IPFlag=           0 FMFlag=      100000 FMFlg1=         800
         NFxFlg=           0 DoJE=F BraDBF=F KetDBF=F FulRan=T
         wScrn=  0.000000 ICntrl=    100147 IOpCl=  0 I1Cent=           0 NGrid=           0
         NMat0=    1 NMatS0=      1 NMatT0=    0 NMatD0=    1 NMtDS0=    0 NMtDT0=    0
 Symmetry not used in FoFCou.
 Leave Link  703 at Tue Oct  6 20:45:12 2020, MaxMem=  2684354560 cpu:              36.1 elap:               3.4
 (Enter /udrive/faculty/rpeverati/g16/g16/l716.exe)
 Dipole        = 2.02428606D-01-4.99334669D-01 4.28811027D-04
 Polarizability= 0.00000000D+00 0.00000000D+00 0.00000000D+00
                 0.00000000D+00 0.00000000D+00 0.00000000D+00
 ***** Axes restored to original set *****
 -------------------------------------------------------------------
 Center     Atomic                   Forces (Hartrees/Bohr)
 Number     Number              X              Y              Z
 -------------------------------------------------------------------
      1        9           0.000045107   -0.000307698    0.000010140
      2        6           0.003160307   -0.000802124   -0.000047261
      3        1          -0.001759717    0.005257020   -0.000044592
      4        1          -0.001609453   -0.002769119   -0.004923415
      5        1          -0.001628210   -0.002665246    0.004991029
      6        8           0.003004214    0.016129817   -0.000008080
      7        1          -0.001212247   -0.014842650    0.000022179
 -------------------------------------------------------------------
 Cartesian Forces:  Max     0.016129817 RMS     0.005352342
 Force constants in Cartesian coordinates: 
                1             2             3             4             5 
      1  0.700004D-01
      2 -0.130744D-03  0.192636D-01
      3  0.100588D-05  0.104520D-05  0.191962D-01
      4  0.331719D-01 -0.246931D-02 -0.305894D-04 -0.827344D-01
      5 -0.515642D-03 -0.363353D-01  0.323655D-05  0.771309D-02  0.735504D+00
      6 -0.383253D-05  0.229060D-05 -0.347210D-01  0.832168D-04 -0.115669D-03
      7 -0.249217D-01  0.138068D-01 -0.143552D-03 -0.708505D-03  0.176618D-01
      8  0.556829D-02  0.392353D-02 -0.186894D-04  0.156599D-01 -0.388521D+00
      9 -0.501364D-04 -0.240094D-04  0.236396D-02 -0.143114D-03  0.377004D-02
     10 -0.259829D-01 -0.636419D-02 -0.116402D-01  0.397258D-02 -0.113596D-01
     11 -0.271001D-02  0.289680D-02  0.665851D-03 -0.111080D-01 -0.139353D+00
     12 -0.505724D-02  0.749845D-03  0.365533D-02 -0.156178D-01 -0.143775D+00
     13 -0.259501D-01 -0.610782D-02  0.118050D-01  0.404080D-02 -0.109745D-01
     14 -0.258471D-02  0.286606D-02 -0.652328D-03 -0.106966D-01 -0.133170D+00
     15  0.511646D-02 -0.730508D-03  0.367733D-02  0.157685D-01  0.140104D+00
     16 -0.232375D-01 -0.186651D-02  0.789461D-05  0.370219D-01  0.155991D-01
     17  0.154318D-02  0.677850D-02  0.325111D-05 -0.387851D-02 -0.390200D-01
     18 -0.702403D-05  0.533411D-05  0.604188D-02 -0.756724D-04 -0.495865D-04
     19 -0.307995D-02  0.313182D-02  0.000000D+00  0.523574D-02 -0.181241D-01
     20 -0.117036D-02  0.606730D-03 -0.236595D-05  0.477942D-02  0.895158D-03
     21  0.000000D+00 -0.399791D-05 -0.213739D-03  0.154901D-04  0.635219D-04
                6             7             8             9            10 
      6  0.726487D+00
      7 -0.160507D-03  0.440137D-01
      8  0.376296D-02 -0.164761D-01  0.393213D+00
      9 -0.548108D-01  0.171063D-03 -0.396266D-02  0.413763D-01
     10 -0.132736D-01  0.164999D-02  0.183284D-04  0.454676D-04  0.392999D-01
     11 -0.143212D+00 -0.649201D-03 -0.591465D-02 -0.222230D-01  0.110015D-01
     12 -0.302985D+00  0.101886D-03  0.249618D-02  0.555804D-02  0.163551D-01
     13  0.134001D-01  0.165870D-02  0.251240D-04 -0.687827D-04  0.194226D-02
     14  0.139542D+00 -0.663416D-03 -0.546605D-02  0.224677D-01  0.101832D-02
     15 -0.309372D+00 -0.906117D-04 -0.225241D-02  0.512098D-02  0.771032D-03
     16 -0.545070D-04 -0.158046D-01 -0.568415D-02  0.552143D-04 -0.206800D-01
     17  0.334782D-04 -0.145889D-01  0.103453D-02 -0.130655D-04  0.609493D-02
     18 -0.249900D-01  0.106526D-03 -0.101365D-04  0.638489D-03  0.661222D-02
     19  0.904527D-05 -0.588758D-02  0.888633D-03 -0.971194D-05 -0.201868D-03
     20 -0.129107D-04  0.909185D-03  0.173047D-02 -0.150135D-04 -0.409240D-03
     21  0.392223D-03  0.151950D-04 -0.152462D-04 -0.246975D-03  0.112996D-02
               11            12            13            14            15 
     11  0.129344D+00
     12  0.151541D+00  0.301993D+00
     13  0.101077D-02 -0.805446D-03  0.391956D-01
     14  0.111123D-01 -0.123867D-01  0.105774D-01  0.122800D+00
     15  0.118831D-01 -0.111189D-01 -0.165290D-01 -0.147649D+00  0.308740D+00
     16  0.249078D-02  0.339527D-02 -0.206613D-01  0.241957D-02 -0.343690D-02
     17  0.184091D-02  0.753122D-03  0.587870D-02  0.183254D-02 -0.759206D-03
     18  0.119922D-02  0.367841D-02 -0.667692D-02 -0.113289D-02  0.374608D-02
     19 -0.357765D-04  0.162820D-02 -0.226016D-03 -0.706436D-04 -0.159947D-02
     20  0.734137D-04  0.622245D-03 -0.409678D-03  0.257435D-04 -0.595642D-03
     21  0.146604D-03 -0.780909D-03 -0.112505D-02 -0.188931D-03 -0.793937D-03
               16            17            18            19            20 
     16  0.922319D-01
     17  0.131158D+00  0.510576D+00
     18  0.334889D-04 -0.871868D-04  0.180469D-02
     19 -0.488705D-01 -0.126208D+00  0.737646D-05  0.530301D-01
     20 -0.144117D+00 -0.483042D+00  0.752440D-04  0.140418D+00  0.479711D+00
     21  0.000000D+00  0.696064D-04  0.908048D-02 -0.359053D-04 -0.715567D-04
               21 
     21 -0.743714D-02
 FormGI is forming the generalized inverse of G from B-inverse, IUseBI=4.
 Force constants in internal coordinates: 
                1             2             3             4             5 
      1  0.699947D-01
      2  0.668068D-02  0.394033D+00
      3  0.705434D-02  0.742714D-03  0.391159D+00
      4  0.703708D-02  0.740982D-03  0.675998D-03  0.391328D+00
      5  0.263164D-01  0.393247D-02  0.440314D-02  0.437920D-02  0.473540D-01
      6  0.203991D-02 -0.195239D-02  0.932876D-03  0.886378D-03 -0.236350D-02
      7  0.242631D-01 -0.351400D-02  0.153830D-02  0.153564D-02 -0.206231D-01
      8  0.257396D-01  0.141623D-02 -0.207463D-02  0.161922D-02 -0.215800D-01
      9  0.257018D-01  0.141144D-02  0.161686D-02 -0.207937D-02 -0.215637D-01
     10 -0.425482D-02  0.307987D-02  0.283201D-02 -0.622840D-02  0.329237D-02
     11 -0.426240D-02  0.309356D-02 -0.623682D-02  0.283387D-02  0.328803D-02
     12 -0.252201D-01 -0.276658D-02  0.220550D-02  0.221379D-02  0.217746D-01
     13 -0.426793D-02 -0.607250D-02  0.322946D-02  0.321983D-02  0.418925D-02
     14 -0.252348D-01  0.177897D-02 -0.531584D-02  0.196423D-02  0.209754D-01
     15 -0.252259D-01  0.179048D-02  0.196827D-02 -0.531237D-02  0.209823D-01
     16  0.479309D-02 -0.112287D-02  0.209360D-02  0.207310D-02  0.794153D-02
     17 -0.957059D-03 -0.628057D-02  0.374380D-02  0.374943D-02  0.115155D-02
     18  0.168745D-04 -0.237396D-05 -0.649240D-02  0.649049D-02 -0.137877D-04
     19  0.000000D+00 -0.118874D-04  0.366440D-02 -0.366295D-02  0.275050D-04
     20 -0.944845D-03 -0.313028D-02  0.341464D-03  0.304309D-02  0.112666D-02
     21  0.947903D-03  0.311963D-02 -0.305129D-02 -0.338965D-03 -0.108859D-02
                6             7             8             9            10 
      6  0.521757D+00
      7  0.704134D-03  0.586389D-01
      8 -0.123101D-02 -0.525802D-02  0.559624D-01
      9 -0.121076D-02 -0.525585D-02 -0.568937D-02  0.559222D-01
     10 -0.137126D-03 -0.167066D-02 -0.663846D-03 -0.446948D-02  0.342330D-01
     11 -0.136989D-03 -0.169534D-02 -0.448369D-02 -0.682194D-03 -0.167195D-01
     12  0.227058D-02 -0.348829D-01 -0.775723D-02 -0.777550D-02  0.394954D-02
     13  0.570498D-03 -0.468851D-02 -0.248783D-02 -0.248000D-02 -0.163877D-01
     14 -0.273811D-03 -0.644870D-02 -0.305137D-01 -0.690050D-02  0.297943D-02
     15 -0.245677D-03 -0.643445D-02 -0.686880D-02 -0.304357D-01  0.379841D-03
     16 -0.228148D-02 -0.292174D-02 -0.409563D-02 -0.402660D-02  0.890255D-04
     17  0.297471D-02  0.237560D-01 -0.130152D-01 -0.130314D-01  0.227888D-02
     18 -0.285872D-04 -0.150796D-04  0.218041D-01 -0.218389D-01  0.284245D-02
     19 -0.964504D-05 -0.134933D-05  0.175323D-02 -0.174832D-02  0.168053D-01
     20  0.286235D-03 -0.205151D-02 -0.198801D-02  0.125162D-02 -0.169986D-01
     21 -0.309624D-03  0.203590D-02 -0.126252D-02  0.197493D-02 -0.428078D-03
               11            12            13            14            15 
     11  0.342443D-01
     12  0.396762D-02  0.573941D-01
     13 -0.163914D-01  0.560830D-03  0.344581D-01
     14  0.399523D-03 -0.340990D-02  0.404400D-02  0.488714D-01
     15  0.299503D-02 -0.336321D-02  0.402800D-02 -0.173040D-02  0.486947D-01
     16  0.107054D-03  0.186231D-01  0.167171D-02 -0.381474D-02 -0.366307D-02
     17  0.227228D-02  0.225112D-01 -0.412768D-02 -0.985860D-02 -0.979766D-02
     18 -0.283906D-02 -0.212811D-04  0.608589D-05  0.156071D-01 -0.155268D-01
     19 -0.167978D-01  0.146325D-04 -0.737048D-05 -0.336971D-03  0.320241D-03
     20  0.437493D-03  0.451593D-03  0.170550D-01  0.238915D-02 -0.559102D-03
     21  0.170131D-01 -0.429723D-03 -0.170730D-01  0.567712D-03 -0.238029D-02
               16            17            18            19            20 
     16  0.625908D-01
     17  0.157013D-01  0.462671D-01
     18 -0.130665D-03 -0.363607D-04  0.430638D-01
     19  0.244885D-04  0.132832D-04  0.107542D-02  0.114567D-01
     20  0.103479D-02 -0.159992D-02  0.130069D-03 -0.552176D-02  0.119435D-01
     21 -0.992311D-03  0.160617D-02  0.130056D-03 -0.551522D-02 -0.505008D-02
               21 
     21  0.119628D-01
 Leave Link  716 at Tue Oct  6 20:45:13 2020, MaxMem=  2684354560 cpu:               2.6 elap:               0.6
 (Enter /udrive/faculty/rpeverati/g16/g16/l103.exe)

 GradGradGradGradGradGradGradGradGradGradGradGradGradGradGradGradGradGrad
 Berny optimization.
 Optmz: redundant internal coordinate code flag= 1
 Red2BG:  D1=  2.21D-01 OD1=  1.84D-15 B2RMS=  0.00D+00 IAprox=1
 Red2BG is reusing G-inverse.
 Internal  Forces:  Max     0.014548105 RMS     0.004107331
 Search for a saddle point.
 Step number   1 out of a maximum of   50
 All quantities printed in internal units (Hartrees-Bohrs-Radians)
 Swapping is turned off.
 Second derivative matrix not updated -- analytic derivatives used.
 The second derivative matrix:
                          R1        R2        R3        R4        R5
           R1           0.06999
           R2           0.00668   0.39403
           R3           0.00705   0.00074   0.39116
           R4           0.00704   0.00074   0.00068   0.39133
           R5           0.02632   0.00393   0.00440   0.00438   0.04735
           R6           0.00204  -0.00195   0.00093   0.00089  -0.00236
           A1           0.02426  -0.00351   0.00154   0.00154  -0.02062
           A2           0.02574   0.00142  -0.00207   0.00162  -0.02158
           A3           0.02570   0.00141   0.00162  -0.00208  -0.02156
           A4          -0.00425   0.00308   0.00283  -0.00623   0.00329
           A5          -0.00426   0.00309  -0.00624   0.00283   0.00329
           A6          -0.02522  -0.00277   0.00221   0.00221   0.02177
           A7          -0.00427  -0.00607   0.00323   0.00322   0.00419
           A8          -0.02523   0.00178  -0.00532   0.00196   0.02098
           A9          -0.02523   0.00179   0.00197  -0.00531   0.02098
           A10          0.00479  -0.00112   0.00209   0.00207   0.00794
           A11         -0.00096  -0.00628   0.00374   0.00375   0.00115
           A12          0.00002  -0.00000  -0.00649   0.00649  -0.00001
           D1          -0.00000  -0.00001   0.00366  -0.00366   0.00003
           D2          -0.00094  -0.00313   0.00034   0.00304   0.00113
           D3           0.00095   0.00312  -0.00305  -0.00034  -0.00109
                          R6        A1        A2        A3        A4
           R6           0.52176
           A1           0.00070   0.05864
           A2          -0.00123  -0.00526   0.05596
           A3          -0.00121  -0.00526  -0.00569   0.05592
           A4          -0.00014  -0.00167  -0.00066  -0.00447   0.03423
           A5          -0.00014  -0.00170  -0.00448  -0.00068  -0.01672
           A6           0.00227  -0.03488  -0.00776  -0.00778   0.00395
           A7           0.00057  -0.00469  -0.00249  -0.00248  -0.01639
           A8          -0.00027  -0.00645  -0.03051  -0.00690   0.00298
           A9          -0.00025  -0.00643  -0.00687  -0.03044   0.00038
           A10         -0.00228  -0.00292  -0.00410  -0.00403   0.00009
           A11          0.00297   0.02376  -0.01302  -0.01303   0.00228
           A12         -0.00003  -0.00002   0.02180  -0.02184   0.00284
           D1          -0.00001  -0.00000   0.00175  -0.00175   0.01681
           D2           0.00029  -0.00205  -0.00199   0.00125  -0.01700
           D3          -0.00031   0.00204  -0.00126   0.00197  -0.00043
                          A5        A6        A7        A8        A9
           A5           0.03424
           A6           0.00397   0.05739
           A7          -0.01639   0.00056   0.03446
           A8           0.00040  -0.00341   0.00404   0.04887
           A9           0.00300  -0.00336   0.00403  -0.00173   0.04869
           A10          0.00011   0.01862   0.00167  -0.00381  -0.00366
           A11          0.00227   0.02251  -0.00413  -0.00986  -0.00980
           A12         -0.00284  -0.00002   0.00001   0.01561  -0.01553
           D1          -0.01680   0.00001  -0.00001  -0.00034   0.00032
           D2           0.00044   0.00045   0.01705   0.00239  -0.00056
           D3           0.01701  -0.00043  -0.01707   0.00057  -0.00238
                          A10       A11       A12       D1        D2
           A10          0.06259
           A11          0.01570   0.04627
           A12         -0.00013  -0.00004   0.04306
           D1           0.00002   0.00001   0.00108   0.01146
           D2           0.00103  -0.00160   0.00013  -0.00552   0.01194
           D3          -0.00099   0.00161   0.00013  -0.00552  -0.00505
                          D3
           D3           0.01196
 ITU=  0
 Eigenvectors of the second derivative matrix:
                           1         2         3         4         5
     Eigenvalues --    -0.02424   0.00096   0.04268   0.06388   0.06619
   1         R1        -0.54836   0.00051   0.09680  -0.00099  -0.11012
   2         R2         0.00385  -0.00005   0.01031   0.00053   0.03365
   3         R3         0.00138   0.00217  -0.00977   0.03411  -0.01268
   4         R4         0.00136  -0.00219  -0.00964  -0.03452  -0.01174
   5         R5         0.61322  -0.00014   0.15617  -0.00344  -0.18264
   6         R6         0.00636  -0.00004  -0.00793  -0.00001  -0.00137
   7         A1         0.21354  -0.00025   0.02395   0.00180   0.12738
   8         A2         0.23806  -0.01007  -0.03578   0.10450  -0.02250
   9         A3         0.23791   0.00969  -0.03427  -0.10469  -0.01881
  10         A4        -0.04183  -0.00580  -0.06686  -0.49162  -0.32300
  11         A5        -0.04155   0.00613  -0.06692   0.48236  -0.34129
  12         A6        -0.21787   0.00027   0.34646   0.00204  -0.02396
  13         A7        -0.03307  -0.00023   0.14184   0.00898   0.65091
  14         A8        -0.23543   0.02199  -0.15179   0.25419  -0.04065
  15         A9        -0.23616  -0.02163  -0.14936  -0.25800  -0.03933
  16         A10        0.03184   0.00058  -0.78676   0.00357   0.24907
  17         A11       -0.00432   0.00002   0.37041   0.00384   0.10342
  18         A12        0.00052   0.01403  -0.00236   0.43306  -0.00321
  19         D1        -0.00052  -0.58272  -0.00015  -0.33431   0.00592
  20         D2        -0.00571  -0.57415   0.07776   0.19266   0.32445
  21         D3         0.00516  -0.57390  -0.07851   0.18352  -0.33119
                           6         7         8         9        10
     Eigenvalues --     0.07085   0.08176   0.08801   0.08875   0.09894
   1         R1         0.00026   0.54846  -0.00083   0.06059  -0.34230
   2         R2        -0.00004  -0.02144   0.00031  -0.01278  -0.00376
   3         R3         0.00624  -0.01844   0.00557   0.00189   0.02573
   4         R4        -0.00617  -0.01854  -0.00577   0.00164   0.02536
   5         R5        -0.00091   0.65157   0.00026   0.02778  -0.24521
   6         R6         0.00002   0.00281  -0.00006   0.00376   0.00258
   7         A1        -0.00150   0.00921   0.01607  -0.68170   0.01348
   8         A2        -0.14938  -0.10561   0.56054   0.34625  -0.02176
   9         A3         0.15145  -0.10476  -0.57695   0.31856  -0.02333
  10         A4         0.32826  -0.07094   0.17538  -0.05562  -0.04065
  11         A5        -0.32346  -0.07229  -0.17174  -0.06335  -0.04191
  12         A6         0.00440  -0.23355  -0.00426   0.25501  -0.44812
  13         A7        -0.00491   0.17758  -0.00354   0.12081   0.08807
  14         A8         0.51102   0.21702  -0.15896  -0.12766   0.23961
  15         A9        -0.51571   0.21100   0.16390  -0.11881   0.23391
  16         A10       -0.00032  -0.02394   0.00067  -0.03403  -0.55225
  17         A11        0.00290  -0.22434   0.01181  -0.42669  -0.43463
  18         A12        0.40936   0.00302   0.46316   0.01080   0.00428
  19         D1         0.19165   0.00037   0.12124   0.00277  -0.00007
  20         D2        -0.07593   0.07890  -0.07546   0.06460   0.03263
  21         D3        -0.07116  -0.07874  -0.07171  -0.06803  -0.03322
                          11        12        13        14        15
     Eigenvalues --     0.15292   0.39138   0.39230   0.39507   0.52187
   1         R1         0.50451   0.00224   0.02247  -0.03323   0.00387
   2         R2        -0.01122  -0.02529  -0.38834  -0.91994  -0.01579
   3         R3        -0.00941   0.76103   0.58791  -0.26936   0.00748
   4         R4        -0.00936  -0.64629   0.70755  -0.28117   0.00712
   5         R5        -0.28318   0.00137   0.01349  -0.01914  -0.00456
   6         R6        -0.00127  -0.00151  -0.01586  -0.01065   0.99975
   7         A1         0.33623   0.00092   0.01126   0.00611   0.00219
   8         A2         0.32015  -0.00839  -0.00129  -0.00532  -0.00242
   9         A3         0.31938   0.00816  -0.00270  -0.00516  -0.00237
  10         A4        -0.04765   0.01851  -0.01198  -0.00525  -0.00047
  11         A5        -0.04812  -0.02021  -0.00873  -0.00560  -0.00048
  12         A6        -0.38950   0.00096   0.01202   0.00540   0.00471
  13         A7        -0.06900   0.00159   0.01952   0.01162   0.00139
  14         A8        -0.29329  -0.01651  -0.00851  -0.00073  -0.00107
  15         A9        -0.29256   0.01483  -0.01115  -0.00051  -0.00100
  16         A10       -0.10517   0.00112   0.01238  -0.00018  -0.00442
  17         A11       -0.05328   0.00188   0.02328   0.01151   0.00690
  18         A12        0.00003  -0.02831   0.00239  -0.00023  -0.00007
  19         D1         0.00000   0.01533  -0.00128   0.00015  -0.00002
  20         D2        -0.02091  -0.00528   0.01076   0.00581   0.00072
  21         D3         0.02055  -0.00695  -0.00972  -0.00589  -0.00077
 RLam0= 2.59D-05.
 Iter=   1 RLamda= 0.00000000D+00 Sum=-1.33518749D-03.
 Iter=   2 RLamda=-1.33518749D-03 Sum=-1.31681824D-03.
 Iter=   3 RLamda=-1.31681824D-03 Sum=-1.31706221D-03.
 Iter=   4 RLamda=-1.31706221D-03 Sum=-1.31705897D-03.
 RFO step:  Lambda0=2.588879782D-05 Lambda=-1.31706221D-03.
 Linear search not attempted -- option 19 set.
 Maximum step size (   0.100) exceeded in Quadratic search.
    -- Step size scaled by   0.838
 Iteration  1 RMS(Cart)=  0.03890188 RMS(Int)=  0.00136487
 Iteration  2 RMS(Cart)=  0.00138971 RMS(Int)=  0.00001758
 Iteration  3 RMS(Cart)=  0.00000244 RMS(Int)=  0.00001748
 Iteration  4 RMS(Cart)=  0.00000000 RMS(Int)=  0.00001748
 ITry= 1 IFail=0 DXMaxC= 1.39D-01 DCOld= 1.00D+10 DXMaxT= 1.00D-01 DXLimC= 3.00D+00 Rises=F
 Variable       Old X    -DE/DX   Delta X   Delta X   Delta X     New X
                                 (Linear)    (Quad)   (Total)
    R1        3.32577   0.00005   0.00000   0.01374   0.01374   3.33950
    R2        2.02238   0.00533   0.00000   0.01191   0.01191   2.03429
    R3        2.02235   0.00572   0.00000   0.01216   0.01216   2.03452
    R4        2.02226   0.00573   0.00000   0.01221   0.01221   2.03447
    R5        3.75266  -0.00173   0.00000  -0.02782  -0.02782   3.72485
    R6        1.81492   0.01455   0.00000   0.02254   0.02254   1.83746
    A1        1.63099   0.00174   0.00000   0.00443   0.00444   1.63543
    A2        1.61399   0.00121   0.00000  -0.00261  -0.00259   1.61140
    A3        1.61434   0.00121   0.00000  -0.00268  -0.00266   1.61168
    A4        2.08365  -0.00027   0.00000  -0.00202  -0.00201   2.08165
    A5        2.08406  -0.00028   0.00000  -0.00227  -0.00225   2.08180
    A6        1.47742  -0.00127   0.00000   0.01689   0.01689   1.49431
    A7        2.10306  -0.00016   0.00000   0.00444   0.00441   2.10747
    A8        1.54400  -0.00143   0.00000  -0.00801  -0.00799   1.53601
    A9        1.54374  -0.00147   0.00000  -0.00796  -0.00794   1.53580
   A10        1.82106  -0.00578   0.00000  -0.08461  -0.08461   1.73644
   A11        3.10841   0.00048   0.00000   0.02132   0.02133   3.12974
   A12        3.14155   0.00002   0.00000   0.00001   0.00001   3.14156
    D1        3.13055   0.00001   0.00000   0.00518   0.00518   3.13573
    D2        1.04134  -0.00000   0.00000   0.00766   0.00770   1.04904
    D3       -1.06299   0.00002   0.00000   0.00245   0.00241  -1.06058
         Item               Value     Threshold  Converged?
 Maximum Force            0.014548     0.000450     NO 
 RMS     Force            0.004107     0.000300     NO 
 Maximum Displacement     0.139410     0.001800     NO 
 RMS     Displacement     0.039584     0.001200     NO 
 Predicted change in Energy=-6.348802D-04
 Lowest energy point so far.  Saving SCF results.
 Largest change from initial coordinates is atom    7       0.077 Angstoms.
 GradGradGradGradGradGradGradGradGradGradGradGradGradGradGradGradGradGrad

 Leave Link  103 at Tue Oct  6 20:45:14 2020, MaxMem=  2684354560 cpu:               3.1 elap:               0.5
 (Enter /udrive/faculty/rpeverati/g16/g16/l202.exe)
                          Input orientation:                          
 ---------------------------------------------------------------------
 Center     Atomic      Atomic             Coordinates (Angstroms)
 Number     Number       Type             X           Y           Z
 ---------------------------------------------------------------------
      1          9           0        1.841013   -0.044608    0.000761
      2          6           0        0.074981    0.019330   -0.000227
      3          1           0        0.044373    1.095335   -0.011525
      4          1           0        0.012288   -0.518843   -0.930576
      5          1           0        0.011648   -0.499347    0.941058
      6          8           0       -1.893848    0.113990   -0.001649
      7          1           0       -2.100050   -0.836226    0.002658
 ---------------------------------------------------------------------
                    Distance matrix (angstroms):
                    1          2          3          4          5
     1  F    0.000000
     2  C    1.767190   0.000000
     3  H    2.127801   1.076499   0.000000
     4  H    2.106306   1.076619   1.857755   0.000000
     5  H    2.106543   1.076595   1.857820   1.871736   0.000000
     6  O    3.738228   1.971103   2.172518   2.212857   2.212644
     7  H    4.019781   2.337252   2.886119   2.331015   2.335242
                    6          7
     6  O    0.000000
     7  H    0.972342   0.000000
 Stoichiometry    CH4FO(1-)
 Framework group  C1[X(CH4FO)]
 Deg. of freedom    15
 Full point group                 C1      NOp   1
 RotChk:  IX=0 Diff= 1.66D-02
 Largest Abelian subgroup         C1      NOp   1
 Largest concise Abelian subgroup C1      NOp   1
                         Standard orientation:                         
 ---------------------------------------------------------------------
 Center     Atomic      Atomic             Coordinates (Angstroms)
 Number     Number       Type             X           Y           Z
 ---------------------------------------------------------------------
      1          9           0        1.847393   -0.019571   -0.000023
      2          6           0        0.080768    0.025124    0.000069
      3          1           0        0.038435    1.100771   -0.006439
      4          1           0        0.023477   -0.509571   -0.932630
      5          1           0        0.023560   -0.498379    0.939073
      6          8           0       -1.888975    0.098332   -0.000044
      7          1           0       -2.084812   -0.854084    0.000139
 ---------------------------------------------------------------------
 Rotational constants (GHZ):         115.8010785           3.9520111           3.9264225
 Leave Link  202 at Tue Oct  6 20:45:15 2020, MaxMem=  2684354560 cpu:               1.3 elap:               0.5
 (Enter /udrive/faculty/rpeverati/g16/g16/l301.exe)
 Standard basis: 6-31G(d) (5D, 7F)
 Ernie: Thresh=  0.10000D-02 Tol=  0.10000D-05 Strict=F.
 There are    53 symmetry adapted cartesian basis functions of A   symmetry.
 There are    50 symmetry adapted basis functions of A   symmetry.
    50 basis functions,   100 primitive gaussians,    53 cartesian basis functions
    14 alpha electrons       14 beta electrons
       nuclear repulsion energy        69.0181271741 Hartrees.
 IExCor=  402 DFT=T Ex+Corr=B3LYP ExCW=0 ScaHFX=  0.200000
 ScaDFX=  0.800000  0.720000  1.000000  0.810000 ScalE2=  1.000000  1.000000
 IRadAn=      5 IRanWt=     -1 IRanGd=            0 ICorTp=0 IEmpDi=141
 NAtoms=    7 NActive=    7 NUniq=    7 SFac= 1.00D+00 NAtFMM=   60 NAOKFM=F Big=F
 Integral buffers will be    131072 words long.
 Raffenetti 2 integral format.
 Two-electron integral symmetry is turned on.
 R6Disp:  Grimme-D3(BJ) Dispersion energy=       -0.0042202756 Hartrees.
 Nuclear repulsion after empirical dispersion term =       69.0139068985 Hartrees.
 Leave Link  301 at Tue Oct  6 20:45:16 2020, MaxMem=  2684354560 cpu:               1.9 elap:               0.5
 (Enter /udrive/faculty/rpeverati/g16/g16/l302.exe)
 NPDir=0 NMtPBC=     1 NCelOv=     1 NCel=       1 NClECP=     1 NCelD=      1
         NCelK=      1 NCelE2=     1 NClLst=     1 CellRange=     0.0.
 One-electron integrals computed using PRISM.
 One-electron integral symmetry used in STVInt
 NBasis=    50 RedAO= T EigKep=  1.74D-02  NBF=    50
 NBsUse=    50 1.00D-06 EigRej= -1.00D+00 NBFU=    50
 Precomputing XC quadrature grid using
 IXCGrd= 4 IRadAn=           5 IRanWt=          -1 IRanGd=           0 AccXCQ= 0.00D+00.
 Generated NRdTot=       0 NPtTot=           0 NUsed=           0 NTot=          32
 NSgBfM=    53    53    53    53    53 MxSgAt=     7 MxSgA2=     7.
 Leave Link  302 at Tue Oct  6 20:45:17 2020, MaxMem=  2684354560 cpu:               3.7 elap:               0.7
 (Enter /udrive/faculty/rpeverati/g16/g16/l303.exe)
 DipDrv:  MaxL=1.
 Leave Link  303 at Tue Oct  6 20:45:17 2020, MaxMem=  2684354560 cpu:               1.7 elap:               0.6
 (Enter /udrive/faculty/rpeverati/g16/g16/l401.exe)
 Initial guess from the checkpoint file:  "MN_63_hoch3fts_BH76_B3LYP_631Gs.chk"
 SCF N**3 symmetry information disabled.
 B after Tr=    -0.000000    0.000000   -0.000000
         Rot=    0.999997   -0.002073    0.000005   -0.000909 Ang=  -0.26 deg.
 Guess basis will be translated and rotated to current coordinates.
 JPrj=2 DoOrth=T DoCkMO=T.
 Generating alternative initial guess.
 ExpMin= 1.61D-01 ExpMax= 7.00D+03 ExpMxC= 1.05D+03 IAcc=2 IRadAn=         4 AccDes= 0.00D+00
 Harris functional with IExCor=  402 and IRadAn=       4 diagonalized for initial guess.
 HarFok:  IExCor=  402 AccDes= 0.00D+00 IRadAn=         4 IDoV= 1 UseB2=F ITyADJ=14
 ICtDFT=  3500011 ScaDFX=  1.000000  1.000000  1.000000  1.000000
 FoFCou: FMM=F IPFlag=           0 FMFlag=      100000 FMFlg1=           0
         NFxFlg=           0 DoJE=T BraDBF=F KetDBF=T FulRan=T
         wScrn=  0.000000 ICntrl=       500 IOpCl=  0 I1Cent=   200000004 NGrid=           0
         NMat0=    1 NMatS0=      1 NMatT0=    0 NMatD0=    1 NMtDS0=    0 NMtDT0=    0
 Petite list used in FoFCou.
 Harris En= -215.744725100796    
 Leave Link  401 at Tue Oct  6 20:45:19 2020, MaxMem=  2684354560 cpu:               8.6 elap:               1.1
 (Enter /udrive/faculty/rpeverati/g16/g16/l502.exe)
 Keep R1 ints in memory in canonical form, NReq=11319963.
 FoFCou: FMM=F IPFlag=           0 FMFlag=           0 FMFlg1=           0
         NFxFlg=           0 DoJE=F BraDBF=F KetDBF=F FulRan=T
         wScrn=  0.000000 ICntrl=       600 IOpCl=  0 I1Cent=           0 NGrid=           0
         NMat0=    1 NMatS0=   1275 NMatT0=    0 NMatD0=    1 NMtDS0=    0 NMtDT0=    0
 Symmetry not used in FoFCou.
 Two-electron integral symmetry not used.
 Closed shell SCF:
 Using DIIS extrapolation, IDIIS=  1040.
 NGot=  2684354560 LenX=  2683534065 LenY=  2683530815
 Requested convergence on RMS density matrix=1.00D-08 within 120 cycles.
 Requested convergence on MAX density matrix=1.00D-06.
 Requested convergence on             energy=1.00D-06.
 No special actions if energy rises.
 Integral accuracy reduced to 1.0D-05 until final iterations.

 Cycle   1  Pass 0  IDiag  1:
 E= -215.479510228493    
 DIIS: error= 4.37D-03 at cycle   1 NSaved=   1.
 NSaved= 1 IEnMin= 1 EnMin= -215.479510228493     IErMin= 1 ErrMin= 4.37D-03
 ErrMax= 4.37D-03  0.00D+00 EMaxC= 1.00D-01 BMatC= 6.73D-04 BMatP= 6.73D-04
 IDIUse=3 WtCom= 9.56D-01 WtEn= 4.37D-02
 Coeff-Com:  0.100D+01
 Coeff-En:   0.100D+01
 Coeff:      0.100D+01
 Gap=     0.605 Goal=   None    Shift=    0.000
 GapD=    0.605 DampG=2.000 DampE=1.000 DampFc=2.0000 IDamp=-1.
 RMSDP=9.47D-04 MaxDP=1.57D-02              OVMax= 1.61D-02

 Cycle   2  Pass 0  IDiag  1:
 E= -215.480617615036     Delta-E=       -0.001107386543 Rises=F Damp=F
 DIIS: error= 1.10D-03 at cycle   2 NSaved=   2.
 NSaved= 2 IEnMin= 2 EnMin= -215.480617615036     IErMin= 2 ErrMin= 1.10D-03
 ErrMax= 1.10D-03  0.00D+00 EMaxC= 1.00D-01 BMatC= 6.53D-05 BMatP= 6.73D-04
 IDIUse=3 WtCom= 9.89D-01 WtEn= 1.10D-02
 Coeff-Com:  0.659D-01 0.934D+00
 Coeff-En:   0.000D+00 0.100D+01
 Coeff:      0.652D-01 0.935D+00
 Gap=     0.271 Goal=   None    Shift=    0.000
 RMSDP=3.55D-04 MaxDP=5.30D-03 DE=-1.11D-03 OVMax= 9.19D-03

 Cycle   3  Pass 0  IDiag  1:
 E= -215.480531818415     Delta-E=        0.000085796621 Rises=F Damp=F
 DIIS: error= 2.01D-03 at cycle   3 NSaved=   3.
 NSaved= 3 IEnMin= 2 EnMin= -215.480617615036     IErMin= 2 ErrMin= 1.10D-03
 ErrMax= 2.01D-03  0.00D+00 EMaxC= 1.00D-01 BMatC= 1.90D-04 BMatP= 6.53D-05
 IDIUse=3 WtCom= 1.83D-01 WtEn= 8.17D-01
 Coeff-Com: -0.366D-01 0.656D+00 0.380D+00
 Coeff-En:   0.000D+00 0.678D+00 0.322D+00
 Coeff:     -0.668D-02 0.674D+00 0.333D+00
 Gap=     0.268 Goal=   None    Shift=    0.000
 RMSDP=1.94D-04 MaxDP=2.96D-03 DE= 8.58D-05 OVMax= 5.35D-03

 Cycle   4  Pass 0  IDiag  1:
 E= -215.480679597411     Delta-E=       -0.000147778996 Rises=F Damp=F
 DIIS: error= 2.44D-04 at cycle   4 NSaved=   4.
 NSaved= 4 IEnMin= 4 EnMin= -215.480679597411     IErMin= 4 ErrMin= 2.44D-04
 ErrMax= 2.44D-04  0.00D+00 EMaxC= 1.00D-01 BMatC= 2.59D-06 BMatP= 6.53D-05
 IDIUse=3 WtCom= 9.98D-01 WtEn= 2.44D-03
 Coeff-Com: -0.245D-01 0.290D+00 0.121D+00 0.614D+00
 Coeff-En:   0.000D+00 0.000D+00 0.000D+00 0.100D+01
 Coeff:     -0.244D-01 0.289D+00 0.120D+00 0.615D+00
 Gap=     0.268 Goal=   None    Shift=    0.000
 RMSDP=2.94D-05 MaxDP=3.52D-04 DE=-1.48D-04 OVMax= 3.76D-04

 Cycle   5  Pass 0  IDiag  1:
 E= -215.480681815456     Delta-E=       -0.000002218044 Rises=F Damp=F
 DIIS: error= 4.48D-05 at cycle   5 NSaved=   5.
 NSaved= 5 IEnMin= 5 EnMin= -215.480681815456     IErMin= 5 ErrMin= 4.48D-05
 ErrMax= 4.48D-05  0.00D+00 EMaxC= 1.00D-01 BMatC= 1.06D-07 BMatP= 2.59D-06
 IDIUse=1 WtCom= 1.00D+00 WtEn= 0.00D+00
 Coeff-Com: -0.514D-02 0.317D-01-0.572D-02 0.195D+00 0.785D+00
 Coeff:     -0.514D-02 0.317D-01-0.572D-02 0.195D+00 0.785D+00
 Gap=     0.268 Goal=   None    Shift=    0.000
 RMSDP=8.04D-06 MaxDP=9.33D-05 DE=-2.22D-06 OVMax= 2.04D-04

 Initial convergence to 1.0D-05 achieved.  Increase integral accuracy.
 Cycle   6  Pass 1  IDiag  1:
 E= -215.480679957251     Delta-E=        0.000001858205 Rises=F Damp=F
 DIIS: error= 7.91D-06 at cycle   1 NSaved=   1.
 NSaved= 1 IEnMin= 1 EnMin= -215.480679957251     IErMin= 1 ErrMin= 7.91D-06
 ErrMax= 7.91D-06  0.00D+00 EMaxC= 1.00D-01 BMatC= 2.22D-09 BMatP= 2.22D-09
 IDIUse=1 WtCom= 1.00D+00 WtEn= 0.00D+00
 Coeff-Com:  0.100D+01
 Coeff:      0.100D+01
 Gap=     0.268 Goal=   None    Shift=    0.000
 RMSDP=8.04D-06 MaxDP=9.33D-05 DE= 1.86D-06 OVMax= 4.18D-05

 Cycle   7  Pass 1  IDiag  1:
 E= -215.480679957984     Delta-E=       -0.000000000733 Rises=F Damp=F
 DIIS: error= 8.02D-06 at cycle   2 NSaved=   2.
 NSaved= 2 IEnMin= 2 EnMin= -215.480679957984     IErMin= 1 ErrMin= 7.91D-06
 ErrMax= 8.02D-06  0.00D+00 EMaxC= 1.00D-01 BMatC= 2.47D-09 BMatP= 2.22D-09
 IDIUse=1 WtCom= 1.00D+00 WtEn= 0.00D+00
 Coeff-Com:  0.515D+00 0.485D+00
 Coeff:      0.515D+00 0.485D+00
 Gap=     0.268 Goal=   None    Shift=    0.000
 RMSDP=8.99D-07 MaxDP=1.21D-05 DE=-7.33D-10 OVMax= 1.81D-05

 Cycle   8  Pass 1  IDiag  1:
 E= -215.480679960282     Delta-E=       -0.000000002299 Rises=F Damp=F
 DIIS: error= 1.72D-06 at cycle   3 NSaved=   3.
 NSaved= 3 IEnMin= 3 EnMin= -215.480679960282     IErMin= 3 ErrMin= 1.72D-06
 ErrMax= 1.72D-06  0.00D+00 EMaxC= 1.00D-01 BMatC= 2.14D-10 BMatP= 2.22D-09
 IDIUse=1 WtCom= 1.00D+00 WtEn= 0.00D+00
 Coeff-Com:  0.221D+00 0.268D+00 0.511D+00
 Coeff:      0.221D+00 0.268D+00 0.511D+00
 Gap=     0.268 Goal=   None    Shift=    0.000
 RMSDP=2.66D-07 MaxDP=3.63D-06 DE=-2.30D-09 OVMax= 4.56D-06

 Cycle   9  Pass 1  IDiag  1:
 E= -215.480679960456     Delta-E=       -0.000000000173 Rises=F Damp=F
 DIIS: error= 6.13D-07 at cycle   4 NSaved=   4.
 NSaved= 4 IEnMin= 4 EnMin= -215.480679960456     IErMin= 4 ErrMin= 6.13D-07
 ErrMax= 6.13D-07  0.00D+00 EMaxC= 1.00D-01 BMatC= 1.68D-11 BMatP= 2.14D-10
 IDIUse=1 WtCom= 1.00D+00 WtEn= 0.00D+00
 Coeff-Com:  0.443D-01 0.637D-01 0.234D+00 0.658D+00
 Coeff:      0.443D-01 0.637D-01 0.234D+00 0.658D+00
 Gap=     0.268 Goal=   None    Shift=    0.000
 RMSDP=1.07D-07 MaxDP=1.26D-06 DE=-1.73D-10 OVMax= 2.25D-06

 Cycle  10  Pass 1  IDiag  1:
 E= -215.480679960467     Delta-E=       -0.000000000012 Rises=F Damp=F
 DIIS: error= 2.94D-07 at cycle   5 NSaved=   5.
 NSaved= 5 IEnMin= 5 EnMin= -215.480679960467     IErMin= 5 ErrMin= 2.94D-07
 ErrMax= 2.94D-07  0.00D+00 EMaxC= 1.00D-01 BMatC= 4.32D-12 BMatP= 1.68D-11
 IDIUse=1 WtCom= 1.00D+00 WtEn= 0.00D+00
 Coeff-Com: -0.160D-01-0.200D-01 0.301D-01 0.362D+00 0.644D+00
 Coeff:     -0.160D-01-0.200D-01 0.301D-01 0.362D+00 0.644D+00
 Gap=     0.268 Goal=   None    Shift=    0.000
 RMSDP=5.59D-08 MaxDP=7.02D-07 DE=-1.17D-11 OVMax= 1.42D-06

 Cycle  11  Pass 1  IDiag  1:
 E= -215.480679960470     Delta-E=       -0.000000000002 Rises=F Damp=F
 DIIS: error= 2.22D-07 at cycle   6 NSaved=   6.
 NSaved= 6 IEnMin= 6 EnMin= -215.480679960470     IErMin= 6 ErrMin= 2.22D-07
 ErrMax= 2.22D-07  0.00D+00 EMaxC= 1.00D-01 BMatC= 1.43D-12 BMatP= 4.32D-12
 IDIUse=1 WtCom= 1.00D+00 WtEn= 0.00D+00
 Coeff-Com: -0.152D-01-0.212D-01-0.822D-02 0.154D+00 0.431D+00 0.460D+00
 Coeff:     -0.152D-01-0.212D-01-0.822D-02 0.154D+00 0.431D+00 0.460D+00
 Gap=     0.268 Goal=   None    Shift=    0.000
 RMSDP=2.06D-08 MaxDP=2.53D-07 DE=-2.39D-12 OVMax= 5.32D-07

 Cycle  12  Pass 1  IDiag  1:
 E= -215.480679960471     Delta-E=       -0.000000000001 Rises=F Damp=F
 DIIS: error= 5.56D-09 at cycle   7 NSaved=   7.
 NSaved= 7 IEnMin= 7 EnMin= -215.480679960471     IErMin= 7 ErrMin= 5.56D-09
 ErrMax= 5.56D-09  0.00D+00 EMaxC= 1.00D-01 BMatC= 2.34D-15 BMatP= 1.43D-12
 IDIUse=1 WtCom= 1.00D+00 WtEn= 0.00D+00
 Coeff-Com: -0.231D-02-0.325D-02-0.205D-02 0.198D-01 0.642D-01 0.905D-01
 Coeff-Com:  0.833D+00
 Coeff:     -0.231D-02-0.325D-02-0.205D-02 0.198D-01 0.642D-01 0.905D-01
 Coeff:      0.833D+00
 Gap=     0.268 Goal=   None    Shift=    0.000
 RMSDP=1.08D-09 MaxDP=8.26D-09 DE=-1.08D-12 OVMax= 2.12D-08

 SCF Done:  E(RB3LYP) =  -215.480679960     A.U. after   12 cycles
            NFock= 12  Conv=0.11D-08     -V/T= 2.0045
 KE= 2.145244671641D+02 PE=-6.569083217960D+02 EE= 1.578892677729D+02
 Leave Link  502 at Tue Oct  6 20:45:22 2020, MaxMem=  2684354560 cpu:              26.9 elap:               2.7
 (Enter /udrive/faculty/rpeverati/g16/g16/l508.exe)
 QCSCF skips out because SCF is already converged.
 Leave Link  508 at Tue Oct  6 20:45:23 2020, MaxMem=  2684354560 cpu:               0.4 elap:               0.4
 (Enter /udrive/faculty/rpeverati/g16/g16/l701.exe)
 ... and contract with generalized density number  0.
 Compute integral first derivatives.
 R6Disp: Adding Grimme-D3(BJ) dispersion energy 1st derivatives to the gradient.
 Leave Link  701 at Tue Oct  6 20:45:24 2020, MaxMem=  2684354560 cpu:               3.2 elap:               0.6
 (Enter /udrive/faculty/rpeverati/g16/g16/l702.exe)
 L702 exits ... SP integral derivatives will be done elsewhere.
 Leave Link  702 at Tue Oct  6 20:45:24 2020, MaxMem=  2684354560 cpu:               1.5 elap:               0.5
 (Enter /udrive/faculty/rpeverati/g16/g16/l703.exe)
 Integral derivatives from FoFJK, PRISM(SPDF).
 Compute integral first derivatives, UseDBF=F ICtDFT=           0.
 Calling FoFJK, ICntrl=      2127 FMM=F ISym2X=0 I1Cent= 0 IOpClX= 0 NMat=1 NMatS=1 NMatT=0.
 FoFJK:  IHMeth= 1 ICntrl=    2127 DoSepK=F KAlg= 0 I1Cent=           0 FoldK=F
 IRaf=         0 NMat=       1 IRICut=       1 DoRegI=T DoRafI=F ISym2E= 0 IDoP0=0 IntGTp=1.
 FoFCou: FMM=F IPFlag=           0 FMFlag=      100000 FMFlg1=         800
         NFxFlg=           0 DoJE=F BraDBF=F KetDBF=F FulRan=T
         wScrn=  0.000000 ICntrl=      2127 IOpCl=  0 I1Cent=           0 NGrid=           0
         NMat0=    1 NMatS0=      1 NMatT0=    0 NMatD0=    1 NMtDS0=    0 NMtDT0=    0
 Symmetry not used in FoFCou.
 Leave Link  703 at Tue Oct  6 20:45:25 2020, MaxMem=  2684354560 cpu:               7.3 elap:               0.9
 (Enter /udrive/faculty/rpeverati/g16/g16/l716.exe)
 Dipole        = 1.85922740D-01-4.81563516D-01 1.82988562D-04
 ***** Axes restored to original set *****
 -------------------------------------------------------------------
 Center     Atomic                   Forces (Hartrees/Bohr)
 Number     Number              X              Y              Z
 -------------------------------------------------------------------
      1        9          -0.000081124   -0.000068117    0.000003877
      2        6           0.000900275   -0.000056722   -0.000012499
      3        1          -0.000293125    0.000949700   -0.000004368
      4        1          -0.000261364   -0.000475420   -0.000901580
      5        1          -0.000266654   -0.000462871    0.000911259
      6        8           0.000310113    0.002891232   -0.000022045
      7        1          -0.000308120   -0.002777802    0.000025356
 -------------------------------------------------------------------
 Cartesian Forces:  Max     0.002891232 RMS     0.000983278
 Leave Link  716 at Tue Oct  6 20:45:26 2020, MaxMem=  2684354560 cpu:               1.3 elap:               0.4
 (Enter /udrive/faculty/rpeverati/g16/g16/l103.exe)

 GradGradGradGradGradGradGradGradGradGradGradGradGradGradGradGradGradGrad
 Berny optimization.
 Optmz: redundant internal coordinate code flag= 1
 Red2BG:  D1=  2.20D-01 OD1=  1.19D-01 B2RMS=  0.00D+00 IAprox=0
 FormGI is forming the generalized inverse of G from B-inverse, IUseBI=4.
 Internal  Forces:  Max     0.002780353 RMS     0.000736969
 Search for a saddle point.
 Step number   2 out of a maximum of   50
 All quantities printed in internal units (Hartrees-Bohrs-Radians)
 Swapping is turned off.
 Update second derivatives using D2CorX and points    1    2
 The second derivative matrix:
                          R1        R2        R3        R4        R5
           R1           0.07015
           R2           0.00658   0.39391
           R3           0.00693   0.00062   0.39103
           R4           0.00691   0.00061   0.00054   0.39120
           R5           0.02580   0.00411   0.00463   0.00461   0.04893
           R6           0.00145  -0.00224   0.00066   0.00061  -0.00099
           A1           0.02424  -0.00356   0.00149   0.00149  -0.02060
           A2           0.02576   0.00144  -0.00205   0.00165  -0.02162
           A3           0.02573   0.00144   0.00165  -0.00205  -0.02162
           A4          -0.00425   0.00310   0.00285  -0.00621   0.00330
           A5          -0.00426   0.00311  -0.00621   0.00286   0.00329
           A6          -0.02515  -0.00291   0.00205   0.00205   0.02145
           A7          -0.00428  -0.00611   0.00318   0.00317   0.00420
           A8          -0.02529   0.00184  -0.00524   0.00204   0.02118
           A9          -0.02527   0.00186   0.00204  -0.00524   0.02117
           A10          0.00382  -0.00049   0.00284   0.00283   0.01112
           A11         -0.00091  -0.00647   0.00354   0.00354   0.00086
           A12          0.00001  -0.00000  -0.00649   0.00649   0.00000
           D1           0.00001  -0.00006   0.00361  -0.00371  -0.00004
           D2          -0.00094  -0.00320   0.00027   0.00297   0.00107
           D3           0.00097   0.00310  -0.00307  -0.00036  -0.00116
                          R6        A1        A2        A3        A4
           R6           0.52158
           A1           0.00058   0.05862
           A2          -0.00117  -0.00525   0.05596
           A3          -0.00115  -0.00525  -0.00570   0.05592
           A4          -0.00008  -0.00166  -0.00067  -0.00447   0.03423
           A5          -0.00007  -0.00169  -0.00449  -0.00069  -0.01672
           A6           0.00166  -0.03492  -0.00772  -0.00774   0.00396
           A7           0.00044  -0.00470  -0.00248  -0.00247  -0.01638
           A8           0.00003  -0.00643  -0.03053  -0.00692   0.00297
           A9           0.00005  -0.00642  -0.00688  -0.03045   0.00037
           A10          0.00132  -0.00278  -0.00425  -0.00420   0.00006
           A11          0.00225   0.02370  -0.01297  -0.01298   0.00230
           A12         -0.00002  -0.00002   0.02180  -0.02184   0.00284
           D1          -0.00019  -0.00001   0.00176  -0.00174   0.01681
           D2           0.00004  -0.00207  -0.00197   0.00127  -0.01699
           D3          -0.00041   0.00203  -0.00126   0.00198  -0.00043
                          A5        A6        A7        A8        A9
           A5           0.03424
           A6           0.00398   0.05738
           A7          -0.01639   0.00053   0.03445
           A8           0.00039  -0.00342   0.00406   0.04889
           A9           0.00299  -0.00337   0.00404  -0.00172   0.04870
           A10          0.00008   0.01818   0.00177  -0.00347  -0.00337
           A11          0.00229   0.02246  -0.00418  -0.00985  -0.00978
           A12         -0.00284  -0.00003   0.00001   0.01561  -0.01552
           D1          -0.01679   0.00000  -0.00002  -0.00034   0.00032
           D2           0.00045   0.00042   0.01704   0.00240  -0.00055
           D3           0.01701  -0.00042  -0.01708   0.00056  -0.00239
                          A10       A11       A12       D1        D2
           A10          0.06852
           A11          0.01540   0.04616
           A12         -0.00009  -0.00004   0.04306
           D1          -0.00004  -0.00001   0.00107   0.01145
           D2           0.00103  -0.00166   0.00013  -0.00554   0.01192
           D3          -0.00112   0.00161   0.00013  -0.00551  -0.00505
                          D3
           D3           0.01197
 ITU=  0  0
 Eigenvectors of the second derivative matrix:
                           1         2         3         4         5
     Eigenvalues --    -0.02323   0.00094   0.04597   0.06388   0.06639
   1         R1        -0.54935   0.00156   0.13528  -0.00142   0.13282
   2         R2         0.00361   0.00024   0.01307   0.00043  -0.03330
   3         R3         0.00093  -0.00198  -0.00982   0.03418   0.01163
   4         R4         0.00092   0.00237  -0.00973  -0.03445   0.01087
   5         R5         0.61038  -0.00129   0.16991  -0.00369   0.20545
   6         R6         0.00407   0.00060  -0.00155  -0.00000   0.00214
   7         A1         0.21445  -0.00025   0.02423   0.00150  -0.12811
   8         A2         0.23931   0.00897  -0.05253   0.10756   0.01264
   9         A3         0.23921  -0.01073  -0.05148  -0.10718   0.00945
  10         A4        -0.04132   0.00590  -0.07896  -0.49181   0.32113
  11         A5        -0.04106  -0.00620  -0.07884   0.48456   0.33643
[...]
           A7           0.00053  -0.00493  -0.00230  -0.00230  -0.01622
           A8          -0.00030  -0.00639  -0.03098  -0.00677   0.00215
           A9          -0.00031  -0.00639  -0.00678  -0.03101   0.00047
           A10         -0.00448  -0.00275  -0.00399  -0.00402  -0.00003
           A11          0.00301   0.02254  -0.01237  -0.01236   0.00241
           A12          0.00001   0.00000   0.02083  -0.02082   0.00299
           D1           0.00000   0.00000   0.00150  -0.00150   0.01669
           D2           0.00029  -0.00210  -0.00178   0.00163  -0.01691
           D3          -0.00028   0.00211  -0.00163   0.00178  -0.00051
                          A5        A6        A7        A8        A9
           A5           0.03391
           A6           0.00368   0.05892
           A7          -0.01621   0.00048   0.03400
           A8           0.00046  -0.00415   0.00435   0.05108
           A9           0.00215  -0.00416   0.00435  -0.00296   0.05114
           A10         -0.00004   0.01865   0.00177  -0.00382  -0.00385
           A11          0.00242   0.02399  -0.00444  -0.01054  -0.01056
           A12         -0.00299   0.00000  -0.00000   0.01719  -0.01721
           D1          -0.01669  -0.00001   0.00000  -0.00050   0.00050
           D2           0.00051   0.00048   0.01679   0.00221  -0.00060
           D3           0.01690  -0.00048  -0.01678   0.00059  -0.00222
                          A10       A11       A12       D1        D2
           A10          0.07412
           A11          0.01590   0.04653
           A12          0.00003   0.00001   0.04377
           D1          -0.00001  -0.00000   0.00100   0.01149
           D2           0.00109  -0.00163  -0.00026  -0.00535   0.01192
           D3          -0.00111   0.00163  -0.00026  -0.00535  -0.00481
                          D3
           D3           0.01191
 ITU=  0
 Eigenvectors of the second derivative matrix:
                           1         2         3         4         5
     Eigenvalues --    -0.02445   0.00135   0.04851   0.06418   0.06558
   1         R1        -0.55313  -0.00012   0.16903  -0.00044  -0.15709
   2         R2         0.00316   0.00001   0.01209   0.00016   0.03556
   3         R3         0.00064   0.00215  -0.01490  -0.03307  -0.00844
   4         R4         0.00065  -0.00214  -0.01493   0.03297  -0.00873
   5         R5         0.60659  -0.00001   0.17177  -0.00103  -0.21828
   6         R6         0.00701   0.00001  -0.01283   0.00001   0.00063
   7         A1         0.21029   0.00007   0.04429   0.00067   0.14576
   8         A2         0.24096  -0.01257  -0.07101  -0.16811  -0.01676
   9         A3         0.24098   0.01267  -0.07169   0.16796  -0.01788
  10         A4        -0.03992  -0.00615  -0.09899   0.54576  -0.32491
  11         A5        -0.04000   0.00605  -0.09900  -0.54868  -0.31965
  12         A6        -0.20500  -0.00002   0.36322  -0.00004  -0.08573
  13         A7        -0.02895   0.00008   0.21411   0.00284   0.62876
  14         A8        -0.24372   0.01777  -0.13028  -0.11178  -0.01452
  15         A9        -0.24344  -0.01792  -0.13050   0.11133  -0.01516
  16         A10       -0.03048  -0.00026  -0.71082   0.00138   0.30059
  17         A11        0.00529   0.00004   0.40752   0.00062   0.06003
  18         A12       -0.00017   0.00609   0.00054  -0.32722   0.00105
  19         D1         0.00015  -0.58233   0.00010   0.36780  -0.00171
  20         D2        -0.00059  -0.57433   0.11485  -0.19246   0.31686
  21         D3         0.00069  -0.57442  -0.11457  -0.19532  -0.31494
                           6         7         8         9        10
     Eigenvalues --     0.07464   0.08446   0.08656   0.08683   0.10470
   1         R1        -0.00035  -0.56374  -0.00185  -0.03138  -0.34938
   2         R2        -0.00002   0.02521   0.00032   0.01123  -0.00324
   3         R3         0.01589   0.02173  -0.00339  -0.00265   0.02754
   4         R4        -0.01585   0.02171   0.00333  -0.00279   0.02764
   5         R5         0.00026  -0.62542  -0.00099   0.00272  -0.20748
   6         R6        -0.00002  -0.00592  -0.00010  -0.00370  -0.00229
   7         A1         0.00034  -0.01131   0.01603   0.68306  -0.00383
   8         A2        -0.08575   0.06501  -0.57465  -0.31223  -0.07066
   9         A3         0.08521   0.06258   0.55932  -0.33915  -0.07041
  10         A4         0.19784   0.07916  -0.18535   0.07260  -0.02633
  11         A5        -0.19823   0.07810   0.18914   0.06392  -0.02609
  12         A6        -0.00112   0.27852  -0.00528  -0.26915  -0.39056
  13         A7         0.00042  -0.17604  -0.00387  -0.14027   0.07545
  14         A8         0.55142  -0.19478   0.20310   0.11740   0.26386
  15         A9        -0.55013  -0.19489  -0.19833   0.12736   0.26550
  16         A10       -0.00046  -0.03189   0.00131   0.07020  -0.60588
  17         A11       -0.00078   0.26721   0.01075   0.41391  -0.39439
  18         A12        0.53441   0.00147  -0.41979   0.00973  -0.00110
  19         D1         0.10810   0.00038  -0.12628   0.00294   0.00007
  20         D2        -0.03481  -0.07725   0.08040  -0.07921   0.02282
  21         D3        -0.03522   0.07698   0.08452   0.07530  -0.02266
                          11        12        13        14        15
     Eigenvalues --     0.15405   0.37261   0.37345   0.37714   0.46881
   1         R1        -0.44496  -0.00073   0.02719   0.03447   0.00388
   2         R2         0.01005   0.00663  -0.33610   0.94035  -0.02083
   3         R3         0.00672   0.68955   0.68143   0.23895   0.01208
   4         R4         0.00674  -0.72233   0.64738   0.23674   0.01225
   5         R5         0.34613  -0.00049   0.01803   0.02262  -0.00741
   6         R6         0.00413   0.00066  -0.02338   0.01405   0.99949
   7         A1        -0.32673  -0.00028   0.01172  -0.00691   0.00318
   8         A2        -0.32250  -0.00858  -0.00147   0.00563  -0.00235
   9         A3        -0.32279   0.00861  -0.00105   0.00567  -0.00237
  10         A4         0.04193   0.02050  -0.00978   0.00648  -0.00063
  11         A5         0.04177  -0.02002  -0.01075   0.00641  -0.00063
  12         A6         0.39612  -0.00026   0.01144  -0.00637   0.00463
  13         A7         0.06917  -0.00045   0.01915  -0.01363   0.00152
  14         A8         0.28819  -0.01644  -0.01063   0.00093  -0.00148
  15         A9         0.28844   0.01694  -0.00983   0.00097  -0.00151
  16         A10        0.17354  -0.00034   0.01341  -0.00149  -0.01080
  17         A11        0.06939  -0.00054   0.02316  -0.01328   0.00781
  18         A12        0.00003  -0.02932  -0.00071  -0.00004   0.00003
  19         D1        -0.00004   0.01593   0.00038   0.00003   0.00001
  20         D2         0.01818  -0.00638   0.01003  -0.00689   0.00086
  21         D3        -0.01831  -0.00590  -0.01032   0.00688  -0.00083
 Eigenvalue     1 is  -2.45D-02 should be greater than     0.000000 Eigenvector:
                          R5        R1        A8        A9        A3
   1                    0.60659  -0.55313  -0.24372  -0.24344   0.24098
                          A2        A1        A6        A5        A4
   1                    0.24096   0.21029  -0.20500  -0.04000  -0.03992
 Angle between quadratic step and forces=  74.28 degrees.
 Linear search not attempted -- first point.
 Iteration  1 RMS(Cart)=  0.00087225 RMS(Int)=  0.00000141
 Iteration  2 RMS(Cart)=  0.00000117 RMS(Int)=  0.00000000
 Iteration  3 RMS(Cart)=  0.00000000 RMS(Int)=  0.00000000
 ITry= 1 IFail=0 DXMaxC= 2.88D-03 DCOld= 1.00D+10 DXMaxT= 3.00D-01 DXLimC= 3.00D+00 Rises=F
 Variable       Old X    -DE/DX   Delta X   Delta X   Delta X     New X
                                 (Linear)    (Quad)   (Total)
    R1        3.34907  -0.00000   0.00000  -0.00005  -0.00005   3.34902
    R2        2.03687   0.00000   0.00000   0.00001   0.00001   2.03687
    R3        2.03718   0.00000   0.00000   0.00002   0.00002   2.03720
    R4        2.03720   0.00000   0.00000  -0.00000  -0.00000   2.03720
    R5        3.71333  -0.00000   0.00000   0.00002   0.00002   3.71335
    R6        1.84305   0.00003   0.00000   0.00006   0.00006   1.84310
    A1        1.63393   0.00000   0.00000   0.00001   0.00001   1.63394
    A2        1.60773   0.00000   0.00000  -0.00003  -0.00003   1.60770
    A3        1.60760   0.00000   0.00000   0.00009   0.00009   1.60770
    A4        2.08187   0.00000   0.00000  -0.00003  -0.00003   2.08184
    A5        2.08181   0.00000   0.00000   0.00004   0.00004   2.08184
    A6        1.49828  -0.00000   0.00000  -0.00003  -0.00003   1.49825
    A7        2.10875  -0.00000   0.00000  -0.00002  -0.00002   2.10873
    A8        1.53846  -0.00000   0.00000   0.00008   0.00008   1.53853
    A9        1.53865  -0.00000   0.00000  -0.00011  -0.00011   1.53853
   A10        1.72957  -0.00000   0.00000  -0.00000  -0.00000   1.72957
   A11        3.13220  -0.00000   0.00000  -0.00002  -0.00002   3.13218
   A12        3.14155   0.00000   0.00000   0.00004   0.00004   3.14159
    D1       -3.13845  -0.00000   0.00000  -0.00315  -0.00315   3.14159
    D2        1.05839  -0.00000   0.00000  -0.00311  -0.00311   1.05528
    D3       -1.05219  -0.00000   0.00000  -0.00310  -0.00310  -1.05529
         Item               Value     Threshold  Converged?
 Maximum Force            0.000027     0.000450     YES
 RMS     Force            0.000006     0.000300     YES
 Maximum Displacement     0.002875     0.001800     NO 
 RMS     Displacement     0.000872     0.001200     YES
 Predicted change in Energy=-2.072053D-08
                           ----------------------------
                           ! Non-Optimized Parameters !
                           ! (Angstroms and Degrees)  !
 --------------------------                            --------------------------
 ! Name  Definition              Value          Derivative Info.                !
 --------------------------------------------------------------------------------
 ! R1    R(1,2)                  1.7722         -DE/DX =    0.0                 !
 ! R2    R(2,3)                  1.0779         -DE/DX =    0.0                 !
 ! R3    R(2,4)                  1.078          -DE/DX =    0.0                 !
 ! R4    R(2,5)                  1.078          -DE/DX =    0.0                 !
 ! R5    R(2,6)                  1.965          -DE/DX =    0.0                 !
 ! R6    R(6,7)                  0.9753         -DE/DX =    0.0                 !
 ! A1    A(1,2,3)               93.6176         -DE/DX =    0.0                 !
 ! A2    A(1,2,4)               92.1142         -DE/DX =    0.0                 !
 ! A3    A(1,2,5)               92.1142         -DE/DX =    0.0                 !
 ! A4    A(3,2,4)              119.2809         -DE/DX =    0.0                 !
 ! A5    A(3,2,5)              119.2809         -DE/DX =    0.0                 !
 ! A6    A(3,2,6)               85.8433         -DE/DX =    0.0                 !
 ! A7    A(4,2,5)              120.8213         -DE/DX =    0.0                 !
 ! A8    A(4,2,6)               88.1515         -DE/DX =    0.0                 !
 ! A9    A(5,2,6)               88.1515         -DE/DX =    0.0                 !
 ! A10   A(2,6,7)               99.097          -DE/DX =    0.0                 !
 ! A11   L(1,2,6,3,-1)         179.4609         -DE/DX =    0.0                 !
 ! A12   L(1,2,6,3,-2)         180.0            -DE/DX =    0.0                 !
 ! D1    D(3,2,6,7)            179.9998         -DE/DX =    0.0                 !
 ! D2    D(4,2,6,7)             60.463          -DE/DX =    0.0                 !
 ! D3    D(5,2,6,7)            -60.4634         -DE/DX =    0.0                 !
 --------------------------------------------------------------------------------
 GradGradGradGradGradGradGradGradGradGradGradGradGradGradGradGradGradGrad

 Leave Link  103 at Tue Oct  6 20:46:21 2020, MaxMem=  2684354560 cpu:               2.7 elap:               0.6
 (Enter /udrive/faculty/rpeverati/g16/g16/l9999.exe)

 ----------------------------------------------------------------------

 Electric dipole moment (input orientation):
 (Debye = 10**-18 statcoulomb cm , SI units = C m)
                  (au)            (Debye)         (10**-30 SI)
   Tot        0.505172D+00      0.128402D+01      0.428302D+01
   x          0.155638D+00      0.395592D+00      0.131955D+01
   y         -0.480560D+00     -0.122146D+01     -0.407435D+01
   z          0.613912D-02      0.156041D-01      0.520497D-01

 Dipole polarizability, Alpha (input orientation).
 (esu units = cm**3 , SI units = C**2 m**2 J**-1)
 Alpha(0;0):
               (au)            (10**-24 esu)      (10**-40 SI)
   iso        0.249468D+02      0.369673D+01      0.411316D+01
   aniso      0.221640D+02      0.328436D+01      0.365435D+01
   xx         0.393189D+02      0.582646D+01      0.648282D+01
   yx         0.209862D+01      0.310984D+00      0.346016D+00
   yy         0.198634D+02      0.294345D+01      0.327502D+01
   zx         0.297704D-02      0.441152D-03      0.490848D-03
   zy        -0.499980D-01     -0.740894D-02     -0.824356D-02
   zz         0.156580D+02      0.232027D+01      0.258165D+01

 ----------------------------------------------------------------------

 Dipole orientation:
     9          3.12539571          1.00143804          1.15925485
     6          0.13219648          0.04088027          0.00411533
     1          0.68299330          0.22437643         -1.94826157
     1          0.27961024         -1.77558390          0.91451974
     1         -0.80641862          1.59689932          0.92498907
     8         -3.17495177         -1.02046381         -1.30932783
     1         -4.04738577         -1.30047097          0.28982052

 Electric dipole moment (dipole orientation):
 (Debye = 10**-18 statcoulomb cm , SI units = C m)
                  (au)            (Debye)         (10**-30 SI)
   Tot        0.505172D+00      0.128402D+01      0.428302D+01
   x          0.000000D+00      0.000000D+00      0.000000D+00
   y          0.000000D+00      0.000000D+00      0.000000D+00
   z          0.505172D+00      0.128402D+01      0.428302D+01

 Dipole polarizability, Alpha (dipole orientation).
 (esu units = cm**3 , SI units = C**2 m**2 J**-1)
 Alpha(0;0):
               (au)            (10**-24 esu)      (10**-40 SI)
   iso        0.249468D+02      0.369673D+01      0.411316D+01
   aniso      0.221640D+02      0.328436D+01      0.365435D+01
   xx         0.365504D+02      0.541622D+01      0.602635D+01
   yx         0.670533D+01      0.993627D+00      0.110556D+01
   yy         0.178093D+02      0.263907D+01      0.293636D+01
   zx         0.381065D+01      0.564680D+00      0.628292D+00
   zy         0.122350D+01      0.181304D+00      0.201728D+00
   zz         0.204805D+02      0.303489D+01      0.337678D+01

 ----------------------------------------------------------------------

 Test job not archived.
 1\1\GINC-NODE63\Freq\RB3LYP\6-31G(d)\C1H4F1O1(1-)\RPEVERATI\06-Oct-202
 0\0\\#P Freq B3LYP/6-31G* 5D 7F Integral=UltraFineGrid SCF=(NoSymm,XQC
 ,MaxCyc=120) IOp(1/33=1) EmpiricalDispersion=GD3BJ Geom=Check Guess=Re
 ad\\TS search on BH76.\\-1,1\F,1.8412343752,-0.0485272227,0.0020302518
 \C,0.0703299765,0.020476226,-0.000947046\H,0.0442793112,1.0979782574,-
 0.0109296706\H,0.0111149601,-0.5170542137,-0.9335259993\H,0.0087753819
 ,-0.4996850753,0.9412940023\O,-1.8923812782,0.1154134009,-0.0044935432
 \H,-2.0929485354,-0.8389689371,0.0070719524\\Version=ES64L-G16RevA.03\
 State=1-A\HF=-215.4806914\RMSD=5.495e-10\RMSF=8.814e-06\ZeroPoint=0.04
 86777\Thermal=0.0534113\Dipole=0.1556377,-0.4805596,0.0061391\DipoleDe
 riv=-1.7537267,-0.0178048,-0.0012386,0.0472562,-0.5426593,0.,-0.002016
 9,-0.0000736,-0.547152,2.5417434,0.0328836,0.0022221,-0.0278106,0.3086
 363,0.0001252,0.0029959,0.0002363,0.3278383,-0.0898535,-0.0004744,-0.0
 001594,-0.0118832,-0.1577152,0.0018892,-0.0000891,0.0018892,0.0483976,
 -0.1280537,-0.0129721,-0.00651,0.0032921,-0.0145018,-0.0949746,0.01460
 9,-0.0886681,-0.1143295,-0.1282235,-0.0131404,0.0068491,0.0027523,-0.0
 111794,0.0931389,-0.0146886,0.0867562,-0.1178297,-1.5583951,0.0837982,
 -0.0019389,0.1341566,-0.30494,-0.0061262,-0.0025202,-0.0061954,-0.8147
 877,0.1165091,-0.0722899,0.0007757,-0.1477633,-0.2776405,0.0059474,0.0
 017099,0.0060555,0.2178629\Polar=39.3189258,2.0986228,19.8633525,0.002
 977,-0.049998,15.6579838\Quadrupole=-10.6525438,5.8312128,4.821331,2.4
 55244,-0.0490317,-0.0093985\PG=C01 [X(C1H4F1O1)]\NImag=1\\0.06647121,-
 0.00084211,0.01844990,0.00006718,-0.00000037,0.01856129,0.03365086,-0.
 00443726,0.00013973,-0.07472548,-0.00235578,-0.03530760,0.00001415,0.0
 2481608,0.71017064,0.00010698,0.00001221,-0.03381466,-0.00122954,-0.00
 004640,0.70265806,-0.02311911,0.01365214,-0.00015998,-0.00328054,0.008
 75446,-0.00002526,0.04547476,0.00631300,0.00334079,-0.00000163,0.00644
 701,-0.37096594,0.00290901,-0.00734948,0.37588114,-0.00009257,0.000008
 70,0.00229265,-0.00000419,0.00291012,-0.05658672,0.00007539,-0.0030796
 3,0.04314588,-0.02553140,-0.00526998,-0.01110527,0.00218118,-0.0128251
 3,-0.01385060,0.00156571,-0.00019809,-0.00062932,0.04218546,-0.0022158
 6,0.00306990,0.00081190,-0.01242067,-0.13449055,-0.13352155,-0.0003721
 6,-0.00584406,-0.02173340,0.01102216,0.12448351,-0.00551239,0.00077635
 ,0.00348224,-0.01572575,-0.13414459,-0.29093457,0.00012846,0.00237546,
 0.00545815,0.01620680,0.14182615,0.28975130,-0.02558183,-0.00506133,0.
 01112358,0.00207929,-0.01290097,0.01483579,0.00156232,-0.00018322,0.00
 062935,0.00173583,0.00104211,-0.00078254,0.04229900,-0.00211606,0.0030
 4026,-0.00080704,-0.01245261,-0.12956237,0.13047971,-0.00042473,-0.005
 48199,0.02193439,0.00108857,0.01083895,-0.01190930,0.01106975,0.119264
 59,0.00548278,-0.00078071,0.00355394,0.01668850,0.13110222,-0.29573100
 ,-0.00012977,-0.00217335,0.00509547,0.00079644,0.01151832,-0.01059209,
 -0.01702749,-0.13862325,0.29483488,-0.02437967,-0.00112381,-0.00002543
 ,0.04040487,0.01404640,-0.00007290,-0.01647746,-0.00598813,0.00003694,
 -0.02200479,0.00307404,0.00420365,-0.02197051,0.00299458,-0.00432539,0
 .07635153,0.00271766,0.00644526,0.00000200,-0.00849732,-0.03965520,0.0
 0012674,-0.01479423,0.00138724,-0.00002120,0.00654294,0.00171937,0.000
 12991,0.00641491,0.00168864,-0.00006047,0.07952538,0.48193914,-0.00006
 914,-0.00000374,0.00639071,0.00021889,0.00018310,-0.02738127,0.0001289
 3,-0.00001148,0.00076884,0.00746621,0.00087276,0.00370541,-0.00766874,
 -0.00083382,0.00368160,-0.00092980,-0.00569996,0.01362348,-0.00151006,
 0.00308235,-0.00003982,-0.00031017,-0.01953508,0.00023553,-0.00572567,
 0.00095891,-0.00001560,-0.00013200,-0.00012962,0.00148177,-0.00012410,
 -0.00015949,-0.00148506,-0.03192397,-0.07190934,0.00085366,0.03972598,
 -0.00150085,0.00096150,-0.00001901,0.00654477,-0.00018900,0.00004028,0
 .00053401,0.00168282,-0.00001898,-0.00036048,0.00022288,0.00094603,-0.
 00038125,0.00021192,-0.00098276,-0.09252846,-0.45352444,0.00549313,0.0
 8769227,0.45063432,0.00001717,-0.00001244,-0.00046617,-0.00008764,-0.0
 0001859,0.00179018,-0.00001778,-0.00001838,-0.00017427,0.00111574,0.00
 022581,-0.00087043,-0.00110994,-0.00024070,-0.00084281,0.00111293,0.00
 552298,-0.00078875,-0.00103047,-0.00545869,0.00135225\\0.00000088,-0.0
 0000044,-0.00000036,-0.00000353,0.00000025,0.00000126,0.00000079,-0.00
 000195,0.00000215,0.00000163,0.00000357,0.00000016,0.00000121,0.000000
 07,-0.00000244,-0.00000597,-0.00002743,-0.00000739,0.00000499,0.000025
 94,0.00000662\\\@


 IN THE LONG RUN, DIGGING FOR TRUTH HAS ALWAYS PROVED NOT ONLY 
 MORE INTERESTING BUT MORE PROFITABLE THAN DIGGING FOR GOLD.

                             -- GEORGE R. HARRISON
 Job cpu time:       0 days  0 hours  2 minutes 43.2 seconds.
 Elapsed time:       0 days  0 hours  0 minutes 21.4 seconds.
 File lengths (MBytes):  RWF=      8 Int=      0 D2E=      0 Chk=      1 Scr=      1
 Normal termination of Gaussian 16 at Tue Oct  6 20:46:23 2020.
