 Entering Gaussian System, Link 0=g16
 Input=MN_69_NH_BH76_B3LYP_6-31Gs.in
 Output=MN_69_NH_BH76_B3LYP_6-31Gs.log
 Initial command:
 /udrive/faculty/rpeverati/g16/g16/l1.exe "/udrive/scratch-directories/gaussian09/rpeverati/Gau-28344.inp" -scrdir="/udrive/scratch-directories/gaussian09/rpeverati/"
 Entering Link 1 = /udrive/faculty/rpeverati/g16/g16/l1.exe PID=     28359.
  
 Copyright (c) 1988,1990,1992,1993,1995,1998,2003,2009,2016,
            Gaussian, Inc.  All Rights Reserved.
  
 This is part of the Gaussian(R) 16 program.  It is based on
 the Gaussian(R) 09 system (copyright 2009, Gaussian, Inc.),
 the Gaussian(R) 03 system (copyright 2003, Gaussian, Inc.),
 the Gaussian(R) 98 system (copyright 1998, Gaussian, Inc.),
 the Gaussian(R) 94 system (copyright 1995, Gaussian, Inc.),
 the Gaussian 92(TM) system (copyright 1992, Gaussian, Inc.),
 the Gaussian 90(TM) system (copyright 1990, Gaussian, Inc.),
 the Gaussian 88(TM) system (copyright 1988, Gaussian, Inc.),
 the Gaussian 86(TM) system (copyright 1986, Carnegie Mellon
 University), and the Gaussian 82(TM) system (copyright 1983,
 Carnegie Mellon University). Gaussian is a federally registered
 trademark of Gaussian, Inc.
  
 This software contains proprietary and confidential information,
 including trade secrets, belonging to Gaussian, Inc.
  
 This software is provided under written license and may be
 used, copied, transmitted, or stored only in accord with that
 written license.
  
 The following legend is applicable only to US Government
 contracts under FAR:
  
                    RESTRICTED RIGHTS LEGEND
  
 Use, reproduction and disclosure by the US Government is
 subject to restrictions as set forth in subparagraphs (a)
 and (c) of the Commercial Computer Software - Restricted
 Rights clause in FAR 52.227-19.
  
 Gaussian, Inc.
 340 Quinnipiac St., Bldg. 40, Wallingford CT 06492
  
  
 ---------------------------------------------------------------
 Warning -- This program may not be used in any manner that
 competes with the business of Gaussian, Inc. or will provide
 assistance to any competitor of Gaussian, Inc.  The licensee
 of this program is prohibited from giving any competitor of
 Gaussian, Inc. access to this program.  By using this program,
 the user acknowledges that Gaussian, Inc. is engaged in the
 business of creating and licensing software in the field of
 computational chemistry and represents and warrants to the
 licensee that it is not a competitor of Gaussian, Inc. and that
 it will not use this program in any manner prohibited above.
 ---------------------------------------------------------------
  

 Cite this work as:
 Gaussian 16, Revision A.03,
 M. J. Frisch, G. W. Trucks, H. B. Schlegel, G. E. Scuseria, 
 M. A. Robb, J. R. Cheeseman, G. Scalmani, V. Barone, 
 G. A. Petersson, H. Nakatsuji, X. Li, M. Caricato, A. V. Marenich, 
 J. Bloino, B. G. Janesko, R. Gomperts, B. Mennucci, H. P. Hratchian, 
 J. V. Ortiz, A. F. Izmaylov, J. L. Sonnenberg, D. Williams-Young, 
 F. Ding, F. Lipparini, F. Egidi, J. Goings, B. Peng, A. Petrone, 
 T. Henderson, D. Ranasinghe, V. G. Zakrzewski, J. Gao, N. Rega, 
 G. Zheng, W. Liang, M. Hada, M. Ehara, K. Toyota, R. Fukuda, 
 J. Hasegawa, M. Ishida, T. Nakajima, Y. Honda, O. Kitao, H. Nakai, 
 T. Vreven, K. Throssell, J. A. Montgomery, Jr., J. E. Peralta, 
 F. Ogliaro, M. J. Bearpark, J. J. Heyd, E. N. Brothers, K. N. Kudin, 
 V. N. Staroverov, T. A. Keith, R. Kobayashi, J. Normand, 
 K. Raghavachari, A. P. Rendell, J. C. Burant, S. S. Iyengar, 
 J. Tomasi, M. Cossi, J. M. Millam, M. Klene, C. Adamo, R. Cammi, 
 J. W. Ochterski, R. L. Martin, K. Morokuma, O. Farkas, 
 J. B. Foresman, and D. J. Fox, Gaussian, Inc., Wallingford CT, 2016.
 
 ******************************************
 Gaussian 16:  ES64L-G16RevA.03 25-Dec-2016
                 6-Oct-2020 
 ******************************************
 %NoSave
 %nproc=12
 Will use up to   12 processors via shared memory.
 %mem=20GB
 %chk=MN_69_NH_BH76_B3LYP_6-31Gs
 ----------------------------------------------------------------------
 #P Opt(MaxCyc=100) B3LYP/6-31G* 5D 7F Integral=UltraFineGrid SCF=(NoSy
 mm,XQC,MaxCyc=120) IOp(1/33=1) EmpiricalDispersion=GD3BJ
 ----------------------------------------------------------------------
 1/6=100,18=20,19=15,26=4,33=1,38=1/1,3;
 2/9=110,12=2,17=6,18=5,40=1/2;
 3/5=1,6=6,7=1,8=11,11=2,25=1,30=1,71=1,74=-5,75=-5,124=41/1,2,3;
 4/9=2/1;
 5/5=2,7=120,8=3,13=1,38=5/2,8;
 6/7=2,8=2,9=2,10=2,28=1/1;
 7//1,2,3,16;
 1/6=100,18=20,19=15,26=4,33=1/3(2);
 2/9=110/2;
 99//99;
 2/9=110/2;
 3/5=1,6=6,7=1,8=11,11=2,25=1,30=1,71=1,74=-5,75=-5,124=41/1,2,3;
 4/5=5,9=2,16=3,69=1/1;
 5/5=2,7=120,8=3,13=1,38=5/2,8;
 7//1,2,3,16;
 1/6=100,18=20,19=15,26=4,33=1/3(-5);
 2/9=110/2;
 6/7=2,8=2,9=2,10=2,19=2,28=1/1;
 99/9=1/99;
 Leave Link    1 at Tue Oct  6 20:16:18 2020, MaxMem=  2684354560 cpu:               5.1 elap:               0.5
 (Enter /udrive/faculty/rpeverati/g16/g16/l101.exe)
 ONIOM data not found on unit 2.
 ------------------
 TS search on BH76.
 ------------------
 TstMul:  ICh=     0
 TstMul:  Mul=     3
 TstMul:  ICh=     0
 TstMul:  Mul=     3
 Symbolic Z-matrix:
 Charge =  0 Multiplicity = 3
 N                     0.        0.        0.12959 
 H                     0.        0.       -0.90714 
 
 RdStrC is calling ZToCFu for IStruc=1 NZ=     2.
 PrtBox:  NBox=     1 Levels=  1 BoxLen=    8.00 SMaxX=        1.96
          Shift=            0.000000            0.000000            1.714250
 Box      1 Number                   0 centers from      1 to      2:
 After GenITR:
 ITRead=  0  0
 MicOpt= -1 -1
 ITRead=  0  0
 MicOpt= -1 -1
 NAtoms=      2 NQM=        2 NQMF=       0 NMMI=      0 NMMIF=      0
                NMic=       0 NMicF=      0.
                    Isotopes and Nuclear Properties:
 (Nuclear quadrupole moments (NQMom) in fm**2, nuclear magnetic moments (NMagM)
  in nuclear magnetons)

  Atom         1           2
 IAtWgt=          14           1
 AtmWgt=  14.0030740   1.0078250
 NucSpn=           2           1
 AtZEff=   0.0000000   0.0000000
 NQMom=    2.0440000   0.0000000
 NMagM=    0.4037610   2.7928460
 AtZNuc=   7.0000000   1.0000000
 No MM parameters found.
 Leave Link  101 at Tue Oct  6 20:16:20 2020, MaxMem=  2684354560 cpu:               9.7 elap:               1.0
 (Enter /udrive/faculty/rpeverati/g16/g16/l103.exe)

 GradGradGradGradGradGradGradGradGradGradGradGradGradGradGradGradGradGrad
 Berny optimization.
 Optmz: redundant internal coordinate code flag= 1
 Initialization pass.
                           ----------------------------
                           !    Initial Parameters    !
                           ! (Angstroms and Degrees)  !
 --------------------------                            --------------------------
 ! Name  Definition              Value          Derivative Info.                !
 --------------------------------------------------------------------------------
 ! R1    R(1,2)                  1.0367         estimate D2E/DX2                !
 --------------------------------------------------------------------------------
 Maximum allowed force set to 1.00D+20.
 Trust Radius=3.00D-01 FncErr=1.00D-07 GrdErr=1.00D-06 EigMax=2.50D+02 EigMin=1.00D-04
 Number of steps in this run=    100 maximum allowed number of steps=    100.
 GradGradGradGradGradGradGradGradGradGradGradGradGradGradGradGradGradGrad

 Leave Link  103 at Tue Oct  6 20:16:21 2020, MaxMem=  2684354560 cpu:               1.5 elap:               0.5
 (Enter /udrive/faculty/rpeverati/g16/g16/l202.exe)
                          Input orientation:                          
 ---------------------------------------------------------------------
 Center     Atomic      Atomic             Coordinates (Angstroms)
 Number     Number       Type             X           Y           Z
 ---------------------------------------------------------------------
      1          7           0        0.000000    0.000000    0.129591
      2          1           0        0.000000    0.000000   -0.907142
 ---------------------------------------------------------------------
 Stoichiometry    HN(3)
 Framework group  C*V[C*(HN)]
 Deg. of freedom     1
 Full point group                 C*V     NOp   4
 Largest Abelian subgroup         C2V     NOp   4
 Largest concise Abelian subgroup C1      NOp   1
                         Standard orientation:                         
 ---------------------------------------------------------------------
 Center     Atomic      Atomic             Coordinates (Angstroms)
 Number     Number       Type             X           Y           Z
 ---------------------------------------------------------------------
      1          7           0        0.000000    0.000000    0.129592
      2          1           0        0.000000    0.000000   -0.907142
 ---------------------------------------------------------------------
 Rotational constants (GHZ):           0.0000000         500.1281279         500.1281279
 Leave Link  202 at Tue Oct  6 20:16:21 2020, MaxMem=  2684354560 cpu:               1.6 elap:               0.6
 (Enter /udrive/faculty/rpeverati/g16/g16/l301.exe)
 Standard basis: 6-31G(d) (5D, 7F)
 Ernie: Thresh=  0.10000D-02 Tol=  0.10000D-05 Strict=F.
 There are    10 symmetry adapted cartesian basis functions of A1  symmetry.
 There are     1 symmetry adapted cartesian basis functions of A2  symmetry.
 There are     3 symmetry adapted cartesian basis functions of B1  symmetry.
 There are     3 symmetry adapted cartesian basis functions of B2  symmetry.
 There are     9 symmetry adapted basis functions of A1  symmetry.
 There are     1 symmetry adapted basis functions of A2  symmetry.
 There are     3 symmetry adapted basis functions of B1  symmetry.
 There are     3 symmetry adapted basis functions of B2  symmetry.
    16 basis functions,    32 primitive gaussians,    17 cartesian basis functions
     5 alpha electrons        3 beta electrons
       nuclear repulsion energy         3.5729926681 Hartrees.
 IExCor=  402 DFT=T Ex+Corr=B3LYP ExCW=0 ScaHFX=  0.200000
 ScaDFX=  0.800000  0.720000  1.000000  0.810000 ScalE2=  1.000000  1.000000
 IRadAn=      5 IRanWt=     -1 IRanGd=            0 ICorTp=0 IEmpDi=141
 NAtoms=    2 NActive=    2 NUniq=    2 SFac= 1.00D+00 NAtFMM=   60 NAOKFM=F Big=F
 Integral buffers will be    131072 words long.
 Raffenetti 2 integral format.
 Two-electron integral symmetry is turned on.
 R6Disp:  Grimme-D3(BJ) Dispersion energy=       -0.0003239963 Hartrees.
 Nuclear repulsion after empirical dispersion term =        3.5726686718 Hartrees.
 Leave Link  301 at Tue Oct  6 20:16:22 2020, MaxMem=  2684354560 cpu:               1.5 elap:               0.4
 (Enter /udrive/faculty/rpeverati/g16/g16/l302.exe)
 NPDir=0 NMtPBC=     1 NCelOv=     1 NCel=       1 NClECP=     1 NCelD=      1
         NCelK=      1 NCelE2=     1 NClLst=     1 CellRange=     0.0.
 One-electron integrals computed using PRISM.
 One-electron integral symmetry used in STVInt
 NBasis=    16 RedAO= T EigKep=  6.29D-02  NBF=     9     1     3     3
 NBsUse=    16 1.00D-06 EigRej= -1.00D+00 NBFU=     9     1     3     3
 Precomputing XC quadrature grid using
 IXCGrd= 4 IRadAn=           5 IRanWt=          -1 IRanGd=           0 AccXCQ= 0.00D+00.
 Generated NRdTot=       0 NPtTot=           0 NUsed=           0 NTot=          32
 NSgBfM=    17    17    17    17    17 MxSgAt=     2 MxSgA2=     2.
 Leave Link  302 at Tue Oct  6 20:16:23 2020, MaxMem=  2684354560 cpu:               3.8 elap:               0.6
 (Enter /udrive/faculty/rpeverati/g16/g16/l303.exe)
 DipDrv:  MaxL=1.
 Leave Link  303 at Tue Oct  6 20:16:23 2020, MaxMem=  2684354560 cpu:               1.9 elap:               0.4
 (Enter /udrive/faculty/rpeverati/g16/g16/l401.exe)
 SCF N**3 symmetry information disabled.
 ExpMin= 1.61D-01 ExpMax= 4.17D+03 ExpMxC= 6.27D+02 IAcc=3 IRadAn=         5 AccDes= 0.00D+00
 Harris functional with IExCor=  402 and IRadAn=       5 diagonalized for initial guess.
 HarFok:  IExCor=  402 AccDes= 0.00D+00 IRadAn=         5 IDoV= 1 UseB2=F ITyADJ=14
 ICtDFT=  3500011 ScaDFX=  1.000000  1.000000  1.000000  1.000000
 FoFCou: FMM=F IPFlag=           0 FMFlag=      100000 FMFlg1=           0
         NFxFlg=           0 DoJE=T BraDBF=F KetDBF=T FulRan=T
         wScrn=  0.000000 ICntrl=       500 IOpCl=  0 I1Cent=   200000004 NGrid=           0
         NMat0=    1 NMatS0=      1 NMatT0=    0 NMatD0=    1 NMtDS0=    0 NMtDT0=    0
 Petite list used in FoFCou.
 Harris En= -55.1320044191701    
 JPrj=0 DoOrth=F DoCkMO=F.
 Initial guess orbital symmetries:
 Alpha Orbitals:
       Occupied  (SG) (SG) (SG) (PI) (PI)
       Virtual   (SG) (PI) (PI) (SG) (SG) (SG) (PI) (PI) (DLTA)
                 (DLTA) (SG)
 Beta  Orbitals:
       Occupied  (SG) (SG) (SG)
       Virtual   (PI) (PI) (SG) (PI) (PI) (SG) (SG) (SG) (PI) (PI)
                 (DLTA) (DLTA) (SG)
 The electronic state of the initial guess is 3-SG.
 Initial guess <Sx>= 0.0000 <Sy>= 0.0000 <Sz>= 1.0000 <S**2>= 2.0000 S= 1.0000
 Leave Link  401 at Tue Oct  6 20:16:24 2020, MaxMem=  2684354560 cpu:               5.1 elap:               0.7
 (Enter /udrive/faculty/rpeverati/g16/g16/l502.exe)
 Keep R1 and R2 ints in memory in symmetry-blocked form, NReq=10348527.
 FoFCou: FMM=F IPFlag=           0 FMFlag=           0 FMFlg1=           0
         NFxFlg=           0 DoJE=F BraDBF=F KetDBF=F FulRan=T
         wScrn=  0.000000 ICntrl=       600 IOpCl=  0 I1Cent=           0 NGrid=           0
         NMat0=    1 NMatS0=    136 NMatT0=    0 NMatD0=    1 NMtDS0=    0 NMtDT0=    0
 Petite list used in FoFCou.
 UHF open shell SCF:
 Using DIIS extrapolation, IDIIS=  1040.
 NGot=  2684354560 LenX=  2684346491 LenY=  2684345609
 Requested convergence on RMS density matrix=1.00D-08 within 120 cycles.
 Requested convergence on MAX density matrix=1.00D-06.
 Requested convergence on             energy=1.00D-06.
 No special actions if energy rises.
 Integral accuracy reduced to 1.0D-05 until final iterations.

 Cycle   1  Pass 0  IDiag  1:
 E= -55.2118939782418    
 DIIS: error= 2.29D-02 at cycle   1 NSaved=   1.
 NSaved= 1 IEnMin= 1 EnMin= -55.2118939782418     IErMin= 1 ErrMin= 2.29D-02
 ErrMax= 2.29D-02  0.00D+00 EMaxC= 1.00D-01 BMatC= 1.75D-02 BMatP= 1.75D-02
 IDIUse=3 WtCom= 7.71D-01 WtEn= 2.29D-01
 Coeff-Com:  0.100D+01
 Coeff-En:   0.100D+01
 Coeff:      0.100D+01
 Gap=     0.404 Goal=   None    Shift=    0.000
 Gap=     0.259 Goal=   None    Shift=    0.000
 GapD=    0.259 DampG=1.000 DampE=0.500 DampFc=0.5000 IDamp=-1.
 Damping current iteration by 5.00D-01
 RMSDP=7.18D-03 MaxDP=6.26D-02              OVMax= 5.43D-02

 Cycle   2  Pass 0  IDiag  1:
 E= -55.2146351881746     Delta-E=       -0.002741209933 Rises=F Damp=T
 DIIS: error= 9.43D-03 at cycle   2 NSaved=   2.
 NSaved= 2 IEnMin= 2 EnMin= -55.2146351881746     IErMin= 2 ErrMin= 9.43D-03
 ErrMax= 9.43D-03  0.00D+00 EMaxC= 1.00D-01 BMatC= 4.19D-03 BMatP= 1.75D-02
 IDIUse=3 WtCom= 9.06D-01 WtEn= 9.43D-02
 Coeff-Com: -0.572D+00 0.157D+01
 Coeff-En:   0.000D+00 0.100D+01
 Coeff:     -0.518D+00 0.152D+01
 Gap=     0.425 Goal=   None    Shift=    0.000
 Gap=     0.256 Goal=   None    Shift=    0.000
 RMSDP=2.58D-03 MaxDP=1.92D-02 DE=-2.74D-03 OVMax= 2.00D-02

 Cycle   3  Pass 0  IDiag  1:
 E= -55.2175340221643     Delta-E=       -0.002898833990 Rises=F Damp=F
 DIIS: error= 4.24D-03 at cycle   3 NSaved=   3.
 NSaved= 3 IEnMin= 3 EnMin= -55.2175340221643     IErMin= 3 ErrMin= 4.24D-03
 ErrMax= 4.24D-03  0.00D+00 EMaxC= 1.00D-01 BMatC= 6.55D-04 BMatP= 4.19D-03
 IDIUse=3 WtCom= 9.58D-01 WtEn= 4.24D-02
 Coeff-Com: -0.310D+00 0.550D+00 0.759D+00
 Coeff-En:   0.000D+00 0.000D+00 0.100D+01
 Coeff:     -0.297D+00 0.527D+00 0.770D+00
 Gap=     0.421 Goal=   None    Shift=    0.000
 Gap=     0.258 Goal=   None    Shift=    0.000
 RMSDP=9.02D-04 MaxDP=8.17D-03 DE=-2.90D-03 OVMax= 7.67D-03

 Cycle   4  Pass 0  IDiag  1:
 E= -55.2177134538193     Delta-E=       -0.000179431655 Rises=F Damp=F
 DIIS: error= 8.87D-04 at cycle   4 NSaved=   4.
 NSaved= 4 IEnMin= 4 EnMin= -55.2177134538193     IErMin= 4 ErrMin= 8.87D-04
 ErrMax= 8.87D-04  0.00D+00 EMaxC= 1.00D-01 BMatC= 1.95D-05 BMatP= 6.55D-04
 IDIUse=3 WtCom= 9.91D-01 WtEn= 8.87D-03
 Coeff-Com: -0.819D-02-0.211D-01 0.111D+00 0.919D+00
 Coeff-En:   0.000D+00 0.000D+00 0.000D+00 0.100D+01
 Coeff:     -0.812D-02-0.209D-01 0.110D+00 0.919D+00
 Gap=     0.422 Goal=   None    Shift=    0.000
 Gap=     0.258 Goal=   None    Shift=    0.000
 RMSDP=1.70D-04 MaxDP=1.36D-03 DE=-1.79D-04 OVMax= 1.28D-03

 Cycle   5  Pass 0  IDiag  1:
 E= -55.2177208730427     Delta-E=       -0.000007419223 Rises=F Damp=F
 DIIS: error= 2.27D-04 at cycle   5 NSaved=   5.
 NSaved= 5 IEnMin= 5 EnMin= -55.2177208730427     IErMin= 5 ErrMin= 2.27D-04
 ErrMax= 2.27D-04  0.00D+00 EMaxC= 1.00D-01 BMatC= 9.98D-07 BMatP= 1.95D-05
 IDIUse=3 WtCom= 9.98D-01 WtEn= 2.27D-03
 Coeff-Com:  0.192D-01-0.288D-01-0.673D-01-0.828D-01 0.116D+01
 Coeff-En:   0.000D+00 0.000D+00 0.000D+00 0.000D+00 0.100D+01
 Coeff:      0.191D-01-0.287D-01-0.672D-01-0.826D-01 0.116D+01
 Gap=     0.422 Goal=   None    Shift=    0.000
 Gap=     0.258 Goal=   None    Shift=    0.000
 RMSDP=6.95D-05 MaxDP=5.48D-04 DE=-7.42D-06 OVMax= 5.96D-04

 Cycle   6  Pass 0  IDiag  1:
 E= -55.2177215325713     Delta-E=       -0.000000659529 Rises=F Damp=F
 DIIS: error= 3.10D-05 at cycle   6 NSaved=   6.
 NSaved= 6 IEnMin= 6 EnMin= -55.2177215325713     IErMin= 6 ErrMin= 3.10D-05
 ErrMax= 3.10D-05  0.00D+00 EMaxC= 1.00D-01 BMatC= 3.38D-08 BMatP= 9.98D-07
 IDIUse=1 WtCom= 1.00D+00 WtEn= 0.00D+00
 Coeff-Com: -0.294D-02 0.605D-02 0.890D-02-0.315D-01-0.238D+00 0.126D+01
 Coeff:     -0.294D-02 0.605D-02 0.890D-02-0.315D-01-0.238D+00 0.126D+01
 Gap=     0.422 Goal=   None    Shift=    0.000
 Gap=     0.258 Goal=   None    Shift=    0.000
 RMSDP=2.15D-05 MaxDP=1.33D-04 DE=-6.60D-07 OVMax= 1.80D-04

 Cycle   7  Pass 0  IDiag  1:
 E= -55.2177215635706     Delta-E=       -0.000000030999 Rises=F Damp=F
 DIIS: error= 2.13D-06 at cycle   7 NSaved=   7.
 NSaved= 7 IEnMin= 7 EnMin= -55.2177215635706     IErMin= 7 ErrMin= 2.13D-06
 ErrMax= 2.13D-06  0.00D+00 EMaxC= 1.00D-01 BMatC= 2.29D-10 BMatP= 3.38D-08
 IDIUse=1 WtCom= 1.00D+00 WtEn= 0.00D+00
 Coeff-Com: -0.256D-04-0.436D-04 0.566D-03 0.188D-02-0.738D-02-0.631D-01
 Coeff-Com:  0.107D+01
 Coeff:     -0.256D-04-0.436D-04 0.566D-03 0.188D-02-0.738D-02-0.631D-01
 Coeff:      0.107D+01
 Gap=     0.422 Goal=   None    Shift=    0.000
 Gap=     0.258 Goal=   None    Shift=    0.000
 RMSDP=1.85D-06 MaxDP=9.83D-06 DE=-3.10D-08 OVMax= 1.62D-05

 Initial convergence to 1.0D-05 achieved.  Increase integral accuracy.
 Cycle   8  Pass 1  IDiag  1:
 E= -55.2177222576577     Delta-E=       -0.000000694087 Rises=F Damp=F
 DIIS: error= 1.06D-06 at cycle   1 NSaved=   1.
 NSaved= 1 IEnMin= 1 EnMin= -55.2177222576577     IErMin= 1 ErrMin= 1.06D-06
 ErrMax= 1.06D-06  0.00D+00 EMaxC= 1.00D-01 BMatC= 2.68D-11 BMatP= 2.68D-11
 IDIUse=1 WtCom= 1.00D+00 WtEn= 0.00D+00
 Coeff-Com:  0.100D+01
 Coeff:      0.100D+01
 Gap=     0.422 Goal=   None    Shift=    0.000
 Gap=     0.258 Goal=   None    Shift=    0.000
 RMSDP=1.85D-06 MaxDP=9.83D-06 DE=-6.94D-07 OVMax= 1.89D-06

 Cycle   9  Pass 1  IDiag  1:
 E= -55.2177222576660     Delta-E=       -0.000000000008 Rises=F Damp=F
 DIIS: error= 1.08D-07 at cycle   2 NSaved=   2.
 NSaved= 2 IEnMin= 2 EnMin= -55.2177222576660     IErMin= 2 ErrMin= 1.08D-07
 ErrMax= 1.08D-07  0.00D+00 EMaxC= 1.00D-01 BMatC= 5.34D-13 BMatP= 2.68D-11
 IDIUse=1 WtCom= 1.00D+00 WtEn= 0.00D+00
 Coeff-Com: -0.718D-01 0.107D+01
 Coeff:     -0.718D-01 0.107D+01
 Gap=     0.422 Goal=   None    Shift=    0.000
 Gap=     0.258 Goal=   None    Shift=    0.000
 RMSDP=3.40D-08 MaxDP=2.93D-07 DE=-8.32D-12 OVMax= 2.40D-07

 Cycle  10  Pass 1  IDiag  1:
 E= -55.2177222576662     Delta-E=       -0.000000000000 Rises=F Damp=F
 DIIS: error= 4.25D-08 at cycle   3 NSaved=   3.
 NSaved= 3 IEnMin= 3 EnMin= -55.2177222576662     IErMin= 3 ErrMin= 4.25D-08
 ErrMax= 4.25D-08  0.00D+00 EMaxC= 1.00D-01 BMatC= 7.22D-14 BMatP= 5.34D-13
 IDIUse=1 WtCom= 1.00D+00 WtEn= 0.00D+00
 Coeff-Com: -0.249D-01 0.234D+00 0.791D+00
 Coeff:     -0.249D-01 0.234D+00 0.791D+00
 Gap=     0.422 Goal=   None    Shift=    0.000
 Gap=     0.258 Goal=   None    Shift=    0.000
 RMSDP=1.47D-08 MaxDP=1.63D-07 DE=-1.92D-13 OVMax= 1.30D-07

 Cycle  11  Pass 1  IDiag  1:
 E= -55.2177222576662     Delta-E=        0.000000000000 Rises=F Damp=F
 DIIS: error= 1.77D-08 at cycle   4 NSaved=   4.
 NSaved= 4 IEnMin= 3 EnMin= -55.2177222576662     IErMin= 4 ErrMin= 1.77D-08
 ErrMax= 1.77D-08  0.00D+00 EMaxC= 1.00D-01 BMatC= 1.71D-14 BMatP= 7.22D-14
 IDIUse=1 WtCom= 1.00D+00 WtEn= 0.00D+00
 Coeff-Com: -0.687D-03-0.438D-01 0.298D+00 0.747D+00
 Coeff:     -0.687D-03-0.438D-01 0.298D+00 0.747D+00
 Gap=     0.422 Goal=   None    Shift=    0.000
 Gap=     0.258 Goal=   None    Shift=    0.000
 RMSDP=4.74D-09 MaxDP=4.44D-08 DE= 0.00D+00 OVMax= 4.37D-08

 SCF Done:  E(UB3LYP) =  -55.2177222577     A.U. after   11 cycles
            NFock= 11  Conv=0.47D-08     -V/T= 2.0052
 <Sx>= 0.0000 <Sy>= 0.0000 <Sz>= 1.0000 <S**2>= 2.0049 S= 1.0016
 <L.S>= 0.000000000000E+00
 KE= 5.493090208319D+01 PE=-1.365858844218D+02 EE= 2.286459140917D+01
 Annihilation of the first spin contaminant:
 S**2 before annihilation     2.0049,   after     2.0000
 Leave Link  502 at Tue Oct  6 20:16:26 2020, MaxMem=  2684354560 cpu:               8.5 elap:               1.2
 (Enter /udrive/faculty/rpeverati/g16/g16/l508.exe)
 QCSCF skips out because SCF is already converged.
 Leave Link  508 at Tue Oct  6 20:16:26 2020, MaxMem=  2684354560 cpu:               0.3 elap:               0.5
 (Enter /udrive/faculty/rpeverati/g16/g16/l601.exe)
 Copying SCF densities to generalized density rwf, IOpCl= 1 IROHF=0.

 **********************************************************************

            Population analysis using the SCF density.

 **********************************************************************

 Orbital symmetries:
 Alpha Orbitals:
       Occupied  (SG) (SG) (SG) (PI) (PI)
       Virtual   (SG) (PI) (PI) (SG) (SG) (SG) (PI) (PI) (DLTA)
                 (DLTA) (SG)
 Beta  Orbitals:
       Occupied  (SG) (SG) (SG)
       Virtual   (PI) (PI) (SG) (PI) (PI) (SG) (SG) (SG) (PI) (PI)
                 (DLTA) (DLTA) (SG)
 The electronic state is 3-SG.
 Alpha  occ. eigenvalues --  -14.40087  -0.84123  -0.39805  -0.32926  -0.32926
 Alpha virt. eigenvalues --    0.09269   0.63980   0.63980   0.71373   0.74711
 Alpha virt. eigenvalues --    0.96693   1.65196   1.65196   1.65642   1.65642
 Alpha virt. eigenvalues --    2.22322
  Beta  occ. eigenvalues --  -14.36284  -0.73064  -0.35214
  Beta virt. eigenvalues --   -0.09436  -0.09436   0.10985   0.73956   0.73956
  Beta virt. eigenvalues --    0.74143   0.76675   1.02803   1.72899   1.72899
  Beta virt. eigenvalues --    1.79936   1.79936   2.27637
          Condensed to atoms (all electrons):
               1          2
     1  N    7.103416   0.193736
     2  H    0.193736   0.509112
          Atomic-Atomic Spin Densities.
               1          2
     1  N    2.080362  -0.012991
     2  H   -0.012991  -0.054381
 Mulliken charges and spin densities:
               1          2
     1  N   -0.297152   2.067372
     2  H    0.297152  -0.067372
 Sum of Mulliken charges =  -0.00000   2.00000
 Mulliken charges and spin densities with hydrogens summed into heavy atoms:
               1          2
     1  N   -0.000000   2.000000
 Electronic spatial extent (au):  <R**2>=             16.7658
 Charge=             -0.0000 electrons
 Dipole moment (field-independent basis, Debye):
    X=              0.0000    Y=             -0.0000    Z=             -1.6029  Tot=              1.6029
 Quadrupole moment (field-independent basis, Debye-Ang):
   XX=             -6.1370   YY=             -6.1370   ZZ=             -5.7592
   XY=             -0.0000   XZ=              0.0000   YZ=             -0.0000
 Traceless Quadrupole moment (field-independent basis, Debye-Ang):
   XX=             -0.1259   YY=             -0.1259   ZZ=              0.2519
   XY=             -0.0000   XZ=              0.0000   YZ=             -0.0000
 Octapole moment (field-independent basis, Debye-Ang**2):
  XXX=              0.0000  YYY=              0.0000  ZZZ=             -1.8839  XYY=              0.0000
  XXY=             -0.0000  XXZ=             -0.3133  XZZ=              0.0000  YZZ=             -0.0000
  YYZ=             -0.3133  XYZ=             -0.0000
 Hexadecapole moment (field-independent basis, Debye-Ang**3):
 XXXX=             -5.0416 YYYY=             -5.0416 ZZZZ=             -8.4550 XXXY=             -0.0000
 XXXZ=              0.0000 YYYX=             -0.0000 YYYZ=             -0.0000 ZZZX=              0.0000
 ZZZY=             -0.0000 XXYY=             -1.6805 XXZZ=             -2.4298 YYZZ=             -2.4298
 XXYZ=             -0.0000 YYXZ=              0.0000 ZZXY=             -0.0000
 N-N= 3.572668671785D+00 E-N=-1.365858840779D+02  KE= 5.493090208319D+01
                          Isotropic Fermi Contact Couplings
        Atom                 a.u.       MegaHertz       Gauss      10(-4) cm-1
     1  N(14)              0.21631      34.94491      12.46921      11.65637
     2  H(1)              -0.02605     -58.21013     -20.77082     -19.41681
 --------------------------------------------------------
       Center         ----  Spin Dipole Couplings  ----
                      3XX-RR        3YY-RR        3ZZ-RR
 --------------------------------------------------------
     1   Atom        1.071912      1.071912     -2.143825
     2   Atom       -0.124119     -0.124119      0.248237
 --------------------------------------------------------
                        XY            XZ            YZ
 --------------------------------------------------------
     1   Atom        0.000000      0.000000      0.000000
     2   Atom        0.000000      0.000000      0.000000
 --------------------------------------------------------


 ---------------------------------------------------------------------------------
              Anisotropic Spin Dipole Couplings in Principal Axis System
 ---------------------------------------------------------------------------------

       Atom             a.u.   MegaHertz   Gauss  10(-4) cm-1        Axes

              Baa    -2.1438   -82.683   -29.503   -27.580  0.0000  0.0000  1.0000
     1 N(14)  Bbb     1.0719    41.341    14.752    13.790  0.0000  1.0000  0.0000
              Bcc     1.0719    41.341    14.752    13.790  1.0000  0.0000  0.0000
 
              Baa    -0.1241   -66.224   -23.630   -22.090  1.0000  0.0000  0.0000
     2 H(1)   Bbb    -0.1241   -66.224   -23.630   -22.090  0.0000  1.0000  0.0000
              Bcc     0.2482   132.448    47.261    44.180  0.0000  0.0000  1.0000
 

 ---------------------------------------------------------------------------------

 No NMR shielding tensors so no spin-rotation constants.
 Leave Link  601 at Tue Oct  6 20:16:27 2020, MaxMem=  2684354560 cpu:               5.5 elap:               0.7
 (Enter /udrive/faculty/rpeverati/g16/g16/l701.exe)
 ... and contract with generalized density number  0.
 Compute integral first derivatives.
 R6Disp: Adding Grimme-D3(BJ) dispersion energy 1st derivatives to the gradient.
 Leave Link  701 at Tue Oct  6 20:16:28 2020, MaxMem=  2684354560 cpu:               3.5 elap:               0.6
 (Enter /udrive/faculty/rpeverati/g16/g16/l702.exe)
 L702 exits ... SP integral derivatives will be done elsewhere.
 Leave Link  702 at Tue Oct  6 20:16:29 2020, MaxMem=  2684354560 cpu:               1.6 elap:               0.4
 (Enter /udrive/faculty/rpeverati/g16/g16/l703.exe)
 Integral derivatives from FoFJK, PRISM(SPDF).
 Compute integral first derivatives, UseDBF=F ICtDFT=           0.
 Calling FoFJK, ICntrl=      2127 FMM=F ISym2X=1 I1Cent= 0 IOpClX= 1 NMat=1 NMatS=1 NMatT=0.
 FoFJK:  IHMeth= 1 ICntrl=    2127 DoSepK=F KAlg= 0 I1Cent=           0 FoldK=F
 IRaf=         0 NMat=       1 IRICut=       1 DoRegI=T DoRafI=F ISym2E= 1 IDoP0=0 IntGTp=1.
 FoFCou: FMM=F IPFlag=           0 FMFlag=      100000 FMFlg1=         800
         NFxFlg=           0 DoJE=F BraDBF=F KetDBF=F FulRan=T
         wScrn=  0.000000 ICntrl=      2127 IOpCl=  1 I1Cent=           0 NGrid=           0
         NMat0=    1 NMatS0=      1 NMatT0=    0 NMatD0=    1 NMtDS0=    0 NMtDT0=    0
 Petite list used in FoFCou.
 Leave Link  703 at Tue Oct  6 20:16:30 2020, MaxMem=  2684354560 cpu:               4.3 elap:               0.8
 (Enter /udrive/faculty/rpeverati/g16/g16/l716.exe)
 Dipole        = 0.00000000D+00-5.88820799D-33-6.30620298D-01
 ***** Axes restored to original set *****
 -------------------------------------------------------------------
 Center     Atomic                   Forces (Hartrees/Bohr)
 Number     Number              X              Y              Z
 -------------------------------------------------------------------
      1        7          -0.000000000   -0.000000000    0.008176442
      2        1           0.000000000    0.000000000   -0.008176442
 -------------------------------------------------------------------
 Cartesian Forces:  Max     0.008176442 RMS     0.004720671
 Leave Link  716 at Tue Oct  6 20:16:31 2020, MaxMem=  2684354560 cpu:               1.7 elap:               0.6
 (Enter /udrive/faculty/rpeverati/g16/g16/l103.exe)

 GradGradGradGradGradGradGradGradGradGradGradGradGradGradGradGradGradGrad
 Berny optimization.
 Optmz: redundant internal coordinate code flag= 1
 FormGI is forming the generalized inverse of G from B-inverse, IUseBI=4.
 Internal  Forces:  Max     0.008176442 RMS     0.008176442
 Search for a local minimum.
 Step number   1 out of a maximum of  100
 All quantities printed in internal units (Hartrees-Bohrs-Radians)
 RMS Force = .81764D-02 SwitMx=.10000D-02 MixMth= 1
 Mixed Optimization -- RFO/linear search
 Second derivative matrix not updated -- first step.
 The second derivative matrix:
                          R1
           R1           0.41772
 ITU=  0
 Eigenvectors of the second derivative matrix:
                           1
     Eigenvalues --     0.41772
   1         R1         1.00000
 RFO step:  Lambda=-1.59983844D-04 EMin= 4.17721031D-01
 Linear search not attempted -- first point.
 Iteration  1 RMS(Cart)=  0.01383556 RMS(Int)=  0.00000000
 Iteration  2 RMS(Cart)=  0.00000000 RMS(Int)=  0.00000000
 ITry= 1 IFail=0 DXMaxC= 9.78D-03 DCOld= 1.00D+10 DXMaxT= 3.00D-01 DXLimC= 3.00D+00 Rises=F
 ClnCor:  largest displacement from symmetrization is 0.00D+00 for atom     0.
 Variable       Old X    -DE/DX   Delta X   Delta X   Delta X     New X
                                 (Linear)    (Quad)   (Total)
    R1        1.95914   0.00818   0.00000   0.01957   0.01957   1.97871
         Item               Value     Threshold  Converged?
 Maximum Force            0.008176     0.000450     NO 
 RMS     Force            0.008176     0.000300     NO 
 Maximum Displacement     0.009783     0.001800     NO 
 RMS     Displacement     0.013836     0.001200     NO 
 Predicted change in Energy=-8.002255D-05
 Lowest energy point so far.  Saving SCF results.
 Largest change from initial coordinates is atom    1       0.005 Angstoms.
 GradGradGradGradGradGradGradGradGradGradGradGradGradGradGradGradGradGrad

 Leave Link  103 at Tue Oct  6 20:16:31 2020, MaxMem=  2684354560 cpu:               2.5 elap:               0.5
 (Enter /udrive/faculty/rpeverati/g16/g16/l202.exe)
                          Input orientation:                          
 ---------------------------------------------------------------------
 Center     Atomic      Atomic             Coordinates (Angstroms)
 Number     Number       Type             X           Y           Z
 ---------------------------------------------------------------------
      1          7           0        0.000000    0.000000    0.134768
      2          1           0        0.000000    0.000000   -0.912319
 ---------------------------------------------------------------------
 Stoichiometry    HN(3)
 Framework group  C*V[C*(HN)]
 Deg. of freedom     1
 Full point group                 C*V     NOp   4
 RotChk:  IX=0 Diff= 0.00D+00
 Largest Abelian subgroup         C2V     NOp   4
 Largest concise Abelian subgroup C1      NOp   1
                         Standard orientation:                         
 ---------------------------------------------------------------------
 Center     Atomic      Atomic             Coordinates (Angstroms)
 Number     Number       Type             X           Y           Z
 ---------------------------------------------------------------------
      1          7           0        0.000000    0.000000    0.130886
      2          1           0        0.000000    0.000000   -0.916201
 ---------------------------------------------------------------------
 Rotational constants (GHZ):           0.0000000         490.2860085         490.2860085
 Leave Link  202 at Tue Oct  6 20:16:32 2020, MaxMem=  2684354560 cpu:               1.1 elap:               0.4
 (Enter /udrive/faculty/rpeverati/g16/g16/l301.exe)
 Standard basis: 6-31G(d) (5D, 7F)
 Ernie: Thresh=  0.10000D-02 Tol=  0.10000D-05 Strict=F.
 There are    10 symmetry adapted cartesian basis functions of A1  symmetry.
 There are     1 symmetry adapted cartesian basis functions of A2  symmetry.
 There are     3 symmetry adapted cartesian basis functions of B1  symmetry.
 There are     3 symmetry adapted cartesian basis functions of B2  symmetry.
 There are     9 symmetry adapted basis functions of A1  symmetry.
 There are     1 symmetry adapted basis functions of A2  symmetry.
 There are     3 symmetry adapted basis functions of B1  symmetry.
 There are     3 symmetry adapted basis functions of B2  symmetry.
    16 basis functions,    32 primitive gaussians,    17 cartesian basis functions
     5 alpha electrons        3 beta electrons
       nuclear repulsion energy         3.5376611691 Hartrees.
 IExCor=  402 DFT=T Ex+Corr=B3LYP ExCW=0 ScaHFX=  0.200000
 ScaDFX=  0.800000  0.720000  1.000000  0.810000 ScalE2=  1.000000  1.000000
 IRadAn=      5 IRanWt=     -1 IRanGd=            0 ICorTp=0 IEmpDi=141
 NAtoms=    2 NActive=    2 NUniq=    2 SFac= 1.00D+00 NAtFMM=   60 NAOKFM=F Big=F
 Integral buffers will be    131072 words long.
 Raffenetti 2 integral format.
 Two-electron integral symmetry is turned on.
 R6Disp:  Grimme-D3(BJ) Dispersion energy=       -0.0003240208 Hartrees.
 Nuclear repulsion after empirical dispersion term =        3.5373371483 Hartrees.
 Leave Link  301 at Tue Oct  6 20:16:33 2020, MaxMem=  2684354560 cpu:               1.8 elap:               0.5
 (Enter /udrive/faculty/rpeverati/g16/g16/l302.exe)
 NPDir=0 NMtPBC=     1 NCelOv=     1 NCel=       1 NClECP=     1 NCelD=      1
         NCelK=      1 NCelE2=     1 NClLst=     1 CellRange=     0.0.
 One-electron integrals computed using PRISM.
 One-electron integral symmetry used in STVInt
 NBasis=    16 RedAO= T EigKep=  6.44D-02  NBF=     9     1     3     3
 NBsUse=    16 1.00D-06 EigRej= -1.00D+00 NBFU=     9     1     3     3
 Precomputing XC quadrature grid using
 IXCGrd= 4 IRadAn=           5 IRanWt=          -1 IRanGd=           0 AccXCQ= 0.00D+00.
 Generated NRdTot=       0 NPtTot=           0 NUsed=           0 NTot=          32
 NSgBfM=    17    17    17    17    17 MxSgAt=     2 MxSgA2=     2.
 Leave Link  302 at Tue Oct  6 20:16:33 2020, MaxMem=  2684354560 cpu:               3.5 elap:               0.7
 (Enter /udrive/faculty/rpeverati/g16/g16/l303.exe)
 DipDrv:  MaxL=1.
 Leave Link  303 at Tue Oct  6 20:16:34 2020, MaxMem=  2684354560 cpu:               1.4 elap:               0.6
 (Enter /udrive/faculty/rpeverati/g16/g16/l401.exe)
 Initial guess from the checkpoint file:  "MN_69_NH_BH76_B3LYP_6-31Gs.chk"
 SCF N**3 symmetry information disabled.
 B after Tr=     0.000000    0.000000    0.000000
         Rot=    1.000000    0.000000    0.000000    0.000000 Ang=   0.00 deg.
 Guess basis will be translated and rotated to current coordinates.
 JPrj=2 DoOrth=T DoCkMO=T.
 Initial guess orbital symmetries:
 Alpha Orbitals:
       Occupied  (SG) (SG) (SG) (PI) (PI)
       Virtual   (SG) (PI) (PI) (SG) (SG) (SG) (PI) (PI) (DLTA)
                 (DLTA) (SG)
 Beta  Orbitals:
       Occupied  (SG) (SG) (SG)
       Virtual   (PI) (PI) (SG) (PI) (PI) (SG) (SG) (SG) (PI) (PI)
                 (DLTA) (DLTA) (SG)
 The electronic state of the initial guess is 3-SG.
 Initial guess <Sx>= 0.0000 <Sy>= 0.0000 <Sz>= 1.0000 <S**2>= 2.0049 S= 1.0016
 Leave Link  401 at Tue Oct  6 20:16:35 2020, MaxMem=  2684354560 cpu:               1.8 elap:               0.4
 (Enter /udrive/faculty/rpeverati/g16/g16/l502.exe)
 Keep R1 and R2 ints in memory in symmetry-blocked form, NReq=10348527.
 FoFCou: FMM=F IPFlag=           0 FMFlag=           0 FMFlg1=           0
         NFxFlg=           0 DoJE=F BraDBF=F KetDBF=F FulRan=T
         wScrn=  0.000000 ICntrl=       600 IOpCl=  0 I1Cent=           0 NGrid=           0
         NMat0=    1 NMatS0=    136 NMatT0=    0 NMatD0=    1 NMtDS0=    0 NMtDT0=    0
 Petite list used in FoFCou.
 UHF open shell SCF:
 Using DIIS extrapolation, IDIIS=  1040.
 NGot=  2684354560 LenX=  2684346491 LenY=  2684345609
 Requested convergence on RMS density matrix=1.00D-08 within 120 cycles.
 Requested convergence on MAX density matrix=1.00D-06.
 Requested convergence on             energy=1.00D-06.
 No special actions if energy rises.

 Cycle   1  Pass 1  IDiag  1:
 E= -55.2177832727042    
 DIIS: error= 1.15D-03 at cycle   1 NSaved=   1.
 NSaved= 1 IEnMin= 1 EnMin= -55.2177832727042     IErMin= 1 ErrMin= 1.15D-03
 ErrMax= 1.15D-03  0.00D+00 EMaxC= 1.00D-01 BMatC= 6.42D-05 BMatP= 6.42D-05
 IDIUse=3 WtCom= 9.88D-01 WtEn= 1.15D-02
 Coeff-Com:  0.100D+01
 Coeff-En:   0.100D+01
 Coeff:      0.100D+01
 Gap=     0.418 Goal=   None    Shift=    0.000
 Gap=     0.258 Goal=   None    Shift=    0.000
 GapD=    0.258 DampG=1.000 DampE=1.000 DampFc=1.0000 IDamp=-1.
 RMSDP=3.49D-04 MaxDP=2.35D-03              OVMax= 3.27D-03

 Cycle   2  Pass 1  IDiag  1:
 E= -55.2178046697776     Delta-E=       -0.000021397073 Rises=F Damp=F
 DIIS: error= 4.91D-04 at cycle   2 NSaved=   2.
 NSaved= 2 IEnMin= 2 EnMin= -55.2178046697776     IErMin= 2 ErrMin= 4.91D-04
 ErrMax= 4.91D-04  0.00D+00 EMaxC= 1.00D-01 BMatC= 1.09D-05 BMatP= 6.42D-05
 IDIUse=3 WtCom= 9.95D-01 WtEn= 4.91D-03
 Coeff-Com:  0.215D+00 0.785D+00
 Coeff-En:   0.000D+00 0.100D+01
 Coeff:      0.214D+00 0.786D+00
 Gap=     0.419 Goal=   None    Shift=    0.000
 Gap=     0.258 Goal=   None    Shift=    0.000
 RMSDP=1.45D-04 MaxDP=1.03D-03 DE=-2.14D-05 OVMax= 8.20D-04

 Cycle   3  Pass 1  IDiag  1:
 E= -55.2178067753526     Delta-E=       -0.000002105575 Rises=F Damp=F
 DIIS: error= 2.05D-04 at cycle   3 NSaved=   3.
 NSaved= 3 IEnMin= 3 EnMin= -55.2178067753526     IErMin= 3 ErrMin= 2.05D-04
 ErrMax= 2.05D-04  0.00D+00 EMaxC= 1.00D-01 BMatC= 2.44D-06 BMatP= 1.09D-05
 IDIUse=3 WtCom= 9.98D-01 WtEn= 2.05D-03
 Coeff-Com:  0.210D-02 0.315D+00 0.682D+00
 Coeff-En:   0.000D+00 0.105D+00 0.895D+00
 Coeff:      0.209D-02 0.315D+00 0.683D+00
 Gap=     0.419 Goal=   None    Shift=    0.000
 Gap=     0.258 Goal=   None    Shift=    0.000
 RMSDP=5.54D-05 MaxDP=4.87D-04 DE=-2.11D-06 OVMax= 4.41D-04

 Cycle   4  Pass 1  IDiag  1:
 E= -55.2178074112262     Delta-E=       -0.000000635874 Rises=F Damp=F
 DIIS: error= 2.35D-05 at cycle   4 NSaved=   4.
 NSaved= 4 IEnMin= 4 EnMin= -55.2178074112262     IErMin= 4 ErrMin= 2.35D-05
 ErrMax= 2.35D-05  0.00D+00 EMaxC= 1.00D-01 BMatC= 2.75D-08 BMatP= 2.44D-06
 IDIUse=1 WtCom= 1.00D+00 WtEn= 0.00D+00
 Coeff-Com: -0.757D-02 0.394D-01 0.150D+00 0.818D+00
 Coeff:     -0.757D-02 0.394D-01 0.150D+00 0.818D+00
 Gap=     0.419 Goal=   None    Shift=    0.000
 Gap=     0.258 Goal=   None    Shift=    0.000
 RMSDP=6.54D-06 MaxDP=5.87D-05 DE=-6.36D-07 OVMax= 5.85D-05

 Cycle   5  Pass 1  IDiag  1:
 E= -55.2178074190804     Delta-E=       -0.000000007854 Rises=F Damp=F
 DIIS: error= 3.32D-06 at cycle   5 NSaved=   5.
 NSaved= 5 IEnMin= 5 EnMin= -55.2178074190804     IErMin= 5 ErrMin= 3.32D-06
 ErrMax= 3.32D-06  0.00D+00 EMaxC= 1.00D-01 BMatC= 4.67D-10 BMatP= 2.75D-08
 IDIUse=1 WtCom= 1.00D+00 WtEn= 0.00D+00
 Coeff-Com:  0.107D-02-0.125D-01-0.373D-01-0.923D-01 0.114D+01
 Coeff:      0.107D-02-0.125D-01-0.373D-01-0.923D-01 0.114D+01
 Gap=     0.419 Goal=   None    Shift=    0.000
 Gap=     0.258 Goal=   None    Shift=    0.000
 RMSDP=1.83D-06 MaxDP=1.60D-05 DE=-7.85D-09 OVMax= 1.83D-05

 Cycle   6  Pass 1  IDiag  1:
 E= -55.2178074194457     Delta-E=       -0.000000000365 Rises=F Damp=F
 DIIS: error= 9.73D-07 at cycle   6 NSaved=   6.
 NSaved= 6 IEnMin= 6 EnMin= -55.2178074194457     IErMin= 6 ErrMin= 9.73D-07
 ErrMax= 9.73D-07  0.00D+00 EMaxC= 1.00D-01 BMatC= 3.43D-11 BMatP= 4.67D-10
 IDIUse=1 WtCom= 1.00D+00 WtEn= 0.00D+00
 Coeff-Com: -0.822D-04 0.256D-02 0.647D-02-0.371D-02-0.420D+00 0.141D+01
 Coeff:     -0.822D-04 0.256D-02 0.647D-02-0.371D-02-0.420D+00 0.141D+01
 Gap=     0.419 Goal=   None    Shift=    0.000
 Gap=     0.258 Goal=   None    Shift=    0.000
 RMSDP=6.59D-07 MaxDP=4.46D-06 DE=-3.65D-10 OVMax= 5.91D-06

 Cycle   7  Pass 1  IDiag  1:
 E= -55.2178074194785     Delta-E=       -0.000000000033 Rises=F Damp=F
 DIIS: error= 7.27D-08 at cycle   7 NSaved=   7.
 NSaved= 7 IEnMin= 7 EnMin= -55.2178074194785     IErMin= 7 ErrMin= 7.27D-08
 ErrMax= 7.27D-08  0.00D+00 EMaxC= 1.00D-01 BMatC= 3.23D-13 BMatP= 3.43D-11
 IDIUse=1 WtCom= 1.00D+00 WtEn= 0.00D+00
 Coeff-Com: -0.818D-05-0.207D-03-0.333D-03 0.439D-02 0.473D-01-0.246D+00
 Coeff-Com:  0.119D+01
 Coeff:     -0.818D-05-0.207D-03-0.333D-03 0.439D-02 0.473D-01-0.246D+00
 Coeff:      0.119D+01
 Gap=     0.419 Goal=   None    Shift=    0.000
 Gap=     0.258 Goal=   None    Shift=    0.000
 RMSDP=4.63D-08 MaxDP=2.68D-07 DE=-3.27D-11 OVMax= 3.93D-07

 Cycle   8  Pass 1  IDiag  1:
 E= -55.2178074194787     Delta-E=       -0.000000000000 Rises=F Damp=F
 DIIS: error= 9.92D-09 at cycle   8 NSaved=   8.
 NSaved= 8 IEnMin= 8 EnMin= -55.2178074194787     IErMin= 8 ErrMin= 9.92D-09
 ErrMax= 9.92D-09  0.00D+00 EMaxC= 1.00D-01 BMatC= 1.83D-15 BMatP= 3.23D-13
 IDIUse=1 WtCom= 1.00D+00 WtEn= 0.00D+00
 Coeff-Com:  0.178D-05 0.140D-04 0.123D-04-0.739D-03-0.408D-02 0.274D-01
 Coeff-Com: -0.188D+00 0.117D+01
 Coeff:      0.178D-05 0.140D-04 0.123D-04-0.739D-03-0.408D-02 0.274D-01
 Coeff:     -0.188D+00 0.117D+01
 Gap=     0.419 Goal=   None    Shift=    0.000
 Gap=     0.258 Goal=   None    Shift=    0.000
 RMSDP=2.91D-09 MaxDP=1.62D-08 DE=-1.99D-13 OVMax= 2.26D-08

 SCF Done:  E(UB3LYP) =  -55.2178074195     A.U. after    8 cycles
            NFock=  8  Conv=0.29D-08     -V/T= 2.0055
 <Sx>= 0.0000 <Sy>= 0.0000 <Sz>= 1.0000 <S**2>= 2.0050 S= 1.0017
 <L.S>= 0.000000000000E+00
 KE= 5.491630779064D+01 PE=-1.365068444894D+02 EE= 2.283539213098D+01
 Annihilation of the first spin contaminant:
 S**2 before annihilation     2.0050,   after     2.0000
 Leave Link  502 at Tue Oct  6 20:16:36 2020, MaxMem=  2684354560 cpu:               7.0 elap:               0.9
 (Enter /udrive/faculty/rpeverati/g16/g16/l508.exe)
 QCSCF skips out because SCF is already converged.
 Leave Link  508 at Tue Oct  6 20:16:37 2020, MaxMem=  2684354560 cpu:               0.3 elap:               0.3
 (Enter /udrive/faculty/rpeverati/g16/g16/l701.exe)
 ... and contract with generalized density number  0.
 Compute integral first derivatives.
 R6Disp: Adding Grimme-D3(BJ) dispersion energy 1st derivatives to the gradient.
 Leave Link  701 at Tue Oct  6 20:16:37 2020, MaxMem=  2684354560 cpu:               3.1 elap:               0.5
 (Enter /udrive/faculty/rpeverati/g16/g16/l702.exe)
 L702 exits ... SP integral derivatives will be done elsewhere.
 Leave Link  702 at Tue Oct  6 20:16:38 2020, MaxMem=  2684354560 cpu:               1.2 elap:               0.4
 (Enter /udrive/faculty/rpeverati/g16/g16/l703.exe)
 Integral derivatives from FoFJK, PRISM(SPDF).
 Compute integral first derivatives, UseDBF=F ICtDFT=           0.
 Calling FoFJK, ICntrl=      2127 FMM=F ISym2X=1 I1Cent= 0 IOpClX= 1 NMat=1 NMatS=1 NMatT=0.
 FoFJK:  IHMeth= 1 ICntrl=    2127 DoSepK=F KAlg= 0 I1Cent=           0 FoldK=F
 IRaf=         0 NMat=       1 IRICut=       1 DoRegI=T DoRafI=F ISym2E= 1 IDoP0=0 IntGTp=1.
 FoFCou: FMM=F IPFlag=           0 FMFlag=      100000 FMFlg1=         800
         NFxFlg=           0 DoJE=F BraDBF=F KetDBF=F FulRan=T
         wScrn=  0.000000 ICntrl=      2127 IOpCl=  1 I1Cent=           0 NGrid=           0
         NMat0=    1 NMatS0=      1 NMatT0=    0 NMatD0=    1 NMtDS0=    0 NMtDT0=    0
 Petite list used in FoFCou.
 Leave Link  703 at Tue Oct  6 20:16:39 2020, MaxMem=  2684354560 cpu:               4.6 elap:               0.8
 (Enter /udrive/faculty/rpeverati/g16/g16/l716.exe)
 Dipole        = 0.00000000D+00-2.01717847D-32-6.26564380D-01
 ***** Axes restored to original set *****
 -------------------------------------------------------------------
 Center     Atomic                   Forces (Hartrees/Bohr)
 Number     Number              X              Y              Z
 -------------------------------------------------------------------
      1        7          -0.000000000   -0.000000000    0.000614030
      2        1           0.000000000    0.000000000   -0.000614030
 -------------------------------------------------------------------
 Cartesian Forces:  Max     0.000614030 RMS     0.000354510
 Leave Link  716 at Tue Oct  6 20:16:40 2020, MaxMem=  2684354560 cpu:               1.0 elap:               0.4
 (Enter /udrive/faculty/rpeverati/g16/g16/l103.exe)

 GradGradGradGradGradGradGradGradGradGradGradGradGradGradGradGradGradGrad
 Berny optimization.
 Optmz: redundant internal coordinate code flag= 1
 Using GEDIIS/GDIIS optimizer.
 Red2BG:  D1=  2.00D+00 OD1=  0.00D+00 B2RMS=  0.00D+00 IAprox=1
 Red2BG is reusing G-inverse.
 Internal  Forces:  Max     0.000614030 RMS     0.000614030
 Search for a local minimum.
 Step number   2 out of a maximum of  100
 All quantities printed in internal units (Hartrees-Bohrs-Radians)
 RMS Force = .61403D-03 SwitMx=.10000D-02 MixMth= 2
 Mixed Optimization -- En-DIIS/RFO-DIIS
 Update second derivatives using D2CorX and points    1    2
 DE= -8.52D-05 DEPred=-8.00D-05 R= 1.06D+00
 TightC=F SS=  1.41D+00  RLast= 1.96D-02 DXNew= 5.0454D-01 5.8699D-02
 Trust test= 1.06D+00 RLast= 1.96D-02 DXMaxT set to 3.00D-01
 The second derivative matrix:
                          R1
           R1           0.38650
 ITU=  1  0
 Use linear search instead of GDIIS.
 Eigenvectors of the second derivative matrix:
                           1
     Eigenvalues --     0.38650
   1         R1         1.00000
 RFO step:  Lambda= 0.00000000D+00 EMin= 3.86499234D-01
 Quartic linear search produced a step of  0.08428.
 Iteration  1 RMS(Cart)=  0.00116602 RMS(Int)=  0.00000000
 Iteration  2 RMS(Cart)=  0.00000000 RMS(Int)=  0.00000000
 ITry= 1 IFail=0 DXMaxC= 8.24D-04 DCOld= 1.00D+10 DXMaxT= 3.00D-01 DXLimC= 3.00D+00 Rises=F
 ClnCor:  largest displacement from symmetrization is 0.00D+00 for atom     0.
 Variable       Old X    -DE/DX   Delta X   Delta X   Delta X     New X
                                 (Linear)    (Quad)   (Total)
    R1        1.97871   0.00061   0.00165   0.00000   0.00165   1.98036
         Item               Value     Threshold  Converged?
 Maximum Force            0.000614     0.000450     NO 
 RMS     Force            0.000614     0.000300     NO 
 Maximum Displacement     0.000824     0.001800     YES
 RMS     Displacement     0.001166     0.001200     YES
 Predicted change in Energy=-4.870504D-07
 Lowest energy point so far.  Saving SCF results.
 Largest change from initial coordinates is atom    2       0.009 Angstoms.
 GradGradGradGradGradGradGradGradGradGradGradGradGradGradGradGradGradGrad

 Leave Link  103 at Tue Oct  6 20:16:40 2020, MaxMem=  2684354560 cpu:               2.0 elap:               0.5
 (Enter /udrive/faculty/rpeverati/g16/g16/l202.exe)
                          Input orientation:                          
 ---------------------------------------------------------------------
 Center     Atomic      Atomic             Coordinates (Angstroms)
 Number     Number       Type             X           Y           Z
 ---------------------------------------------------------------------
      1          7           0        0.000000    0.000000    0.135205
      2          1           0        0.000000    0.000000   -0.912755
 ---------------------------------------------------------------------
 Stoichiometry    HN(3)
 Framework group  C*V[C*(HN)]
 Deg. of freedom     1
 Full point group                 C*V     NOp   4
 RotChk:  IX=0 Diff= 0.00D+00
 Largest Abelian subgroup         C2V     NOp   4
 Largest concise Abelian subgroup C1      NOp   1
                         Standard orientation:                         
 ---------------------------------------------------------------------
 Center     Atomic      Atomic             Coordinates (Angstroms)
 Number     Number       Type             X           Y           Z
 ---------------------------------------------------------------------
      1          7           0        0.000000    0.000000    0.130995
      2          1           0        0.000000    0.000000   -0.916965
 ---------------------------------------------------------------------
 Rotational constants (GHZ):           0.0000000         489.4698485         489.4698485
 Leave Link  202 at Tue Oct  6 20:16:41 2020, MaxMem=  2684354560 cpu:               0.9 elap:               0.4
 (Enter /udrive/faculty/rpeverati/g16/g16/l301.exe)
 Standard basis: 6-31G(d) (5D, 7F)
 Ernie: Thresh=  0.10000D-02 Tol=  0.10000D-05 Strict=F.
 There are    10 symmetry adapted cartesian basis functions of A1  symmetry.
 There are     1 symmetry adapted cartesian basis functions of A2  symmetry.
 There are     3 symmetry adapted cartesian basis functions of B1  symmetry.
 There are     3 symmetry adapted cartesian basis functions of B2  symmetry.
 There are     9 symmetry adapted basis functions of A1  symmetry.
 There are     1 symmetry adapted basis functions of A2  symmetry.
 There are     3 symmetry adapted basis functions of B1  symmetry.
 There are     3 symmetry adapted basis functions of B2  symmetry.
    16 basis functions,    32 primitive gaussians,    17 cartesian basis functions
     5 alpha electrons        3 beta electrons
       nuclear repulsion energy         3.5347154396 Hartrees.
 IExCor=  402 DFT=T Ex+Corr=B3LYP ExCW=0 ScaHFX=  0.200000
 ScaDFX=  0.800000  0.720000  1.000000  0.810000 ScalE2=  1.000000  1.000000
 IRadAn=      5 IRanWt=     -1 IRanGd=            0 ICorTp=0 IEmpDi=141
 NAtoms=    2 NActive=    2 NUniq=    2 SFac= 1.00D+00 NAtFMM=   60 NAOKFM=F Big=F
 Integral buffers will be    131072 words long.
 Raffenetti 2 integral format.
 Two-electron integral symmetry is turned on.
 R6Disp:  Grimme-D3(BJ) Dispersion energy=       -0.0003240231 Hartrees.
 Nuclear repulsion after empirical dispersion term =        3.5343914165 Hartrees.
 Leave Link  301 at Tue Oct  6 20:16:42 2020, MaxMem=  2684354560 cpu:               2.1 elap:               0.6
 (Enter /udrive/faculty/rpeverati/g16/g16/l302.exe)
 NPDir=0 NMtPBC=     1 NCelOv=     1 NCel=       1 NClECP=     1 NCelD=      1
         NCelK=      1 NCelE2=     1 NClLst=     1 CellRange=     0.0.
 One-electron integrals computed using PRISM.
 One-electron integral symmetry used in STVInt
 NBasis=    16 RedAO= T EigKep=  6.46D-02  NBF=     9     1     3     3
 NBsUse=    16 1.00D-06 EigRej= -1.00D+00 NBFU=     9     1     3     3
 Precomputing XC quadrature grid using
 IXCGrd= 4 IRadAn=           5 IRanWt=          -1 IRanGd=           0 AccXCQ= 0.00D+00.
 Generated NRdTot=       0 NPtTot=           0 NUsed=           0 NTot=          32
 NSgBfM=    17    17    17    17    17 MxSgAt=     2 MxSgA2=     2.
 Leave Link  302 at Tue Oct  6 20:16:43 2020, MaxMem=  2684354560 cpu:               3.5 elap:               0.6
 (Enter /udrive/faculty/rpeverati/g16/g16/l303.exe)
 DipDrv:  MaxL=1.
 Leave Link  303 at Tue Oct  6 20:16:43 2020, MaxMem=  2684354560 cpu:               1.1 elap:               0.4
 (Enter /udrive/faculty/rpeverati/g16/g16/l401.exe)
 Initial guess from the checkpoint file:  "MN_69_NH_BH76_B3LYP_6-31Gs.chk"
 SCF N**3 symmetry information disabled.
 B after Tr=     0.000000    0.000000   -0.000000
         Rot=    1.000000    0.000000    0.000000    0.000000 Ang=   0.00 deg.
 Guess basis will be translated and rotated to current coordinates.
 JPrj=2 DoOrth=T DoCkMO=T.
 Initial guess orbital symmetries:
 Alpha Orbitals:
       Occupied  (SG) (SG) (SG) (PI) (PI)
       Virtual   (SG) (PI) (PI) (SG) (SG) (SG) (PI) (PI) (DLTA)
                 (DLTA) (SG)
 Beta  Orbitals:
       Occupied  (SG) (SG) (SG)
       Virtual   (PI) (PI) (SG) (PI) (PI) (SG) (SG) (SG) (PI) (PI)
                 (DLTA) (DLTA) (SG)
 The electronic state of the initial guess is 3-SG.
 Initial guess <Sx>= 0.0000 <Sy>= 0.0000 <Sz>= 1.0000 <S**2>= 2.0050 S= 1.0017
 Leave Link  401 at Tue Oct  6 20:16:44 2020, MaxMem=  2684354560 cpu:               2.5 elap:               0.6
 (Enter /udrive/faculty/rpeverati/g16/g16/l502.exe)
 Keep R1 and R2 ints in memory in symmetry-blocked form, NReq=10348527.
 FoFCou: FMM=F IPFlag=           0 FMFlag=           0 FMFlg1=           0
         NFxFlg=           0 DoJE=F BraDBF=F KetDBF=F FulRan=T
         wScrn=  0.000000 ICntrl=       600 IOpCl=  0 I1Cent=           0 NGrid=           0
         NMat0=    1 NMatS0=    136 NMatT0=    0 NMatD0=    1 NMtDS0=    0 NMtDT0=    0
 Petite list used in FoFCou.
 UHF open shell SCF:
 Using DIIS extrapolation, IDIIS=  1040.
 NGot=  2684354560 LenX=  2684346491 LenY=  2684345609
 Requested convergence on RMS density matrix=1.00D-08 within 120 cycles.
 Requested convergence on MAX density matrix=1.00D-06.
 Requested convergence on             energy=1.00D-06.
 No special actions if energy rises.

 Cycle   1  Pass 1  IDiag  1:
 E= -55.2178077552844    
 DIIS: error= 9.63D-05 at cycle   1 NSaved=   1.
 NSaved= 1 IEnMin= 1 EnMin= -55.2178077552844     IErMin= 1 ErrMin= 9.63D-05
 ErrMax= 9.63D-05  0.00D+00 EMaxC= 1.00D-01 BMatC= 4.51D-07 BMatP= 4.51D-07
 IDIUse=1 WtCom= 1.00D+00 WtEn= 0.00D+00
 Coeff-Com:  0.100D+01
 Coeff:      0.100D+01
 Gap=     0.419 Goal=   None    Shift=    0.000
 Gap=     0.258 Goal=   None    Shift=    0.000
 RMSDP=2.92D-05 MaxDP=1.97D-04              OVMax= 2.74D-04

 Cycle   2  Pass 1  IDiag  1:
 E= -55.2178079059970     Delta-E=       -0.000000150713 Rises=F Damp=F
 DIIS: error= 4.10D-05 at cycle   2 NSaved=   2.
 NSaved= 2 IEnMin= 2 EnMin= -55.2178079059970     IErMin= 2 ErrMin= 4.10D-05
 ErrMax= 4.10D-05  0.00D+00 EMaxC= 1.00D-01 BMatC= 7.60D-08 BMatP= 4.51D-07
 IDIUse=1 WtCom= 1.00D+00 WtEn= 0.00D+00
 Coeff-Com:  0.214D+00 0.786D+00
 Coeff:      0.214D+00 0.786D+00
 Gap=     0.419 Goal=   None    Shift=    0.000
 Gap=     0.258 Goal=   None    Shift=    0.000
 RMSDP=1.21D-05 MaxDP=8.58D-05 DE=-1.51D-07 OVMax= 6.86D-05

 Cycle   3  Pass 1  IDiag  1:
 E= -55.2178079206522     Delta-E=       -0.000000014655 Rises=F Damp=F
 DIIS: error= 1.72D-05 at cycle   3 NSaved=   3.
 NSaved= 3 IEnMin= 3 EnMin= -55.2178079206522     IErMin= 3 ErrMin= 1.72D-05
 ErrMax= 1.72D-05  0.00D+00 EMaxC= 1.00D-01 BMatC= 1.70D-08 BMatP= 7.60D-08
 IDIUse=1 WtCom= 1.00D+00 WtEn= 0.00D+00
 Coeff-Com:  0.198D-02 0.316D+00 0.682D+00
 Coeff:      0.198D-02 0.316D+00 0.682D+00
 Gap=     0.419 Goal=   None    Shift=    0.000
 Gap=     0.258 Goal=   None    Shift=    0.000
 RMSDP=4.63D-06 MaxDP=4.07D-05 DE=-1.47D-08 OVMax= 3.70D-05

 Cycle   4  Pass 1  IDiag  1:
 E= -55.2178079251005     Delta-E=       -0.000000004448 Rises=F Damp=F
 DIIS: error= 1.97D-06 at cycle   4 NSaved=   4.
 NSaved= 4 IEnMin= 4 EnMin= -55.2178079251005     IErMin= 4 ErrMin= 1.97D-06
 ErrMax= 1.97D-06  0.00D+00 EMaxC= 1.00D-01 BMatC= 1.92D-10 BMatP= 1.70D-08
 IDIUse=1 WtCom= 1.00D+00 WtEn= 0.00D+00
 Coeff-Com: -0.761D-02 0.393D-01 0.149D+00 0.819D+00
 Coeff:     -0.761D-02 0.393D-01 0.149D+00 0.819D+00
 Gap=     0.419 Goal=   None    Shift=    0.000
 Gap=     0.258 Goal=   None    Shift=    0.000
 RMSDP=5.48D-07 MaxDP=4.92D-06 DE=-4.45D-09 OVMax= 4.95D-06

 Cycle   5  Pass 1  IDiag  1:
 E= -55.2178079251558     Delta-E=       -0.000000000055 Rises=F Damp=F
 DIIS: error= 2.88D-07 at cycle   5 NSaved=   5.
 NSaved= 5 IEnMin= 5 EnMin= -55.2178079251558     IErMin= 5 ErrMin= 2.88D-07
 ErrMax= 2.88D-07  0.00D+00 EMaxC= 1.00D-01 BMatC= 3.47D-12 BMatP= 1.92D-10
 IDIUse=1 WtCom= 1.00D+00 WtEn= 0.00D+00
 Coeff-Com:  0.110D-02-0.128D-01-0.383D-01-0.950D-01 0.114D+01
 Coeff:      0.110D-02-0.128D-01-0.383D-01-0.950D-01 0.114D+01
 Gap=     0.419 Goal=   None    Shift=    0.000
 Gap=     0.258 Goal=   None    Shift=    0.000
 RMSDP=1.59D-07 MaxDP=1.37D-06 DE=-5.53D-11 OVMax= 1.58D-06

 Cycle   6  Pass 1  IDiag  1:
 E= -55.2178079251585     Delta-E=       -0.000000000003 Rises=F Damp=F
 DIIS: error= 8.33D-08 at cycle   6 NSaved=   6.
 NSaved= 6 IEnMin= 6 EnMin= -55.2178079251585     IErMin= 6 ErrMin= 8.33D-08
 ErrMax= 8.33D-08  0.00D+00 EMaxC= 1.00D-01 BMatC= 2.52D-13 BMatP= 3.47D-12
 IDIUse=1 WtCom= 1.00D+00 WtEn= 0.00D+00
 Coeff-Com: -0.830D-04 0.259D-02 0.656D-02-0.393D-02-0.418D+00 0.141D+01
 Coeff:     -0.830D-04 0.259D-02 0.656D-02-0.393D-02-0.418D+00 0.141D+01
 Gap=     0.419 Goal=   None    Shift=    0.000
 Gap=     0.258 Goal=   None    Shift=    0.000
 RMSDP=5.67D-08 MaxDP=3.84D-07 DE=-2.77D-12 OVMax= 5.10D-07

 Cycle   7  Pass 1  IDiag  1:
 E= -55.2178079251587     Delta-E=       -0.000000000000 Rises=F Damp=F
 DIIS: error= 6.07D-09 at cycle   7 NSaved=   7.
 NSaved= 7 IEnMin= 7 EnMin= -55.2178079251587     IErMin= 7 ErrMin= 6.07D-09
 ErrMax= 6.07D-09  0.00D+00 EMaxC= 1.00D-01 BMatC= 2.28D-15 BMatP= 2.52D-13
 IDIUse=1 WtCom= 1.00D+00 WtEn= 0.00D+00
 Coeff-Com: -0.838D-05-0.207D-03-0.337D-03 0.443D-02 0.466D-01-0.242D+00
 Coeff-Com:  0.119D+01
 Coeff:     -0.838D-05-0.207D-03-0.337D-03 0.443D-02 0.466D-01-0.242D+00
 Coeff:      0.119D+01
 Gap=     0.419 Goal=   None    Shift=    0.000
 Gap=     0.258 Goal=   None    Shift=    0.000
 RMSDP=3.85D-09 MaxDP=2.22D-08 DE=-1.71D-13 OVMax= 3.27D-08

 SCF Done:  E(UB3LYP) =  -55.2178079252     A.U. after    7 cycles
            NFock=  7  Conv=0.39D-08     -V/T= 2.0055
 <Sx>= 0.0000 <Sy>= 0.0000 <Sz>= 1.0000 <S**2>= 2.0050 S= 1.0017
 <L.S>= 0.000000000000E+00
 KE= 5.491509957072D+01 PE=-1.365002470150D+02 EE= 2.283294810268D+01
 Annihilation of the first spin contaminant:
 S**2 before annihilation     2.0050,   after     2.0000
 Leave Link  502 at Tue Oct  6 20:16:45 2020, MaxMem=  2684354560 cpu:               7.2 elap:               1.0
 (Enter /udrive/faculty/rpeverati/g16/g16/l508.exe)
 QCSCF skips out because SCF is already converged.
 Leave Link  508 at Tue Oct  6 20:16:46 2020, MaxMem=  2684354560 cpu:               0.2 elap:               0.3
 (Enter /udrive/faculty/rpeverati/g16/g16/l701.exe)
 ... and contract with generalized density number  0.
 Compute integral first derivatives.
 R6Disp: Adding Grimme-D3(BJ) dispersion energy 1st derivatives to the gradient.
 Leave Link  701 at Tue Oct  6 20:16:47 2020, MaxMem=  2684354560 cpu:               3.4 elap:               0.6
 (Enter /udrive/faculty/rpeverati/g16/g16/l702.exe)
 L702 exits ... SP integral derivatives will be done elsewhere.
 Leave Link  702 at Tue Oct  6 20:16:47 2020, MaxMem=  2684354560 cpu:               1.3 elap:               0.4
 (Enter /udrive/faculty/rpeverati/g16/g16/l703.exe)
 Integral derivatives from FoFJK, PRISM(SPDF).
 Compute integral first derivatives, UseDBF=F ICtDFT=           0.
 Calling FoFJK, ICntrl=      2127 FMM=F ISym2X=1 I1Cent= 0 IOpClX= 1 NMat=1 NMatS=1 NMatT=0.
 FoFJK:  IHMeth= 1 ICntrl=    2127 DoSepK=F KAlg= 0 I1Cent=           0 FoldK=F
 IRaf=         0 NMat=       1 IRICut=       1 DoRegI=T DoRafI=F ISym2E= 1 IDoP0=0 IntGTp=1.
 FoFCou: FMM=F IPFlag=           0 FMFlag=      100000 FMFlg1=         800
         NFxFlg=           0 DoJE=F BraDBF=F KetDBF=F FulRan=T
         wScrn=  0.000000 ICntrl=      2127 IOpCl=  1 I1Cent=           0 NGrid=           0
         NMat0=    1 NMatS0=      1 NMatT0=    0 NMatD0=    1 NMtDS0=    0 NMtDT0=    0
 Petite list used in FoFCou.
 Leave Link  703 at Tue Oct  6 20:16:48 2020, MaxMem=  2684354560 cpu:               4.4 elap:               0.6
 (Enter /udrive/faculty/rpeverati/g16/g16/l716.exe)
 Dipole        = 0.00000000D+00 2.78986712D-33-6.26218247D-01
 ***** Axes restored to original set *****
 -------------------------------------------------------------------
 Center     Atomic                   Forces (Hartrees/Bohr)
 Number     Number              X              Y              Z
 -------------------------------------------------------------------
      1        7          -0.000000000   -0.000000000   -0.000000123
      2        1           0.000000000    0.000000000    0.000000123
 -------------------------------------------------------------------
 Cartesian Forces:  Max     0.000000123 RMS     0.000000071
 Leave Link  716 at Tue Oct  6 20:16:49 2020, MaxMem=  2684354560 cpu:               1.0 elap:               0.5
 (Enter /udrive/faculty/rpeverati/g16/g16/l103.exe)

 GradGradGradGradGradGradGradGradGradGradGradGradGradGradGradGradGradGrad
 Berny optimization.
 Optmz: redundant internal coordinate code flag= 1
 Using GEDIIS/GDIIS optimizer.
 Red2BG:  D1=  2.00D+00 OD1=  0.00D+00 B2RMS=  0.00D+00 IAprox=1
 Red2BG is reusing G-inverse.
 Internal  Forces:  Max     0.000000123 RMS     0.000000123
 Search for a local minimum.
 Step number   3 out of a maximum of  100
 All quantities printed in internal units (Hartrees-Bohrs-Radians)
 RMS Force = .12338D-06 SwitMx=.10000D-02 MixMth= 2
 Mixed Optimization -- En-DIIS/RFO-DIIS
 Swapping is turned off.
 Update second derivatives using D2CorX and points    2    3
 DE= -5.06D-07 DEPred=-4.87D-07 R= 1.04D+00
 Trust test= 1.04D+00 RLast= 1.65D-03 DXMaxT set to 3.00D-01
 The second derivative matrix:
                          R1
           R1           0.37244
 ITU=  0  1
 Eigenvectors of the second derivative matrix:
                           1
     Eigenvalues --     0.37244
   1         R1         1.00000
 DoSqrt=T IScMMF=    -3 MM Scaling Factor =       0.00000
 En-DIIS/RFO-DIIS/Sim-DIIS IScMMF=       -3 using points:     3    2
 RFO step:  Lambda=-4.08839629D-14.
 NNeg= 0 NGDIIS= 2 SimSw=  2.50D-03 Rises=F DC= -5.06D-07 SmlDif=  1.00D-05
 NRisDI= 0 DoIntr=F SqrtH=F CThrHd= 10.0 CDAdj=  3.0
 RMS Error=  0.3312844214D-06 NUsed= 2 OKEnD=F EnDIS=F
 Total RFO-DIIS matrix:
                 1             2             3 
      1   0.000000D+00 -0.100000D+01 -0.100000D+01
      2  -0.100000D+01  0.109749D-12 -0.546178D-09
      3  -0.100000D+01 -0.546178D-09  0.271810D-05
 InvSVX:  RCond= 3.06D-06 Info=           0 Equed=N FErr=  8.88D-16 BErr=  9.47D-17
 DidBck=F Rises=F RFO-DIIS coefs:    0.99980    0.00020
 Iteration  1 RMS(Cart)=  0.00000023 RMS(Int)=  0.00000000
 ITry= 1 IFail=0 DXMaxC= 1.66D-07 DCOld= 1.00D+10 DXMaxT= 3.00D-01 DXLimC= 3.00D+00 Rises=F
 ClnCor:  largest displacement from symmetrization is 0.00D+00 for atom     0.
 Variable       Old X    -DE/DX   Delta X   Delta X   Delta X     New X
                                 (Linear)    (Quad)   (Total)
    R1        1.98036  -0.00000  -0.00000   0.00000  -0.00000   1.98036
         Item               Value     Threshold  Converged?
 Maximum Force            0.000000     0.000450     YES
 RMS     Force            0.000000     0.000300     YES
 Maximum Displacement     0.000000     0.001800     YES
 RMS     Displacement     0.000000     0.001200     YES
 Predicted change in Energy=-2.043753D-14
 Optimization completed.
    -- Stationary point found.
                           ----------------------------
                           !   Optimized Parameters   !
                           ! (Angstroms and Degrees)  !
 --------------------------                            --------------------------
 ! Name  Definition              Value          Derivative Info.                !
 --------------------------------------------------------------------------------
 ! R1    R(1,2)                  1.048          -DE/DX =    0.0                 !
 --------------------------------------------------------------------------------
 Lowest energy point so far.  Saving SCF results.
 Largest change from initial coordinates is atom    2       0.010 Angstoms.
 GradGradGradGradGradGradGradGradGradGradGradGradGradGradGradGradGradGrad

 Leave Link  103 at Tue Oct  6 20:16:49 2020, MaxMem=  2684354560 cpu:               1.9 elap:               0.5
 (Enter /udrive/faculty/rpeverati/g16/g16/l202.exe)
                          Input orientation:                          
 ---------------------------------------------------------------------
 Center     Atomic      Atomic             Coordinates (Angstroms)
 Number     Number       Type             X           Y           Z
 ---------------------------------------------------------------------
      1          7           0        0.000000    0.000000    0.135205
      2          1           0        0.000000    0.000000   -0.912755
 ---------------------------------------------------------------------
 Stoichiometry    HN(3)
 Framework group  C*V[C*(HN)]
 Deg. of freedom     1
 Full point group                 C*V     NOp   4
 RotChk:  IX=0 Diff= 0.00D+00
 Largest Abelian subgroup         C2V     NOp   4
 Largest concise Abelian subgroup C1      NOp   1
                         Standard orientation:                         
 ---------------------------------------------------------------------
 Center     Atomic      Atomic             Coordinates (Angstroms)
 Number     Number       Type             X           Y           Z
 ---------------------------------------------------------------------
      1          7           0        0.000000    0.000000    0.130995
      2          1           0        0.000000    0.000000   -0.916965
 ---------------------------------------------------------------------
 Rotational constants (GHZ):           0.0000000         489.4698485         489.4698485
 Leave Link  202 at Tue Oct  6 20:16:50 2020, MaxMem=  2684354560 cpu:               1.2 elap:               0.4
 (Enter /udrive/faculty/rpeverati/g16/g16/l601.exe)
 Copying SCF densities to generalized density rwf, IOpCl= 1 IROHF=0.

 **********************************************************************

            Population analysis using the SCF density.

 **********************************************************************

 Orbital symmetries:
 Alpha Orbitals:
       Occupied  (SG) (SG) (SG) (PI) (PI)
       Virtual   (SG) (PI) (PI) (SG) (SG) (SG) (PI) (PI) (DLTA)
                 (DLTA) (SG)
 Beta  Orbitals:
       Occupied  (SG) (SG) (SG)
       Virtual   (PI) (PI) (SG) (PI) (PI) (SG) (SG) (SG) (PI) (PI)
                 (DLTA) (DLTA) (SG)
 The electronic state is 3-SG.
 Alpha  occ. eigenvalues --  -14.40215  -0.83867  -0.39738  -0.32928  -0.32928
 Alpha virt. eigenvalues --    0.08954   0.63956   0.63956   0.71474   0.74222
 Alpha virt. eigenvalues --    0.96234   1.65291   1.65291   1.65644   1.65644
 Alpha virt. eigenvalues --    2.20871
  Beta  occ. eigenvalues --  -14.36408  -0.72752  -0.35197
  Beta virt. eigenvalues --   -0.09431  -0.09431   0.10698   0.73931   0.73931
  Beta virt. eigenvalues --    0.74276   0.76053   1.02363   1.73014   1.73014
  Beta virt. eigenvalues --    1.79939   1.79939   2.26213
          Condensed to atoms (all electrons):
               1          2
     1  N    7.100898   0.192967
     2  H    0.192967   0.513167
          Atomic-Atomic Spin Densities.
               1          2
     1  N    2.080609  -0.012339
     2  H   -0.012339  -0.055930
 Mulliken charges and spin densities:
               1          2
     1  N   -0.293866   2.068270
     2  H    0.293866  -0.068270
 Sum of Mulliken charges =  -0.00000   2.00000
 Mulliken charges and spin densities with hydrogens summed into heavy atoms:
               1          2
     1  N   -0.000000   2.000000
 Electronic spatial extent (au):  <R**2>=             16.8537
 Charge=              0.0000 electrons
 Dipole moment (field-independent basis, Debye):
    X=              0.0000    Y=              0.0000    Z=             -1.5917  Tot=              1.5917
 Quadrupole moment (field-independent basis, Debye-Ang):
   XX=             -6.1488   YY=             -6.1488   ZZ=             -5.7557
   XY=              0.0000   XZ=              0.0000   YZ=              0.0000
 Traceless Quadrupole moment (field-independent basis, Debye-Ang):
   XX=             -0.1310   YY=             -0.1310   ZZ=              0.2620
   XY=              0.0000   XZ=              0.0000   YZ=              0.0000
 Octapole moment (field-independent basis, Debye-Ang**2):
  XXX=              0.0000  YYY=              0.0000  ZZZ=             -1.8764  XYY=              0.0000
  XXY=             -0.0000  XXZ=             -0.3012  XZZ=              0.0000  YZZ=             -0.0000
  YYZ=             -0.3012  XYZ=              0.0000
 Hexadecapole moment (field-independent basis, Debye-Ang**3):
 XXXX=             -5.0565 YYYY=             -5.0565 ZZZZ=             -8.5530 XXXY=              0.0000
 XXXZ=              0.0000 YYYX=              0.0000 YYYZ=              0.0000 ZZZX=              0.0000
 ZZZY=              0.0000 XXYY=             -1.6855 XXZZ=             -2.4557 YYZZ=             -2.4557
 XXYZ=             -0.0000 YYXZ=              0.0000 ZZXY=              0.0000
 N-N= 3.534391416458D+00 E-N=-1.365002469903D+02  KE= 5.491509957072D+01
                          Isotropic Fermi Contact Couplings
        Atom                 a.u.       MegaHertz       Gauss      10(-4) cm-1
     1  N(14)              0.21588      34.87610      12.44466      11.63341
     2  H(1)              -0.02630     -58.77076     -20.97087     -19.60382
 --------------------------------------------------------
       Center         ----  Spin Dipole Couplings  ----
                      3XX-RR        3YY-RR        3ZZ-RR
 --------------------------------------------------------
     1   Atom        1.070952      1.070952     -2.141904
     2   Atom       -0.122402     -0.122402      0.244804
 --------------------------------------------------------
                        XY            XZ            YZ
 --------------------------------------------------------
     1   Atom        0.000000      0.000000      0.000000
     2   Atom        0.000000      0.000000      0.000000
 --------------------------------------------------------


 ---------------------------------------------------------------------------------
              Anisotropic Spin Dipole Couplings in Principal Axis System
 ---------------------------------------------------------------------------------

       Atom             a.u.   MegaHertz   Gauss  10(-4) cm-1        Axes

              Baa    -2.1419   -82.608   -29.477   -27.555  0.0000  0.0000  1.0000
     1 N(14)  Bbb     1.0710    41.304    14.738    13.778  1.0000  0.0000  0.0000
              Bcc     1.0710    41.304    14.738    13.778  0.0000  1.0000  0.0000
 
              Baa    -0.1224   -65.308   -23.303   -21.784  1.0000  0.0000  0.0000
     2 H(1)   Bbb    -0.1224   -65.308   -23.303   -21.784  0.0000  1.0000  0.0000
              Bcc     0.2448   130.616    46.607    43.569  0.0000  0.0000  1.0000
 

 ---------------------------------------------------------------------------------

 No NMR shielding tensors so no spin-rotation constants.
 Leave Link  601 at Tue Oct  6 20:16:51 2020, MaxMem=  2684354560 cpu:               5.8 elap:               0.8
 (Enter /udrive/faculty/rpeverati/g16/g16/l9999.exe)

 Test job not archived.
 1\1\GINC-NODE34\FOpt\UB3LYP\6-31G(d)\H1N1(3)\RPEVERATI\06-Oct-2020\0\\
 #P Opt(MaxCyc=100) B3LYP/6-31G* 5D 7F Integral=UltraFineGrid SCF=(NoSy
 mm,XQC,MaxCyc=120) IOp(1/33=1) EmpiricalDispersion=GD3BJ\\TS search on
  BH76.\\0,3\N,0.,0.,0.1352046279\H,0.,0.,-0.912755396\\Version=ES64L-G
 16RevA.03\State=3-SG\HF=-55.2178079\S2=2.004998\S2-1=0.\S2A=2.000006\R
 MSD=3.853e-09\RMSF=7.124e-08\Dipole=0.,0.,-0.6262182\Quadrupole=-0.097
 4108,-0.0974108,0.1948217,0.,0.,0.\PG=C*V [C*(H1N1)]\\@


 HE THAT WALD REACHE THE SWEITE ROSE
 SULD NOW AND THEN BE SCRATCHED WT THE SCHARPE BREERES.
 -- PROVERBS AND REASONS OF THE YEAR 1585
           AS REPRINTED IN PAISLEY MAGAZINE 1828.
 Job cpu time:       0 days  0 hours  2 minutes  6.3 seconds.
 Elapsed time:       0 days  0 hours  0 minutes 24.6 seconds.
 File lengths (MBytes):  RWF=      5 Int=      0 D2E=      0 Chk=      1 Scr=      1
 Normal termination of Gaussian 16 at Tue Oct  6 20:16:52 2020.
