 Entering Gaussian System, Link 0=g16
 Input=MN_78_RKT01_BH76_B3LYP_631Gs.in
 Output=MN_78_RKT01_BH76_B3LYP_631Gs.log
 Initial command:
 /udrive/faculty/rpeverati/g16/g16/l1.exe "/udrive/scratch-directories/gaussian09/rpeverati/Gau-7396.inp" -scrdir="/udrive/scratch-directories/gaussian09/rpeverati/"
 Entering Link 1 = /udrive/faculty/rpeverati/g16/g16/l1.exe PID=      7412.
  
 Copyright (c) 1988,1990,1992,1993,1995,1998,2003,2009,2016,
            Gaussian, Inc.  All Rights Reserved.
  
 This is part of the Gaussian(R) 16 program.  It is based on
 the Gaussian(R) 09 system (copyright 2009, Gaussian, Inc.),
 the Gaussian(R) 03 system (copyright 2003, Gaussian, Inc.),
 the Gaussian(R) 98 system (copyright 1998, Gaussian, Inc.),
 the Gaussian(R) 94 system (copyright 1995, Gaussian, Inc.),
 the Gaussian 92(TM) system (copyright 1992, Gaussian, Inc.),
 the Gaussian 90(TM) system (copyright 1990, Gaussian, Inc.),
 the Gaussian 88(TM) system (copyright 1988, Gaussian, Inc.),
 the Gaussian 86(TM) system (copyright 1986, Carnegie Mellon
 University), and the Gaussian 82(TM) system (copyright 1983,
 Carnegie Mellon University). Gaussian is a federally registered
 trademark of Gaussian, Inc.
  
 This software contains proprietary and confidential information,
 including trade secrets, belonging to Gaussian, Inc.
  
 This software is provided under written license and may be
 used, copied, transmitted, or stored only in accord with that
 written license.
  
 The following legend is applicable only to US Government
 contracts under FAR:
  
                    RESTRICTED RIGHTS LEGEND
  
 Use, reproduction and disclosure by the US Government is
 subject to restrictions as set forth in subparagraphs (a)
 and (c) of the Commercial Computer Software - Restricted
 Rights clause in FAR 52.227-19.
  
 Gaussian, Inc.
 340 Quinnipiac St., Bldg. 40, Wallingford CT 06492
  
  
 ---------------------------------------------------------------
 Warning -- This program may not be used in any manner that
 competes with the business of Gaussian, Inc. or will provide
 assistance to any competitor of Gaussian, Inc.  The licensee
 of this program is prohibited from giving any competitor of
 Gaussian, Inc. access to this program.  By using this program,
 the user acknowledges that Gaussian, Inc. is engaged in the
 business of creating and licensing software in the field of
 computational chemistry and represents and warrants to the
 licensee that it is not a competitor of Gaussian, Inc. and that
 it will not use this program in any manner prohibited above.
 ---------------------------------------------------------------
  

 Cite this work as:
 Gaussian 16, Revision A.03,
 M. J. Frisch, G. W. Trucks, H. B. Schlegel, G. E. Scuseria, 
 M. A. Robb, J. R. Cheeseman, G. Scalmani, V. Barone, 
 G. A. Petersson, H. Nakatsuji, X. Li, M. Caricato, A. V. Marenich, 
 J. Bloino, B. G. Janesko, R. Gomperts, B. Mennucci, H. P. Hratchian, 
 J. V. Ortiz, A. F. Izmaylov, J. L. Sonnenberg, D. Williams-Young, 
 F. Ding, F. Lipparini, F. Egidi, J. Goings, B. Peng, A. Petrone, 
 T. Henderson, D. Ranasinghe, V. G. Zakrzewski, J. Gao, N. Rega, 
 G. Zheng, W. Liang, M. Hada, M. Ehara, K. Toyota, R. Fukuda, 
 J. Hasegawa, M. Ishida, T. Nakajima, Y. Honda, O. Kitao, H. Nakai, 
 T. Vreven, K. Throssell, J. A. Montgomery, Jr., J. E. Peralta, 
 F. Ogliaro, M. J. Bearpark, J. J. Heyd, E. N. Brothers, K. N. Kudin, 
 V. N. Staroverov, T. A. Keith, R. Kobayashi, J. Normand, 
 K. Raghavachari, A. P. Rendell, J. C. Burant, S. S. Iyengar, 
 J. Tomasi, M. Cossi, J. M. Millam, M. Klene, C. Adamo, R. Cammi, 
 J. W. Ochterski, R. L. Martin, K. Morokuma, O. Farkas, 
 J. B. Foresman, and D. J. Fox, Gaussian, Inc., Wallingford CT, 2016.
 
 ******************************************
 Gaussian 16:  ES64L-G16RevA.03 25-Dec-2016
                 6-Oct-2020 
 ******************************************
 %NoSave
 %nproc=12
 Will use up to   12 processors via shared memory.
 %mem=20GB
 %chk=MN_78_RKT01_BH76_B3LYP_631Gs
 ----------------------------------------------------------------------
 #P Opt(TS,MaxCyc=50,NoEigenTest,MaxStep=10,CalcFC) B3LYP/6-31G* 5D 7F 
 Integral=UltraFineGrid SCF=(NoSymm,XQC,MaxCyc=120) IOp(1/33=1) Empiric
 alDispersion=GD3BJ
 ----------------------------------------------------------------------
 1/5=1,6=50,8=10,10=4,11=1,18=20,26=4,33=1,38=1/1,3;
 2/9=110,12=2,17=6,18=5,40=1/2;
 3/5=1,6=6,7=1,8=11,11=2,25=1,30=1,71=2,74=-5,75=-5,124=41,140=1/1,2,3;
 4/9=2/1;
 5/5=2,7=120,8=3,13=1,38=5/2,8;
 8/6=4,10=90,11=11/1;
 11/6=1,8=1,9=11,15=111,16=1/1,2,10;
 10/6=1,13=1/2;
 6/7=2,8=2,9=2,10=2,28=1/1;
 7/10=1,18=20,25=1/1,2,3,16;
 1/5=1,6=50,8=10,10=4,11=1,18=20,26=4,33=1/3(2);
 2/9=110/2;
 99//99;
 2/9=110/2;
 3/5=1,6=6,7=1,8=11,11=2,25=1,30=1,71=1,74=-5,75=-5,124=41/1,2,3;
 4/5=5,9=2,16=3,69=1/1;
 5/5=2,7=120,8=3,13=1,38=5/2,8;
 7//1,2,3,16;
 1/5=1,6=50,8=10,11=1,18=20,26=4,33=1/3(-5);
 2/9=110/2;
 6/7=2,8=2,9=2,10=2,19=2,28=1/1;
 99/9=1/99;
 Leave Link    1 at Tue Oct  6 20:45:16 2020, MaxMem=  2684354560 cpu:               5.5 elap:               0.5
 (Enter /udrive/faculty/rpeverati/g16/g16/l101.exe)
 ONIOM data not found on unit 2.
 ------------------
 TS search on BH76.
 ------------------
 TstMul:  ICh=     0
 TstMul:  Mul=     2
 TstMul:  ICh=     0
 TstMul:  Mul=     2
 Symbolic Z-matrix:
 Charge =  0 Multiplicity = 2
 H                     0.        0.       -1.34063 
 Cl                    0.        0.        0.20325 
 H                     0.        0.       -2.11466 
 
 RdStrC is calling ZToCFu for IStruc=1 NZ=     3.
 PrtBox:  NBox=     1 Levels=  1 BoxLen=    8.00 SMaxX=        4.38
          Shift=            0.000000            0.000000            3.996130
 Box      1 Number                   0 centers from      1 to      3:
 After GenITR:
 ITRead=  0  0  0
 MicOpt= -1 -1 -1
 Add virtual bond connecting atoms Cl2        and H1         Dist= 2.92D+00.
 ITRead=  0  0  0
 MicOpt= -1 -1 -1
 NAtoms=      3 NQM=        3 NQMF=       0 NMMI=      0 NMMIF=      0
                NMic=       0 NMicF=      0.
                    Isotopes and Nuclear Properties:
 (Nuclear quadrupole moments (NQMom) in fm**2, nuclear magnetic moments (NMagM)
  in nuclear magnetons)

  Atom         1           2           3
 IAtWgt=           1          35           1
 AtmWgt=   1.0078250  34.9688527   1.0078250
 NucSpn=           1           3           1
 AtZEff=   0.0000000   0.0000000   0.0000000
 NQMom=    0.0000000  -8.1650000   0.0000000
 NMagM=    2.7928460   0.8218740   2.7928460
 AtZNuc=   1.0000000  17.0000000   1.0000000
 No MM parameters found.
 Leave Link  101 at Tue Oct  6 20:45:17 2020, MaxMem=  2684354560 cpu:               4.1 elap:               0.5
 (Enter /udrive/faculty/rpeverati/g16/g16/l103.exe)

 GradGradGradGradGradGradGradGradGradGradGradGradGradGradGradGradGradGrad
 Berny optimization.
 Optmz: redundant internal coordinate code flag= 1
 Initialization pass.
                           ----------------------------
                           !    Initial Parameters    !
                           ! (Angstroms and Degrees)  !
 --------------------------                            --------------------------
 ! Name  Definition              Value          Derivative Info.                !
 --------------------------------------------------------------------------------
 ! R1    R(1,2)                  1.5439         calculate D2E/DX2 analytically  !
 ! R2    R(1,3)                  0.774          calculate D2E/DX2 analytically  !
 ! A1    L(2,1,3,-1,-1)        180.0            calculate D2E/DX2 analytically  !
 ! A2    L(2,1,3,-2,-2)        180.0            calculate D2E/DX2 analytically  !
 --------------------------------------------------------------------------------
 Maximum allowed force set to 1.00D+20.
 Trust Radius=1.00D-01 FncErr=1.00D-07 GrdErr=1.00D-06 EigMax=2.50D+02 EigMin=1.00D-04
 Number of steps in this run=     50 maximum allowed number of steps=    100.
 Search for a saddle point of order  1.
 GradGradGradGradGradGradGradGradGradGradGradGradGradGradGradGradGradGrad

 Leave Link  103 at Tue Oct  6 20:45:18 2020, MaxMem=  2684354560 cpu:               0.8 elap:               0.4
 (Enter /udrive/faculty/rpeverati/g16/g16/l202.exe)
                          Input orientation:                          
 ---------------------------------------------------------------------
 Center     Atomic      Atomic             Coordinates (Angstroms)
 Number     Number       Type             X           Y           Z
 ---------------------------------------------------------------------
      1          1           0        0.000000    0.000000   -1.340628
      2         17           0        0.000000    0.000000    0.203252
      3          1           0        0.000000    0.000000   -2.114661
 ---------------------------------------------------------------------
                    Distance matrix (angstroms):
                    1          2          3
     1  H    0.000000
     2  Cl   1.543880   0.000000
     3  H    0.774033   2.317913   0.000000
 Stoichiometry    ClH2(2)
 Framework group  C*V[C*(HHCl)]
 Deg. of freedom     2
 Full point group                 C*V     NOp   4
 Largest Abelian subgroup         C2V     NOp   4
 Largest concise Abelian subgroup C1      NOp   1
                         Standard orientation:                         
 ---------------------------------------------------------------------
 Center     Atomic      Atomic             Coordinates (Angstroms)
 Number     Number       Type             X           Y           Z
 ---------------------------------------------------------------------
      1          1           0        0.000000    0.000000   -1.340628
      2         17           0        0.000000    0.000000    0.203252
      3          1           0        0.000000    0.000000   -2.114661
 ---------------------------------------------------------------------
 Rotational constants (GHZ):           0.0000000          68.2261370          68.2261370
 Leave Link  202 at Tue Oct  6 20:45:18 2020, MaxMem=  2684354560 cpu:               1.1 elap:               0.5
 (Enter /udrive/faculty/rpeverati/g16/g16/l301.exe)
 Standard basis: 6-31G(d) (5D, 7F)
 Ernie: Thresh=  0.10000D-02 Tol=  0.10000D-05 Strict=F.
 There are    14 symmetry adapted cartesian basis functions of A1  symmetry.
 There are     1 symmetry adapted cartesian basis functions of A2  symmetry.
 There are     4 symmetry adapted cartesian basis functions of B1  symmetry.
 There are     4 symmetry adapted cartesian basis functions of B2  symmetry.
 There are    13 symmetry adapted basis functions of A1  symmetry.
 There are     1 symmetry adapted basis functions of A2  symmetry.
 There are     4 symmetry adapted basis functions of B1  symmetry.
 There are     4 symmetry adapted basis functions of B2  symmetry.
    22 basis functions,    60 primitive gaussians,    23 cartesian basis functions
    10 alpha electrons        9 beta electrons
       nuclear repulsion energy        10.3916298602 Hartrees.
 IExCor=  402 DFT=T Ex+Corr=B3LYP ExCW=0 ScaHFX=  0.200000
 ScaDFX=  0.800000  0.720000  1.000000  0.810000 ScalE2=  1.000000  1.000000
 IRadAn=      5 IRanWt=     -1 IRanGd=            0 ICorTp=0 IEmpDi=141
 NAtoms=    3 NActive=    3 NUniq=    3 SFac= 1.00D+00 NAtFMM=   60 NAOKFM=F Big=F
 Integral buffers will be    131072 words long.
 Raffenetti 2 integral format.
 Two-electron integral symmetry is turned on.
 R6Disp:  Grimme-D3(BJ) Dispersion energy=       -0.0012237928 Hartrees.
 Nuclear repulsion after empirical dispersion term =       10.3904060674 Hartrees.
 Leave Link  301 at Tue Oct  6 20:45:19 2020, MaxMem=  2684354560 cpu:               2.0 elap:               0.6
 (Enter /udrive/faculty/rpeverati/g16/g16/l302.exe)
 NPDir=0 NMtPBC=     1 NCelOv=     1 NCel=       1 NClECP=     1 NCelD=      1
         NCelK=      1 NCelE2=     1 NClLst=     1 CellRange=     0.0.
 One-electron integrals computed using PRISM.
 One-electron integral symmetry used in STVInt
 NBasis=    22 RedAO= T EigKep=  2.27D-02  NBF=    13     1     4     4
 NBsUse=    22 1.00D-06 EigRej= -1.00D+00 NBFU=    13     1     4     4
 Precomputing XC quadrature grid using
 IXCGrd= 4 IRadAn=           5 IRanWt=          -1 IRanGd=           0 AccXCQ= 0.00D+00.
 Generated NRdTot=       0 NPtTot=           0 NUsed=           0 NTot=          32
 NSgBfM=    23    23    23    23    23 MxSgAt=     3 MxSgA2=     3.
 Leave Link  302 at Tue Oct  6 20:45:20 2020, MaxMem=  2684354560 cpu:               3.4 elap:               0.6
 (Enter /udrive/faculty/rpeverati/g16/g16/l303.exe)
 DipDrv:  MaxL=1.
 Leave Link  303 at Tue Oct  6 20:45:21 2020, MaxMem=  2684354560 cpu:               0.9 elap:               0.4
 (Enter /udrive/faculty/rpeverati/g16/g16/l401.exe)
 SCF N**3 symmetry information disabled.
 ExpMin= 1.43D-01 ExpMax= 2.52D+04 ExpMxC= 3.78D+03 IAcc=3 IRadAn=         5 AccDes= 0.00D+00
 Harris functional with IExCor=  402 and IRadAn=       5 diagonalized for initial guess.
 HarFok:  IExCor=  402 AccDes= 0.00D+00 IRadAn=         5 IDoV= 1 UseB2=F ITyADJ=14
 ICtDFT=  3500011 ScaDFX=  1.000000  1.000000  1.000000  1.000000
 FoFCou: FMM=F IPFlag=           0 FMFlag=      100000 FMFlg1=           0
         NFxFlg=           0 DoJE=T BraDBF=F KetDBF=T FulRan=T
         wScrn=  0.000000 ICntrl=       500 IOpCl=  0 I1Cent=   200000004 NGrid=           0
         NMat0=    1 NMatS0=      1 NMatT0=    0 NMatD0=    1 NMtDS0=    0 NMtDT0=    0
 Petite list used in FoFCou.
 Harris En= -461.211005363393    
 JPrj=0 DoOrth=F DoCkMO=F.
 Initial guess orbital symmetries:
 Alpha Orbitals:
       Occupied  (SG) (SG) (SG) (PI) (PI) (SG) (SG) (PI) (PI) (SG)
       Virtual   (SG) (SG) (PI) (PI) (SG) (SG) (PI) (PI) (DLTA)
                 (DLTA) (SG) (SG)
 Beta  Orbitals:
       Occupied  (SG) (SG) (SG) (PI) (PI) (SG) (SG) (PI) (PI)
       Virtual   (SG) (SG) (SG) (PI) (PI) (SG) (SG) (PI) (PI) (DLTA)
                 (DLTA) (SG) (SG)
 The electronic state of the initial guess is 2-SG.
 Initial guess <Sx>= 0.0000 <Sy>= 0.0000 <Sz>= 0.5000 <S**2>= 0.7500 S= 0.5000
 Leave Link  401 at Tue Oct  6 20:45:22 2020, MaxMem=  2684354560 cpu:               4.7 elap:               0.7
 (Enter /udrive/faculty/rpeverati/g16/g16/l502.exe)
 Keep R1 and R2 ints in memory in symmetry-blocked form, NReq=10376579.
 FoFCou: FMM=F IPFlag=           0 FMFlag=           0 FMFlg1=           0
         NFxFlg=           0 DoJE=F BraDBF=F KetDBF=F FulRan=T
         wScrn=  0.000000 ICntrl=       600 IOpCl=  0 I1Cent=           0 NGrid=           0
         NMat0=    1 NMatS0=    253 NMatT0=    0 NMatD0=    1 NMtDS0=    0 NMtDT0=    0
 Petite list used in FoFCou.
 UHF open shell SCF:
 Using DIIS extrapolation, IDIIS=  1040.
 NGot=  2684354560 LenX=  2684331456 LenY=  2684330486
 Requested convergence on RMS density matrix=1.00D-08 within 120 cycles.
 Requested convergence on MAX density matrix=1.00D-06.
 Requested convergence on             energy=1.00D-06.
 No special actions if energy rises.
 Integral accuracy reduced to 1.0D-05 until final iterations.

 Cycle   1  Pass 0  IDiag  1:
 E= -461.290828987552    
 DIIS: error= 1.48D-02 at cycle   1 NSaved=   1.
 NSaved= 1 IEnMin= 1 EnMin= -461.290828987552     IErMin= 1 ErrMin= 1.48D-02
 ErrMax= 1.48D-02  0.00D+00 EMaxC= 1.00D-01 BMatC= 2.62D-02 BMatP= 2.62D-02
 IDIUse=3 WtCom= 8.52D-01 WtEn= 1.48D-01
 Coeff-Com:  0.100D+01
 Coeff-En:   0.100D+01
 Coeff:      0.100D+01
 Gap=     0.468 Goal=   None    Shift=    0.000
 Gap=     0.132 Goal=   None    Shift=    0.000
 GapD=    0.132 DampG=1.000 DampE=0.500 DampFc=0.5000 IDamp=-1.
 Damping current iteration by 5.00D-01
 RMSDP=7.54D-03 MaxDP=7.58D-02              OVMax= 1.11D-01

 Cycle   2  Pass 0  IDiag  1:
 E= -461.294264041715     Delta-E=       -0.003435054163 Rises=F Damp=T
 DIIS: error= 7.99D-03 at cycle   2 NSaved=   2.
 NSaved= 2 IEnMin= 2 EnMin= -461.294264041715     IErMin= 2 ErrMin= 7.99D-03
 ErrMax= 7.99D-03  0.00D+00 EMaxC= 1.00D-01 BMatC= 3.61D-03 BMatP= 2.62D-02
 IDIUse=3 WtCom= 9.20D-01 WtEn= 7.99D-02
 Coeff-Com: -0.246D+00 0.125D+01
 Coeff-En:   0.000D+00 0.100D+01
 Coeff:     -0.227D+00 0.123D+01
 Gap=     0.452 Goal=   None    Shift=    0.000
 Gap=     0.117 Goal=   None    Shift=    0.000
 RMSDP=2.46D-03 MaxDP=2.24D-02 DE=-3.44D-03 OVMax= 5.78D-02

 Cycle   3  Pass 0  IDiag  1:
 E= -461.297814697358     Delta-E=       -0.003550655644 Rises=F Damp=F
 DIIS: error= 2.34D-03 at cycle   3 NSaved=   3.
 NSaved= 3 IEnMin= 3 EnMin= -461.297814697358     IErMin= 3 ErrMin= 2.34D-03
 ErrMax= 2.34D-03  0.00D+00 EMaxC= 1.00D-01 BMatC= 7.64D-04 BMatP= 3.61D-03
 IDIUse=3 WtCom= 9.77D-01 WtEn= 2.34D-02
 Coeff-Com: -0.198D+00 0.352D+00 0.846D+00
 Coeff-En:   0.000D+00 0.000D+00 0.100D+01
 Coeff:     -0.194D+00 0.344D+00 0.850D+00
 Gap=     0.455 Goal=   None    Shift=    0.000
 Gap=     0.123 Goal=   None    Shift=    0.000
 RMSDP=1.07D-03 MaxDP=9.84D-03 DE=-3.55D-03 OVMax= 1.30D-02

 Cycle   4  Pass 0  IDiag  1:
 E= -461.298111665220     Delta-E=       -0.000296967861 Rises=F Damp=F
 DIIS: error= 6.62D-04 at cycle   4 NSaved=   4.
 NSaved= 4 IEnMin= 4 EnMin= -461.298111665220     IErMin= 4 ErrMin= 6.62D-04
 ErrMax= 6.62D-04  0.00D+00 EMaxC= 1.00D-01 BMatC= 2.13D-05 BMatP= 7.64D-04
 IDIUse=3 WtCom= 9.93D-01 WtEn= 6.62D-03
 Coeff-Com:  0.195D-01-0.714D-01 0.132D-01 0.104D+01
 Coeff-En:   0.000D+00 0.000D+00 0.000D+00 0.100D+01
 Coeff:      0.194D-01-0.709D-01 0.131D-01 0.104D+01
 Gap=     0.456 Goal=   None    Shift=    0.000
 Gap=     0.124 Goal=   None    Shift=    0.000
 RMSDP=2.23D-04 MaxDP=2.15D-03 DE=-2.97D-04 OVMax= 2.21D-03

 Cycle   5  Pass 0  IDiag  1:
 E= -461.298121524552     Delta-E=       -0.000009859332 Rises=F Damp=F
 DIIS: error= 1.72D-04 at cycle   5 NSaved=   5.
 NSaved= 5 IEnMin= 5 EnMin= -461.298121524552     IErMin= 5 ErrMin= 1.72D-04
 ErrMax= 1.72D-04  0.00D+00 EMaxC= 1.00D-01 BMatC= 3.01D-06 BMatP= 2.13D-05
 IDIUse=3 WtCom= 9.98D-01 WtEn= 1.72D-03
 Coeff-Com:  0.277D-01-0.590D-01-0.717D-01 0.254D+00 0.849D+00
 Coeff-En:   0.000D+00 0.000D+00 0.000D+00 0.000D+00 0.100D+01
 Coeff:      0.277D-01-0.589D-01-0.716D-01 0.253D+00 0.850D+00
 Gap=     0.456 Goal=   None    Shift=    0.000
 Gap=     0.124 Goal=   None    Shift=    0.000
 RMSDP=6.65D-05 MaxDP=5.34D-04 DE=-9.86D-06 OVMax= 5.52D-04

 Cycle   6  Pass 0  IDiag  1:
 E= -461.298122642656     Delta-E=       -0.000001118104 Rises=F Damp=F
 DIIS: error= 5.10D-05 at cycle   6 NSaved=   6.
 NSaved= 6 IEnMin= 6 EnMin= -461.298122642656     IErMin= 6 ErrMin= 5.10D-05
 ErrMax= 5.10D-05  0.00D+00 EMaxC= 1.00D-01 BMatC= 1.87D-07 BMatP= 3.01D-06
 IDIUse=1 WtCom= 1.00D+00 WtEn= 0.00D+00
 Coeff-Com:  0.611D-02-0.117D-01-0.152D-01 0.465D-02 0.214D+00 0.802D+00
 Coeff:      0.611D-02-0.117D-01-0.152D-01 0.465D-02 0.214D+00 0.802D+00
 Gap=     0.456 Goal=   None    Shift=    0.000
 Gap=     0.123 Goal=   None    Shift=    0.000
 RMSDP=2.30D-05 MaxDP=2.54D-04 DE=-1.12D-06 OVMax= 1.63D-04

 Cycle   7  Pass 0  IDiag  1:
 E= -461.298122714937     Delta-E=       -0.000000072281 Rises=F Damp=F
 DIIS: error= 6.18D-06 at cycle   7 NSaved=   7.
 NSaved= 7 IEnMin= 7 EnMin= -461.298122714937     IErMin= 7 ErrMin= 6.18D-06
 ErrMax= 6.18D-06  0.00D+00 EMaxC= 1.00D-01 BMatC= 4.16D-09 BMatP= 1.87D-07
 IDIUse=1 WtCom= 1.00D+00 WtEn= 0.00D+00
 Coeff-Com: -0.178D-02 0.401D-02 0.470D-02-0.153D-01-0.683D-01-0.464D-01
 Coeff-Com:  0.112D+01
 Coeff:     -0.178D-02 0.401D-02 0.470D-02-0.153D-01-0.683D-01-0.464D-01
 Coeff:      0.112D+01
 Gap=     0.456 Goal=   None    Shift=    0.000
 Gap=     0.123 Goal=   None    Shift=    0.000
 RMSDP=5.38D-06 MaxDP=4.90D-05 DE=-7.23D-08 OVMax= 7.71D-05

 Initial convergence to 1.0D-05 achieved.  Increase integral accuracy.
 Cycle   8  Pass 1  IDiag  1:
 E= -461.298123100697     Delta-E=       -0.000000385760 Rises=F Damp=F
 DIIS: error= 1.57D-06 at cycle   1 NSaved=   1.
 NSaved= 1 IEnMin= 1 EnMin= -461.298123100697     IErMin= 1 ErrMin= 1.57D-06
 ErrMax= 1.57D-06  0.00D+00 EMaxC= 1.00D-01 BMatC= 1.51D-10 BMatP= 1.51D-10
 IDIUse=1 WtCom= 1.00D+00 WtEn= 0.00D+00
 Coeff-Com:  0.100D+01
 Coeff:      0.100D+01
 Gap=     0.456 Goal=   None    Shift=    0.000
 Gap=     0.123 Goal=   None    Shift=    0.000
 RMSDP=5.38D-06 MaxDP=4.90D-05 DE=-3.86D-07 OVMax= 6.69D-06

 Cycle   9  Pass 1  IDiag  1:
 E= -461.298123100760     Delta-E=       -0.000000000063 Rises=F Damp=F
 DIIS: error= 7.49D-07 at cycle   2 NSaved=   2.
 NSaved= 2 IEnMin= 2 EnMin= -461.298123100760     IErMin= 2 ErrMin= 7.49D-07
 ErrMax= 7.49D-07  0.00D+00 EMaxC= 1.00D-01 BMatC= 5.23D-11 BMatP= 1.51D-10
 IDIUse=1 WtCom= 1.00D+00 WtEn= 0.00D+00
 Coeff-Com:  0.321D+00 0.679D+00
 Coeff:      0.321D+00 0.679D+00
 Gap=     0.456 Goal=   None    Shift=    0.000
 Gap=     0.123 Goal=   None    Shift=    0.000
 RMSDP=3.31D-07 MaxDP=2.76D-06 DE=-6.31D-11 OVMax= 5.98D-06

 Cycle  10  Pass 1  IDiag  1:
 E= -461.298123100782     Delta-E=       -0.000000000022 Rises=F Damp=F
 DIIS: error= 3.54D-07 at cycle   3 NSaved=   3.
 NSaved= 3 IEnMin= 3 EnMin= -461.298123100782     IErMin= 3 ErrMin= 3.54D-07
 ErrMax= 3.54D-07  0.00D+00 EMaxC= 1.00D-01 BMatC= 1.11D-11 BMatP= 5.23D-11
 IDIUse=1 WtCom= 1.00D+00 WtEn= 0.00D+00
 Coeff-Com: -0.179D+00 0.202D+00 0.977D+00
 Coeff:     -0.179D+00 0.202D+00 0.977D+00
 Gap=     0.456 Goal=   None    Shift=    0.000
 Gap=     0.123 Goal=   None    Shift=    0.000
 RMSDP=1.97D-07 MaxDP=1.92D-06 DE=-2.23D-11 OVMax= 1.44D-06

 Cycle  11  Pass 1  IDiag  1:
 E= -461.298123100786     Delta-E=       -0.000000000004 Rises=F Damp=F
 DIIS: error= 4.05D-08 at cycle   4 NSaved=   4.
 NSaved= 4 IEnMin= 4 EnMin= -461.298123100786     IErMin= 4 ErrMin= 4.05D-08
 ErrMax= 4.05D-08  0.00D+00 EMaxC= 1.00D-01 BMatC= 1.40D-13 BMatP= 1.11D-11
 IDIUse=1 WtCom= 1.00D+00 WtEn= 0.00D+00
 Coeff-Com: -0.114D-01-0.126D-01-0.698D-01 0.109D+01
 Coeff:     -0.114D-01-0.126D-01-0.698D-01 0.109D+01
 Gap=     0.456 Goal=   None    Shift=    0.000
 Gap=     0.123 Goal=   None    Shift=    0.000
 RMSDP=3.63D-08 MaxDP=3.93D-07 DE=-4.32D-12 OVMax= 2.61D-07

 Cycle  12  Pass 1  IDiag  1:
 E= -461.298123100787     Delta-E=       -0.000000000000 Rises=F Damp=F
 DIIS: error= 1.37D-08 at cycle   5 NSaved=   5.
 NSaved= 5 IEnMin= 5 EnMin= -461.298123100787     IErMin= 5 ErrMin= 1.37D-08
 ErrMax= 1.37D-08  0.00D+00 EMaxC= 1.00D-01 BMatC= 1.52D-14 BMatP= 1.40D-13
 IDIUse=1 WtCom= 1.00D+00 WtEn= 0.00D+00
 Coeff-Com:  0.751D-02-0.139D-01-0.738D-01 0.326D+00 0.754D+00
 Coeff:      0.751D-02-0.139D-01-0.738D-01 0.326D+00 0.754D+00
 Gap=     0.456 Goal=   None    Shift=    0.000
 Gap=     0.123 Goal=   None    Shift=    0.000
 RMSDP=3.86D-09 MaxDP=2.95D-08 DE=-4.55D-13 OVMax= 3.06D-08

 SCF Done:  E(UB3LYP) =  -461.298123101     A.U. after   12 cycles
            NFock= 12  Conv=0.39D-08     -V/T= 2.0015
 <Sx>= 0.0000 <Sy>= 0.0000 <Sz>= 0.5000 <S**2>= 0.7556 S= 0.5028
 <L.S>= 0.000000000000E+00
 KE= 4.606113154256D+02 PE=-1.117647074697D+03 EE= 1.853472301029D+02
 Annihilation of the first spin contaminant:
 S**2 before annihilation     0.7556,   after     0.7500
 Leave Link  502 at Tue Oct  6 20:45:23 2020, MaxMem=  2684354560 cpu:              12.8 elap:               1.4
 (Enter /udrive/faculty/rpeverati/g16/g16/l508.exe)
 QCSCF skips out because SCF is already converged.
 Leave Link  508 at Tue Oct  6 20:45:24 2020, MaxMem=  2684354560 cpu:               0.2 elap:               0.4
 (Enter /udrive/faculty/rpeverati/g16/g16/l801.exe)
 DoSCS=F DFT=T ScalE2(SS,OS)=  1.000000  1.000000
 Range of M.O.s used for correlation:     1    22
 NBasis=    22 NAE=    10 NBE=     9 NFC=     0 NFV=     0
 NROrb=     22 NOA=    10 NOB=     9 NVA=    12 NVB=    13
 Leave Link  801 at Tue Oct  6 20:45:24 2020, MaxMem=  2684354560 cpu:               1.4 elap:               0.4
 (Enter /udrive/faculty/rpeverati/g16/g16/l1101.exe)
 Using compressed storage, NAtomX=     3.
 Will process      4 centers per pass.
 R6Disp: Adding Grimme-D3(BJ) dispersion energy 1st derivatives to the gradient.
 Leave Link 1101 at Tue Oct  6 20:45:25 2020, MaxMem=  2684354560 cpu:               3.7 elap:               0.6
 (Enter /udrive/faculty/rpeverati/g16/g16/l1102.exe)
 Symmetrizing basis deriv contribution to polar:
 IMax=3 JMax=2 DiffMx= 0.00D+00
 Leave Link 1102 at Tue Oct  6 20:45:26 2020, MaxMem=  2684354560 cpu:               0.7 elap:               0.3
 (Enter /udrive/faculty/rpeverati/g16/g16/l1110.exe)
 Forming Gx(P) for the SCF density, NAtomX=     3.
 Integral derivatives from FoFJK, PRISM(SPDF).
 Do as many integral derivatives as possible in FoFJK.
 G2DrvN: MDV=    2684354220.
 G2DrvN: will do     4 centers at a time, making    1 passes.
 Calling FoFCou, ICntrl=  3107 FMM=F I1Cent=   0 AccDes= 0.00D+00.
 FoFJK:  IHMeth= 1 ICntrl=    3107 DoSepK=F KAlg= 0 I1Cent=           0 FoldK=F
 IRaf=         0 NMat=       1 IRICut=       1 DoRegI=T DoRafI=F ISym2E= 1 IDoP0=0 IntGTp=1.
 FoFCou: FMM=F IPFlag=           0 FMFlag=      100000 FMFlg1=           0
         NFxFlg=           0 DoJE=F BraDBF=F KetDBF=F FulRan=T
         wScrn=  0.000000 ICntrl=      3107 IOpCl=  1 I1Cent=           0 NGrid=           0
         NMat0=    1 NMatS0=      1 NMatT0=    0 NMatD0=    1 NMtDS0=    0 NMtDT0=    0
 Petite list used in FoFCou.
 End of G2Drv F.D. properties file   721 does not exist.
 End of G2Drv F.D. properties file   722 does not exist.
 End of G2Drv F.D. properties file   788 does not exist.
 Leave Link 1110 at Tue Oct  6 20:45:27 2020, MaxMem=  2684354560 cpu:              10.2 elap:               1.2
 (Enter /udrive/faculty/rpeverati/g16/g16/l1002.exe)
 Minotr:  UHF open shell wavefunction.
          IDoAtm=111
          Direct CPHF calculation.
          Differentiating once with respect to nuclear coordinates.
          Using symmetry in CPHF.
          Requested convergence is 1.0D-08 RMS, and 1.0D-07 maximum.
          Secondary convergence is 1.0D-12 RMS, and 1.0D-12 maximum.
          NewPWx=T KeepS1=F KeepF1=F KeepIn=T MapXYZ=F SortEE=F KeepMc=T.
          867 words used for storage of precomputed grid.
 Keep R1 and R2 ints in memory in symmetry-blocked form, NReq=10337319.
 FoFCou: FMM=F IPFlag=           0 FMFlag=           0 FMFlg1=           0
         NFxFlg=           0 DoJE=F BraDBF=F KetDBF=F FulRan=T
         wScrn=  0.000000 ICntrl=       600 IOpCl=  0 I1Cent=           0 NGrid=           0
         NMat0=    1 NMatS0=    253 NMatT0=    0 NMatD0=    1 NMtDS0=    0 NMtDT0=    0
 Petite list used in FoFCou.
          MDV=    2684354560 using IRadAn=       1.
          Solving linear equations simultaneously, MaxMat=       0.
          There are    12 degrees of freedom in the 1st order CPHF.  IDoFFX=6 NUNeed=     0.
      6 vectors produced by pass  0 Test12= 1.97D-15 8.33D-09 XBig12= 2.44D-01 3.95D-01.
 AX will form     6 AO Fock derivatives at one time.
      6 vectors produced by pass  1 Test12= 1.97D-15 8.33D-09 XBig12= 2.84D-02 1.22D-01.
      6 vectors produced by pass  2 Test12= 1.97D-15 8.33D-09 XBig12= 4.07D-03 2.94D-02.
      6 vectors produced by pass  3 Test12= 1.97D-15 8.33D-09 XBig12= 1.70D-04 6.36D-03.
      6 vectors produced by pass  4 Test12= 1.97D-15 8.33D-09 XBig12= 1.78D-06 4.93D-04.
      6 vectors produced by pass  5 Test12= 1.97D-15 8.33D-09 XBig12= 1.07D-08 3.70D-05.
      2 vectors produced by pass  6 Test12= 1.97D-15 8.33D-09 XBig12= 1.09D-10 4.46D-06.
      1 vectors produced by pass  7 Test12= 1.97D-15 8.33D-09 XBig12= 4.66D-13 2.51D-07.
      1 vectors produced by pass  8 Test12= 1.97D-15 8.33D-09 XBig12= 1.73D-15 1.60D-08.
 InvSVY:  IOpt=1 It=  1 EMax= 4.44D-16
 Solved reduced A of dimension    40 with     6 vectors.
 End of Minotr F.D. properties file   721 does not exist.
 End of Minotr F.D. properties file   722 does not exist.
 End of Minotr F.D. properties file   788 does not exist.
 Leave Link 1002 at Tue Oct  6 20:45:29 2020, MaxMem=  2684354560 cpu:              16.4 elap:               1.9
 (Enter /udrive/faculty/rpeverati/g16/g16/l601.exe)
 Copying SCF densities to generalized density rwf, IOpCl= 1 IROHF=0.

 **********************************************************************

            Population analysis using the SCF density.

 **********************************************************************

 Orbital symmetries:
 Alpha Orbitals:
       Occupied  (SG) (SG) (SG) (PI) (PI) (SG) (SG) (PI) (PI) (SG)
       Virtual   (SG) (SG) (PI) (PI) (SG) (SG) (PI) (PI) (DLTA)
                 (DLTA) (SG) (SG)
 Beta  Orbitals:
       Occupied  (SG) (SG) (SG) (PI) (PI) (SG) (SG) (PI) (PI)
       Virtual   (SG) (SG) (SG) (PI) (PI) (SG) (SG) (PI) (PI) (DLTA)
                 (DLTA) (SG) (SG)
 The electronic state is 2-SG.
 Alpha  occ. eigenvalues -- -101.54441  -9.47624  -7.24671  -7.22773  -7.22773
 Alpha  occ. eigenvalues --   -0.84206  -0.55127  -0.33505  -0.33505  -0.33038
 Alpha virt. eigenvalues --    0.12564   0.36834   0.43459   0.43459   0.44627
 Alpha virt. eigenvalues --    0.65603   0.81742   0.81742   0.86111   0.86111
 Alpha virt. eigenvalues --    0.97097   1.13630
  Beta  occ. eigenvalues -- -101.53909  -9.47120  -7.23015  -7.22465  -7.22465
  Beta  occ. eigenvalues --   -0.80581  -0.50261  -0.32357  -0.32357
  Beta virt. eigenvalues --   -0.20013   0.15018   0.38428   0.43927   0.43927
  Beta virt. eigenvalues --    0.47839   0.70631   0.86134   0.86134   0.86797
  Beta virt. eigenvalues --    0.86797   0.98672   1.18072
          Condensed to atoms (all electrons):
               1          2          3
     1  H    0.732719   0.029746   0.312256
     2  Cl   0.029746  17.166306  -0.110585
     3  H    0.312256  -0.110585   0.638140
          Atomic-Atomic Spin Densities.
               1          2          3
     1  H   -0.120247  -0.033659   0.067639
     2  Cl  -0.033659   0.824010  -0.110751
     3  H    0.067639  -0.110751   0.449778
 Mulliken charges and spin densities:
               1          2
     1  H   -0.074722  -0.086267
     2  Cl  -0.085467   0.679601
     3  H    0.160189   0.406666
 Sum of Mulliken charges =  -0.00000   1.00000
 Mulliken charges and spin densities with hydrogens summed into heavy atoms:
               1          2
     2  Cl  -0.000000   1.000000
 APT charges:
               1
     1  H   -0.339599
     2  Cl  -0.049920
     3  H    0.389519
 Sum of APT charges =  -0.00000
 APT charges with hydrogens summed into heavy atoms:
               1
     2  Cl  -0.000000
 Electronic spatial extent (au):  <R**2>=             55.1903
 Charge=             -0.0000 electrons
 Dipole moment (field-independent basis, Debye):
    X=              0.0000    Y=             -0.0000    Z=             -1.4037  Tot=              1.4037
 Quadrupole moment (field-independent basis, Debye-Ang):
   XX=            -14.9654   YY=            -14.9654   ZZ=            -10.8171
   XY=             -0.0000   XZ=              0.0000   YZ=              0.0000
 Traceless Quadrupole moment (field-independent basis, Debye-Ang):
   XX=             -1.3828   YY=             -1.3828   ZZ=              2.7655
   XY=             -0.0000   XZ=              0.0000   YZ=              0.0000
 Octapole moment (field-independent basis, Debye-Ang**2):
  XXX=              0.0000  YYY=              0.0000  ZZZ=             -2.7567  XYY=              0.0000
  XXY=             -0.0000  XXZ=              0.2818  XZZ=              0.0000  YZZ=              0.0000
  YYZ=              0.2818  XYZ=             -0.0000
 Hexadecapole moment (field-independent basis, Debye-Ang**3):
 XXXX=            -16.4611 YYYY=            -16.4611 ZZZZ=            -37.6078 XXXY=             -0.0000
 XXXZ=              0.0000 YYYX=             -0.0000 YYYZ=              0.0000 ZZZX=              0.0000
 ZZZY=              0.0000 XXYY=             -5.4870 XXZZ=            -11.0586 YYZZ=            -11.0586
 XXYZ=              0.0000 YYXZ=              0.0000 ZZXY=             -0.0000
 N-N= 1.039040606741D+01 E-N=-1.117647074228D+03  KE= 4.606113154256D+02
  Exact polarizability:   0.000   0.000   0.000   0.000   0.000   0.000
 Approx polarizability:   7.300   0.000   7.300  -0.000   0.000  36.604
                          Isotropic Fermi Contact Couplings
        Atom                 a.u.       MegaHertz       Gauss      10(-4) cm-1
     1  H(1)              -0.01732     -77.43227     -27.62976     -25.82862
     2  Cl(35)             0.13925      61.05462      21.78581      20.36563
     3  H(1)               0.16557     740.08300     264.08002     246.86512
 --------------------------------------------------------
       Center         ----  Spin Dipole Couplings  ----
                      3XX-RR        3YY-RR        3ZZ-RR
 --------------------------------------------------------
     1   Atom       -0.100310     -0.100310      0.200620
     2   Atom       -2.237331     -2.237331      4.474662
     3   Atom       -0.003358     -0.003358      0.006716
 --------------------------------------------------------
                        XY            XZ            YZ
 --------------------------------------------------------
     1   Atom        0.000000      0.000000      0.000000
     2   Atom        0.000000      0.000000      0.000000
     3   Atom        0.000000      0.000000      0.000000
 --------------------------------------------------------


 ---------------------------------------------------------------------------------
              Anisotropic Spin Dipole Couplings in Principal Axis System
 ---------------------------------------------------------------------------------

       Atom             a.u.   MegaHertz   Gauss  10(-4) cm-1        Axes

              Baa    -0.1003   -53.521   -19.098   -17.853  0.0000  1.0000  0.0000
     1 H(1)   Bbb    -0.1003   -53.521   -19.098   -17.853  1.0000  0.0000  0.0000
              Bcc     0.2006   107.041    38.195    35.705  0.0000  0.0000  1.0000
 
              Baa    -2.2373  -117.097   -41.783   -39.059  1.0000  0.0000  0.0000
     2 Cl(35) Bbb    -2.2373  -117.097   -41.783   -39.059  0.0000  1.0000  0.0000
              Bcc     4.4747   234.193    83.566    78.118  0.0000  0.0000  1.0000
 
              Baa    -0.0034    -1.792    -0.639    -0.598  1.0000  0.0000  0.0000
     3 H(1)   Bbb    -0.0034    -1.792    -0.639    -0.598  0.0000  1.0000  0.0000
              Bcc     0.0067     3.583     1.279     1.195  0.0000  0.0000  1.0000
 

 ---------------------------------------------------------------------------------

 No NMR shielding tensors so no spin-rotation constants.
 Leave Link  601 at Tue Oct  6 20:45:30 2020, MaxMem=  2684354560 cpu:               6.0 elap:               0.8
 (Enter /udrive/faculty/rpeverati/g16/g16/l701.exe)
 ... and contract with generalized density number  0.
 Compute integral second derivatives.
 R6Disp: Adding Grimme-D3(BJ) dispersion energy 2nd derivatives to the Hessian.
 Leave Link  701 at Tue Oct  6 20:45:31 2020, MaxMem=  2684354560 cpu:               4.5 elap:               0.8
 (Enter /udrive/faculty/rpeverati/g16/g16/l702.exe)
 L702 exits ... SP integral derivatives will be done elsewhere.
 Leave Link  702 at Tue Oct  6 20:45:32 2020, MaxMem=  2684354560 cpu:               0.8 elap:               0.4
 (Enter /udrive/faculty/rpeverati/g16/g16/l703.exe)
 Integral derivatives from FoFJK, PRISM(SPDF).
 Compute integral second derivatives, UseDBF=F ICtDFT=           0.
 Calling FoFJK, ICntrl=    100147 FMM=F ISym2X=1 I1Cent= 0 IOpClX= 1 NMat=1 NMatS=1 NMatT=0.
 FoFJK:  IHMeth= 1 ICntrl=  100147 DoSepK=F KAlg= 0 I1Cent=           0 FoldK=F
 IRaf=         0 NMat=       1 IRICut=       1 DoRegI=T DoRafI=F ISym2E= 1 IDoP0=0 IntGTp=1.
 FoFCou: FMM=F IPFlag=           0 FMFlag=      100000 FMFlg1=         800
         NFxFlg=           0 DoJE=F BraDBF=F KetDBF=F FulRan=T
         wScrn=  0.000000 ICntrl=    100147 IOpCl=  1 I1Cent=           0 NGrid=           0
         NMat0=    1 NMatS0=      1 NMatT0=    0 NMatD0=    1 NMtDS0=    0 NMtDT0=    0
 Petite list used in FoFCou.
 Leave Link  703 at Tue Oct  6 20:45:34 2020, MaxMem=  2684354560 cpu:              10.9 elap:               1.3
 (Enter /udrive/faculty/rpeverati/g16/g16/l716.exe)
 Dipole        = 0.00000000D+00-1.49518438D-32-5.52270452D-01
 Polarizability= 0.00000000D+00 0.00000000D+00 0.00000000D+00
                 0.00000000D+00 0.00000000D+00 0.00000000D+00
 ***** Axes restored to original set *****
 -------------------------------------------------------------------
 Center     Atomic                   Forces (Hartrees/Bohr)
 Number     Number              X              Y              Z
 -------------------------------------------------------------------
      1        1           0.000000000   -0.000000000    0.002146117
      2       17          -0.000000000    0.000000000    0.028917616
      3        1           0.000000000   -0.000000000   -0.031063733
 -------------------------------------------------------------------
 Cartesian Forces:  Max     0.031063733 RMS     0.014164862
 Force constants in Cartesian coordinates: 
                1             2             3             4             5 
      1 -0.141582D-01
      2  0.000000D+00 -0.141582D-01
      3  0.000000D+00  0.000000D+00  0.198489D+00
      4  0.424730D-02  0.000000D+00  0.000000D+00 -0.802761D-02
      5  0.000000D+00  0.424730D-02  0.000000D+00  0.000000D+00 -0.802761D-02
      6  0.000000D+00  0.000000D+00 -0.206265D-02  0.000000D+00  0.000000D+00
      7  0.991089D-02  0.000000D+00  0.000000D+00  0.378031D-02  0.000000D+00
      8  0.000000D+00  0.991089D-02  0.000000D+00  0.000000D+00  0.378031D-02
      9  0.000000D+00  0.000000D+00 -0.196426D+00  0.000000D+00  0.000000D+00
                6             7             8             9 
      6  0.805891D-01
      7  0.000000D+00 -0.136912D-01
      8  0.000000D+00  0.000000D+00 -0.136912D-01
      9 -0.785265D-01  0.000000D+00  0.000000D+00  0.274953D+00
 FormGI is forming the generalized inverse of G from B-inverse, IUseBI=4.
 Force constants in internal coordinates: 
                1             2             3             4 
      1  0.805891D-01
      2  0.785265D-01  0.274953D+00
      3  0.000000D+00  0.000000D+00  0.161308D-01
      4  0.000000D+00  0.000000D+00  0.000000D+00  0.161308D-01
 Leave Link  716 at Tue Oct  6 20:45:35 2020, MaxMem=  2684354560 cpu:               1.8 elap:               0.7
 (Enter /udrive/faculty/rpeverati/g16/g16/l103.exe)

 GradGradGradGradGradGradGradGradGradGradGradGradGradGradGradGradGradGrad
 Berny optimization.
 Optmz: redundant internal coordinate code flag= 1
 Red2BG:  D1=  1.00D+00 OD1=  3.33D-16 B2RMS=  0.00D+00 IAprox=1
 Red2BG is reusing G-inverse.
 Internal  Forces:  Max     0.031063733 RMS     0.021220179
 Search for a saddle point.
 Step number   1 out of a maximum of   50
 All quantities printed in internal units (Hartrees-Bohrs-Radians)
 Swapping is turned off.
 Second derivative matrix not updated -- analytic derivatives used.
 The second derivative matrix:
                          R1        R2        A1        A2
           R1           0.08059
           R2           0.07853   0.27495
           A1          -0.00000  -0.00000   0.01613
           A2           0.00000  -0.00000  -0.00000   0.01613
 ITU=  0
 Eigenvectors of the second derivative matrix:
                           1         2         3         4
     Eigenvalues --     0.01613   0.01613   0.05283   0.30271
   1         R1        -0.00000  -0.00000  -0.94282  -0.33331
   2         R2         0.00000   0.00000   0.33331  -0.94282
   3         A1         0.00129  -1.00000   0.00000   0.00000
   4         A2         1.00000   0.00129  -0.00000   0.00000
 Eigenvalue     1 is   1.61D-02 should be less than     0.000000 Eigenvector:
                          A2        A1        R1        R2
   1                    1.00000   0.00129  -0.00000   0.00000
 RLam0= 1.61D-02.
 Iter=   1 RLamda= 0.00000000D+00 Sum=-1.04184272D-02.
 Iter=   2 RLamda=-1.04184272D-02 Sum=-9.36022685D-03.
 Iter=   3 RLamda=-9.36022685D-03 Sum=-9.45356951D-03.
 Iter=   4 RLamda=-9.45356951D-03 Sum=-9.44522625D-03.
 Iter=   5 RLamda=-9.44522625D-03 Sum=-9.44597112D-03.
 Iter=   6 RLamda=-9.44597112D-03 Sum=-9.44590462D-03.
 Iter=   7 RLamda=-9.44590462D-03 Sum=-9.44591055D-03.
 RFO step:  Lambda0=1.613084011D-02 Lambda=-9.44590462D-03.
 Linear search not attempted -- option 19 set.
 Maximum step size (   0.100) exceeded in Quadratic search.
    -- Step size scaled by   0.237
 Iteration  1 RMS(Cart)=  0.04086315 RMS(Int)=  0.00103897
 Iteration  2 RMS(Cart)=  0.00094929 RMS(Int)=  0.00000040
 Iteration  3 RMS(Cart)=  0.00000031 RMS(Int)=  0.00000003
 ITry= 1 IFail=0 DXMaxC= 4.81D-02 DCOld= 1.00D+10 DXMaxT= 1.00D-01 DXLimC= 3.00D+00 Rises=F
 ClnCor:  largest displacement from symmetrization is 4.47D-02 for atom     1.
 Variable       Old X    -DE/DX   Delta X   Delta X   Delta X     New X
                                 (Linear)    (Quad)   (Total)
    R1        2.91751   0.02892   0.00000   0.07042   0.06982   2.98734
    R2        1.46271   0.03106   0.00000   0.00640   0.00451   1.46722
    A1        3.14159  -0.00000   0.00000  -0.00009   0.00000   3.14159
    A2        3.14159  -0.00000   0.00000  -0.07071   0.00000   3.14159
         Item               Value     Threshold  Converged?
 Maximum Force            0.031064     0.000450     NO 
 RMS     Force            0.021220     0.000300     NO 
 Maximum Displacement     0.048054     0.001800     NO 
 RMS     Displacement     0.029470     0.001200     NO 
 Predicted change in Energy=-1.935339D-03
 Lowest energy point so far.  Saving SCF results.
 Largest change from initial coordinates is atom    2       0.014 Angstoms.
 GradGradGradGradGradGradGradGradGradGradGradGradGradGradGradGradGradGrad

 Leave Link  103 at Tue Oct  6 20:45:35 2020, MaxMem=  2684354560 cpu:               1.7 elap:               0.5
 (Enter /udrive/faculty/rpeverati/g16/g16/l202.exe)
                          Input orientation:                          
 ---------------------------------------------------------------------
 Center     Atomic      Atomic             Coordinates (Angstroms)
 Number     Number       Type             X           Y           Z
 ---------------------------------------------------------------------
      1          1           0        0.000000    0.000000   -1.352149
      2         17           0        0.000000    0.000000    0.228681
      3          1           0        0.000000    0.000000   -2.128569
 ---------------------------------------------------------------------
                    Distance matrix (angstroms):
                    1          2          3
     1  H    0.000000
     2  Cl   1.580830   0.000000
     3  H    0.776421   2.357251   0.000000
 Stoichiometry    ClH2(2)
 Framework group  C*V[C*(HHCl)]
 Deg. of freedom     2
 Full point group                 C*V     NOp   4
 RotChk:  IX=0 Diff= 0.00D+00
 Largest Abelian subgroup         C2V     NOp   4
 Largest concise Abelian subgroup C1      NOp   1
                         Standard orientation:                         
 ---------------------------------------------------------------------
 Center     Atomic      Atomic             Coordinates (Angstroms)
 Number     Number       Type             X           Y           Z
 ---------------------------------------------------------------------
      1          1           0        0.000000    0.000000   -1.373562
      2         17           0        0.000000    0.000000    0.207267
      3          1           0        0.000000    0.000000   -2.149983
 ---------------------------------------------------------------------
 Rotational constants (GHZ):           0.0000000          65.6952625          65.6952625
 Leave Link  202 at Tue Oct  6 20:45:36 2020, MaxMem=  2684354560 cpu:               1.0 elap:               0.3
 (Enter /udrive/faculty/rpeverati/g16/g16/l301.exe)
 Standard basis: 6-31G(d) (5D, 7F)
 Ernie: Thresh=  0.10000D-02 Tol=  0.10000D-05 Strict=F.
 There are    14 symmetry adapted cartesian basis functions of A1  symmetry.
 There are     1 symmetry adapted cartesian basis functions of A2  symmetry.
 There are     4 symmetry adapted cartesian basis functions of B1  symmetry.
 There are     4 symmetry adapted cartesian basis functions of B2  symmetry.
 There are    13 symmetry adapted basis functions of A1  symmetry.
 There are     1 symmetry adapted basis functions of A2  symmetry.
 There are     4 symmetry adapted basis functions of B1  symmetry.
 There are     4 symmetry adapted basis functions of B2  symmetry.
    22 basis functions,    60 primitive gaussians,    23 cartesian basis functions
    10 alpha electrons        9 beta electrons
       nuclear repulsion energy        10.1885658856 Hartrees.
 IExCor=  402 DFT=T Ex+Corr=B3LYP ExCW=0 ScaHFX=  0.200000
 ScaDFX=  0.800000  0.720000  1.000000  0.810000 ScalE2=  1.000000  1.000000
 IRadAn=      5 IRanWt=     -1 IRanGd=            0 ICorTp=0 IEmpDi=141
 NAtoms=    3 NActive=    3 NUniq=    3 SFac= 1.00D+00 NAtFMM=   60 NAOKFM=F Big=F
 Integral buffers will be    131072 words long.
 Raffenetti 2 integral format.
 Two-electron integral symmetry is turned on.
 R6Disp:  Grimme-D3(BJ) Dispersion energy=       -0.0012202677 Hartrees.
 Nuclear repulsion after empirical dispersion term =       10.1873456179 Hartrees.
 Leave Link  301 at Tue Oct  6 20:45:37 2020, MaxMem=  2684354560 cpu:               1.5 elap:               0.5
 (Enter /udrive/faculty/rpeverati/g16/g16/l302.exe)
 NPDir=0 NMtPBC=     1 NCelOv=     1 NCel=       1 NClECP=     1 NCelD=      1
         NCelK=      1 NCelE2=     1 NClLst=     1 CellRange=     0.0.
 One-electron integrals computed using PRISM.
 One-electron integral symmetry used in STVInt
 NBasis=    22 RedAO= T EigKep=  2.43D-02  NBF=    13     1     4     4
 NBsUse=    22 1.00D-06 EigRej= -1.00D+00 NBFU=    13     1     4     4
 Precomputing XC quadrature grid using
 IXCGrd= 4 IRadAn=           5 IRanWt=          -1 IRanGd=           0 AccXCQ= 0.00D+00.
 Generated NRdTot=       0 NPtTot=           0 NUsed=           0 NTot=          32
 NSgBfM=    23    23    23    23    23 MxSgAt=     3 MxSgA2=     3.
 Leave Link  302 at Tue Oct  6 20:45:37 2020, MaxMem=  2684354560 cpu:               3.0 elap:               0.6
 (Enter /udrive/faculty/rpeverati/g16/g16/l303.exe)
 DipDrv:  MaxL=1.
 Leave Link  303 at Tue Oct  6 20:45:38 2020, MaxMem=  2684354560 cpu:               0.7 elap:               0.4
 (Enter /udrive/faculty/rpeverati/g16/g16/l401.exe)
 Initial guess from the checkpoint file:  "MN_78_RKT01_BH76_B3LYP_631Gs.chk"
 SCF N**3 symmetry information disabled.
 B after Tr=     0.000000    0.000000    0.000000
         Rot=    1.000000    0.000000    0.000000    0.000000 Ang=   0.00 deg.
 Guess basis will be translated and rotated to current coordinates.
 JPrj=2 DoOrth=T DoCkMO=T.
 Initial guess orbital symmetries:
 Alpha Orbitals:
       Occupied  (SG) (SG) (SG) (PI) (PI) (SG) (SG) (PI) (PI) (SG)
       Virtual   (SG) (SG) (PI) (PI) (SG) (SG) (PI) (PI) (DLTA)
                 (DLTA) (SG) (SG)
 Beta  Orbitals:
       Occupied  (SG) (SG) (SG) (PI) (PI) (SG) (SG) (PI) (PI)
       Virtual   (SG) (SG) (SG) (PI) (PI) (SG) (SG) (PI) (PI) (DLTA)
                 (DLTA) (SG) (SG)
 The electronic state of the initial guess is 2-SG.
 Initial guess <Sx>= 0.0000 <Sy>= 0.0000 <Sz>= 0.5000 <S**2>= 0.7557 S= 0.5029
 Generating alternative initial guess.
 ExpMin= 1.43D-01 ExpMax= 2.52D+04 ExpMxC= 3.78D+03 IAcc=2 IRadAn=         4 AccDes= 0.00D+00
 Harris functional with IExCor=  402 and IRadAn=       4 diagonalized for initial guess.
 HarFok:  IExCor=  402 AccDes= 0.00D+00 IRadAn=         4 IDoV= 1 UseB2=F ITyADJ=14
 ICtDFT=  3500011 ScaDFX=  1.000000  1.000000  1.000000  1.000000
 FoFCou: FMM=F IPFlag=           0 FMFlag=      100000 FMFlg1=           0
         NFxFlg=           0 DoJE=T BraDBF=F KetDBF=T FulRan=T
         wScrn=  0.000000 ICntrl=       500 IOpCl=  0 I1Cent=   200000004 NGrid=           0
         NMat0=    1 NMatS0=      1 NMatT0=    0 NMatD0=    1 NMtDS0=    0 NMtDT0=    0
 Petite list used in FoFCou.
 Harris En= -461.214908682179    
 Leave Link  401 at Tue Oct  6 20:45:39 2020, MaxMem=  2684354560 cpu:               5.7 elap:               0.9
 (Enter /udrive/faculty/rpeverati/g16/g16/l502.exe)
 Keep R1 and R2 ints in memory in symmetry-blocked form, NReq=10376579.
 FoFCou: FMM=F IPFlag=           0 FMFlag=           0 FMFlg1=           0
         NFxFlg=           0 DoJE=F BraDBF=F KetDBF=F FulRan=T
         wScrn=  0.000000 ICntrl=       600 IOpCl=  0 I1Cent=           0 NGrid=           0
         NMat0=    1 NMatS0=    253 NMatT0=    0 NMatD0=    1 NMtDS0=    0 NMtDT0=    0
 Petite list used in FoFCou.
 UHF open shell SCF:
 Using DIIS extrapolation, IDIIS=  1040.
 NGot=  2684354560 LenX=  2684331456 LenY=  2684330486
 Requested convergence on RMS density matrix=1.00D-08 within 120 cycles.
 Requested convergence on MAX density matrix=1.00D-06.
 Requested convergence on             energy=1.00D-06.
 No special actions if energy rises.
 Integral accuracy reduced to 1.0D-05 until final iterations.

 Cycle   1  Pass 0  IDiag  1:
 E= -461.299866690972    
 DIIS: error= 2.01D-03 at cycle   1 NSaved=   1.
 NSaved= 1 IEnMin= 1 EnMin= -461.299866690972     IErMin= 1 ErrMin= 2.01D-03
 ErrMax= 2.01D-03  0.00D+00 EMaxC= 1.00D-01 BMatC= 3.64D-04 BMatP= 3.64D-04
 IDIUse=3 WtCom= 9.80D-01 WtEn= 2.01D-02
 Coeff-Com:  0.100D+01
 Coeff-En:   0.100D+01
 Coeff:      0.100D+01
 Gap=     0.456 Goal=   None    Shift=    0.000
 Gap=     0.119 Goal=   None    Shift=    0.000
 GapD=    0.119 DampG=1.000 DampE=1.000 DampFc=1.0000 IDamp=-1.
 RMSDP=8.85D-04 MaxDP=7.49D-03              OVMax= 1.19D-02

 Cycle   2  Pass 0  IDiag  1:
 E= -461.300053086015     Delta-E=       -0.000186395043 Rises=F Damp=F
 DIIS: error= 8.18D-04 at cycle   2 NSaved=   2.
 NSaved= 2 IEnMin= 2 EnMin= -461.300053086015     IErMin= 2 ErrMin= 8.18D-04
 ErrMax= 8.18D-04  0.00D+00 EMaxC= 1.00D-01 BMatC= 3.15D-05 BMatP= 3.64D-04
 IDIUse=3 WtCom= 9.92D-01 WtEn= 8.18D-03
 Coeff-Com:  0.818D-01 0.918D+00
 Coeff-En:   0.000D+00 0.100D+01
 Coeff:      0.811D-01 0.919D+00
 Gap=     0.457 Goal=   None    Shift=    0.000
 Gap=     0.119 Goal=   None    Shift=    0.000
 RMSDP=3.49D-04 MaxDP=3.23D-03 DE=-1.86D-04 OVMax= 2.70D-03

 Cycle   3  Pass 0  IDiag  1:
 E= -461.300065041194     Delta-E=       -0.000011955179 Rises=F Damp=F
 DIIS: error= 3.07D-04 at cycle   3 NSaved=   3.
 NSaved= 3 IEnMin= 3 EnMin= -461.300065041194     IErMin= 3 ErrMin= 3.07D-04
 ErrMax= 3.07D-04  0.00D+00 EMaxC= 1.00D-01 BMatC= 9.89D-06 BMatP= 3.15D-05
 IDIUse=3 WtCom= 9.97D-01 WtEn= 3.07D-03
 Coeff-Com: -0.422D-01 0.328D+00 0.714D+00
 Coeff-En:   0.000D+00 0.000D+00 0.100D+01
 Coeff:     -0.421D-01 0.327D+00 0.715D+00
 Gap=     0.457 Goal=   None    Shift=    0.000
 Gap=     0.119 Goal=   None    Shift=    0.000
 RMSDP=1.17D-04 MaxDP=7.50D-04 DE=-1.20D-05 OVMax= 1.71D-03

 Cycle   4  Pass 0  IDiag  1:
 E= -461.300068877571     Delta-E=       -0.000003836377 Rises=F Damp=F
 DIIS: error= 8.31D-05 at cycle   4 NSaved=   4.
 NSaved= 4 IEnMin= 4 EnMin= -461.300068877571     IErMin= 4 ErrMin= 8.31D-05
 ErrMax= 8.31D-05  0.00D+00 EMaxC= 1.00D-01 BMatC= 5.81D-07 BMatP= 9.89D-06
 IDIUse=1 WtCom= 1.00D+00 WtEn= 0.00D+00
 Coeff-Com: -0.964D-02-0.628D-01 0.451D-01 0.103D+01
 Coeff:     -0.964D-02-0.628D-01 0.451D-01 0.103D+01
 Gap=     0.457 Goal=   None    Shift=    0.000
 Gap=     0.119 Goal=   None    Shift=    0.000
 RMSDP=6.27D-05 MaxDP=6.11D-04 DE=-3.84D-06 OVMax= 4.73D-04

 Cycle   5  Pass 0  IDiag  1:
 E= -461.300069193538     Delta-E=       -0.000000315968 Rises=F Damp=F
 DIIS: error= 3.22D-05 at cycle   5 NSaved=   5.
 NSaved= 5 IEnMin= 5 EnMin= -461.300069193538     IErMin= 5 ErrMin= 3.22D-05
 ErrMax= 3.22D-05  0.00D+00 EMaxC= 1.00D-01 BMatC= 1.21D-07 BMatP= 5.81D-07
 IDIUse=1 WtCom= 1.00D+00 WtEn= 0.00D+00
 Coeff-Com:  0.409D-02-0.676D-01-0.757D-01 0.386D+00 0.753D+00
 Coeff:      0.409D-02-0.676D-01-0.757D-01 0.386D+00 0.753D+00
 Gap=     0.457 Goal=   None    Shift=    0.000
 Gap=     0.119 Goal=   None    Shift=    0.000
 RMSDP=1.42D-05 MaxDP=1.20D-04 DE=-3.16D-07 OVMax= 2.99D-04

 Cycle   6  Pass 0  IDiag  1:
 E= -461.300069246993     Delta-E=       -0.000000053454 Rises=F Damp=F
 DIIS: error= 8.04D-06 at cycle   6 NSaved=   6.
 NSaved= 6 IEnMin= 6 EnMin= -461.300069246993     IErMin= 6 ErrMin= 8.04D-06
 ErrMax= 8.04D-06  0.00D+00 EMaxC= 1.00D-01 BMatC= 6.31D-09 BMatP= 1.21D-07
 IDIUse=1 WtCom= 1.00D+00 WtEn= 0.00D+00
 Coeff-Com:  0.151D-02-0.104D-01-0.201D-01-0.122D-01 0.175D+00 0.867D+00
 Coeff:      0.151D-02-0.104D-01-0.201D-01-0.122D-01 0.175D+00 0.867D+00
 Gap=     0.457 Goal=   None    Shift=    0.000
 Gap=     0.119 Goal=   None    Shift=    0.000
 RMSDP=4.48D-06 MaxDP=4.38D-05 DE=-5.35D-08 OVMax= 3.49D-05

 Initial convergence to 1.0D-05 achieved.  Increase integral accuracy.
 Cycle   7  Pass 1  IDiag  1:
 E= -461.300072030684     Delta-E=       -0.000002783691 Rises=F Damp=F
 DIIS: error= 1.51D-06 at cycle   1 NSaved=   1.
 NSaved= 1 IEnMin= 1 EnMin= -461.300072030684     IErMin= 1 ErrMin= 1.51D-06
 ErrMax= 1.51D-06  0.00D+00 EMaxC= 1.00D-01 BMatC= 1.53D-10 BMatP= 1.53D-10
 IDIUse=1 WtCom= 1.00D+00 WtEn= 0.00D+00
 Coeff-Com:  0.100D+01
 Coeff:      0.100D+01
 Gap=     0.457 Goal=   None    Shift=    0.000
 Gap=     0.119 Goal=   None    Shift=    0.000
 RMSDP=4.48D-06 MaxDP=4.38D-05 DE=-2.78D-06 OVMax= 6.04D-06

 Cycle   8  Pass 1  IDiag  1:
 E= -461.300072030742     Delta-E=       -0.000000000058 Rises=F Damp=F
 DIIS: error= 7.31D-07 at cycle   2 NSaved=   2.
 NSaved= 2 IEnMin= 2 EnMin= -461.300072030742     IErMin= 2 ErrMin= 7.31D-07
 ErrMax= 7.31D-07  0.00D+00 EMaxC= 1.00D-01 BMatC= 4.76D-11 BMatP= 1.53D-10
 IDIUse=1 WtCom= 1.00D+00 WtEn= 0.00D+00
 Coeff-Com:  0.293D+00 0.707D+00
 Coeff:      0.293D+00 0.707D+00
 Gap=     0.457 Goal=   None    Shift=    0.000
 Gap=     0.119 Goal=   None    Shift=    0.000
 RMSDP=3.38D-07 MaxDP=2.62D-06 DE=-5.85D-11 OVMax= 5.44D-06

 Cycle   9  Pass 1  IDiag  1:
 E= -461.300072030761     Delta-E=       -0.000000000018 Rises=F Damp=F
 DIIS: error= 3.04D-07 at cycle   3 NSaved=   3.
 NSaved= 3 IEnMin= 3 EnMin= -461.300072030761     IErMin= 3 ErrMin= 3.04D-07
 ErrMax= 3.04D-07  0.00D+00 EMaxC= 1.00D-01 BMatC= 1.07D-11 BMatP= 4.76D-11
 IDIUse=1 WtCom= 1.00D+00 WtEn= 0.00D+00
 Coeff-Com: -0.118D+00 0.262D+00 0.856D+00
 Coeff:     -0.118D+00 0.262D+00 0.856D+00
 Gap=     0.457 Goal=   None    Shift=    0.000
 Gap=     0.119 Goal=   None    Shift=    0.000
 RMSDP=1.35D-07 MaxDP=1.40D-06 DE=-1.81D-11 OVMax= 7.28D-07

 Cycle  10  Pass 1  IDiag  1:
 E= -461.300072030765     Delta-E=       -0.000000000004 Rises=F Damp=F
 DIIS: error= 4.63D-08 at cycle   4 NSaved=   4.
 NSaved= 4 IEnMin= 4 EnMin= -461.300072030765     IErMin= 4 ErrMin= 4.63D-08
 ErrMax= 4.63D-08  0.00D+00 EMaxC= 1.00D-01 BMatC= 1.06D-13 BMatP= 1.07D-11
 IDIUse=1 WtCom= 1.00D+00 WtEn= 0.00D+00
 Coeff-Com: -0.319D-01 0.177D-01 0.746D-01 0.940D+00
 Coeff:     -0.319D-01 0.177D-01 0.746D-01 0.940D+00
 Gap=     0.457 Goal=   None    Shift=    0.000
 Gap=     0.119 Goal=   None    Shift=    0.000
 RMSDP=2.05D-08 MaxDP=2.17D-07 DE=-4.26D-12 OVMax= 1.27D-07

 Cycle  11  Pass 1  IDiag  1:
 E= -461.300072030764     Delta-E=        0.000000000000 Rises=F Damp=F
 DIIS: error= 5.32D-09 at cycle   5 NSaved=   5.
 NSaved= 5 IEnMin= 4 EnMin= -461.300072030765     IErMin= 5 ErrMin= 5.32D-09
 ErrMax= 5.32D-09  0.00D+00 EMaxC= 1.00D-01 BMatC= 1.79D-15 BMatP= 1.06D-13
 IDIUse=1 WtCom= 1.00D+00 WtEn= 0.00D+00
 Coeff-Com:  0.221D-02-0.589D-02-0.192D-01 0.391D-01 0.984D+00
 Coeff:      0.221D-02-0.589D-02-0.192D-01 0.391D-01 0.984D+00
 Gap=     0.457 Goal=   None    Shift=    0.000
 Gap=     0.119 Goal=   None    Shift=    0.000
 RMSDP=1.83D-09 MaxDP=1.15D-08 DE= 3.41D-13 OVMax= 1.84D-08

 SCF Done:  E(UB3LYP) =  -461.300072031     A.U. after   11 cycles
            NFock= 11  Conv=0.18D-08     -V/T= 2.0016
 <Sx>= 0.0000 <Sy>= 0.0000 <Sz>= 0.5000 <S**2>= 0.7556 S= 0.5028
 <L.S>= 0.000000000000E+00
 KE= 4.605854633792D+02 PE=-1.117220608054D+03 EE= 1.851477270264D+02
 Annihilation of the first spin contaminant:
 S**2 before annihilation     0.7556,   after     0.7500
 Leave Link  502 at Tue Oct  6 20:45:41 2020, MaxMem=  2684354560 cpu:              13.4 elap:               1.6
 (Enter /udrive/faculty/rpeverati/g16/g16/l508.exe)
 QCSCF skips out because SCF is already converged.
 Leave Link  508 at Tue Oct  6 20:45:42 2020, MaxMem=  2684354560 cpu:               0.7 elap:               0.5
 (Enter /udrive/faculty/rpeverati/g16/g16/l701.exe)
 ... and contract with generalized density number  0.
 Compute integral first derivatives.
 R6Disp: Adding Grimme-D3(BJ) dispersion energy 1st derivatives to the gradient.
 Leave Link  701 at Tue Oct  6 20:45:43 2020, MaxMem=  2684354560 cpu:               3.8 elap:               0.8
 (Enter /udrive/faculty/rpeverati/g16/g16/l702.exe)
 L702 exits ... SP integral derivatives will be done elsewhere.
 Leave Link  702 at Tue Oct  6 20:45:43 2020, MaxMem=  2684354560 cpu:               1.8 elap:               0.5
 (Enter /udrive/faculty/rpeverati/g16/g16/l703.exe)
 Integral derivatives from FoFJK, PRISM(SPDF).
 Compute integral first derivatives, UseDBF=F ICtDFT=           0.
 Calling FoFJK, ICntrl=      2127 FMM=F ISym2X=1 I1Cent= 0 IOpClX= 1 NMat=1 NMatS=1 NMatT=0.
 FoFJK:  IHMeth= 1 ICntrl=    2127 DoSepK=F KAlg= 0 I1Cent=           0 FoldK=F
 IRaf=         0 NMat=       1 IRICut=       1 DoRegI=T DoRafI=F ISym2E= 1 IDoP0=0 IntGTp=1.
 FoFCou: FMM=F IPFlag=           0 FMFlag=      100000 FMFlg1=         800
         NFxFlg=           0 DoJE=F BraDBF=F KetDBF=F FulRan=T
         wScrn=  0.000000 ICntrl=      2127 IOpCl=  1 I1Cent=           0 NGrid=           0
         NMat0=    1 NMatS0=      1 NMatT0=    0 NMatD0=    1 NMtDS0=    0 NMtDT0=    0
 Petite list used in FoFCou.
 Leave Link  703 at Tue Oct  6 20:45:44 2020, MaxMem=  2684354560 cpu:               6.0 elap:               0.8
 (Enter /udrive/faculty/rpeverati/g16/g16/l716.exe)
 Dipole        = 0.00000000D+00-3.99494075D-32-5.42056168D-01
 ***** Axes restored to original set *****
 -------------------------------------------------------------------
 Center     Atomic                   Forces (Hartrees/Bohr)
 Number     Number              X              Y              Z
 -------------------------------------------------------------------
      1        1           0.000000000    0.000000000    0.001081576
      2       17          -0.000000000   -0.000000000    0.023498829
      3        1           0.000000000    0.000000000   -0.024580405
 -------------------------------------------------------------------
 Cartesian Forces:  Max     0.024580405 RMS     0.011340983
 Leave Link  716 at Tue Oct  6 20:45:45 2020, MaxMem=  2684354560 cpu:               1.8 elap:               0.7
 (Enter /udrive/faculty/rpeverati/g16/g16/l103.exe)

 GradGradGradGradGradGradGradGradGradGradGradGradGradGradGradGradGradGrad
 Berny optimization.
 Optmz: redundant internal coordinate code flag= 1
 Red2BG:  D1=  1.00D+00 OD1=  3.33D-16 B2RMS=  0.00D+00 IAprox=1
 Red2BG is reusing G-inverse.
 Internal  Forces:  Max     0.024580405 RMS     0.017002877
 Search for a saddle point.
 Step number   2 out of a maximum of   50
 All quantities printed in internal units (Hartrees-Bohrs-Radians)
 Swapping is turned off.
 Update second derivatives using D2CorX and points    1    2
 The second derivative matrix:
                          R1        R2        A1        A2
           R1           0.07275
           R2           0.07517   0.27363
           A1           0.00000  -0.00000   0.01613
           A2           0.00000  -0.00000  -0.00000   0.01613
 ITU=  0  0
 Eigenvectors of the second derivative matrix:
                           1         2         3         4
     Eigenvalues --     0.01613   0.01613   0.04774   0.29864
   1         R1        -0.00000   0.00000  -0.94885  -0.31573
   2         R2         0.00000  -0.00000   0.31573  -0.94885
   3         A1         0.00196  -1.00000  -0.00000   0.00000
   4         A2         1.00000   0.00196  -0.00000   0.00000
 Eigenvalue     1 is   1.61D-02 should be less than     0.000000 Eigenvector:
                          A2        A1        R1        R2
   1                    1.00000   0.00196  -0.00000   0.00000
 RLam0= 1.61D-02.
 Iter=   1 RLamda= 0.00000000D+00 Sum=-7.59097893D-03.
 Iter=   2 RLamda=-7.59097893D-03 Sum=-6.90522978D-03.
 Iter=   3 RLamda=-6.90522978D-03 Sum=-6.96008528D-03.
 Iter=   4 RLamda=-6.96008528D-03 Sum=-6.95565182D-03.
 Iter=   5 RLamda=-6.95565182D-03 Sum=-6.95600984D-03.
 Iter=   6 RLamda=-6.95600984D-03 Sum=-6.95598093D-03.
 Iter=   7 RLamda=-6.95598093D-03 Sum=-6.95598326D-03.
 RFO step:  Lambda0=1.613084011D-02 Lambda=-6.95598093D-03.
 Linear search not attempted -- option 19 set.
 Maximum step size (   0.100) exceeded in Quadratic search.
    -- Step size scaled by   0.249
 Iteration  1 RMS(Cart)=  0.04051266 RMS(Int)=  0.00103218
 Iteration  2 RMS(Cart)=  0.00094139 RMS(Int)=  0.00000034
 Iteration  3 RMS(Cart)=  0.00000027 RMS(Int)=  0.00000005
 ITry= 1 IFail=0 DXMaxC= 4.70D-02 DCOld= 1.00D+10 DXMaxT= 1.00D-01 DXLimC= 3.00D+00 Rises=F
 ClnCor:  largest displacement from symmetrization is 4.50D-02 for atom     1.
 Variable       Old X    -DE/DX   Delta X   Delta X   Delta X     New X
                                 (Linear)    (Quad)   (Total)
    R1        2.98734   0.02350   0.00000   0.07065   0.07007   3.05740
    R2        1.46722   0.02458   0.00000   0.00287   0.00095   1.46817
    A1        3.14159   0.00000   0.00000  -0.00014   0.00000   3.14159
    A2        3.14159  -0.00000   0.00000  -0.07071   0.00000   3.14159
         Item               Value     Threshold  Converged?
 Maximum Force            0.024580     0.000450     NO 
 RMS     Force            0.017003     0.000300     NO 
 Maximum Displacement     0.047027     0.001800     NO 
 RMS     Displacement     0.028800     0.001200     NO 
 Predicted change in Energy=-1.486110D-03
 Lowest energy point so far.  Saving SCF results.
 Largest change from initial coordinates is atom    3       0.048 Angstoms.
 GradGradGradGradGradGradGradGradGradGradGradGradGradGradGradGradGradGrad

 Leave Link  103 at Tue Oct  6 20:45:46 2020, MaxMem=  2684354560 cpu:               1.4 elap:               0.5
 (Enter /udrive/faculty/rpeverati/g16/g16/l202.exe)
                          Input orientation:                          
 ---------------------------------------------------------------------
 Center     Atomic      Atomic             Coordinates (Angstroms)
 Number     Number       Type             X           Y           Z
 ---------------------------------------------------------------------
      1          1           0        0.000000    0.000000   -1.364341
      2         17           0        0.000000    0.000000    0.253567
      3          1           0        0.000000    0.000000   -2.141263
 ---------------------------------------------------------------------
                    Distance matrix (angstroms):
                    1          2          3
     1  H    0.000000
     2  Cl   1.617908   0.000000
     3  H    0.776923   2.394830   0.000000
 Stoichiometry    ClH2(2)
 Framework group  C*V[C*(HHCl)]
 Deg. of freedom     2
 Full point group                 C*V     NOp   4
 RotChk:  IX=0 Diff= 0.00D+00
 Largest Abelian subgroup         C2V     NOp   4
 Largest concise Abelian subgroup C1      NOp   1
                         Standard orientation:                         
 ---------------------------------------------------------------------
 Center     Atomic      Atomic             Coordinates (Angstroms)
 Number     Number       Type             X           Y           Z
 ---------------------------------------------------------------------
      1          1           0        0.000000    0.000000   -1.406711
      2         17           0        0.000000    0.000000    0.211197
      3          1           0        0.000000    0.000000   -2.183634
 ---------------------------------------------------------------------
 Rotational constants (GHZ):           0.0000000          63.3625827          63.3625827
 Leave Link  202 at Tue Oct  6 20:45:47 2020, MaxMem=  2684354560 cpu:               0.8 elap:               0.4
 (Enter /udrive/faculty/rpeverati/g16/g16/l301.exe)
 Standard basis: 6-31G(d) (5D, 7F)
 Ernie: Thresh=  0.10000D-02 Tol=  0.10000D-05 Strict=F.
 There are    14 symmetry adapted cartesian basis functions of A1  symmetry.
 There are     1 symmetry adapted cartesian basis functions of A2  symmetry.
 There are     4 symmetry adapted cartesian basis functions of B1  symmetry.
 There are     4 symmetry adapted cartesian basis functions of B2  symmetry.
 There are    13 symmetry adapted basis functions of A1  symmetry.
 There are     1 symmetry adapted basis functions of A2  symmetry.
 There are     4 symmetry adapted basis functions of B1  symmetry.
 There are     4 symmetry adapted basis functions of B2  symmetry.
    22 basis functions,    60 primitive gaussians,    23 cartesian basis functions
    10 alpha electrons        9 beta electrons
       nuclear repulsion energy         9.9978252881 Hartrees.
 IExCor=  402 DFT=T Ex+Corr=B3LYP ExCW=0 ScaHFX=  0.200000
 ScaDFX=  0.800000  0.720000  1.000000  0.810000 ScalE2=  1.000000  1.000000
 IRadAn=      5 IRanWt=     -1 IRanGd=            0 ICorTp=0 IEmpDi=141
 NAtoms=    3 NActive=    3 NUniq=    3 SFac= 1.00D+00 NAtFMM=   60 NAOKFM=F Big=F
 Integral buffers will be    131072 words long.
 Raffenetti 2 integral format.
 Two-electron integral symmetry is turned on.
 R6Disp:  Grimme-D3(BJ) Dispersion energy=       -0.0012158308 Hartrees.
 Nuclear repulsion after empirical dispersion term =        9.9966094573 Hartrees.
 Leave Link  301 at Tue Oct  6 20:45:47 2020, MaxMem=  2684354560 cpu:               1.5 elap:               0.5
 (Enter /udrive/faculty/rpeverati/g16/g16/l302.exe)
 NPDir=0 NMtPBC=     1 NCelOv=     1 NCel=       1 NClECP=     1 NCelD=      1
         NCelK=      1 NCelE2=     1 NClLst=     1 CellRange=     0.0.
 One-electron integrals computed using PRISM.
 One-electron integral symmetry used in STVInt
 NBasis=    22 RedAO= T EigKep=  2.58D-02  NBF=    13     1     4     4
 NBsUse=    22 1.00D-06 EigRej= -1.00D+00 NBFU=    13     1     4     4
 Precomputing XC quadrature grid using
 IXCGrd= 4 IRadAn=           5 IRanWt=          -1 IRanGd=           0 AccXCQ= 0.00D+00.
 Generated NRdTot=       0 NPtTot=           0 NUsed=           0 NTot=          32
 NSgBfM=    23    23    23    23    23 MxSgAt=     3 MxSgA2=     3.
 Leave Link  302 at Tue Oct  6 20:45:48 2020, MaxMem=  2684354560 cpu:               3.1 elap:               0.6
 (Enter /udrive/faculty/rpeverati/g16/g16/l303.exe)
 DipDrv:  MaxL=1.
 Leave Link  303 at Tue Oct  6 20:45:49 2020, MaxMem=  2684354560 cpu:               1.1 elap:               0.4
 (Enter /udrive/faculty/rpeverati/g16/g16/l401.exe)
 Initial guess from the checkpoint file:  "MN_78_RKT01_BH76_B3LYP_631Gs.chk"
 SCF N**3 symmetry information disabled.
 B after Tr=     0.000000    0.000000    0.000000
         Rot=    1.000000    0.000000    0.000000    0.000000 Ang=   0.00 deg.
 Guess basis will be translated and rotated to current coordinates.
 JPrj=2 DoOrth=T DoCkMO=T.
 Initial guess orbital symmetries:
 Alpha Orbitals:
       Occupied  (SG) (SG) (SG) (PI) (PI) (SG) (SG) (PI) (PI) (SG)
       Virtual   (SG) (SG) (PI) (PI) (SG) (SG) (PI) (PI) (DLTA)
                 (DLTA) (SG) (SG)
 Beta  Orbitals:
       Occupied  (SG) (SG) (SG) (PI) (PI) (SG) (SG) (PI) (PI)
       Virtual   (SG) (SG) (SG) (PI) (PI) (SG) (SG) (PI) (PI) (DLTA)
                 (DLTA) (SG) (SG)
 The electronic state of the initial guess is 2-SG.
 Initial guess <Sx>= 0.0000 <Sy>= 0.0000 <Sz>= 0.5000 <S**2>= 0.7557 S= 0.5029
 Generating alternative initial guess.
 ExpMin= 1.43D-01 ExpMax= 2.52D+04 ExpMxC= 3.78D+03 IAcc=2 IRadAn=         4 AccDes= 0.00D+00
 Harris functional with IExCor=  402 and IRadAn=       4 diagonalized for initial guess.
 HarFok:  IExCor=  402 AccDes= 0.00D+00 IRadAn=         4 IDoV= 1 UseB2=F ITyADJ=14
 ICtDFT=  3500011 ScaDFX=  1.000000  1.000000  1.000000  1.000000
 FoFCou: FMM=F IPFlag=           0 FMFlag=      100000 FMFlg1=           0
         NFxFlg=           0 DoJE=T BraDBF=F KetDBF=T FulRan=T
         wScrn=  0.000000 ICntrl=       500 IOpCl=  0 I1Cent=   200000004 NGrid=           0
         NMat0=    1 NMatS0=      1 NMatT0=    0 NMatD0=    1 NMtDS0=    0 NMtDT0=    0
 Petite list used in FoFCou.
 Harris En= -461.217340628979    
 Leave Link  401 at Tue Oct  6 20:45:50 2020, MaxMem=  2684354560 cpu:               6.0 elap:               0.8
 (Enter /udrive/faculty/rpeverati/g16/g16/l502.exe)
 Keep R1 and R2 ints in memory in symmetry-blocked form, NReq=10376579.
 FoFCou: FMM=F IPFlag=           0 FMFlag=           0 FMFlg1=           0
         NFxFlg=           0 DoJE=F BraDBF=F KetDBF=F FulRan=T
         wScrn=  0.000000 ICntrl=       600 IOpCl=  0 I1Cent=           0 NGrid=           0
         NMat0=    1 NMatS0=    253 NMatT0=    0 NMatD0=    1 NMtDS0=    0 NMtDT0=    0
 Petite list used in FoFCou.
 UHF open shell SCF:
 Using DIIS extrapolation, IDIIS=  1040.
 NGot=  2684354560 LenX=  2684331456 LenY=  2684330486
 Requested convergence on RMS density matrix=1.00D-08 within 120 cycles.
 Requested convergence on MAX density matrix=1.00D-06.
 Requested convergence on             energy=1.00D-06.
 No special actions if energy rises.
 Integral accuracy reduced to 1.0D-05 until final iterations.

 Cycle   1  Pass 0  IDiag  1:
 E= -461.301392477036    
 DIIS: error= 1.94D-03 at cycle   1 NSaved=   1.
 NSaved= 1 IEnMin= 1 EnMin= -461.301392477036     IErMin= 1 ErrMin= 1.94D-03
 ErrMax= 1.94D-03  0.00D+00 EMaxC= 1.00D-01 BMatC= 3.34D-04 BMatP= 3.34D-04
 IDIUse=3 WtCom= 9.81D-01 WtEn= 1.94D-02
 Coeff-Com:  0.100D+01
 Coeff-En:   0.100D+01
 Coeff:      0.100D+01
 Gap=     0.457 Goal=   None    Shift=    0.000
 Gap=     0.115 Goal=   None    Shift=    0.000
 GapD=    0.115 DampG=1.000 DampE=1.000 DampFc=1.0000 IDamp=-1.
 RMSDP=8.58D-04 MaxDP=7.36D-03              OVMax= 1.26D-02

 Cycle   2  Pass 0  IDiag  1:
 E= -461.301571341700     Delta-E=       -0.000178864664 Rises=F Damp=F
 DIIS: error= 8.38D-04 at cycle   2 NSaved=   2.
 NSaved= 2 IEnMin= 2 EnMin= -461.301571341700     IErMin= 2 ErrMin= 8.38D-04
 ErrMax= 8.38D-04  0.00D+00 EMaxC= 1.00D-01 BMatC= 3.03D-05 BMatP= 3.34D-04
 IDIUse=3 WtCom= 9.92D-01 WtEn= 8.38D-03
 Coeff-Com:  0.757D-01 0.924D+00
 Coeff-En:   0.000D+00 0.100D+01
 Coeff:      0.751D-01 0.925D+00
 Gap=     0.456 Goal=   None    Shift=    0.000
 Gap=     0.116 Goal=   None    Shift=    0.000
 RMSDP=3.54D-04 MaxDP=3.11D-03 DE=-1.79D-04 OVMax= 2.91D-03

 Cycle   3  Pass 0  IDiag  1:
 E= -461.301582873951     Delta-E=       -0.000011532251 Rises=F Damp=F
 DIIS: error= 3.33D-04 at cycle   3 NSaved=   3.
 NSaved= 3 IEnMin= 3 EnMin= -461.301582873951     IErMin= 3 ErrMin= 3.33D-04
 ErrMax= 3.33D-04  0.00D+00 EMaxC= 1.00D-01 BMatC= 9.85D-06 BMatP= 3.03D-05
 IDIUse=3 WtCom= 9.97D-01 WtEn= 3.33D-03
 Coeff-Com: -0.438D-01 0.336D+00 0.708D+00
 Coeff-En:   0.000D+00 0.000D+00 0.100D+01
 Coeff:     -0.436D-01 0.335D+00 0.709D+00
 Gap=     0.456 Goal=   None    Shift=    0.000
 Gap=     0.116 Goal=   None    Shift=    0.000
 RMSDP=1.18D-04 MaxDP=8.14D-04 DE=-1.15D-05 OVMax= 1.95D-03

 Cycle   4  Pass 0  IDiag  1:
 E= -461.301586877362     Delta-E=       -0.000004003411 Rises=F Damp=F
 DIIS: error= 8.81D-05 at cycle   4 NSaved=   4.
 NSaved= 4 IEnMin= 4 EnMin= -461.301586877362     IErMin= 4 ErrMin= 8.81D-05
 ErrMax= 8.81D-05  0.00D+00 EMaxC= 1.00D-01 BMatC= 6.82D-07 BMatP= 9.85D-06
 IDIUse=1 WtCom= 1.00D+00 WtEn= 0.00D+00
 Coeff-Com: -0.108D-01-0.609D-01 0.746D-01 0.997D+00
 Coeff:     -0.108D-01-0.609D-01 0.746D-01 0.997D+00
 Gap=     0.456 Goal=   None    Shift=    0.000
 Gap=     0.116 Goal=   None    Shift=    0.000
 RMSDP=6.20D-05 MaxDP=5.94D-04 DE=-4.00D-06 OVMax= 4.82D-04

 Cycle   5  Pass 0  IDiag  1:
 E= -461.301587235281     Delta-E=       -0.000000357919 Rises=F Damp=F
 DIIS: error= 3.47D-05 at cycle   5 NSaved=   5.
 NSaved= 5 IEnMin= 5 EnMin= -461.301587235281     IErMin= 5 ErrMin= 3.47D-05
 ErrMax= 3.47D-05  0.00D+00 EMaxC= 1.00D-01 BMatC= 1.21D-07 BMatP= 6.82D-07
 IDIUse=1 WtCom= 1.00D+00 WtEn= 0.00D+00
 Coeff-Com:  0.480D-02-0.726D-01-0.718D-01 0.356D+00 0.784D+00
 Coeff:      0.480D-02-0.726D-01-0.718D-01 0.356D+00 0.784D+00
 Gap=     0.456 Goal=   None    Shift=    0.000
 Gap=     0.116 Goal=   None    Shift=    0.000
 RMSDP=1.45D-05 MaxDP=1.13D-04 DE=-3.58D-07 OVMax= 3.01D-04

 Cycle   6  Pass 0  IDiag  1:
 E= -461.301587290417     Delta-E=       -0.000000055136 Rises=F Damp=F
 DIIS: error= 7.90D-06 at cycle   6 NSaved=   6.
 NSaved= 6 IEnMin= 6 EnMin= -461.301587290417     IErMin= 6 ErrMin= 7.90D-06
 ErrMax= 7.90D-06  0.00D+00 EMaxC= 1.00D-01 BMatC= 5.76D-09 BMatP= 1.21D-07
 IDIUse=1 WtCom= 1.00D+00 WtEn= 0.00D+00
 Coeff-Com:  0.154D-02-0.110D-01-0.196D-01-0.136D-01 0.165D+00 0.877D+00
 Coeff:      0.154D-02-0.110D-01-0.196D-01-0.136D-01 0.165D+00 0.877D+00
 Gap=     0.456 Goal=   None    Shift=    0.000
 Gap=     0.116 Goal=   None    Shift=    0.000
 RMSDP=4.27D-06 MaxDP=4.12D-05 DE=-5.51D-08 OVMax= 3.45D-05

 Initial convergence to 1.0D-05 achieved.  Increase integral accuracy.
 Cycle   7  Pass 1  IDiag  1:
 E= -461.301587727315     Delta-E=       -0.000000436898 Rises=F Damp=F
 DIIS: error= 1.46D-06 at cycle   1 NSaved=   1.
 NSaved= 1 IEnMin= 1 EnMin= -461.301587727315     IErMin= 1 ErrMin= 1.46D-06
 ErrMax= 1.46D-06  0.00D+00 EMaxC= 1.00D-01 BMatC= 1.63D-10 BMatP= 1.63D-10
 IDIUse=1 WtCom= 1.00D+00 WtEn= 0.00D+00
 Coeff-Com:  0.100D+01
 Coeff:      0.100D+01
 Gap=     0.456 Goal=   None    Shift=    0.000
 Gap=     0.116 Goal=   None    Shift=    0.000
 RMSDP=4.27D-06 MaxDP=4.12D-05 DE=-4.37D-07 OVMax= 6.74D-06

 Cycle   8  Pass 1  IDiag  1:
 E= -461.301587727370     Delta-E=       -0.000000000055 Rises=F Damp=F
 DIIS: error= 7.69D-07 at cycle   2 NSaved=   2.
 NSaved= 2 IEnMin= 2 EnMin= -461.301587727370     IErMin= 2 ErrMin= 7.69D-07
 ErrMax= 7.69D-07  0.00D+00 EMaxC= 1.00D-01 BMatC= 5.48D-11 BMatP= 1.63D-10
 IDIUse=1 WtCom= 1.00D+00 WtEn= 0.00D+00
 Coeff-Com:  0.324D+00 0.676D+00
 Coeff:      0.324D+00 0.676D+00
 Gap=     0.456 Goal=   None    Shift=    0.000
 Gap=     0.116 Goal=   None    Shift=    0.000
 RMSDP=3.48D-07 MaxDP=2.62D-06 DE=-5.54D-11 OVMax= 5.91D-06

 Cycle   9  Pass 1  IDiag  1:
 E= -461.301587727392     Delta-E=       -0.000000000022 Rises=F Damp=F
 DIIS: error= 2.96D-07 at cycle   3 NSaved=   3.
 NSaved= 3 IEnMin= 3 EnMin= -461.301587727392     IErMin= 3 ErrMin= 2.96D-07
 ErrMax= 2.96D-07  0.00D+00 EMaxC= 1.00D-01 BMatC= 9.41D-12 BMatP= 5.48D-11
 IDIUse=1 WtCom= 1.00D+00 WtEn= 0.00D+00
 Coeff-Com: -0.846D-01 0.232D+00 0.853D+00
 Coeff:     -0.846D-01 0.232D+00 0.853D+00
 Gap=     0.456 Goal=   None    Shift=    0.000
 Gap=     0.116 Goal=   None    Shift=    0.000
 RMSDP=1.25D-07 MaxDP=1.28D-06 DE=-2.21D-11 OVMax= 6.51D-07

 Cycle  10  Pass 1  IDiag  1:
 E= -461.301587727395     Delta-E=       -0.000000000003 Rises=F Damp=F
 DIIS: error= 5.75D-08 at cycle   4 NSaved=   4.
 NSaved= 4 IEnMin= 4 EnMin= -461.301587727395     IErMin= 4 ErrMin= 5.75D-08
 ErrMax= 5.75D-08  0.00D+00 EMaxC= 1.00D-01 BMatC= 1.74D-13 BMatP= 9.41D-12
 IDIUse=1 WtCom= 1.00D+00 WtEn= 0.00D+00
 Coeff-Com: -0.405D-01 0.734D-02 0.960D-01 0.937D+00
 Coeff:     -0.405D-01 0.734D-02 0.960D-01 0.937D+00
 Gap=     0.456 Goal=   None    Shift=    0.000
 Gap=     0.116 Goal=   None    Shift=    0.000
 RMSDP=2.52D-08 MaxDP=2.71D-07 DE=-3.01D-12 OVMax= 1.53D-07

 Cycle  11  Pass 1  IDiag  1:
 E= -461.301587727395     Delta-E=       -0.000000000000 Rises=F Damp=F
 DIIS: error= 8.40D-09 at cycle   5 NSaved=   5.
 NSaved= 5 IEnMin= 5 EnMin= -461.301587727395     IErMin= 5 ErrMin= 8.40D-09
 ErrMax= 8.40D-09  0.00D+00 EMaxC= 1.00D-01 BMatC= 4.65D-15 BMatP= 1.74D-13
 IDIUse=1 WtCom= 1.00D+00 WtEn= 0.00D+00
 Coeff-Com: -0.564D-02-0.345D-02 0.208D-02 0.176D+00 0.831D+00
 Coeff:     -0.564D-02-0.345D-02 0.208D-02 0.176D+00 0.831D+00
 Gap=     0.456 Goal=   None    Shift=    0.000
 Gap=     0.116 Goal=   None    Shift=    0.000
 RMSDP=2.37D-09 MaxDP=1.54D-08 DE=-5.68D-14 OVMax= 2.08D-08

 SCF Done:  E(UB3LYP) =  -461.301587727     A.U. after   11 cycles
            NFock= 11  Conv=0.24D-08     -V/T= 2.0016
 <Sx>= 0.0000 <Sy>= 0.0000 <Sz>= 0.5000 <S**2>= 0.7555 S= 0.5028
 <L.S>= 0.000000000000E+00
 KE= 4.605639384180D+02 PE=-1.116818701451D+03 EE= 1.849565658483D+02
 Annihilation of the first spin contaminant:
 S**2 before annihilation     0.7555,   after     0.7500
 Leave Link  502 at Tue Oct  6 20:45:51 2020, MaxMem=  2684354560 cpu:              11.4 elap:               1.3
 (Enter /udrive/faculty/rpeverati/g16/g16/l508.exe)
 QCSCF skips out because SCF is already converged.
 Leave Link  508 at Tue Oct  6 20:45:52 2020, MaxMem=  2684354560 cpu:               0.6 elap:               0.4
 (Enter /udrive/faculty/rpeverati/g16/g16/l701.exe)
 ... and contract with generalized density number  0.
 Compute integral first derivatives.
 R6Disp: Adding Grimme-D3(BJ) dispersion energy 1st derivatives to the gradient.
 Leave Link  701 at Tue Oct  6 20:45:53 2020, MaxMem=  2684354560 cpu:               3.5 elap:               0.7
 (Enter /udrive/faculty/rpeverati/g16/g16/l702.exe)
 L702 exits ... SP integral derivatives will be done elsewhere.
 Leave Link  702 at Tue Oct  6 20:45:54 2020, MaxMem=  2684354560 cpu:               1.4 elap:               0.5
 (Enter /udrive/faculty/rpeverati/g16/g16/l703.exe)
 Integral derivatives from FoFJK, PRISM(SPDF).
 Compute integral first derivatives, UseDBF=F ICtDFT=           0.
 Calling FoFJK, ICntrl=      2127 FMM=F ISym2X=1 I1Cent= 0 IOpClX= 1 NMat=1 NMatS=1 NMatT=0.
 FoFJK:  IHMeth= 1 ICntrl=    2127 DoSepK=F KAlg= 0 I1Cent=           0 FoldK=F
 IRaf=         0 NMat=       1 IRICut=       1 DoRegI=T DoRafI=F ISym2E= 1 IDoP0=0 IntGTp=1.
 FoFCou: FMM=F IPFlag=           0 FMFlag=      100000 FMFlg1=         800
         NFxFlg=           0 DoJE=F BraDBF=F KetDBF=F FulRan=T
         wScrn=  0.000000 ICntrl=      2127 IOpCl=  1 I1Cent=           0 NGrid=           0
         NMat0=    1 NMatS0=      1 NMatT0=    0 NMatD0=    1 NMtDS0=    0 NMtDT0=    0
 Petite list used in FoFCou.
 Leave Link  703 at Tue Oct  6 20:45:55 2020, MaxMem=  2684354560 cpu:               6.4 elap:               0.9
 (Enter /udrive/faculty/rpeverati/g16/g16/l716.exe)
 Dipole        = 0.00000000D+00 3.91915726D-32-5.28830822D-01
 ***** Axes restored to original set *****
 -------------------------------------------------------------------
 Center     Atomic                   Forces (Hartrees/Bohr)
 Number     Number              X              Y              Z
 -------------------------------------------------------------------
      1        1           0.000000000    0.000000000    0.000193311
      2       17          -0.000000000   -0.000000000    0.019315403
      3        1          -0.000000000   -0.000000000   -0.019508714
 -------------------------------------------------------------------
 Cartesian Forces:  Max     0.019508714 RMS     0.009151272
 Leave Link  716 at Tue Oct  6 20:45:56 2020, MaxMem=  2684354560 cpu:               1.5 elap:               0.5
 (Enter /udrive/faculty/rpeverati/g16/g16/l103.exe)

 GradGradGradGradGradGradGradGradGradGradGradGradGradGradGradGradGradGrad
 Berny optimization.
 Optmz: redundant internal coordinate code flag= 1
 Red2BG:  D1=  1.00D+00 OD1=  3.33D-16 B2RMS=  0.00D+00 IAprox=1
 Red2BG is reusing G-inverse.
 Internal  Forces:  Max     0.019508714 RMS     0.013726568
 Search for a saddle point.
 Step number   3 out of a maximum of   50
 All quantities printed in internal units (Hartrees-Bohrs-Radians)
 Swapping is turned off.
 Update second derivatives using D2CorX and points    1    2    3
 The second derivative matrix:
                          R1        R2        A1        A2
           R1           0.05878
[...]
    10 alpha electrons        9 beta electrons
       nuclear repulsion energy         8.9393597070 Hartrees.
 IExCor=  402 DFT=T Ex+Corr=B3LYP ExCW=0 ScaHFX=  0.200000
 ScaDFX=  0.800000  0.720000  1.000000  0.810000 ScalE2=  1.000000  1.000000
 IRadAn=      5 IRanWt=     -1 IRanGd=            0 ICorTp=0 IEmpDi=141
 NAtoms=    3 NActive=    3 NUniq=    3 SFac= 1.00D+00 NAtFMM=   60 NAOKFM=F Big=F
 Integral buffers will be    131072 words long.
 Raffenetti 2 integral format.
 Two-electron integral symmetry is turned on.
 R6Disp:  Grimme-D3(BJ) Dispersion energy=       -0.0011814729 Hartrees.
 Nuclear repulsion after empirical dispersion term =        8.9381782341 Hartrees.
 Leave Link  301 at Tue Oct  6 20:52:10 2020, MaxMem=  2684354560 cpu:               1.2 elap:               0.4
 (Enter /udrive/faculty/rpeverati/g16/g16/l302.exe)
 NPDir=0 NMtPBC=     1 NCelOv=     1 NCel=       1 NClECP=     1 NCelD=      1
         NCelK=      1 NCelE2=     1 NClLst=     1 CellRange=     0.0.
 One-electron integrals computed using PRISM.
 One-electron integral symmetry used in STVInt
 NBasis=    22 RedAO= T EigKep=  3.58D-02  NBF=    13     1     4     4
 NBsUse=    22 1.00D-06 EigRej= -1.00D+00 NBFU=    13     1     4     4
 Precomputing XC quadrature grid using
 IXCGrd= 4 IRadAn=           5 IRanWt=          -1 IRanGd=           0 AccXCQ= 0.00D+00.
 Generated NRdTot=       0 NPtTot=           0 NUsed=           0 NTot=          32
 NSgBfM=    23    23    23    23    23 MxSgAt=     3 MxSgA2=     3.
 Leave Link  302 at Tue Oct  6 20:52:11 2020, MaxMem=  2684354560 cpu:               3.1 elap:               0.5
 (Enter /udrive/faculty/rpeverati/g16/g16/l303.exe)
 DipDrv:  MaxL=1.
 Leave Link  303 at Tue Oct  6 20:52:11 2020, MaxMem=  2684354560 cpu:               0.7 elap:               0.3
 (Enter /udrive/faculty/rpeverati/g16/g16/l401.exe)
 Initial guess from the checkpoint file:  "MN_78_RKT01_BH76_B3LYP_631Gs.chk"
 SCF N**3 symmetry information disabled.
 B after Tr=     0.000000    0.000000   -0.000000
         Rot=    1.000000    0.000000    0.000000    0.000000 Ang=   0.00 deg.
 Guess basis will be translated and rotated to current coordinates.
 JPrj=2 DoOrth=T DoCkMO=T.
 Initial guess orbital symmetries:
 Alpha Orbitals:
       Occupied  (SG) (SG) (SG) (PI) (PI) (SG) (SG) (SG) (PI) (PI)
       Virtual   (SG) (SG) (PI) (PI) (SG) (SG) (PI) (PI) (DLTA)
                 (DLTA) (SG) (SG)
 Beta  Orbitals:
       Occupied  (SG) (SG) (SG) (PI) (PI) (SG) (SG) (PI) (PI)
       Virtual   (SG) (SG) (SG) (PI) (PI) (SG) (SG) (DLTA) (DLTA)
                 (PI) (PI) (SG) (SG)
 The electronic state of the initial guess is 2-SG.
 Initial guess <Sx>= 0.0000 <Sy>= 0.0000 <Sz>= 0.5000 <S**2>= 0.7543 S= 0.5021
 Leave Link  401 at Tue Oct  6 20:52:12 2020, MaxMem=  2684354560 cpu:               1.3 elap:               0.3
 (Enter /udrive/faculty/rpeverati/g16/g16/l502.exe)
 Keep R1 and R2 ints in memory in symmetry-blocked form, NReq=10376579.
 FoFCou: FMM=F IPFlag=           0 FMFlag=           0 FMFlg1=           0
         NFxFlg=           0 DoJE=F BraDBF=F KetDBF=F FulRan=T
         wScrn=  0.000000 ICntrl=       600 IOpCl=  0 I1Cent=           0 NGrid=           0
         NMat0=    1 NMatS0=    253 NMatT0=    0 NMatD0=    1 NMtDS0=    0 NMtDT0=    0
 Petite list used in FoFCou.
 UHF open shell SCF:
 Using DIIS extrapolation, IDIIS=  1040.
 NGot=  2684354560 LenX=  2684331456 LenY=  2684330486
 Requested convergence on RMS density matrix=1.00D-08 within 120 cycles.
 Requested convergence on MAX density matrix=1.00D-06.
 Requested convergence on             energy=1.00D-06.
 No special actions if energy rises.

 Cycle   1  Pass 1  IDiag  1:
 E= -461.306642077790    
 DIIS: error= 1.28D-10 at cycle   1 NSaved=   1.
 NSaved= 1 IEnMin= 1 EnMin= -461.306642077790     IErMin= 1 ErrMin= 1.28D-10
 ErrMax= 1.28D-10  0.00D+00 EMaxC= 1.00D-01 BMatC= 1.65D-18 BMatP= 1.65D-18
 IDIUse=1 WtCom= 1.00D+00 WtEn= 0.00D+00
 Coeff-Com:  0.100D+01
 Coeff:      0.100D+01
 Gap=     0.449 Goal=   None    Shift=    0.000
 Skip diagonalization as Alpha Fock matrix is already diagonal.
 Gap=     0.100 Goal=   None    Shift=    0.000
 Skip diagonalization as Beta Fock matrix is already diagonal.
 RMSDP=0.00D+00 MaxDP=0.00D+00              OVMax= 0.00D+00

 SCF Done:  E(UB3LYP) =  -461.306642078     A.U. after    1 cycles
            NFock=  1  Conv=0.00D+00     -V/T= 2.0018
 <Sx>= 0.0000 <Sy>= 0.0000 <Sz>= 0.5000 <S**2>= 0.7543 S= 0.5021
 <L.S>= 0.000000000000E+00
 KE= 4.604771887604D+02 PE=-1.114573223896D+03 EE= 1.838512148241D+02
 Annihilation of the first spin contaminant:
 S**2 before annihilation     0.7543,   after     0.7500
 Leave Link  502 at Tue Oct  6 20:52:12 2020, MaxMem=  2684354560 cpu:               4.8 elap:               0.6
 (Enter /udrive/faculty/rpeverati/g16/g16/l508.exe)
 QCSCF skips out because SCF is already converged.
 Leave Link  508 at Tue Oct  6 20:52:13 2020, MaxMem=  2684354560 cpu:               0.1 elap:               0.2
 (Enter /udrive/faculty/rpeverati/g16/g16/l701.exe)
 ... and contract with generalized density number  0.
 Compute integral first derivatives.
 R6Disp: Adding Grimme-D3(BJ) dispersion energy 1st derivatives to the gradient.
 Leave Link  701 at Tue Oct  6 20:52:13 2020, MaxMem=  2684354560 cpu:               3.2 elap:               0.5
 (Enter /udrive/faculty/rpeverati/g16/g16/l702.exe)
 L702 exits ... SP integral derivatives will be done elsewhere.
 Leave Link  702 at Tue Oct  6 20:52:14 2020, MaxMem=  2684354560 cpu:               0.8 elap:               0.2
 (Enter /udrive/faculty/rpeverati/g16/g16/l703.exe)
 Integral derivatives from FoFJK, PRISM(SPDF).
 Compute integral first derivatives, UseDBF=F ICtDFT=           0.
 Calling FoFJK, ICntrl=      2127 FMM=F ISym2X=1 I1Cent= 0 IOpClX= 1 NMat=1 NMatS=1 NMatT=0.
 FoFJK:  IHMeth= 1 ICntrl=    2127 DoSepK=F KAlg= 0 I1Cent=           0 FoldK=F
 IRaf=         0 NMat=       1 IRICut=       1 DoRegI=T DoRafI=F ISym2E= 1 IDoP0=0 IntGTp=1.
 FoFCou: FMM=F IPFlag=           0 FMFlag=      100000 FMFlg1=         800
         NFxFlg=           0 DoJE=F BraDBF=F KetDBF=F FulRan=T
         wScrn=  0.000000 ICntrl=      2127 IOpCl=  1 I1Cent=           0 NGrid=           0
         NMat0=    1 NMatS0=      1 NMatT0=    0 NMatD0=    1 NMtDS0=    0 NMtDT0=    0
 Petite list used in FoFCou.
 Leave Link  703 at Tue Oct  6 20:52:14 2020, MaxMem=  2684354560 cpu:               6.2 elap:               0.7
 (Enter /udrive/faculty/rpeverati/g16/g16/l716.exe)
 Dipole        = 0.00000000D+00-3.52713766D-32-4.05857084D-01
 ***** Axes restored to original set *****
 -------------------------------------------------------------------
 Center     Atomic                   Forces (Hartrees/Bohr)
 Number     Number              X              Y              Z
 -------------------------------------------------------------------
      1        1           0.000000000    0.000000000   -0.006556439
      2       17          -0.000000000   -0.000000000    0.005809996
      3        1           0.000000000    0.000000000    0.000746443
 -------------------------------------------------------------------
 Cartesian Forces:  Max     0.006556439 RMS     0.002930683
 Leave Link  716 at Tue Oct  6 20:52:15 2020, MaxMem=  2684354560 cpu:               0.7 elap:               0.2
 (Enter /udrive/faculty/rpeverati/g16/g16/l103.exe)

 GradGradGradGradGradGradGradGradGradGradGradGradGradGradGradGradGradGrad
 Berny optimization.
 Optmz: redundant internal coordinate code flag= 1
 Red2BG:  D1=  1.00D+00 OD1=  3.33D-16 B2RMS=  0.00D+00 IAprox=1
 Red2BG is reusing G-inverse.
 Internal  Forces:  Max     0.005809996 RMS     0.002928875
 Search for a saddle point.
 Step number  50 out of a maximum of   50
 All quantities printed in internal units (Hartrees-Bohrs-Radians)
 Swapping is turned off.
 Update second derivatives using D2CorX and points   50
 The second derivative matrix:
                          R1        R2        A1        A2
           R1           0.01700
           R2           0.03677   0.29845
           A1          -0.00000  -0.00000   0.01613
           A2          -0.00000  -0.00000  -0.00000   0.01613
 ITU=  0  0  0  0  0
 Eigenvectors of the second derivative matrix:
                           1         2         3         4
     Eigenvalues --     0.01228   0.01613   0.01613   0.30317
   1         R1        -0.99185  -0.00000   0.00000  -0.12743
   2         R2         0.12743   0.00000  -0.00000  -0.99185
   3         A1        -0.00000   0.05219  -0.99864   0.00000
   4         A2        -0.00000   0.99864   0.05219   0.00000
 Eigenvalue     1 is   1.23D-02 should be less than     0.000000 Eigenvector:
                          R1        R2        A2        A1
   1                   -0.99185   0.12743  -0.00000  -0.00000
 RLam0= 1.46D-02.
 Iter=   1 RLamda= 0.00000000D+00 Sum=-3.54080667D-25.
 RFO step:  Lambda0=1.462416200D-02 Lambda= 0.00000000D+00.
 Linear search not attempted -- option 19 set.
 Iteration  1 RMS(Cart)=  0.00000000 RMS(Int)=  0.00000000
 ITry= 1 IFail=0 DXMaxC= 2.93D-12 DCOld= 1.00D+10 DXMaxT= 1.00D-01 DXLimC= 3.00D+00 Rises=F
 ClnCor:  largest displacement from symmetrization is 3.04D-12 for atom     1.
 Variable       Old X    -DE/DX   Delta X   Delta X   Delta X     New X
                                 (Linear)    (Quad)   (Total)
    R1        3.51299   0.00581   0.00000  -0.00000  -0.00000   3.51299
    R2        1.46280  -0.00075   0.00000   0.00000   0.00000   1.46280
    A1        3.14159   0.00000   0.00000  -0.00000   0.00000   3.14159
    A2        3.14159  -0.00000   0.00000  -0.00000   0.00000   3.14159
         Item               Value     Threshold  Converged?
 Maximum Force            0.005810     0.000450     NO 
 RMS     Force            0.002929     0.000300     NO 
 Maximum Displacement     0.000000     0.001800     YES
 RMS     Displacement     0.000000     0.001200     YES
 Predicted change in Energy= 2.734720D-14
 Optimization stopped.
    -- Number of steps exceeded,  NStep=  50
    -- Flag reset to prevent archiving.
                           ----------------------------
                           ! Non-Optimized Parameters !
                           ! (Angstroms and Degrees)  !
 --------------------------                            --------------------------
 ! Name  Definition              Value          Derivative Info.                !
 --------------------------------------------------------------------------------
 ! R1    R(1,2)                  1.859          -DE/DX =    0.0058              !
 ! R2    R(1,3)                  0.7741         -DE/DX =   -0.0007              !
 ! A1    L(2,1,3,-1,-1)        180.0            -DE/DX =    0.0                 !
 ! A2    L(2,1,3,-2,-2)        180.0            -DE/DX =    0.0                 !
 --------------------------------------------------------------------------------
 Largest change from initial coordinates is atom    3       0.282 Angstoms.
 GradGradGradGradGradGradGradGradGradGradGradGradGradGradGradGradGradGrad

 Leave Link  103 at Tue Oct  6 20:52:15 2020, MaxMem=  2684354560 cpu:               0.8 elap:               0.3
 (Enter /udrive/faculty/rpeverati/g16/g16/l202.exe)
                          Input orientation:                          
 ---------------------------------------------------------------------
 Center     Atomic      Atomic             Coordinates (Angstroms)
 Number     Number       Type             X           Y           Z
 ---------------------------------------------------------------------
      1          1           0       -0.000000    0.000000   -1.445650
      2         17           0       -0.000000    0.000000    0.413342
      3          1           0       -0.000000    0.000000   -2.219729
 ---------------------------------------------------------------------
                    Distance matrix (angstroms):
                    1          2          3
     1  H    0.000000
     2  Cl   1.858992   0.000000
     3  H    0.774078   2.633070   0.000000
 Stoichiometry    ClH2(2)
 Framework group  C*V[C*(HHCl)]
 Deg. of freedom     2
 Full point group                 C*V     NOp   4
 RotChk:  IX=0 Diff= 0.00D+00
 Largest Abelian subgroup         C2V     NOp   4
 Largest concise Abelian subgroup C1      NOp   1
                         Standard orientation:                         
 ---------------------------------------------------------------------
 Center     Atomic      Atomic             Coordinates (Angstroms)
 Number     Number       Type             X           Y           Z
 ---------------------------------------------------------------------
      1          1           0        0.000000    0.000000   -1.622568
      2         17           0        0.000000    0.000000    0.236424
      3          1           0        0.000000    0.000000   -2.396646
 ---------------------------------------------------------------------
 Rotational constants (GHZ):           0.0000000          50.9658379          50.9658379
 Leave Link  202 at Tue Oct  6 20:52:16 2020, MaxMem=  2684354560 cpu:               0.5 elap:               0.3
 (Enter /udrive/faculty/rpeverati/g16/g16/l601.exe)
 Copying SCF densities to generalized density rwf, IOpCl= 1 IROHF=0.

 **********************************************************************

            Population analysis using the SCF density.

 **********************************************************************

 Orbital symmetries:
 Alpha Orbitals:
       Occupied  (SG) (SG) (SG) (PI) (PI) (SG) (SG) (SG) (PI) (PI)
       Virtual   (SG) (SG) (PI) (PI) (SG) (SG) (PI) (PI) (DLTA)
                 (DLTA) (SG) (SG)
 Beta  Orbitals:
       Occupied  (SG) (SG) (SG) (PI) (PI) (SG) (SG) (PI) (PI)
       Virtual   (SG) (SG) (SG) (PI) (PI) (SG) (SG) (DLTA) (DLTA)
                 (PI) (PI) (SG) (SG)
 The electronic state is 2-SG.
 Alpha  occ. eigenvalues -- -101.55880  -9.48816  -7.26053  -7.23936  -7.23936
 Alpha  occ. eigenvalues --   -0.83437  -0.51087  -0.35909  -0.33949  -0.33949
 Alpha virt. eigenvalues --    0.10901   0.36198   0.43257   0.43257   0.45546
 Alpha virt. eigenvalues --    0.63895   0.81073   0.81073   0.85494   0.85494
 Alpha virt. eigenvalues --    0.96101   1.11585
  Beta  occ. eigenvalues -- -101.55263  -9.48229  -7.24113  -7.23579  -7.23579
  Beta  occ. eigenvalues --   -0.78914  -0.47441  -0.32556  -0.32556
  Beta virt. eigenvalues --   -0.22510   0.12627   0.38056   0.43820   0.43820
  Beta virt. eigenvalues --    0.49031   0.67267   0.86291   0.86291   0.86376
  Beta virt. eigenvalues --    0.86376   1.01200   1.12934
          Condensed to atoms (all electrons):
               1          2          3
     1  H    0.677419   0.019525   0.359277
     2  Cl   0.019525  17.082637  -0.040615
     3  H    0.359277  -0.040615   0.563570
          Atomic-Atomic Spin Densities.
               1          2          3
     1  H   -0.071763  -0.030161   0.039349
     2  Cl  -0.030161   0.915863  -0.047322
     3  H    0.039349  -0.047322   0.232168
 Mulliken charges and spin densities:
               1          2
     1  H   -0.056221  -0.062575
     2  Cl  -0.061547   0.838380
     3  H    0.117768   0.224196
 Sum of Mulliken charges =  -0.00000   1.00000
 Mulliken charges and spin densities with hydrogens summed into heavy atoms:
               1          2
     2  Cl  -0.000000   1.000000
 Electronic spatial extent (au):  <R**2>=             63.4870
 Charge=             -0.0000 electrons
 Dipole moment (field-independent basis, Debye):
    X=              0.0000    Y=             -0.0000    Z=             -1.0316  Tot=              1.0316
 Quadrupole moment (field-independent basis, Debye-Ang):
   XX=            -15.0228   YY=            -15.0228   ZZ=            -10.5478
   XY=             -0.0000   XZ=              0.0000   YZ=             -0.0000
 Traceless Quadrupole moment (field-independent basis, Debye-Ang):
   XX=             -1.4917   YY=             -1.4917   ZZ=              2.9833
   XY=             -0.0000   XZ=              0.0000   YZ=             -0.0000
 Octapole moment (field-independent basis, Debye-Ang**2):
  XXX=              0.0000  YYY=             -0.0000  ZZZ=             -3.6025  XYY=              0.0000
  XXY=             -0.0000  XXZ=              0.6571  XZZ=              0.0000  YZZ=             -0.0000
  YYZ=              0.6571  XYZ=             -0.0000
 Hexadecapole moment (field-independent basis, Debye-Ang**3):
 XXXX=            -16.4842 YYYY=            -16.4842 ZZZZ=            -42.3162 XXXY=             -0.0000
 XXXZ=              0.0000 YYYX=             -0.0000 YYYZ=              0.0000 ZZZX=              0.0000
 ZZZY=             -0.0000 XXYY=             -5.4947 XXZZ=            -13.3715 YYZZ=            -13.3715
 XXYZ=              0.0000 YYXZ=              0.0000 ZZXY=             -0.0000
 N-N= 8.938178234076D+00 E-N=-1.114573223896D+03  KE= 4.604771887604D+02
                          Isotropic Fermi Contact Couplings
        Atom                 a.u.       MegaHertz       Gauss      10(-4) cm-1
     1  H(1)              -0.00554     -24.78207      -8.84286      -8.26641
     2  Cl(35)             0.13769      60.37171      21.54213      20.13783
     3  H(1)               0.09105     406.98849     145.22362     135.75675
 --------------------------------------------------------
       Center         ----  Spin Dipole Couplings  ----
                      3XX-RR        3YY-RR        3ZZ-RR
 --------------------------------------------------------
     1   Atom       -0.060718     -0.060718      0.121435
     2   Atom       -2.619450     -2.619450      5.238901
     3   Atom       -0.006566     -0.006566      0.013131
 --------------------------------------------------------
                        XY            XZ            YZ
 --------------------------------------------------------
     1   Atom        0.000000      0.000000      0.000000
     2   Atom        0.000000      0.000000      0.000000
     3   Atom        0.000000      0.000000      0.000000
 --------------------------------------------------------


 ---------------------------------------------------------------------------------
              Anisotropic Spin Dipole Couplings in Principal Axis System
 ---------------------------------------------------------------------------------

       Atom             a.u.   MegaHertz   Gauss  10(-4) cm-1        Axes

              Baa    -0.0607   -32.396   -11.560   -10.806  1.0000  0.0000  0.0000
     1 H(1)   Bbb    -0.0607   -32.396   -11.560   -10.806  0.0000  1.0000  0.0000
              Bcc     0.1214    64.792    23.119    21.612  0.0000  0.0000  1.0000
 
              Baa    -2.6195  -137.096   -48.919   -45.730  1.0000  0.0000  0.0000
     2 Cl(35) Bbb    -2.6195  -137.096   -48.919   -45.730  0.0000  1.0000  0.0000
              Bcc     5.2389   274.192    97.838    91.461  0.0000  0.0000  1.0000
 
              Baa    -0.0066    -3.503    -1.250    -1.169  1.0000  0.0000  0.0000
     3 H(1)   Bbb    -0.0066    -3.503    -1.250    -1.169  0.0000  1.0000  0.0000
              Bcc     0.0131     7.006     2.500     2.337  0.0000  0.0000  1.0000
 

 ---------------------------------------------------------------------------------

 No NMR shielding tensors so no spin-rotation constants.
 Leave Link  601 at Tue Oct  6 20:52:16 2020, MaxMem=  2684354560 cpu:               5.2 elap:               0.6
 (Enter /udrive/faculty/rpeverati/g16/g16/l9999.exe)


 YOU KNOW YOU'RE A TEACHER WHEN YOU SAY 2, WRITE 3, AND MEAN 4.
 -- RONALD ANSTROM, HIGH SCHOOL TEACHER, UNDERWOOD, N.D. 1974
 Error termination request processed by link 9999.
 Error termination via Lnk1e in /udrive/faculty/rpeverati/g16/g16/l9999.exe at Tue Oct  6 20:52:17 2020.
 Job cpu time:       0 days  0 hours 25 minutes 32.3 seconds.
 Elapsed time:       0 days  0 hours  5 minutes 10.1 seconds.
 File lengths (MBytes):  RWF=      5 Int=      0 D2E=      0 Chk=      1 Scr=      1
