 Entering Gaussian System, Link 0=g16
 Input=MN_79_RKT02_BH76_B3LYP_631Gs.in
 Output=MN_79_RKT02_BH76_B3LYP_631Gs.log
 Initial command:
 /udrive/faculty/rpeverati/g16/g16/l1.exe "/udrive/scratch-directories/gaussian09/rpeverati/Gau-12117.inp" -scrdir="/udrive/scratch-directories/gaussian09/rpeverati/"
 Entering Link 1 = /udrive/faculty/rpeverati/g16/g16/l1.exe PID=     12118.
  
 Copyright (c) 1988,1990,1992,1993,1995,1998,2003,2009,2016,
            Gaussian, Inc.  All Rights Reserved.
  
 This is part of the Gaussian(R) 16 program.  It is based on
 the Gaussian(R) 09 system (copyright 2009, Gaussian, Inc.),
 the Gaussian(R) 03 system (copyright 2003, Gaussian, Inc.),
 the Gaussian(R) 98 system (copyright 1998, Gaussian, Inc.),
 the Gaussian(R) 94 system (copyright 1995, Gaussian, Inc.),
 the Gaussian 92(TM) system (copyright 1992, Gaussian, Inc.),
 the Gaussian 90(TM) system (copyright 1990, Gaussian, Inc.),
 the Gaussian 88(TM) system (copyright 1988, Gaussian, Inc.),
 the Gaussian 86(TM) system (copyright 1986, Carnegie Mellon
 University), and the Gaussian 82(TM) system (copyright 1983,
 Carnegie Mellon University). Gaussian is a federally registered
 trademark of Gaussian, Inc.
  
 This software contains proprietary and confidential information,
 including trade secrets, belonging to Gaussian, Inc.
  
 This software is provided under written license and may be
 used, copied, transmitted, or stored only in accord with that
 written license.
  
 The following legend is applicable only to US Government
 contracts under FAR:
  
                    RESTRICTED RIGHTS LEGEND
  
 Use, reproduction and disclosure by the US Government is
 subject to restrictions as set forth in subparagraphs (a)
 and (c) of the Commercial Computer Software - Restricted
 Rights clause in FAR 52.227-19.
  
 Gaussian, Inc.
 340 Quinnipiac St., Bldg. 40, Wallingford CT 06492
  
  
 ---------------------------------------------------------------
 Warning -- This program may not be used in any manner that
 competes with the business of Gaussian, Inc. or will provide
 assistance to any competitor of Gaussian, Inc.  The licensee
 of this program is prohibited from giving any competitor of
 Gaussian, Inc. access to this program.  By using this program,
 the user acknowledges that Gaussian, Inc. is engaged in the
 business of creating and licensing software in the field of
 computational chemistry and represents and warrants to the
 licensee that it is not a competitor of Gaussian, Inc. and that
 it will not use this program in any manner prohibited above.
 ---------------------------------------------------------------
  

 Cite this work as:
 Gaussian 16, Revision A.03,
 M. J. Frisch, G. W. Trucks, H. B. Schlegel, G. E. Scuseria, 
 M. A. Robb, J. R. Cheeseman, G. Scalmani, V. Barone, 
 G. A. Petersson, H. Nakatsuji, X. Li, M. Caricato, A. V. Marenich, 
 J. Bloino, B. G. Janesko, R. Gomperts, B. Mennucci, H. P. Hratchian, 
 J. V. Ortiz, A. F. Izmaylov, J. L. Sonnenberg, D. Williams-Young, 
 F. Ding, F. Lipparini, F. Egidi, J. Goings, B. Peng, A. Petrone, 
 T. Henderson, D. Ranasinghe, V. G. Zakrzewski, J. Gao, N. Rega, 
 G. Zheng, W. Liang, M. Hada, M. Ehara, K. Toyota, R. Fukuda, 
 J. Hasegawa, M. Ishida, T. Nakajima, Y. Honda, O. Kitao, H. Nakai, 
 T. Vreven, K. Throssell, J. A. Montgomery, Jr., J. E. Peralta, 
 F. Ogliaro, M. J. Bearpark, J. J. Heyd, E. N. Brothers, K. N. Kudin, 
 V. N. Staroverov, T. A. Keith, R. Kobayashi, J. Normand, 
 K. Raghavachari, A. P. Rendell, J. C. Burant, S. S. Iyengar, 
 J. Tomasi, M. Cossi, J. M. Millam, M. Klene, C. Adamo, R. Cammi, 
 J. W. Ochterski, R. L. Martin, K. Morokuma, O. Farkas, 
 J. B. Foresman, and D. J. Fox, Gaussian, Inc., Wallingford CT, 2016.
 
 ******************************************
 Gaussian 16:  ES64L-G16RevA.03 25-Dec-2016
                 6-Oct-2020 
 ******************************************
 %NoSave
 %nproc=12
 Will use up to   12 processors via shared memory.
 %mem=20GB
 %chk=MN_79_RKT02_BH76_B3LYP_631Gs
 ----------------------------------------------------------------------
 #P Opt(TS,MaxCyc=50,NoEigenTest,MaxStep=10,CalcFC) B3LYP/6-31G* 5D 7F 
 Integral=UltraFineGrid SCF=(NoSymm,XQC,MaxCyc=120) IOp(1/33=1) Empiric
 alDispersion=GD3BJ
 ----------------------------------------------------------------------
 1/5=1,6=50,8=10,10=4,11=1,18=20,26=4,33=1,38=1/1,3;
 2/9=110,12=2,17=6,18=5,40=1/2;
 3/5=1,6=6,7=1,8=11,11=2,25=1,30=1,71=2,74=-5,75=-5,124=41,140=1/1,2,3;
 4/9=2/1;
 5/5=2,7=120,8=3,13=1,38=5/2,8;
 8/6=4,10=90,11=11/1;
 11/6=1,8=1,9=11,15=111,16=1/1,2,10;
 10/6=1,13=1/2;
 6/7=2,8=2,9=2,10=2,28=1/1;
 7/10=1,18=20,25=1/1,2,3,16;
 1/5=1,6=50,8=10,10=4,11=1,18=20,26=4,33=1/3(2);
 2/9=110/2;
 99//99;
 2/9=110/2;
 3/5=1,6=6,7=1,8=11,11=2,25=1,30=1,71=1,74=-5,75=-5,124=41/1,2,3;
 4/5=5,9=2,16=3,69=1/1;
 5/5=2,7=120,8=3,13=1,38=5/2,8;
 7//1,2,3,16;
 1/5=1,6=50,8=10,11=1,18=20,26=4,33=1/3(-5);
 2/9=110/2;
 6/7=2,8=2,9=2,10=2,19=2,28=1/1;
 99/9=1/99;
 Leave Link    1 at Tue Oct  6 20:45:25 2020, MaxMem=  2684354560 cpu:               5.5 elap:               0.5
 (Enter /udrive/faculty/rpeverati/g16/g16/l101.exe)
 ONIOM data not found on unit 2.
 ------------------
 TS search on BH76.
 ------------------
 TstMul:  ICh=     0
 TstMul:  Mul=     2
 TstMul:  ICh=     0
 TstMul:  Mul=     2
 Symbolic Z-matrix:
 Charge =  0 Multiplicity = 2
 O                    -0.30106  -0.10805  -0.00001 
 H                    -0.42794   0.85157   0.00002 
 H                     1.01549  -0.10037   0.00012 
 H                     1.82097   0.11319  -0.00007 
 
 RdStrC is calling ZToCFu for IStruc=1 NZ=     4.
 PrtBox:  NBox=     1 Levels=  1 BoxLen=    8.00 SMaxX=        4.25
          Shift=            0.808697            0.204183            0.000138
 Box      1 Number                   0 centers from      1 to      4:
 After GenITR:
 ITRead=  0  0  0  0
 MicOpt= -1 -1 -1 -1
 Add virtual bond connecting atoms H3         and O1         Dist= 2.49D+00.
 ITRead=  0  0  0  0
 MicOpt= -1 -1 -1 -1
 NAtoms=      4 NQM=        4 NQMF=       0 NMMI=      0 NMMIF=      0
                NMic=       0 NMicF=      0.
                    Isotopes and Nuclear Properties:
 (Nuclear quadrupole moments (NQMom) in fm**2, nuclear magnetic moments (NMagM)
  in nuclear magnetons)

  Atom         1           2           3           4
 IAtWgt=          16           1           1           1
 AtmWgt=  15.9949146   1.0078250   1.0078250   1.0078250
 NucSpn=           0           1           1           1
 AtZEff=   0.0000000   0.0000000   0.0000000   0.0000000
 NQMom=    0.0000000   0.0000000   0.0000000   0.0000000
 NMagM=    0.0000000   2.7928460   2.7928460   2.7928460
 AtZNuc=   8.0000000   1.0000000   1.0000000   1.0000000
 No MM parameters found.
 Leave Link  101 at Tue Oct  6 20:45:26 2020, MaxMem=  2684354560 cpu:               4.0 elap:               0.5
 (Enter /udrive/faculty/rpeverati/g16/g16/l103.exe)

 GradGradGradGradGradGradGradGradGradGradGradGradGradGradGradGradGradGrad
 Berny optimization.
 Optmz: redundant internal coordinate code flag= 1
 Initialization pass.
                           ----------------------------
                           !    Initial Parameters    !
                           ! (Angstroms and Degrees)  !
 --------------------------                            --------------------------
 ! Name  Definition              Value          Derivative Info.                !
 --------------------------------------------------------------------------------
 ! R1    R(1,2)                  0.968          calculate D2E/DX2 analytically  !
 ! R2    R(1,3)                  1.3166         calculate D2E/DX2 analytically  !
 ! R3    R(3,4)                  0.8333         calculate D2E/DX2 analytically  !
 ! A1    A(2,1,3)               97.1976         calculate D2E/DX2 analytically  !
 ! A2    L(1,3,4,2,-1)         165.4853         calculate D2E/DX2 analytically  !
 ! A3    L(1,3,4,2,-2)         180.0256         calculate D2E/DX2 analytically  !
 --------------------------------------------------------------------------------
 Maximum allowed force set to 1.00D+20.
 Trust Radius=1.00D-01 FncErr=1.00D-07 GrdErr=1.00D-06 EigMax=2.50D+02 EigMin=1.00D-04
 Number of steps in this run=     50 maximum allowed number of steps=    100.
 Search for a saddle point of order  1.
 GradGradGradGradGradGradGradGradGradGradGradGradGradGradGradGradGradGrad

 Leave Link  103 at Tue Oct  6 20:45:26 2020, MaxMem=  2684354560 cpu:               0.8 elap:               0.3
 (Enter /udrive/faculty/rpeverati/g16/g16/l202.exe)
                          Input orientation:                          
 ---------------------------------------------------------------------
 Center     Atomic      Atomic             Coordinates (Angstroms)
 Number     Number       Type             X           Y           Z
 ---------------------------------------------------------------------
      1          8           0       -0.301064   -0.108049   -0.000008
      2          1           0       -0.427944    0.851568    0.000016
      3          1           0        1.015486   -0.100367    0.000119
      4          1           0        1.820968    0.113187   -0.000073
 ---------------------------------------------------------------------
                    Distance matrix (angstroms):
                    1          2          3          4
     1  O    0.000000
     2  H    0.967968   0.000000
     3  H    1.316572   1.729066   0.000000
     4  H    2.133533   2.367025   0.833310   0.000000
 Stoichiometry    H3O(2)
 Framework group  C1[X(H3O)]
 Deg. of freedom     6
 Full point group                 C1      NOp   1
 Largest Abelian subgroup         C1      NOp   1
 Largest concise Abelian subgroup C1      NOp   1
                         Standard orientation:                         
 ---------------------------------------------------------------------
 Center     Atomic      Atomic             Coordinates (Angstroms)
 Number     Number       Type             X           Y           Z
 ---------------------------------------------------------------------
      1          8           0       -0.301064   -0.108048   -0.000008
      2          1           0       -0.427943    0.851569    0.000016
      3          1           0        1.015486   -0.100367    0.000119
      4          1           0        1.820968    0.113186   -0.000073
 ---------------------------------------------------------------------
 Rotational constants (GHZ):         563.2097353          88.3481783          76.3685828
 Leave Link  202 at Tue Oct  6 20:45:27 2020, MaxMem=  2684354560 cpu:               0.8 elap:               0.4
 (Enter /udrive/faculty/rpeverati/g16/g16/l301.exe)
 Standard basis: 6-31G(d) (5D, 7F)
 Ernie: Thresh=  0.10000D-02 Tol=  0.10000D-05 Strict=F.
 There are    21 symmetry adapted cartesian basis functions of A   symmetry.
 There are    20 symmetry adapted basis functions of A   symmetry.
    20 basis functions,    40 primitive gaussians,    21 cartesian basis functions
     6 alpha electrons        5 beta electrons
       nuclear repulsion energy        10.7378605647 Hartrees.
 IExCor=  402 DFT=T Ex+Corr=B3LYP ExCW=0 ScaHFX=  0.200000
 ScaDFX=  0.800000  0.720000  1.000000  0.810000 ScalE2=  1.000000  1.000000
 IRadAn=      5 IRanWt=     -1 IRanGd=            0 ICorTp=0 IEmpDi=141
 NAtoms=    4 NActive=    4 NUniq=    4 SFac= 1.00D+00 NAtFMM=   60 NAOKFM=F Big=F
 Integral buffers will be    131072 words long.
 Raffenetti 2 integral format.
 Two-electron integral symmetry is turned on.
 R6Disp:  Grimme-D3(BJ) Dispersion energy=       -0.0011584047 Hartrees.
 Nuclear repulsion after empirical dispersion term =       10.7367021600 Hartrees.
 Leave Link  301 at Tue Oct  6 20:45:28 2020, MaxMem=  2684354560 cpu:               1.5 elap:               0.4
 (Enter /udrive/faculty/rpeverati/g16/g16/l302.exe)
 NPDir=0 NMtPBC=     1 NCelOv=     1 NCel=       1 NClECP=     1 NCelD=      1
         NCelK=      1 NCelE2=     1 NClLst=     1 CellRange=     0.0.
 One-electron integrals computed using PRISM.
 One-electron integral symmetry used in STVInt
 NBasis=    20 RedAO= T EigKep=  4.11D-02  NBF=    20
 NBsUse=    20 1.00D-06 EigRej= -1.00D+00 NBFU=    20
 Precomputing XC quadrature grid using
 IXCGrd= 4 IRadAn=           5 IRanWt=          -1 IRanGd=           0 AccXCQ= 0.00D+00.
 Generated NRdTot=       0 NPtTot=           0 NUsed=           0 NTot=          32
 NSgBfM=    21    21    21    21    21 MxSgAt=     4 MxSgA2=     4.
 Leave Link  302 at Tue Oct  6 20:45:29 2020, MaxMem=  2684354560 cpu:               2.4 elap:               0.6
 (Enter /udrive/faculty/rpeverati/g16/g16/l303.exe)
 DipDrv:  MaxL=1.
 Leave Link  303 at Tue Oct  6 20:45:29 2020, MaxMem=  2684354560 cpu:               1.0 elap:               0.4
 (Enter /udrive/faculty/rpeverati/g16/g16/l401.exe)
 SCF N**3 symmetry information disabled.
 ExpMin= 1.61D-01 ExpMax= 5.48D+03 ExpMxC= 8.25D+02 IAcc=3 IRadAn=         5 AccDes= 0.00D+00
 Harris functional with IExCor=  402 and IRadAn=       5 diagonalized for initial guess.
 HarFok:  IExCor=  402 AccDes= 0.00D+00 IRadAn=         5 IDoV= 1 UseB2=F ITyADJ=14
 ICtDFT=  3500011 ScaDFX=  1.000000  1.000000  1.000000  1.000000
 FoFCou: FMM=F IPFlag=           0 FMFlag=      100000 FMFlg1=           0
         NFxFlg=           0 DoJE=T BraDBF=F KetDBF=T FulRan=T
         wScrn=  0.000000 ICntrl=       500 IOpCl=  0 I1Cent=   200000004 NGrid=           0
         NMat0=    1 NMatS0=      1 NMatT0=    0 NMatD0=    1 NMtDS0=    0 NMtDT0=    0
 Petite list used in FoFCou.
 Harris En= -76.8855368941585    
 JPrj=0 DoOrth=F DoCkMO=F.
 Initial guess <Sx>= 0.0000 <Sy>= 0.0000 <Sz>= 0.5000 <S**2>= 0.7500 S= 0.5000
 Leave Link  401 at Tue Oct  6 20:45:30 2020, MaxMem=  2684354560 cpu:               3.5 elap:               0.5
 (Enter /udrive/faculty/rpeverati/g16/g16/l502.exe)
 Keep R1 and R2 ints in memory in canonical form, NReq=10386182.
 FoFCou: FMM=F IPFlag=           0 FMFlag=           0 FMFlg1=           0
         NFxFlg=           0 DoJE=F BraDBF=F KetDBF=F FulRan=T
         wScrn=  0.000000 ICntrl=       600 IOpCl=  0 I1Cent=           0 NGrid=           0
         NMat0=    1 NMatS0=    210 NMatT0=    0 NMatD0=    1 NMtDS0=    0 NMtDT0=    0
 Symmetry not used in FoFCou.
 Two-electron integral symmetry not used.
 UHF open shell SCF:
 Using DIIS extrapolation, IDIIS=  1040.
 NGot=  2684354560 LenX=  2684308680 LenY=  2684307798
 Requested convergence on RMS density matrix=1.00D-08 within 120 cycles.
 Requested convergence on MAX density matrix=1.00D-06.
 Requested convergence on             energy=1.00D-06.
 No special actions if energy rises.
 Integral accuracy reduced to 1.0D-05 until final iterations.

 Cycle   1  Pass 0  IDiag  1:
 E= -76.8380823415687    
 DIIS: error= 5.88D-02 at cycle   1 NSaved=   1.
 NSaved= 1 IEnMin= 1 EnMin= -76.8380823415687     IErMin= 1 ErrMin= 5.88D-02
 ErrMax= 5.88D-02  0.00D+00 EMaxC= 1.00D-01 BMatC= 2.38D-01 BMatP= 2.38D-01
 IDIUse=3 WtCom= 4.12D-01 WtEn= 5.88D-01
 Coeff-Com:  0.100D+01
 Coeff-En:   0.100D+01
 Coeff:      0.100D+01
 Gap=     0.372 Goal=   None    Shift=    0.000
 Gap=     0.051 Goal=   None    Shift=    0.000
 GapD=    0.051 DampG=0.500 DampE=0.500 DampFc=0.2500 IDamp=-1.
 Damping current iteration by 2.50D-01
 RMSDP=2.54D-02 MaxDP=1.67D-01              OVMax= 2.87D-01

 Cycle   2  Pass 0  IDiag  1:
 E= -76.8584740096121     Delta-E=       -0.020391668043 Rises=F Damp=T
 DIIS: error= 1.95D-02 at cycle   2 NSaved=   2.
 NSaved= 2 IEnMin= 2 EnMin= -76.8584740096121     IErMin= 2 ErrMin= 1.95D-02
 ErrMax= 1.95D-02  0.00D+00 EMaxC= 1.00D-01 BMatC= 3.22D-02 BMatP= 2.38D-01
 IDIUse=3 WtCom= 8.05D-01 WtEn= 1.95D-01
 Coeff-Com: -0.494D+00 0.149D+01
 Coeff-En:   0.000D+00 0.100D+01
 Coeff:     -0.397D+00 0.140D+01
 Gap=     0.385 Goal=   None    Shift=    0.000
 Gap=     0.131 Goal=   None    Shift=    0.000
 RMSDP=5.09D-03 MaxDP=5.25D-02 DE=-2.04D-02 OVMax= 1.53D-01

 Cycle   3  Pass 0  IDiag  1:
 E= -76.8917637964589     Delta-E=       -0.033289786847 Rises=F Damp=F
 DIIS: error= 1.01D-02 at cycle   3 NSaved=   3.
 NSaved= 3 IEnMin= 3 EnMin= -76.8917637964589     IErMin= 3 ErrMin= 1.01D-02
 ErrMax= 1.01D-02  0.00D+00 EMaxC= 1.00D-01 BMatC= 5.37D-03 BMatP= 3.22D-02
 IDIUse=3 WtCom= 8.99D-01 WtEn= 1.01D-01
 Coeff-Com:  0.361D+00-0.576D+00 0.121D+01
 Coeff-En:   0.000D+00 0.000D+00 0.100D+01
 Coeff:      0.324D+00-0.517D+00 0.119D+01
 Gap=     0.405 Goal=   None    Shift=    0.000
 Gap=     0.149 Goal=   None    Shift=    0.000
 RMSDP=2.20D-03 MaxDP=1.78D-02 DE=-3.33D-02 OVMax= 1.65D-02

 Cycle   4  Pass 0  IDiag  1:
 E= -76.8930349272826     Delta-E=       -0.001271130824 Rises=F Damp=F
 DIIS: error= 1.57D-03 at cycle   4 NSaved=   4.
 NSaved= 4 IEnMin= 4 EnMin= -76.8930349272826     IErMin= 4 ErrMin= 1.57D-03
 ErrMax= 1.57D-03  0.00D+00 EMaxC= 1.00D-01 BMatC= 1.44D-04 BMatP= 5.37D-03
 IDIUse=3 WtCom= 9.84D-01 WtEn= 1.57D-02
 Coeff-Com: -0.234D-01-0.434D-02-0.147D-01 0.104D+01
 Coeff-En:   0.000D+00 0.000D+00 0.000D+00 0.100D+01
 Coeff:     -0.231D-01-0.427D-02-0.145D-01 0.104D+01
 Gap=     0.403 Goal=   None    Shift=    0.000
 Gap=     0.150 Goal=   None    Shift=    0.000
 RMSDP=3.29D-04 MaxDP=2.51D-03 DE=-1.27D-03 OVMax= 4.46D-03

 Cycle   5  Pass 0  IDiag  1:
 E= -76.8930783614147     Delta-E=       -0.000043434132 Rises=F Damp=F
 DIIS: error= 1.96D-04 at cycle   5 NSaved=   5.
 NSaved= 5 IEnMin= 5 EnMin= -76.8930783614147     IErMin= 5 ErrMin= 1.96D-04
 ErrMax= 1.96D-04  0.00D+00 EMaxC= 1.00D-01 BMatC= 2.93D-06 BMatP= 1.44D-04
 IDIUse=3 WtCom= 9.98D-01 WtEn= 1.96D-03
 Coeff-Com: -0.255D-01 0.404D-01-0.652D-01 0.888D-01 0.962D+00
 Coeff-En:   0.000D+00 0.000D+00 0.000D+00 0.000D+00 0.100D+01
 Coeff:     -0.255D-01 0.403D-01-0.651D-01 0.886D-01 0.962D+00
 Gap=     0.403 Goal=   None    Shift=    0.000
 Gap=     0.149 Goal=   None    Shift=    0.000
 RMSDP=5.60D-05 MaxDP=3.83D-04 DE=-4.34D-05 OVMax= 1.08D-03

 Cycle   6  Pass 0  IDiag  1:
 E= -76.8930797622383     Delta-E=       -0.000001400824 Rises=F Damp=F
 DIIS: error= 8.43D-05 at cycle   6 NSaved=   6.
 NSaved= 6 IEnMin= 6 EnMin= -76.8930797622383     IErMin= 6 ErrMin= 8.43D-05
 ErrMax= 8.43D-05  0.00D+00 EMaxC= 1.00D-01 BMatC= 3.54D-07 BMatP= 2.93D-06
 IDIUse=1 WtCom= 1.00D+00 WtEn= 0.00D+00
 Coeff-Com:  0.383D-02-0.515D-02-0.270D-03-0.555D-01-0.356D-01 0.109D+01
 Coeff:      0.383D-02-0.515D-02-0.270D-03-0.555D-01-0.356D-01 0.109D+01
 Gap=     0.403 Goal=   None    Shift=    0.000
 Gap=     0.149 Goal=   None    Shift=    0.000
 RMSDP=2.93D-05 MaxDP=2.21D-04 DE=-1.40D-06 OVMax= 2.55D-04

 Cycle   7  Pass 0  IDiag  1:
 E= -76.8930799122212     Delta-E=       -0.000000149983 Rises=F Damp=F
 DIIS: error= 9.88D-06 at cycle   7 NSaved=   7.
 NSaved= 7 IEnMin= 7 EnMin= -76.8930799122212     IErMin= 7 ErrMin= 9.88D-06
 ErrMax= 9.88D-06  0.00D+00 EMaxC= 1.00D-01 BMatC= 9.69D-09 BMatP= 3.54D-07
 IDIUse=1 WtCom= 1.00D+00 WtEn= 0.00D+00
 Coeff-Com:  0.171D-02-0.256D-02 0.475D-02-0.553D-02-0.535D-01 0.266D-01
 Coeff-Com:  0.103D+01
 Coeff:      0.171D-02-0.256D-02 0.475D-02-0.553D-02-0.535D-01 0.266D-01
 Coeff:      0.103D+01
 Gap=     0.403 Goal=   None    Shift=    0.000
 Gap=     0.149 Goal=   None    Shift=    0.000
 RMSDP=4.58D-06 MaxDP=3.33D-05 DE=-1.50D-07 OVMax= 4.56D-05

 Initial convergence to 1.0D-05 achieved.  Increase integral accuracy.
 Cycle   8  Pass 1  IDiag  1:
 E= -76.8930796425791     Delta-E=        0.000000269642 Rises=F Damp=F
 DIIS: error= 3.31D-06 at cycle   1 NSaved=   1.
 NSaved= 1 IEnMin= 1 EnMin= -76.8930796425791     IErMin= 1 ErrMin= 3.31D-06
 ErrMax= 3.31D-06  0.00D+00 EMaxC= 1.00D-01 BMatC= 1.17D-09 BMatP= 1.17D-09
 IDIUse=1 WtCom= 1.00D+00 WtEn= 0.00D+00
 Coeff-Com:  0.100D+01
 Coeff:      0.100D+01
 Gap=     0.403 Goal=   None    Shift=    0.000
 Gap=     0.149 Goal=   None    Shift=    0.000
 RMSDP=4.58D-06 MaxDP=3.33D-05 DE= 2.70D-07 OVMax= 1.43D-05

 Cycle   9  Pass 1  IDiag  1:
 E= -76.8930796430099     Delta-E=       -0.000000000431 Rises=F Damp=F
 DIIS: error= 2.28D-06 at cycle   2 NSaved=   2.
 NSaved= 2 IEnMin= 2 EnMin= -76.8930796430099     IErMin= 2 ErrMin= 2.28D-06
 ErrMax= 2.28D-06  0.00D+00 EMaxC= 1.00D-01 BMatC= 4.03D-10 BMatP= 1.17D-09
 IDIUse=1 WtCom= 1.00D+00 WtEn= 0.00D+00
 Coeff-Com:  0.306D+00 0.694D+00
 Coeff:      0.306D+00 0.694D+00
 Gap=     0.403 Goal=   None    Shift=    0.000
 Gap=     0.149 Goal=   None    Shift=    0.000
 RMSDP=6.01D-07 MaxDP=4.98D-06 DE=-4.31D-10 OVMax= 5.43D-06

 Cycle  10  Pass 1  IDiag  1:
 E= -76.8930796430916     Delta-E=       -0.000000000082 Rises=F Damp=F
 DIIS: error= 1.48D-06 at cycle   3 NSaved=   3.
 NSaved= 3 IEnMin= 3 EnMin= -76.8930796430916     IErMin= 3 ErrMin= 1.48D-06
 ErrMax= 1.48D-06  0.00D+00 EMaxC= 1.00D-01 BMatC= 1.51D-10 BMatP= 4.03D-10
 IDIUse=1 WtCom= 1.00D+00 WtEn= 0.00D+00
 Coeff-Com: -0.343D-01 0.340D+00 0.694D+00
 Coeff:     -0.343D-01 0.340D+00 0.694D+00
 Gap=     0.403 Goal=   None    Shift=    0.000
 Gap=     0.149 Goal=   None    Shift=    0.000
 RMSDP=3.51D-07 MaxDP=2.98D-06 DE=-8.17D-11 OVMax= 5.37D-06

 Cycle  11  Pass 1  IDiag  1:
 E= -76.8930796431283     Delta-E=       -0.000000000037 Rises=F Damp=F
 DIIS: error= 5.93D-07 at cycle   4 NSaved=   4.
 NSaved= 4 IEnMin= 4 EnMin= -76.8930796431283     IErMin= 4 ErrMin= 5.93D-07
 ErrMax= 5.93D-07  0.00D+00 EMaxC= 1.00D-01 BMatC= 2.99D-11 BMatP= 1.51D-10
 IDIUse=1 WtCom= 1.00D+00 WtEn= 0.00D+00
 Coeff-Com: -0.117D+00-0.521D-01 0.355D+00 0.814D+00
 Coeff:     -0.117D+00-0.521D-01 0.355D+00 0.814D+00
 Gap=     0.403 Goal=   None    Shift=    0.000
 Gap=     0.149 Goal=   None    Shift=    0.000
 RMSDP=1.59D-07 MaxDP=1.31D-06 DE=-3.67D-11 OVMax= 1.63D-06

 Cycle  12  Pass 1  IDiag  1:
 E= -76.8930796431370     Delta-E=       -0.000000000009 Rises=F Damp=F
 DIIS: error= 4.58D-08 at cycle   5 NSaved=   5.
 NSaved= 5 IEnMin= 5 EnMin= -76.8930796431370     IErMin= 5 ErrMin= 4.58D-08
 ErrMax= 4.58D-08  0.00D+00 EMaxC= 1.00D-01 BMatC= 1.63D-13 BMatP= 2.99D-11
 IDIUse=1 WtCom= 1.00D+00 WtEn= 0.00D+00
 Coeff-Com:  0.133D-01 0.550D-02-0.392D-01-0.141D+00 0.116D+01
 Coeff:      0.133D-01 0.550D-02-0.392D-01-0.141D+00 0.116D+01
 Gap=     0.403 Goal=   None    Shift=    0.000
 Gap=     0.149 Goal=   None    Shift=    0.000
 RMSDP=2.72D-08 MaxDP=1.93D-07 DE=-8.70D-12 OVMax= 4.96D-07

 Cycle  13  Pass 1  IDiag  1:
 E= -76.8930796431372     Delta-E=       -0.000000000000 Rises=F Damp=F
 DIIS: error= 2.35D-08 at cycle   6 NSaved=   6.
 NSaved= 6 IEnMin= 6 EnMin= -76.8930796431372     IErMin= 6 ErrMin= 2.35D-08
 ErrMax= 2.35D-08  0.00D+00 EMaxC= 1.00D-01 BMatC= 3.24D-14 BMatP= 1.63D-13
 IDIUse=1 WtCom= 1.00D+00 WtEn= 0.00D+00
 Coeff-Com:  0.157D-01 0.819D-02-0.441D-01-0.128D+00 0.110D+00 0.104D+01
 Coeff:      0.157D-01 0.819D-02-0.441D-01-0.128D+00 0.110D+00 0.104D+01
 Gap=     0.403 Goal=   None    Shift=    0.000
 Gap=     0.149 Goal=   None    Shift=    0.000
 RMSDP=1.65D-08 MaxDP=1.54D-07 DE=-1.99D-13 OVMax= 3.96D-07

 Cycle  14  Pass 1  IDiag  1:
 E= -76.8930796431372     Delta-E=        0.000000000000 Rises=F Damp=F
 DIIS: error= 1.74D-08 at cycle   7 NSaved=   7.
 NSaved= 7 IEnMin= 6 EnMin= -76.8930796431372     IErMin= 7 ErrMin= 1.74D-08
 ErrMax= 1.74D-08  0.00D+00 EMaxC= 1.00D-01 BMatC= 5.03D-15 BMatP= 3.24D-14
 IDIUse=1 WtCom= 1.00D+00 WtEn= 0.00D+00
 Coeff-Com: -0.752D-02-0.354D-02 0.208D-01 0.630D-01-0.132D+00-0.390D+00
 Coeff-Com:  0.145D+01
 Coeff:     -0.752D-02-0.354D-02 0.208D-01 0.630D-01-0.132D+00-0.390D+00
 Coeff:      0.145D+01
 Gap=     0.403 Goal=   None    Shift=    0.000
 Gap=     0.149 Goal=   None    Shift=    0.000
 RMSDP=1.34D-08 MaxDP=1.44D-07 DE= 4.26D-14 OVMax= 3.70D-07

 Cycle  15  Pass 1  IDiag  1:
 E= -76.8930796431373     Delta-E=       -0.000000000000 Rises=F Damp=F
 DIIS: error= 1.17D-08 at cycle   8 NSaved=   8.
 NSaved= 8 IEnMin= 8 EnMin= -76.8930796431373     IErMin= 8 ErrMin= 1.17D-08
 ErrMax= 1.17D-08  0.00D+00 EMaxC= 1.00D-01 BMatC= 2.23D-15 BMatP= 5.03D-15
 IDIUse=1 WtCom= 1.00D+00 WtEn= 0.00D+00
 Coeff-Com:  0.128D-02-0.897D-04-0.309D-02-0.112D-01 0.111D+00-0.782D-01
 Coeff-Com: -0.201D+01 0.299D+01
 Coeff:      0.128D-02-0.897D-04-0.309D-02-0.112D-01 0.111D+00-0.782D-01
 Coeff:     -0.201D+01 0.299D+01
 Gap=     0.403 Goal=   None    Shift=    0.000
 Gap=     0.149 Goal=   None    Shift=    0.000
 RMSDP=2.53D-08 MaxDP=2.73D-07 DE=-9.95D-14 OVMax= 7.00D-07

 Cycle  16  Pass 1  IDiag  1:
 E= -76.8930796431373     Delta-E=        0.000000000000 Rises=F Damp=F
 DIIS: error= 8.21D-10 at cycle   9 NSaved=   9.
 NSaved= 9 IEnMin= 8 EnMin= -76.8930796431373     IErMin= 9 ErrMin= 8.21D-10
 ErrMax= 8.21D-10  0.00D+00 EMaxC= 1.00D-01 BMatC= 4.39D-17 BMatP= 2.23D-15
 IDIUse=1 WtCom= 1.00D+00 WtEn= 0.00D+00
 Coeff-Com:  0.289D-03 0.111D-03-0.997D-03-0.174D-02 0.161D-03 0.264D-01
 Coeff-Com:  0.222D-01-0.149D+00 0.110D+01
 Coeff:      0.289D-03 0.111D-03-0.997D-03-0.174D-02 0.161D-03 0.264D-01
 Coeff:      0.222D-01-0.149D+00 0.110D+01
 Gap=     0.403 Goal=   None    Shift=    0.000
 Gap=     0.149 Goal=   None    Shift=    0.000
 RMSDP=1.78D-09 MaxDP=1.90D-08 DE= 0.00D+00 OVMax= 4.88D-08

 SCF Done:  E(UB3LYP) =  -76.8930796431     A.U. after   16 cycles
            NFock= 16  Conv=0.18D-08     -V/T= 2.0052
 <Sx>= 0.0000 <Sy>= 0.0000 <Sz>= 0.5000 <S**2>= 0.7581 S= 0.5041
 <L.S>= 0.000000000000E+00
 KE= 7.649288909085D+01 PE=-2.030326101020D+02 EE= 3.890993920799D+01
 Annihilation of the first spin contaminant:
 S**2 before annihilation     0.7581,   after     0.7500
 Leave Link  502 at Tue Oct  6 20:45:33 2020, MaxMem=  2684354560 cpu:              21.1 elap:               2.1
 (Enter /udrive/faculty/rpeverati/g16/g16/l508.exe)
 QCSCF skips out because SCF is already converged.
 Leave Link  508 at Tue Oct  6 20:45:33 2020, MaxMem=  2684354560 cpu:               0.5 elap:               0.3
 (Enter /udrive/faculty/rpeverati/g16/g16/l801.exe)
 DoSCS=F DFT=T ScalE2(SS,OS)=  1.000000  1.000000
 Range of M.O.s used for correlation:     1    20
 NBasis=    20 NAE=     6 NBE=     5 NFC=     0 NFV=     0
 NROrb=     20 NOA=     6 NOB=     5 NVA=    14 NVB=    15
 Leave Link  801 at Tue Oct  6 20:45:34 2020, MaxMem=  2684354560 cpu:               0.9 elap:               0.3
 (Enter /udrive/faculty/rpeverati/g16/g16/l1101.exe)
 Using compressed storage, NAtomX=     4.
 Will process      5 centers per pass.
 R6Disp: Adding Grimme-D3(BJ) dispersion energy 1st derivatives to the gradient.
 Leave Link 1101 at Tue Oct  6 20:45:34 2020, MaxMem=  2684354560 cpu:               3.0 elap:               0.6
 (Enter /udrive/faculty/rpeverati/g16/g16/l1102.exe)
 Symmetrizing basis deriv contribution to polar:
 IMax=3 JMax=2 DiffMx= 0.00D+00
 Leave Link 1102 at Tue Oct  6 20:45:35 2020, MaxMem=  2684354560 cpu:               1.1 elap:               0.5
 (Enter /udrive/faculty/rpeverati/g16/g16/l1110.exe)
 Forming Gx(P) for the SCF density, NAtomX=     4.
 Integral derivatives from FoFJK, PRISM(SPDF).
 Do as many integral derivatives as possible in FoFJK.
 G2DrvN: MDV=    2684354152.
 G2DrvN: will do     5 centers at a time, making    1 passes.
 Calling FoFCou, ICntrl=  3107 FMM=F I1Cent=   0 AccDes= 0.00D+00.
 FoFJK:  IHMeth= 1 ICntrl=    3107 DoSepK=F KAlg= 0 I1Cent=           0 FoldK=F
 IRaf=         0 NMat=       1 IRICut=       1 DoRegI=T DoRafI=F ISym2E= 0 IDoP0=0 IntGTp=1.
 FoFCou: FMM=F IPFlag=           0 FMFlag=      100000 FMFlg1=           0
         NFxFlg=           0 DoJE=F BraDBF=F KetDBF=F FulRan=T
         wScrn=  0.000000 ICntrl=      3107 IOpCl=  1 I1Cent=           0 NGrid=           0
         NMat0=    1 NMatS0=      1 NMatT0=    0 NMatD0=    1 NMtDS0=    0 NMtDT0=    0
 Symmetry not used in FoFCou.
 End of G2Drv F.D. properties file   721 does not exist.
 End of G2Drv F.D. properties file   722 does not exist.
 End of G2Drv F.D. properties file   788 does not exist.
 Leave Link 1110 at Tue Oct  6 20:45:36 2020, MaxMem=  2684354560 cpu:               8.1 elap:               0.9
 (Enter /udrive/faculty/rpeverati/g16/g16/l1002.exe)
 Minotr:  UHF open shell wavefunction.
          IDoAtm=1111
          Direct CPHF calculation.
          Differentiating once with respect to nuclear coordinates.
          Requested convergence is 1.0D-08 RMS, and 1.0D-07 maximum.
          Secondary convergence is 1.0D-12 RMS, and 1.0D-12 maximum.
          NewPWx=T KeepS1=F KeepF1=F KeepIn=T MapXYZ=F SortEE=F KeepMc=T.
         1165 words used for storage of precomputed grid.
 Keep R1 and R2 ints in memory in canonical form, NReq=10347741.
 FoFCou: FMM=F IPFlag=           0 FMFlag=           0 FMFlg1=           0
         NFxFlg=           0 DoJE=F BraDBF=F KetDBF=F FulRan=T
         wScrn=  0.000000 ICntrl=       600 IOpCl=  0 I1Cent=           0 NGrid=           0
         NMat0=    1 NMatS0=    210 NMatT0=    0 NMatD0=    1 NMtDS0=    0 NMtDT0=    0
 Symmetry not used in FoFCou.
 Two-electron integral symmetry not used.
          MDV=    2684354560 using IRadAn=       1.
          Solving linear equations simultaneously, MaxMat=       0.
          There are    15 degrees of freedom in the 1st order CPHF.  IDoFFX=6 NUNeed=     0.
      9 vectors produced by pass  0 Test12= 1.06D-15 6.67D-09 XBig12= 1.56D-01 3.09D-01.
 AX will form     9 AO Fock derivatives at one time.
      9 vectors produced by pass  1 Test12= 1.06D-15 6.67D-09 XBig12= 1.20D-02 6.54D-02.
      9 vectors produced by pass  2 Test12= 1.06D-15 6.67D-09 XBig12= 2.30D-04 5.16D-03.
      9 vectors produced by pass  3 Test12= 1.06D-15 6.67D-09 XBig12= 9.65D-07 2.58D-04.
      9 vectors produced by pass  4 Test12= 1.06D-15 6.67D-09 XBig12= 4.38D-09 1.81D-05.
      8 vectors produced by pass  5 Test12= 1.06D-15 6.67D-09 XBig12= 1.26D-11 1.00D-06.
      2 vectors produced by pass  6 Test12= 1.06D-15 6.67D-09 XBig12= 1.57D-14 3.23D-08.
 InvSVY:  IOpt=1 It=  1 EMax= 1.11D-15
 Solved reduced A of dimension    55 with     9 vectors.
 End of Minotr F.D. properties file   721 does not exist.
 End of Minotr F.D. properties file   722 does not exist.
 End of Minotr F.D. properties file   788 does not exist.
 Leave Link 1002 at Tue Oct  6 20:45:39 2020, MaxMem=  2684354560 cpu:              20.9 elap:               2.1
 (Enter /udrive/faculty/rpeverati/g16/g16/l601.exe)
 Copying SCF densities to generalized density rwf, IOpCl= 1 IROHF=0.

 **********************************************************************

            Population analysis using the SCF density.

 **********************************************************************

 Orbital symmetries:
 Alpha Orbitals:
       Occupied  (A) (A) (A) (A) (A) (A)
       Virtual   (A) (A) (A) (A) (A) (A) (A) (A) (A) (A) (A) (A)
                 (A) (A)
 Beta  Orbitals:
       Occupied  (A) (A) (A) (A) (A)
       Virtual   (A) (A) (A) (A) (A) (A) (A) (A) (A) (A) (A) (A)
                 (A) (A) (A)
 The electronic state is 2-A.
 Alpha  occ. eigenvalues --  -19.18416  -1.00694  -0.52838  -0.44847  -0.32020
 Alpha  occ. eigenvalues --   -0.31910
 Alpha virt. eigenvalues --    0.08430   0.18602   0.63667   0.79046   0.82778
 Alpha virt. eigenvalues --    0.86790   1.00603   1.06313   1.42651   1.70012
 Alpha virt. eigenvalues --    1.74191   1.75344   2.01779   2.43221
  Beta  occ. eigenvalues --  -19.16553  -0.95768  -0.48570  -0.41019  -0.29982
  Beta virt. eigenvalues --   -0.15044   0.09201   0.21429   0.65945   0.79952
  Beta virt. eigenvalues --    0.87912   0.88174   1.02487   1.09636   1.45652
  Beta virt. eigenvalues --    1.74473   1.74994   1.79573   2.05732   2.45067
          Condensed to atoms (all electrons):
               1          2          3          4
     1  O    8.337419   0.212875   0.059204  -0.062498
     2  H    0.212875   0.394195  -0.020454   0.009766
     3  H    0.059204  -0.020454   0.524070   0.293200
     4  H   -0.062498   0.009766   0.293200   0.760129
          Atomic-Atomic Spin Densities.
               1          2          3          4
     1  O    0.828248  -0.005516  -0.033885  -0.070795
     2  H   -0.005516  -0.019471   0.002465   0.003292
     3  H   -0.033885   0.002465  -0.109111   0.035861
     4  H   -0.070795   0.003292   0.035861   0.437490
 Mulliken charges and spin densities:
               1          2
     1  O   -0.547000   0.718052
     2  H    0.403618  -0.019229
     3  H    0.143981  -0.104670
     4  H   -0.000598   0.405847
 Sum of Mulliken charges =   0.00000   1.00000
 Mulliken charges and spin densities with hydrogens summed into heavy atoms:
               1          2
     1  O    0.000000   1.000000
 APT charges:
               1
     1  O   -0.670695
     2  H    0.534972
     3  H   -0.085008
     4  H    0.220731
 Sum of APT charges =   0.00000
 APT charges with hydrogens summed into heavy atoms:
               1
     1  O    0.000000
 Electronic spatial extent (au):  <R**2>=             38.0425
 Charge=              0.0000 electrons
 Dipole moment (field-independent basis, Debye):
    X=              0.4380    Y=              1.6570    Z=              0.0001  Tot=              1.7139
 Quadrupole moment (field-independent basis, Debye-Ang):
   XX=             -6.8975   YY=             -6.5304   ZZ=             -8.4562
   XY=             -0.7524   XZ=             -0.0000   YZ=              0.0000
 Traceless Quadrupole moment (field-independent basis, Debye-Ang):
   XX=              0.3972   YY=              0.7642   ZZ=             -1.1615
   XY=             -0.7524   XZ=             -0.0000   YZ=              0.0000
 Octapole moment (field-independent basis, Debye-Ang**2):
  XXX=             -2.3107  YYY=              1.5692  ZZZ=              0.0001  XYY=             -1.5219
  XXY=              0.5512  XXZ=             -0.0001  XZZ=             -0.8239  YZZ=              0.2232
  YYZ=              0.0000  XYZ=             -0.0000
 Hexadecapole moment (field-independent basis, Debye-Ang**3):
 XXXX=            -32.7942 YYYY=             -7.1724 ZZZZ=             -6.5051 XXXY=             -0.1762
 XXXZ=             -0.0003 YYYX=             -0.9369 YYYZ=              0.0001 ZZZX=              0.0000
 ZZZY=              0.0000 XXYY=             -7.1134 XXZZ=             -7.1431 YYZZ=             -2.4833
 XXYZ=             -0.0000 YYXZ=              0.0000 ZZXY=             -0.1629
 N-N= 1.073670215999D+01 E-N=-2.030326100895D+02  KE= 7.649288909085D+01
  Exact polarizability:   0.000   0.000   0.000   0.000   0.000   0.000
 Approx polarizability:  27.654   2.220   8.651  -0.001  -0.001   2.744
                          Isotropic Fermi Contact Couplings
        Atom                 a.u.       MegaHertz       Gauss      10(-4) cm-1
     1  O(17)              0.10231     -62.01929     -22.13002     -20.68741
     2  H(1)              -0.01061     -47.42884     -16.92379     -15.82056
     3  H(1)              -0.03130    -139.90133     -49.92027     -46.66606
     4  H(1)               0.15329     685.20605     244.49856     228.56014
 --------------------------------------------------------
       Center         ----  Spin Dipole Couplings  ----
                      3XX-RR        3YY-RR        3ZZ-RR
 --------------------------------------------------------
     1   Atom        2.628695     -1.256606     -1.372089
     2   Atom       -0.027865      0.124595     -0.096730
     3   Atom        0.221153     -0.106082     -0.115071
     4   Atom        0.000798     -0.000764     -0.000034
 --------------------------------------------------------
                        XY            XZ            YZ
 --------------------------------------------------------
     1   Atom        0.580668     -0.000230     -0.000033
     2   Atom       -0.028577     -0.000005      0.000006
     3   Atom        0.030925     -0.000009     -0.000008
     4   Atom       -0.002422      0.000003      0.000001
 --------------------------------------------------------


 ---------------------------------------------------------------------------------
              Anisotropic Spin Dipole Couplings in Principal Axis System
 ---------------------------------------------------------------------------------

       Atom             a.u.   MegaHertz   Gauss  10(-4) cm-1        Axes

              Baa    -1.3721    99.283    35.427    33.117  0.0001  0.0000  1.0000
     1 O(17)  Bbb    -1.3415    97.072    34.638    32.380 -0.1447  0.9895  0.0000
              Bcc     2.7136  -196.356   -70.065   -65.497  0.9895  0.1447 -0.0001
 
              Baa    -0.0967   -51.611   -18.416   -17.215  0.0001 -0.0000  1.0000
     2 H(1)   Bbb    -0.0330   -17.632    -6.291    -5.881  0.9840  0.1784 -0.0001
              Bcc     0.1298    69.242    24.707    23.097 -0.1784  0.9840  0.0000
 
              Baa    -0.1151   -61.397   -21.908   -20.480 -0.0001  0.0012  1.0000
     3 H(1)   Bbb    -0.1090   -58.146   -20.748   -19.395 -0.0933  0.9956 -0.0012
              Bcc     0.2241   119.543    42.656    39.875  0.9956  0.0933 -0.0000
 
              Baa    -0.0025    -1.349    -0.481    -0.450  0.5887  0.8083 -0.0009
     4 H(1)   Bbb    -0.0000    -0.018    -0.006    -0.006 -0.0000  0.0011  1.0000
              Bcc     0.0026     1.367     0.488     0.456  0.8083 -0.5887  0.0007
 

 ---------------------------------------------------------------------------------

 No NMR shielding tensors so no spin-rotation constants.
 Leave Link  601 at Tue Oct  6 20:45:40 2020, MaxMem=  2684354560 cpu:               4.1 elap:               0.7
 (Enter /udrive/faculty/rpeverati/g16/g16/l701.exe)
 ... and contract with generalized density number  0.
 Compute integral second derivatives.
 R6Disp: Adding Grimme-D3(BJ) dispersion energy 2nd derivatives to the Hessian.
 Leave Link  701 at Tue Oct  6 20:45:41 2020, MaxMem=  2684354560 cpu:               3.0 elap:               0.6
 (Enter /udrive/faculty/rpeverati/g16/g16/l702.exe)
 L702 exits ... SP integral derivatives will be done elsewhere.
 Leave Link  702 at Tue Oct  6 20:45:41 2020, MaxMem=  2684354560 cpu:               1.1 elap:               0.5
 (Enter /udrive/faculty/rpeverati/g16/g16/l703.exe)
 Integral derivatives from FoFJK, PRISM(SPDF).
 Compute integral second derivatives, UseDBF=F ICtDFT=           0.
 Calling FoFJK, ICntrl=    100147 FMM=F ISym2X=0 I1Cent= 0 IOpClX= 1 NMat=1 NMatS=1 NMatT=0.
 FoFJK:  IHMeth= 1 ICntrl=  100147 DoSepK=F KAlg= 0 I1Cent=           0 FoldK=F
 IRaf=         0 NMat=       1 IRICut=       1 DoRegI=T DoRafI=F ISym2E= 0 IDoP0=0 IntGTp=1.
 FoFCou: FMM=F IPFlag=           0 FMFlag=      100000 FMFlg1=         800
         NFxFlg=           0 DoJE=F BraDBF=F KetDBF=F FulRan=T
         wScrn=  0.000000 ICntrl=    100147 IOpCl=  1 I1Cent=           0 NGrid=           0
         NMat0=    1 NMatS0=      1 NMatT0=    0 NMatD0=    1 NMtDS0=    0 NMtDT0=    0
 Symmetry not used in FoFCou.
 Leave Link  703 at Tue Oct  6 20:45:43 2020, MaxMem=  2684354560 cpu:              10.3 elap:               1.3
 (Enter /udrive/faculty/rpeverati/g16/g16/l716.exe)
 Dipole        = 1.72310362D-01 6.51918905D-01 4.61006529D-05
 Polarizability= 0.00000000D+00 0.00000000D+00 0.00000000D+00
                 0.00000000D+00 0.00000000D+00 0.00000000D+00
 ***** Axes restored to original set *****
 -------------------------------------------------------------------
 Center     Atomic                   Forces (Hartrees/Bohr)
 Number     Number              X              Y              Z
 -------------------------------------------------------------------
      1        8           0.000888899   -0.009938171    0.000000853
      2        1          -0.004012151    0.011515645   -0.000000169
      3        1          -0.000525997   -0.002187580   -0.000001278
      4        1           0.003649248    0.000610105    0.000000594
 -------------------------------------------------------------------
 Cartesian Forces:  Max     0.011515645 RMS     0.004717134
 Force constants in Cartesian coordinates: 
                1             2             3             4             5 
      1  0.355685D-01
      2 -0.571069D-01  0.529182D+00
      3 -0.169799D-05  0.131762D-04 -0.379702D-02
      4 -0.280136D-01  0.478844D-01  0.000000D+00  0.340399D-01
      5  0.744325D-01 -0.513008D+00 -0.115103D-04 -0.693873D-01  0.513362D+00
      6  0.000000D+00 -0.145698D-04  0.500075D-02  0.000000D+00  0.123361D-04
      7  0.797786D-01  0.147795D-01  0.871058D-05 -0.680139D-02 -0.733385D-02
      8  0.575750D-02 -0.168829D-01  0.000000D+00  0.193161D-01 -0.232134D-02
      9 -0.158477D-04  0.176430D-05 -0.338550D-02 -0.130786D-05  0.000000D+00
     10 -0.873335D-01 -0.555702D-02 -0.705587D-05  0.775022D-03  0.228867D-02
     11 -0.230830D-01  0.709184D-03  0.000000D+00  0.218681D-02  0.196718D-02
     12  0.171999D-04  0.000000D+00  0.218178D-02  0.000000D+00  0.000000D+00
                6             7             8             9            10 
      6 -0.626179D-02
      7 -0.117152D-05  0.864367D-02
      8  0.325928D-05  0.134144D-01  0.380427D-01
      9  0.167671D-02 -0.265822D-04 -0.128617D-04  0.388979D-02
     10  0.000000D+00 -0.816209D-01 -0.384880D-01  0.437378D-04  0.168179D+00
     11 -0.102559D-05 -0.208601D-01 -0.188385D-01  0.118095D-04  0.417563D-01
     12 -0.415674D-03  0.190432D-04  0.103752D-04 -0.218100D-02 -0.369969D-04
               11            12 
     11  0.161621D-01
     12 -0.989086D-05  0.414896D-03
 FormGI is forming the generalized inverse of G from B-inverse, IUseBI=4.
 Force constants in internal coordinates: 
                1             2             3             4             5 
      1  0.523158D+00
      2 -0.422973D-02  0.135326D-01
      3  0.252152D-02  0.890359D-01  0.178883D+00
      4  0.616156D-02  0.119100D-01 -0.302648D-02  0.102953D+00
      5 -0.165906D-02  0.315592D-02  0.183528D-02  0.596813D-02  0.193383D-01
      6  0.000000D+00 -0.266140D-05 -0.185007D-05  0.245138D-05  0.000000D+00
                6 
      6  0.353672D-02
 Leave Link  716 at Tue Oct  6 20:45:44 2020, MaxMem=  2684354560 cpu:               1.2 elap:               0.5
 (Enter /udrive/faculty/rpeverati/g16/g16/l103.exe)

 GradGradGradGradGradGradGradGradGradGradGradGradGradGradGradGradGradGrad
 Berny optimization.
 Optmz: redundant internal coordinate code flag= 1
 Red2BG:  D1=  3.36D-01 OD1=  8.24D-15 B2RMS=  0.00D+00 IAprox=1
 Red2BG is reusing G-inverse.
 Internal  Forces:  Max     0.011942262 RMS     0.005576152
 Search for a saddle point.
 Step number   1 out of a maximum of   50
 All quantities printed in internal units (Hartrees-Bohrs-Radians)
 Swapping is turned off.
 Second derivative matrix not updated -- analytic derivatives used.
 The second derivative matrix:
                          R1        R2        R3        A1        A2
           R1           0.52316
           R2          -0.00423   0.01353
           R3           0.00252   0.08904   0.17888
           A1           0.00616   0.01191  -0.00303   0.10295
           A2          -0.00166   0.00316   0.00184   0.00597   0.01934
           A3          -0.00000  -0.00000  -0.00000   0.00000   0.00000
                          A3
           A3           0.00354
 ITU=  0
 Eigenvectors of the second derivative matrix:
                           1         2         3         4         5
     Eigenvalues --    -0.02654   0.00354   0.01890   0.10442   0.21779
   1         R1         0.00977   0.00000  -0.00448  -0.01319   0.00230
   2         R2         0.91260   0.00006  -0.01977   0.07895  -0.40060
   3         R3        -0.39672  -0.00004   0.02392  -0.05537  -0.91594
   4         A1        -0.09208   0.00002   0.07476   0.99267  -0.01809
   5         A2        -0.03458   0.00002  -0.99671   0.07163  -0.01540
   6         A3         0.00006  -1.00000  -0.00002   0.00002   0.00001
                           6
     Eigenvalues --     0.52330
   1         R1        -0.99985
   2         R2         0.00704
   3         R3        -0.00536
   4         A1        -0.01437
   5         A2         0.00315
   6         A3         0.00000
 RLam0= 4.25D-05.
 Iter=   1 RLamda= 0.00000000D+00 Sum=-5.64641885D-04.
 Iter=   2 RLamda=-5.64641885D-04 Sum=-5.63002782D-04.
 Iter=   3 RLamda=-5.63002782D-04 Sum=-5.63007514D-04.
 RFO step:  Lambda0=4.247716569D-05 Lambda=-5.63002782D-04.
 Linear search not attempted -- option 19 set.
 Iteration  1 RMS(Cart)=  0.03158616 RMS(Int)=  0.00072545
 Iteration  2 RMS(Cart)=  0.00062249 RMS(Int)=  0.00000025
 Iteration  3 RMS(Cart)=  0.00000036 RMS(Int)=  0.00000000
 ITry= 1 IFail=0 DXMaxC= 5.84D-02 DCOld= 1.00D+10 DXMaxT= 1.00D-01 DXLimC= 3.00D+00 Rises=F
 Variable       Old X    -DE/DX   Delta X   Delta X   Delta X     New X
                                 (Linear)    (Quad)   (Total)
    R1        1.82920   0.01194   0.00000   0.02197   0.02197   1.85116
    R2        2.48796   0.00311   0.00000  -0.02450  -0.02450   2.46346
    R3        1.57473   0.00368   0.00000   0.03302   0.03302   1.60775
    A1        1.69642   0.00451   0.00000   0.04516   0.04516   1.74158
    A2        2.88826   0.00054   0.00000   0.01651   0.01651   2.90478
    A3        3.14204  -0.00000   0.00000  -0.00042  -0.00042   3.14162
         Item               Value     Threshold  Converged?
 Maximum Force            0.011942     0.000450     NO 
 RMS     Force            0.005576     0.000300     NO 
 Maximum Displacement     0.058361     0.001800     NO 
 RMS     Displacement     0.031818     0.001200     NO 
 Predicted change in Energy=-2.610441D-04
 Lowest energy point so far.  Saving SCF results.
 Largest change from initial coordinates is atom    2       0.023 Angstoms.
 GradGradGradGradGradGradGradGradGradGradGradGradGradGradGradGradGradGrad

 Leave Link  103 at Tue Oct  6 20:45:44 2020, MaxMem=  2684354560 cpu:               2.3 elap:               0.5
 (Enter /udrive/faculty/rpeverati/g16/g16/l202.exe)
                          Input orientation:                          
 ---------------------------------------------------------------------
 Center     Atomic      Atomic             Coordinates (Angstroms)
 Number     Number       Type             X           Y           Z
 ---------------------------------------------------------------------
      1          8           0       -0.289097   -0.104899    0.000042
      2          1           0       -0.458827    0.859878    0.000004
      3          1           0        1.014503   -0.100511    0.000024
      4          1           0        1.840866    0.101871   -0.000015
 ---------------------------------------------------------------------
                    Distance matrix (angstroms):
                    1          2          3          4
     1  O    0.000000
     2  H    0.979593   0.000000
     3  H    1.303607   1.758706   0.000000
     4  H    2.139976   2.421397   0.850785   0.000000
 Stoichiometry    H3O(2)
 Framework group  C1[X(H3O)]
 Deg. of freedom     6
 Full point group                 C1      NOp   1
 RotChk:  IX=2 Diff= 2.11D-02
 Largest Abelian subgroup         C1      NOp   1
 Largest concise Abelian subgroup C1      NOp   1
                         Standard orientation:                         
 ---------------------------------------------------------------------
 Center     Atomic      Atomic             Coordinates (Angstroms)
 Number     Number       Type             X           Y           Z
 ---------------------------------------------------------------------
      1          8           0       -0.295081   -0.111327    0.000010
      2          1           0       -0.479216    0.850804   -0.000027
      3          1           0        1.008308   -0.087450   -0.000008
      4          1           0        1.831553    0.127264   -0.000047
 ---------------------------------------------------------------------
 Rotational constants (GHZ):         557.7995397          87.9480505          75.9699035
 Leave Link  202 at Tue Oct  6 20:45:45 2020, MaxMem=  2684354560 cpu:               1.5 elap:               0.4
 (Enter /udrive/faculty/rpeverati/g16/g16/l301.exe)
 Standard basis: 6-31G(d) (5D, 7F)
 Ernie: Thresh=  0.10000D-02 Tol=  0.10000D-05 Strict=F.
 There are    21 symmetry adapted cartesian basis functions of A   symmetry.
 There are    20 symmetry adapted basis functions of A   symmetry.
    20 basis functions,    40 primitive gaussians,    21 cartesian basis functions
     6 alpha electrons        5 beta electrons
       nuclear repulsion energy        10.6887490385 Hartrees.
 IExCor=  402 DFT=T Ex+Corr=B3LYP ExCW=0 ScaHFX=  0.200000
 ScaDFX=  0.800000  0.720000  1.000000  0.810000 ScalE2=  1.000000  1.000000
 IRadAn=      5 IRanWt=     -1 IRanGd=            0 ICorTp=0 IEmpDi=141
 NAtoms=    4 NActive=    4 NUniq=    4 SFac= 1.00D+00 NAtFMM=   60 NAOKFM=F Big=F
 Integral buffers will be    131072 words long.
 Raffenetti 2 integral format.
 Two-electron integral symmetry is turned on.
 R6Disp:  Grimme-D3(BJ) Dispersion energy=       -0.0011871826 Hartrees.
 Nuclear repulsion after empirical dispersion term =       10.6875618559 Hartrees.
 Leave Link  301 at Tue Oct  6 20:45:46 2020, MaxMem=  2684354560 cpu:               1.7 elap:               0.4
 (Enter /udrive/faculty/rpeverati/g16/g16/l302.exe)
 NPDir=0 NMtPBC=     1 NCelOv=     1 NCel=       1 NClECP=     1 NCelD=      1
         NCelK=      1 NCelE2=     1 NClLst=     1 CellRange=     0.0.
 One-electron integrals computed using PRISM.
 One-electron integral symmetry used in STVInt
 NBasis=    20 RedAO= T EigKep=  4.17D-02  NBF=    20
 NBsUse=    20 1.00D-06 EigRej= -1.00D+00 NBFU=    20
 Precomputing XC quadrature grid using
 IXCGrd= 4 IRadAn=           5 IRanWt=          -1 IRanGd=           0 AccXCQ= 0.00D+00.
 Generated NRdTot=       0 NPtTot=           0 NUsed=           0 NTot=          32
 NSgBfM=    21    21    21    21    21 MxSgAt=     4 MxSgA2=     4.
 Leave Link  302 at Tue Oct  6 20:45:46 2020, MaxMem=  2684354560 cpu:               3.1 elap:               0.5
 (Enter /udrive/faculty/rpeverati/g16/g16/l303.exe)
 DipDrv:  MaxL=1.
 Leave Link  303 at Tue Oct  6 20:45:47 2020, MaxMem=  2684354560 cpu:               1.3 elap:               0.5
 (Enter /udrive/faculty/rpeverati/g16/g16/l401.exe)
 Initial guess from the checkpoint file:  "MN_79_RKT02_BH76_B3LYP_631Gs.chk"
 SCF N**3 symmetry information disabled.
 B after Tr=     0.000000    0.000000    0.000000
         Rot=    0.999971    0.000023   -0.000010   -0.007672 Ang=   0.88 deg.
 Guess basis will be translated and rotated to current coordinates.
 JPrj=2 DoOrth=T DoCkMO=T.
 Initial guess <Sx>= 0.0000 <Sy>= 0.0000 <Sz>= 0.5000 <S**2>= 0.7583 S= 0.5042
 Generating alternative initial guess.
 ExpMin= 1.61D-01 ExpMax= 5.48D+03 ExpMxC= 8.25D+02 IAcc=2 IRadAn=         4 AccDes= 0.00D+00
 Harris functional with IExCor=  402 and IRadAn=       4 diagonalized for initial guess.
 HarFok:  IExCor=  402 AccDes= 0.00D+00 IRadAn=         4 IDoV= 1 UseB2=F ITyADJ=14
 ICtDFT=  3500011 ScaDFX=  1.000000  1.000000  1.000000  1.000000
 FoFCou: FMM=F IPFlag=           0 FMFlag=      100000 FMFlg1=           0
         NFxFlg=           0 DoJE=T BraDBF=F KetDBF=T FulRan=T
         wScrn=  0.000000 ICntrl=       500 IOpCl=  0 I1Cent=   200000004 NGrid=           0
         NMat0=    1 NMatS0=      1 NMatT0=    0 NMatD0=    1 NMtDS0=    0 NMtDT0=    0
 Petite list used in FoFCou.
 Harris En= -76.8861589767621    
 Leave Link  401 at Tue Oct  6 20:45:48 2020, MaxMem=  2684354560 cpu:               4.1 elap:               0.6
 (Enter /udrive/faculty/rpeverati/g16/g16/l502.exe)
 Keep R1 and R2 ints in memory in canonical form, NReq=10386182.
 FoFCou: FMM=F IPFlag=           0 FMFlag=           0 FMFlg1=           0
         NFxFlg=           0 DoJE=F BraDBF=F KetDBF=F FulRan=T
         wScrn=  0.000000 ICntrl=       600 IOpCl=  0 I1Cent=           0 NGrid=           0
         NMat0=    1 NMatS0=    210 NMatT0=    0 NMatD0=    1 NMtDS0=    0 NMtDT0=    0
 Symmetry not used in FoFCou.
 Two-electron integral symmetry not used.
 UHF open shell SCF:
 Using DIIS extrapolation, IDIIS=  1040.
 NGot=  2684354560 LenX=  2684308680 LenY=  2684307798
 Requested convergence on RMS density matrix=1.00D-08 within 120 cycles.
 Requested convergence on MAX density matrix=1.00D-06.
 Requested convergence on             energy=1.00D-06.
 No special actions if energy rises.
 Integral accuracy reduced to 1.0D-05 until final iterations.

 Cycle   1  Pass 0  IDiag  1:
 E= -76.8929717029624    
 DIIS: error= 3.05D-03 at cycle   1 NSaved=   1.
 NSaved= 1 IEnMin= 1 EnMin= -76.8929717029624     IErMin= 1 ErrMin= 3.05D-03
 ErrMax= 3.05D-03  0.00D+00 EMaxC= 1.00D-01 BMatC= 6.63D-04 BMatP= 6.63D-04
 IDIUse=3 WtCom= 9.69D-01 WtEn= 3.05D-02
 Coeff-Com:  0.100D+01
 Coeff-En:   0.100D+01
 Coeff:      0.100D+01
 Gap=     0.665 Goal=   None    Shift=    0.000
 Gap=     0.494 Goal=   None    Shift=    0.000
 GapD=    0.494 DampG=2.000 DampE=1.000 DampFc=2.0000 IDamp=-1.
 RMSDP=9.80D-04 MaxDP=6.55D-03              OVMax= 1.75D-02

 Cycle   2  Pass 0  IDiag  1:
 E= -76.8933189617932     Delta-E=       -0.000347258831 Rises=F Damp=F
 DIIS: error= 8.37D-04 at cycle   2 NSaved=   2.
 NSaved= 2 IEnMin= 2 EnMin= -76.8933189617932     IErMin= 2 ErrMin= 8.37D-04
 ErrMax= 8.37D-04  0.00D+00 EMaxC= 1.00D-01 BMatC= 4.15D-05 BMatP= 6.63D-04
 IDIUse=3 WtCom= 9.92D-01 WtEn= 8.37D-03
 Coeff-Com:  0.281D-01 0.972D+00
 Coeff-En:   0.000D+00 0.100D+01
 Coeff:      0.278D-01 0.972D+00
 Gap=     0.399 Goal=   None    Shift=    0.000
 Gap=     0.148 Goal=   None    Shift=    0.000
 RMSDP=3.47D-04 MaxDP=2.29D-03 DE=-3.47D-04 OVMax= 5.07D-03

 Cycle   3  Pass 0  IDiag  1:
 E= -76.8933383700630     Delta-E=       -0.000019408270 Rises=F Damp=F
 DIIS: error= 7.00D-04 at cycle   3 NSaved=   3.
 NSaved= 3 IEnMin= 3 EnMin= -76.8933383700630     IErMin= 3 ErrMin= 7.00D-04
 ErrMax= 7.00D-04  0.00D+00 EMaxC= 1.00D-01 BMatC= 2.64D-05 BMatP= 4.15D-05
 IDIUse=3 WtCom= 9.93D-01 WtEn= 7.00D-03
 Coeff-Com: -0.245D-01 0.426D+00 0.598D+00
 Coeff-En:   0.000D+00 0.000D+00 0.100D+01
 Coeff:     -0.243D-01 0.423D+00 0.601D+00
 Gap=     0.399 Goal=   None    Shift=    0.000
 Gap=     0.149 Goal=   None    Shift=    0.000
 RMSDP=1.32D-04 MaxDP=1.04D-03 DE=-1.94D-05 OVMax= 2.58D-03

 Cycle   4  Pass 0  IDiag  1:
 E= -76.8933447602361     Delta-E=       -0.000006390173 Rises=F Damp=F
 DIIS: error= 4.03D-04 at cycle   4 NSaved=   4.
 NSaved= 4 IEnMin= 4 EnMin= -76.8933447602361     IErMin= 4 ErrMin= 4.03D-04
 ErrMax= 4.03D-04  0.00D+00 EMaxC= 1.00D-01 BMatC= 8.29D-06 BMatP= 2.64D-05
 IDIUse=3 WtCom= 9.96D-01 WtEn= 4.03D-03
 Coeff-Com: -0.263D-01 0.107D-01 0.353D+00 0.663D+00
 Coeff-En:   0.000D+00 0.000D+00 0.446D-01 0.955D+00
 Coeff:     -0.262D-01 0.107D-01 0.352D+00 0.664D+00
 Gap=     0.398 Goal=   None    Shift=    0.000
 Gap=     0.149 Goal=   None    Shift=    0.000
 RMSDP=8.15D-05 MaxDP=5.57D-04 DE=-6.39D-06 OVMax= 8.54D-04

 Cycle   5  Pass 0  IDiag  1:
 E= -76.8933470146136     Delta-E=       -0.000002254377 Rises=F Damp=F
 DIIS: error= 5.60D-05 at cycle   5 NSaved=   5.
 NSaved= 5 IEnMin= 5 EnMin= -76.8933470146136     IErMin= 5 ErrMin= 5.60D-05
 ErrMax= 5.60D-05  0.00D+00 EMaxC= 1.00D-01 BMatC= 1.98D-07 BMatP= 8.29D-06
 IDIUse=1 WtCom= 1.00D+00 WtEn= 0.00D+00
 Coeff-Com:  0.298D-02-0.636D-01-0.408D-01 0.402D-01 0.106D+01
 Coeff:      0.298D-02-0.636D-01-0.408D-01 0.402D-01 0.106D+01
 Gap=     0.398 Goal=   None    Shift=    0.000
 Gap=     0.149 Goal=   None    Shift=    0.000
 RMSDP=2.96D-05 MaxDP=2.03D-04 DE=-2.25D-06 OVMax= 5.43D-04

 Cycle   6  Pass 0  IDiag  1:
 E= -76.8933471819820     Delta-E=       -0.000000167368 Rises=F Damp=F
 DIIS: error= 1.33D-05 at cycle   6 NSaved=   6.
 NSaved= 6 IEnMin= 6 EnMin= -76.8933471819820     IErMin= 6 ErrMin= 1.33D-05
 ErrMax= 1.33D-05  0.00D+00 EMaxC= 1.00D-01 BMatC= 1.17D-08 BMatP= 1.98D-07
 IDIUse=1 WtCom= 1.00D+00 WtEn= 0.00D+00
 Coeff-Com:  0.175D-02-0.141D-01-0.279D-01-0.306D-01 0.223D+00 0.848D+00
 Coeff:      0.175D-02-0.141D-01-0.279D-01-0.306D-01 0.223D+00 0.848D+00
 Gap=     0.398 Goal=   None    Shift=    0.000
 Gap=     0.149 Goal=   None    Shift=    0.000
 RMSDP=4.90D-06 MaxDP=3.07D-05 DE=-1.67D-07 OVMax= 6.26D-05

 Initial convergence to 1.0D-05 achieved.  Increase integral accuracy.
 Cycle   7  Pass 1  IDiag  1:
 E= -76.8933463424970     Delta-E=        0.000000839485 Rises=F Damp=F
 DIIS: error= 2.38D-06 at cycle   1 NSaved=   1.
 NSaved= 1 IEnMin= 1 EnMin= -76.8933463424970     IErMin= 1 ErrMin= 2.38D-06
 ErrMax= 2.38D-06  0.00D+00 EMaxC= 1.00D-01 BMatC= 6.58D-10 BMatP= 6.58D-10
 IDIUse=1 WtCom= 1.00D+00 WtEn= 0.00D+00
 Coeff-Com:  0.100D+01
 Coeff:      0.100D+01
 Gap=     0.398 Goal=   None    Shift=    0.000
 Gap=     0.149 Goal=   None    Shift=    0.000
 RMSDP=4.90D-06 MaxDP=3.07D-05 DE= 8.39D-07 OVMax= 1.51D-05

 Cycle   8  Pass 1  IDiag  1:
 E= -76.8933463425529     Delta-E=       -0.000000000056 Rises=F Damp=F
 DIIS: error= 3.74D-06 at cycle   2 NSaved=   2.
 NSaved= 2 IEnMin= 2 EnMin= -76.8933463425529     IErMin= 1 ErrMin= 2.38D-06
 ErrMax= 3.74D-06  0.00D+00 EMaxC= 1.00D-01 BMatC= 8.74D-10 BMatP= 6.58D-10
 IDIUse=1 WtCom= 1.00D+00 WtEn= 0.00D+00
 Coeff-Com:  0.543D+00 0.457D+00
 Coeff:      0.543D+00 0.457D+00
 Gap=     0.398 Goal=   None    Shift=    0.000
 Gap=     0.149 Goal=   None    Shift=    0.000
 RMSDP=6.81D-07 MaxDP=3.90D-06 DE=-5.58D-11 OVMax= 1.09D-05

 Cycle   9  Pass 1  IDiag  1:
 E= -76.8933463427494     Delta-E=       -0.000000000197 Rises=F Damp=F
 DIIS: error= 9.53D-07 at cycle   3 NSaved=   3.
 NSaved= 3 IEnMin= 3 EnMin= -76.8933463427494     IErMin= 3 ErrMin= 9.53D-07
 ErrMax= 9.53D-07  0.00D+00 EMaxC= 1.00D-01 BMatC= 6.07D-11 BMatP= 6.58D-10
 IDIUse=1 WtCom= 1.00D+00 WtEn= 0.00D+00
 Coeff-Com: -0.136D+00 0.143D+00 0.993D+00
 Coeff:     -0.136D+00 0.143D+00 0.993D+00
 Gap=     0.398 Goal=   None    Shift=    0.000
 Gap=     0.149 Goal=   None    Shift=    0.000
 RMSDP=2.51D-07 MaxDP=1.65D-06 DE=-1.97D-10 OVMax= 4.01D-06

 Cycle  10  Pass 1  IDiag  1:
 E= -76.8933463427712     Delta-E=       -0.000000000022 Rises=F Damp=F
 DIIS: error= 2.07D-07 at cycle   4 NSaved=   4.
 NSaved= 4 IEnMin= 4 EnMin= -76.8933463427712     IErMin= 4 ErrMin= 2.07D-07
 ErrMax= 2.07D-07  0.00D+00 EMaxC= 1.00D-01 BMatC= 3.60D-12 BMatP= 6.07D-11
 IDIUse=1 WtCom= 1.00D+00 WtEn= 0.00D+00
 Coeff-Com: -0.883D-01 0.756D-04 0.773D-01 0.101D+01
 Coeff:     -0.883D-01 0.756D-04 0.773D-01 0.101D+01
 Gap=     0.398 Goal=   None    Shift=    0.000
 Gap=     0.149 Goal=   None    Shift=    0.000
 RMSDP=1.05D-07 MaxDP=6.04D-07 DE=-2.18D-11 OVMax= 1.44D-06

 Cycle  11  Pass 1  IDiag  1:
 E= -76.8933463427735     Delta-E=       -0.000000000002 Rises=F Damp=F
 DIIS: error= 6.52D-08 at cycle   5 NSaved=   5.
 NSaved= 5 IEnMin= 5 EnMin= -76.8933463427735     IErMin= 5 ErrMin= 6.52D-08
 ErrMax= 6.52D-08  0.00D+00 EMaxC= 1.00D-01 BMatC= 1.09D-13 BMatP= 3.60D-12
 IDIUse=1 WtCom= 1.00D+00 WtEn= 0.00D+00
 Coeff-Com:  0.286D-01-0.186D-02-0.519D-01-0.269D+00 0.129D+01
 Coeff:      0.286D-01-0.186D-02-0.519D-01-0.269D+00 0.129D+01
 Gap=     0.398 Goal=   None    Shift=    0.000
 Gap=     0.149 Goal=   None    Shift=    0.000
 RMSDP=4.61D-08 MaxDP=4.58D-07 DE=-2.27D-12 OVMax= 1.19D-06

 Cycle  12  Pass 1  IDiag  1:
 E= -76.8933463427738     Delta-E=       -0.000000000000 Rises=F Damp=F
 DIIS: error= 4.62D-08 at cycle   6 NSaved=   6.
 NSaved= 6 IEnMin= 6 EnMin= -76.8933463427738     IErMin= 6 ErrMin= 4.62D-08
 ErrMax= 4.62D-08  0.00D+00 EMaxC= 1.00D-01 BMatC= 3.93D-14 BMatP= 1.09D-13
 IDIUse=1 WtCom= 1.00D+00 WtEn= 0.00D+00
 Coeff-Com:  0.725D-02-0.106D-02-0.878D-02-0.961D-01-0.697D-01 0.117D+01
 Coeff:      0.725D-02-0.106D-02-0.878D-02-0.961D-01-0.697D-01 0.117D+01
 Gap=     0.398 Goal=   None    Shift=    0.000
 Gap=     0.149 Goal=   None    Shift=    0.000
 RMSDP=3.25D-08 MaxDP=3.41D-07 DE=-3.13D-13 OVMax= 8.90D-07

 Cycle  13  Pass 1  IDiag  1:
 E= -76.8933463427739     Delta-E=       -0.000000000000 Rises=F Damp=F
 DIIS: error= 3.21D-08 at cycle   7 NSaved=   7.
 NSaved= 7 IEnMin= 7 EnMin= -76.8933463427739     IErMin= 7 ErrMin= 3.21D-08
 ErrMax= 3.21D-08  0.00D+00 EMaxC= 1.00D-01 BMatC= 1.85D-14 BMatP= 3.93D-14
 IDIUse=1 WtCom= 1.00D+00 WtEn= 0.00D+00
 Coeff-Com: -0.213D-01 0.254D-02 0.395D-01 0.226D+00-0.766D+00-0.562D+00
 Coeff-Com:  0.208D+01
 Coeff:     -0.213D-01 0.254D-02 0.395D-01 0.226D+00-0.766D+00-0.562D+00
 Coeff:      0.208D+01
 Gap=     0.398 Goal=   None    Shift=    0.000
 Gap=     0.149 Goal=   None    Shift=    0.000
 RMSDP=5.15D-08 MaxDP=5.45D-07 DE=-1.14D-13 OVMax= 1.42D-06

 Cycle  14  Pass 1  IDiag  1:
 E= -76.8933463427741     Delta-E=       -0.000000000000 Rises=F Damp=F
 DIIS: error= 9.58D-09 at cycle   8 NSaved=   8.
 NSaved= 8 IEnMin= 8 EnMin= -76.8933463427741     IErMin= 8 ErrMin= 9.58D-09
 ErrMax= 9.58D-09  0.00D+00 EMaxC= 1.00D-01 BMatC= 1.89D-15 BMatP= 1.85D-14
 IDIUse=1 WtCom= 1.00D+00 WtEn= 0.00D+00
 Coeff-Com: -0.783D-03-0.394D-03-0.120D-02 0.142D-01 0.570D-01-0.277D+00
 Coeff-Com: -0.122D+00 0.133D+01
 Coeff:     -0.783D-03-0.394D-03-0.120D-02 0.142D-01 0.570D-01-0.277D+00
 Coeff:     -0.122D+00 0.133D+01
 Gap=     0.398 Goal=   None    Shift=    0.000
 Gap=     0.149 Goal=   None    Shift=    0.000
 RMSDP=2.07D-08 MaxDP=2.19D-07 DE=-1.71D-13 OVMax= 5.71D-07

 Cycle  15  Pass 1  IDiag  1:
 E= -76.8933463427741     Delta-E=        0.000000000000 Rises=F Damp=F
 DIIS: error= 9.72D-10 at cycle   9 NSaved=   9.
 NSaved= 9 IEnMin= 8 EnMin= -76.8933463427741     IErMin= 9 ErrMin= 9.72D-10
 ErrMax= 9.72D-10  0.00D+00 EMaxC= 1.00D-01 BMatC= 5.48D-17 BMatP= 1.89D-15
 IDIUse=1 WtCom= 1.00D+00 WtEn= 0.00D+00
 Coeff-Com:  0.746D-03-0.191D-03-0.132D-02-0.705D-02 0.340D-01-0.677D-03
 Coeff-Com: -0.887D-01 0.939D-01 0.969D+00
 Coeff:      0.746D-03-0.191D-03-0.132D-02-0.705D-02 0.340D-01-0.677D-03
 Coeff:     -0.887D-01 0.939D-01 0.969D+00
 Gap=     0.398 Goal=   None    Shift=    0.000
 Gap=     0.149 Goal=   None    Shift=    0.000
 RMSDP=1.14D-09 MaxDP=1.14D-08 DE= 0.00D+00 OVMax= 2.97D-08

 SCF Done:  E(UB3LYP) =  -76.8933463428     A.U. after   15 cycles
            NFock= 15  Conv=0.11D-08     -V/T= 2.0057
 <Sx>= 0.0000 <Sy>= 0.0000 <Sz>= 0.5000 <S**2>= 0.7586 S= 0.5043
 <L.S>= 0.000000000000E+00
 KE= 7.646045016881D+01 PE=-2.029262050020D+02 EE= 3.888484663451D+01
 Annihilation of the first spin contaminant:
 S**2 before annihilation     0.7586,   after     0.7500
 Leave Link  502 at Tue Oct  6 20:45:50 2020, MaxMem=  2684354560 cpu:              17.5 elap:               1.9
 (Enter /udrive/faculty/rpeverati/g16/g16/l508.exe)
 QCSCF skips out because SCF is already converged.
 Leave Link  508 at Tue Oct  6 20:45:51 2020, MaxMem=  2684354560 cpu:               0.8 elap:               0.4
 (Enter /udrive/faculty/rpeverati/g16/g16/l701.exe)
 ... and contract with generalized density number  0.
 Compute integral first derivatives.
 R6Disp: Adding Grimme-D3(BJ) dispersion energy 1st derivatives to the gradient.
 Leave Link  701 at Tue Oct  6 20:45:51 2020, MaxMem=  2684354560 cpu:               2.2 elap:               0.3
 (Enter /udrive/faculty/rpeverati/g16/g16/l702.exe)
 L702 exits ... SP integral derivatives will be done elsewhere.
 Leave Link  702 at Tue Oct  6 20:45:52 2020, MaxMem=  2684354560 cpu:               0.7 elap:               0.4
 (Enter /udrive/faculty/rpeverati/g16/g16/l703.exe)
 Integral derivatives from FoFJK, PRISM(SPDF).
 Compute integral first derivatives, UseDBF=F ICtDFT=           0.
 Calling FoFJK, ICntrl=      2127 FMM=F ISym2X=0 I1Cent= 0 IOpClX= 1 NMat=1 NMatS=1 NMatT=0.
 FoFJK:  IHMeth= 1 ICntrl=    2127 DoSepK=F KAlg= 0 I1Cent=           0 FoldK=F
 IRaf=         0 NMat=       1 IRICut=       1 DoRegI=T DoRafI=F ISym2E= 0 IDoP0=0 IntGTp=1.
 FoFCou: FMM=F IPFlag=           0 FMFlag=      100000 FMFlg1=         800
         NFxFlg=           0 DoJE=F BraDBF=F KetDBF=F FulRan=T
         wScrn=  0.000000 ICntrl=      2127 IOpCl=  1 I1Cent=           0 NGrid=           0
         NMat0=    1 NMatS0=      1 NMatT0=    0 NMatD0=    1 NMtDS0=    0 NMtDT0=    0
 Symmetry not used in FoFCou.
 Leave Link  703 at Tue Oct  6 20:45:53 2020, MaxMem=  2684354560 cpu:               4.2 elap:               0.7
 (Enter /udrive/faculty/rpeverati/g16/g16/l716.exe)
 Dipole        = 1.45640263D-01 6.50884837D-01-2.82364494D-05
 ***** Axes restored to original set *****
 -------------------------------------------------------------------
 Center     Atomic                   Forces (Hartrees/Bohr)
 Number     Number              X              Y              Z
 -------------------------------------------------------------------
      1        8          -0.000005843   -0.000443222    0.000000105
      2        1          -0.000067701    0.000428266   -0.000000037
      3        1          -0.000241767   -0.000047728   -0.000000155
      4        1           0.000315312    0.000062684    0.000000087
 -------------------------------------------------------------------
 Cartesian Forces:  Max     0.000443222 RMS     0.000213806
 Leave Link  716 at Tue Oct  6 20:45:54 2020, MaxMem=  2684354560 cpu:               1.0 elap:               0.4
 (Enter /udrive/faculty/rpeverati/g16/g16/l103.exe)

 GradGradGradGradGradGradGradGradGradGradGradGradGradGradGradGradGradGrad
 Berny optimization.
 Optmz: redundant internal coordinate code flag= 1
 Red2BG:  D1=  3.34D-01 OD1=  3.25D-02 B2RMS=  0.00D+00 IAprox=0
 FormGI is forming the generalized inverse of G from B-inverse, IUseBI=4.
 Internal  Forces:  Max     0.000433476 RMS     0.000222556
 Search for a saddle point.
 Step number   2 out of a maximum of   50
 All quantities printed in internal units (Hartrees-Bohrs-Radians)
 Swapping is turned off.
 Update second derivatives using D2CorX and points    1    2
 The second derivative matrix:
                          R1        R2        R3        A1        A2
           R1           0.51791
           R2          -0.00339   0.01442
           R3          -0.00236   0.08921   0.17470
           A1           0.00383   0.01056  -0.00416   0.10483
           A2          -0.00277   0.00276   0.00115   0.00645   0.01943
           A3           0.00002   0.00001   0.00001  -0.00001  -0.00000
                          A3
           A3           0.00354
 ITU=  0  0
 Eigenvectors of the second derivative matrix:
                           1         2         3         4         5
     Eigenvalues --    -0.02640   0.00354   0.01893   0.10628   0.21447
   1         R1         0.00433   0.00005  -0.00617   0.00833   0.01168
   2         R2         0.90977  -0.00014  -0.01914  -0.07675   0.40742
   3         R3        -0.40509   0.00014   0.02030   0.04118   0.91308
   4         A1        -0.08458  -0.00010   0.07844  -0.99327   0.00562
   5         A2        -0.03241  -0.00014  -0.99651  -0.07592   0.01114
   6         A3        -0.00017  -1.00000   0.00014   0.00013   0.00007
                           6
     Eigenvalues --     0.51801
   1         R1         0.99987
   2         R2        -0.00818
   3         R3        -0.00913
   4         A1         0.00906
   5         A2        -0.00551
   6         A3         0.00005
 RLam0= 1.40D-07.
 Iter=   1 RLamda= 0.00000000D+00 Sum=-8.88273295D-07.
 Iter=   2 RLamda=-8.88273295D-07 Sum=-8.88269445D-07.
 RFO step:  Lambda0=1.401490480D-07 Lambda=-8.88273295D-07.
 Linear search not attempted -- option 19 set.
 Iteration  1 RMS(Cart)=  0.00130135 RMS(Int)=  0.00000033
 Iteration  2 RMS(Cart)=  0.00000030 RMS(Int)=  0.00000000
 ITry= 1 IFail=0 DXMaxC= 1.84D-03 DCOld= 1.00D+10 DXMaxT= 1.00D-01 DXLimC= 3.00D+00 Rises=F
 Variable       Old X    -DE/DX   Delta X   Delta X   Delta X     New X
                                 (Linear)    (Quad)   (Total)
    R1        1.85116   0.00043   0.00000   0.00087   0.00087   1.85203
    R2        2.46346   0.00007   0.00000   0.00272   0.00272   2.46618
    R3        1.60775   0.00032   0.00000   0.00044   0.00044   1.60820
    A1        1.74158  -0.00001   0.00000  -0.00048  -0.00048   1.74109
    A2        2.90478   0.00002   0.00000   0.00104   0.00104   2.90581
    A3        3.14162  -0.00000   0.00000  -0.00005  -0.00005   3.14158
         Item               Value     Threshold  Converged?
 Maximum Force            0.000433     0.000450     YES
 RMS     Force            0.000223     0.000300     YES
 Maximum Displacement     0.001845     0.001800     NO 
 RMS     Displacement     0.001301     0.001200     NO 
 Predicted change in Energy=-3.740618D-07
 Lowest energy point so far.  Saving SCF results.
 Largest change from initial coordinates is atom    2       0.018 Angstoms.
 GradGradGradGradGradGradGradGradGradGradGradGradGradGradGradGradGradGrad

 Leave Link  103 at Tue Oct  6 20:45:54 2020, MaxMem=  2684354560 cpu:               1.6 elap:               0.4
 (Enter /udrive/faculty/rpeverati/g16/g16/l202.exe)
                          Input orientation:                          
 ---------------------------------------------------------------------
 Center     Atomic      Atomic             Coordinates (Angstroms)
 Number     Number       Type             X           Y           Z
 ---------------------------------------------------------------------
      1          8           0       -0.289936   -0.105075    0.000047
      2          1           0       -0.459563    0.860184    0.000003
      3          1           0        1.015101   -0.100298    0.000013
      4          1           0        1.841843    0.101528   -0.000009
 ---------------------------------------------------------------------
                    Distance matrix (angstroms):
                    1          2          3          4
     1  O    0.000000
     2  H    0.980051   0.000000
     3  H    1.305045   1.759875   0.000000
     4  H    2.141766   2.423227   0.851020   0.000000
 Stoichiometry    H3O(2)
 Framework group  C1[X(H3O)]
 Deg. of freedom     6
 Full point group                 C1      NOp   1
 RotChk:  IX=2 Diff= 3.62D-05
 Largest Abelian subgroup         C1      NOp   1
 Largest concise Abelian subgroup C1      NOp   1
                         Standard orientation:                         
 ---------------------------------------------------------------------
 Center     Atomic      Atomic             Coordinates (Angstroms)
 Number     Number       Type             X           Y           Z
 ---------------------------------------------------------------------
      1          8           0       -0.295387   -0.111388    0.000012
      2          1           0       -0.479403    0.851232   -0.000032
      3          1           0        1.009433   -0.087134   -0.000022
      4          1           0        1.833070    0.127009   -0.000044
 ---------------------------------------------------------------------
 Rotational constants (GHZ):         557.3192572          87.7895796          75.8427423
 Leave Link  202 at Tue Oct  6 20:45:55 2020, MaxMem=  2684354560 cpu:               1.1 elap:               0.5
 (Enter /udrive/faculty/rpeverati/g16/g16/l301.exe)
 Standard basis: 6-31G(d) (5D, 7F)
 Ernie: Thresh=  0.10000D-02 Tol=  0.10000D-05 Strict=F.
 There are    21 symmetry adapted cartesian basis functions of A   symmetry.
 There are    20 symmetry adapted basis functions of A   symmetry.
    20 basis functions,    40 primitive gaussians,    21 cartesian basis functions
     6 alpha electrons        5 beta electrons
       nuclear repulsion energy        10.6809589367 Hartrees.
 IExCor=  402 DFT=T Ex+Corr=B3LYP ExCW=0 ScaHFX=  0.200000
 ScaDFX=  0.800000  0.720000  1.000000  0.810000 ScalE2=  1.000000  1.000000
 IRadAn=      5 IRanWt=     -1 IRanGd=            0 ICorTp=0 IEmpDi=141
 NAtoms=    4 NActive=    4 NUniq=    4 SFac= 1.00D+00 NAtFMM=   60 NAOKFM=F Big=F
 Integral buffers will be    131072 words long.
 Raffenetti 2 integral format.
 Two-electron integral symmetry is turned on.
 R6Disp:  Grimme-D3(BJ) Dispersion energy=       -0.0011884645 Hartrees.
 Nuclear repulsion after empirical dispersion term =       10.6797704722 Hartrees.
 Leave Link  301 at Tue Oct  6 20:45:56 2020, MaxMem=  2684354560 cpu:               1.6 elap:               0.5
 (Enter /udrive/faculty/rpeverati/g16/g16/l302.exe)
 NPDir=0 NMtPBC=     1 NCelOv=     1 NCel=       1 NClECP=     1 NCelD=      1
         NCelK=      1 NCelE2=     1 NClLst=     1 CellRange=     0.0.
 One-electron integrals computed using PRISM.
 One-electron integral symmetry used in STVInt
 NBasis=    20 RedAO= T EigKep=  4.18D-02  NBF=    20
 NBsUse=    20 1.00D-06 EigRej= -1.00D+00 NBFU=    20
 Precomputing XC quadrature grid using
 IXCGrd= 4 IRadAn=           5 IRanWt=          -1 IRanGd=           0 AccXCQ= 0.00D+00.
 Generated NRdTot=       0 NPtTot=           0 NUsed=           0 NTot=          32
 NSgBfM=    21    21    21    21    21 MxSgAt=     4 MxSgA2=     4.
 Leave Link  302 at Tue Oct  6 20:45:57 2020, MaxMem=  2684354560 cpu:               2.8 elap:               0.5
 (Enter /udrive/faculty/rpeverati/g16/g16/l303.exe)
 DipDrv:  MaxL=1.
 Leave Link  303 at Tue Oct  6 20:45:58 2020, MaxMem=  2684354560 cpu:               1.4 elap:               0.8
 (Enter /udrive/faculty/rpeverati/g16/g16/l401.exe)
 Initial guess from the checkpoint file:  "MN_79_RKT02_BH76_B3LYP_631Gs.chk"
 SCF N**3 symmetry information disabled.
 B after Tr=    -0.000000    0.000000   -0.000000
         Rot=    1.000000    0.000003   -0.000001    0.000034 Ang=   0.00 deg.
 Guess basis will be translated and rotated to current coordinates.
 JPrj=2 DoOrth=T DoCkMO=T.
 Initial guess <Sx>= 0.0000 <Sy>= 0.0000 <Sz>= 0.5000 <S**2>= 0.7586 S= 0.5043
 Leave Link  401 at Tue Oct  6 20:45:58 2020, MaxMem=  2684354560 cpu:               1.2 elap:               0.5
 (Enter /udrive/faculty/rpeverati/g16/g16/l502.exe)
 Keep R1 and R2 ints in memory in canonical form, NReq=10386182.
 FoFCou: FMM=F IPFlag=           0 FMFlag=           0 FMFlg1=           0
         NFxFlg=           0 DoJE=F BraDBF=F KetDBF=F FulRan=T
         wScrn=  0.000000 ICntrl=       600 IOpCl=  0 I1Cent=           0 NGrid=           0
         NMat0=    1 NMatS0=    210 NMatT0=    0 NMatD0=    1 NMtDS0=    0 NMtDT0=    0
 Symmetry not used in FoFCou.
 Two-electron integral symmetry not used.
 UHF open shell SCF:
 Using DIIS extrapolation, IDIIS=  1040.
 NGot=  2684354560 LenX=  2684308680 LenY=  2684307798
 Requested convergence on RMS density matrix=1.00D-08 within 120 cycles.
 Requested convergence on MAX density matrix=1.00D-06.
 Requested convergence on             energy=1.00D-06.
 No special actions if energy rises.

 Cycle   1  Pass 1  IDiag  1:
 E= -76.8933462002913    
 DIIS: error= 9.73D-05 at cycle   1 NSaved=   1.
 NSaved= 1 IEnMin= 1 EnMin= -76.8933462002913     IErMin= 1 ErrMin= 9.73D-05
 ErrMax= 9.73D-05  0.00D+00 EMaxC= 1.00D-01 BMatC= 9.56D-07 BMatP= 9.56D-07
 IDIUse=1 WtCom= 1.00D+00 WtEn= 0.00D+00
 Coeff-Com:  0.100D+01
 Coeff:      0.100D+01
 Gap=     0.659 Goal=   None    Shift=    0.000
 Gap=     0.483 Goal=   None    Shift=    0.000
 RMSDP=4.27D-05 MaxDP=2.95D-04              OVMax= 6.65D-04

 Cycle   2  Pass 1  IDiag  1:
 E= -76.8933466009258     Delta-E=       -0.000000400634 Rises=F Damp=F
 DIIS: error= 1.17D-04 at cycle   2 NSaved=   2.
 NSaved= 2 IEnMin= 2 EnMin= -76.8933466009258     IErMin= 1 ErrMin= 9.73D-05
 ErrMax= 1.17D-04  0.00D+00 EMaxC= 1.00D-01 BMatC= 5.99D-07 BMatP= 9.56D-07
 IDIUse=3 WtCom= 9.99D-01 WtEn= 1.17D-03
 Coeff-Com:  0.402D+00 0.598D+00
 Coeff-En:   0.000D+00 0.100D+01
 Coeff:      0.402D+00 0.598D+00
 Gap=     0.398 Goal=   None    Shift=    0.000
 Gap=     0.149 Goal=   None    Shift=    0.000
 RMSDP=2.39D-05 MaxDP=1.64D-04 DE=-4.01D-07 OVMax= 2.13D-04

 Cycle   3  Pass 1  IDiag  1:
 E= -76.8933466933560     Delta-E=       -0.000000092430 Rises=F Damp=F
 DIIS: error= 5.05D-05 at cycle   3 NSaved=   3.
 NSaved= 3 IEnMin= 3 EnMin= -76.8933466933560     IErMin= 3 ErrMin= 5.05D-05
 ErrMax= 5.05D-05  0.00D+00 EMaxC= 1.00D-01 BMatC= 1.65D-07 BMatP= 5.99D-07
 IDIUse=1 WtCom= 1.00D+00 WtEn= 0.00D+00
 Coeff-Com: -0.483D-01 0.342D+00 0.706D+00
 Coeff:     -0.483D-01 0.342D+00 0.706D+00
 Gap=     0.398 Goal=   None    Shift=    0.000
 Gap=     0.149 Goal=   None    Shift=    0.000
 RMSDP=9.01D-06 MaxDP=7.07D-05 DE=-9.24D-08 OVMax= 1.86D-04

 Cycle   4  Pass 1  IDiag  1:
 E= -76.8933467381037     Delta-E=       -0.000000044748 Rises=F Damp=F
 DIIS: error= 1.01D-05 at cycle   4 NSaved=   4.
 NSaved= 4 IEnMin= 4 EnMin= -76.8933467381037     IErMin= 4 ErrMin= 1.01D-05
 ErrMax= 1.01D-05  0.00D+00 EMaxC= 1.00D-01 BMatC= 5.03D-09 BMatP= 1.65D-07
 IDIUse=1 WtCom= 1.00D+00 WtEn= 0.00D+00
 Coeff-Com: -0.240D-01-0.222D-01 0.933D-01 0.953D+00
 Coeff:     -0.240D-01-0.222D-01 0.933D-01 0.953D+00
 Gap=     0.398 Goal=   None    Shift=    0.000
 Gap=     0.149 Goal=   None    Shift=    0.000
 RMSDP=2.96D-06 MaxDP=2.26D-05 DE=-4.47D-08 OVMax= 3.13D-05

 Cycle   5  Pass 1  IDiag  1:
 E= -76.8933467402221     Delta-E=       -0.000000002118 Rises=F Damp=F
 DIIS: error= 3.71D-06 at cycle   5 NSaved=   5.
 NSaved= 5 IEnMin= 5 EnMin= -76.8933467402221     IErMin= 5 ErrMin= 3.71D-06
 ErrMax= 3.71D-06  0.00D+00 EMaxC= 1.00D-01 BMatC= 3.26D-10 BMatP= 5.03D-09
 IDIUse=1 WtCom= 1.00D+00 WtEn= 0.00D+00
 Coeff-Com:  0.757D-02-0.536D-01-0.812D-01-0.229D-02 0.113D+01
 Coeff:      0.757D-02-0.536D-01-0.812D-01-0.229D-02 0.113D+01
 Gap=     0.398 Goal=   None    Shift=    0.000
 Gap=     0.149 Goal=   None    Shift=    0.000
 RMSDP=1.57D-06 MaxDP=1.20D-05 DE=-2.12D-09 OVMax= 1.88D-05

 Cycle   6  Pass 1  IDiag  1:
 E= -76.8933467404718     Delta-E=       -0.000000000250 Rises=F Damp=F
 DIIS: error= 2.74D-07 at cycle   6 NSaved=   6.
 NSaved= 6 IEnMin= 6 EnMin= -76.8933467404718     IErMin= 6 ErrMin= 2.74D-07
 ErrMax= 2.74D-07  0.00D+00 EMaxC= 1.00D-01 BMatC= 8.69D-12 BMatP= 3.26D-10
 IDIUse=1 WtCom= 1.00D+00 WtEn= 0.00D+00
 Coeff-Com:  0.798D-03-0.177D-02-0.504D-02-0.329D-01 0.416D-01 0.997D+00
 Coeff:      0.798D-03-0.177D-02-0.504D-02-0.329D-01 0.416D-01 0.997D+00
 Gap=     0.398 Goal=   None    Shift=    0.000
 Gap=     0.149 Goal=   None    Shift=    0.000
 RMSDP=1.44D-07 MaxDP=8.84D-07 DE=-2.50D-10 OVMax= 1.68D-06

 Cycle   7  Pass 1  IDiag  1:
 E= -76.8933467404761     Delta-E=       -0.000000000004 Rises=F Damp=F
 DIIS: error= 1.12D-07 at cycle   7 NSaved=   7.
 NSaved= 7 IEnMin= 7 EnMin= -76.8933467404761     IErMin= 7 ErrMin= 1.12D-07
 ErrMax= 1.12D-07  0.00D+00 EMaxC= 1.00D-01 BMatC= 8.10D-13 BMatP= 8.69D-12
 IDIUse=1 WtCom= 1.00D+00 WtEn= 0.00D+00
 Coeff-Com: -0.648D-03 0.556D-02 0.818D-02-0.216D-02-0.994D-01 0.105D+00
 Coeff-Com:  0.984D+00
 Coeff:     -0.648D-03 0.556D-02 0.818D-02-0.216D-02-0.994D-01 0.105D+00
 Coeff:      0.984D+00
 Gap=     0.398 Goal=   None    Shift=    0.000
 Gap=     0.149 Goal=   None    Shift=    0.000
 RMSDP=4.42D-08 MaxDP=2.69D-07 DE=-4.26D-12 OVMax= 5.26D-07

 Cycle   8  Pass 1  IDiag  1:
 E= -76.8933467404766     Delta-E=       -0.000000000000 Rises=F Damp=F
 DIIS: error= 2.13D-08 at cycle   8 NSaved=   8.
 NSaved= 8 IEnMin= 8 EnMin= -76.8933467404766     IErMin= 8 ErrMin= 2.13D-08
 ErrMax= 2.13D-08  0.00D+00 EMaxC= 1.00D-01 BMatC= 4.27D-14 BMatP= 8.10D-13
 IDIUse=1 WtCom= 1.00D+00 WtEn= 0.00D+00
 Coeff-Com:  0.443D-04-0.712D-03-0.893D-03 0.766D-03 0.136D-01-0.786D-01
 Coeff-Com: -0.929D-01 0.116D+01
 Coeff:      0.443D-04-0.712D-03-0.893D-03 0.766D-03 0.136D-01-0.786D-01
 Coeff:     -0.929D-01 0.116D+01
 Gap=     0.398 Goal=   None    Shift=    0.000
 Gap=     0.149 Goal=   None    Shift=    0.000
 RMSDP=1.38D-08 MaxDP=8.29D-08 DE=-4.55D-13 OVMax= 2.16D-07

 Cycle   9  Pass 1  IDiag  1:
 E= -76.8933467404765     Delta-E=        0.000000000000 Rises=F Damp=F
 DIIS: error= 9.21D-09 at cycle   9 NSaved=   9.
 NSaved= 9 IEnMin= 8 EnMin= -76.8933467404766     IErMin= 9 ErrMin= 9.21D-09
 ErrMax= 9.21D-09  0.00D+00 EMaxC= 1.00D-01 BMatC= 2.21D-15 BMatP= 4.27D-14
 IDIUse=1 WtCom= 1.00D+00 WtEn= 0.00D+00
 Coeff-Com:  0.182D-04-0.989D-04-0.169D-03-0.849D-04 0.254D-02 0.906D-03
 Coeff-Com: -0.253D-01-0.914D-01 0.111D+01
 Coeff:      0.182D-04-0.989D-04-0.169D-03-0.849D-04 0.254D-02 0.906D-03
 Coeff:     -0.253D-01-0.914D-01 0.111D+01
 Gap=     0.398 Goal=   None    Shift=    0.000
 Gap=     0.149 Goal=   None    Shift=    0.000
[...]
                      A                      A                      A
 Frequencies --   1179.1596              2258.2431              3661.0758
 Red. masses --      1.0655                 1.0275                 1.0666
 Frc consts  --      0.8728                 3.0872                 8.4230
 IR Inten    --    138.2235                94.3488                10.4690
  Atom  AN      X      Y      Z        X      Y      Z        X      Y      Z
     1   8    -0.04  -0.04   0.00    -0.04   0.00   0.00     0.01  -0.06   0.00
     2   1     0.66   0.10  -0.00    -0.01  -0.01   0.00    -0.19   0.98  -0.00
     3   1    -0.12   0.71  -0.00    -0.31  -0.24   0.00    -0.02  -0.01   0.00
     4   1     0.16  -0.11   0.00     0.89   0.24  -0.00     0.01   0.00  -0.00

 -------------------
 - Thermochemistry -
 -------------------
 Temperature   298.150 Kelvin.  Pressure   1.00000 Atm.
 Atom     1 has atomic number  8 and mass  15.99491
 Atom     2 has atomic number  1 and mass   1.00783
 Atom     3 has atomic number  1 and mass   1.00783
 Atom     4 has atomic number  1 and mass   1.00783
 Molecular mass:    19.01839 amu.
 Principal axes and moments of inertia in atomic units:
                           1         2         3
     Eigenvalues --     3.23825  20.55758  23.79583
           X            0.99951  -0.03138   0.00002
           Y            0.03138   0.99951   0.00005
           Z           -0.00002  -0.00005   1.00000
 This molecule is an asymmetric top.
 Rotational symmetry number  1.
 Rotational temperatures (Kelvin)     26.74711     4.21324     3.63988
 Rotational constants (GHZ):         557.31926    87.78958    75.84274
    1 imaginary frequencies ignored.
 Zero-point vibrational energy      49673.9 (Joules/Mol)
                                   11.87234 (Kcal/Mol)
 Warning -- explicit consideration of   1 degrees of freedom as
           vibrations may cause significant error
 Vibrational temperatures:    756.37   979.29  1696.55  3249.11  5267.47
          (Kelvin)
 
 Zero-point correction=                           0.018920 (Hartree/Particle)
 Thermal correction to Energy=                    0.022097
 Thermal correction to Enthalpy=                  0.023041
 Thermal correction to Gibbs Free Energy=        -0.001781
 Sum of electronic and zero-point Energies=            -76.874427
 Sum of electronic and thermal Energies=               -76.871250
 Sum of electronic and thermal Enthalpies=             -76.870305
 Sum of electronic and thermal Free Energies=          -76.895128
 
                     E (Thermal)             CV                S
                      KCal/Mol        Cal/Mol-Kelvin    Cal/Mol-Kelvin
 Total                   13.866              8.245             52.244
 Electronic               0.000              0.000              1.377
 Translational            0.889              2.981             34.771
 Rotational               0.889              2.981             15.124
 Vibrational             12.089              2.283              0.972
 Vibration     1          0.881              1.193              0.597
                       Q            Log10(Q)             Ln(Q)
 Total Bot       0.659707D+01          0.819351          1.886626
 Total V=0       0.332532D+10          9.521834         21.924833
 Vib (Bot)       0.224579D-08         -8.648631        -19.914208
 Vib (Bot)    1  0.305435D+00         -0.515082         -1.186019
 Vib (V=0)       0.113201D+01          0.053852          0.123999
 Vib (V=0)    1  0.108591D+01          0.035794          0.082418
 Electronic      0.200000D+01          0.301030          0.693147
 Translational   0.325998D+07          6.513214         14.997231
 Rotational      0.450544D+03          2.653737          6.110456
 
                                                          TS search on BH76.
                                                             IR Spectrum
 
     3                                                2                                     1                                        
     6                                                2                                     1                6    5                  
     6                                                5                                     7                8    2                  
     1                                                8                                     9                1    6                  
 
     X                                                X                                     X                X    X                  
     X                                                X                                     X                X    X                  
                                                      X                                     X                X    X                  
                                                      X                                     X                X    X                  
                                                      X                                     X                                        
                                                      X                                     X                                        
                                                      X                                     X                                        
                                                      X                                     X                                        
                                                      X                                     X                                        
                                                      X                                     X                                        
                                                      X                                     X                                        
                                                      X                                     X                                        
                                                      X                                     X                                        
                                                      X                                     X                                        
                                                                                            X                                        
                                                                                            X                                        
                                                                                            X                                        
                                                                                            X                                        
                                                                                            X                                        
                                                                                            X                                        
 
 ***** Axes restored to original set *****
 -------------------------------------------------------------------
 Center     Atomic                   Forces (Hartrees/Bohr)
 Number     Number              X              Y              Z
 -------------------------------------------------------------------
      1        8           0.000000295   -0.000029577   -0.000000041
      2        1          -0.000009099    0.000032482    0.000000009
      3        1           0.000011274   -0.000002729    0.000000092
      4        1          -0.000002470   -0.000000176   -0.000000060
 -------------------------------------------------------------------
 Cartesian Forces:  Max     0.000032482 RMS     0.000013396
 Force constants in Cartesian coordinates: 
                1             2             3             4             5 
      1  0.491710D-01
      2 -0.665667D-01  0.484765D+00
      3  0.222432D-05 -0.225082D-04  0.203575D-02
      4 -0.412384D-01  0.593006D-01 -0.195242D-05  0.439407D-01
      5  0.859148D-01 -0.466526D+00  0.211747D-04 -0.803553D-01  0.466200D+00
      6 -0.326978D-05  0.219030D-04 -0.474032D-03  0.290627D-05 -0.213377D-04
      7  0.805164D-01  0.122568D-01 -0.285309D-05 -0.248138D-02 -0.828313D-02
      8  0.228163D-02 -0.193686D-01  0.000000D+00  0.195277D-01 -0.162893D-02
      9 -0.142443D-05  0.000000D+00 -0.393873D-02  0.000000D+00  0.000000D+00
     10 -0.884489D-01 -0.499071D-02  0.258118D-05 -0.220887D-03  0.272358D-02
     11 -0.216298D-01  0.112987D-02  0.000000D+00  0.152697D-02  0.195555D-02
     12  0.246988D-05  0.000000D+00  0.237701D-02  0.000000D+00  0.000000D+00
                6             7             8             9            10 
      6  0.102665D-03
      7  0.000000D+00 -0.147600D-01
      8  0.000000D+00  0.102498D-01  0.396350D-01
      9  0.936294D-03  0.000000D+00 -0.140110D-05  0.755362D-02
     10  0.000000D+00 -0.632751D-01 -0.320592D-01  0.144058D-05  0.151945D+00
     11  0.000000D+00 -0.142235D-01 -0.186374D-01  0.000000D+00  0.343263D-01
     12 -0.564926D-03  0.152518D-05  0.109514D-05 -0.455119D-02 -0.387566D-05
               11            12 
     11  0.155520D-01
     12 -0.111094D-05  0.273910D-02
 FormGI is forming the generalized inverse of G from B-inverse, IUseBI=4.
 Force constants in internal coordinates: 
                1             2             3             4             5 
      1  0.480946D+00
      2 -0.502030D-02  0.106226D-01
      3  0.303695D-02  0.909127D-01  0.160091D+00
      4  0.658957D-02  0.657015D-02 -0.126605D-02  0.100194D+00
      5 -0.155843D-02  0.243144D-02  0.154160D-02  0.515417D-02  0.191520D-01
      6  0.000000D+00  0.000000D+00  0.000000D+00  0.000000D+00  0.000000D+00
                6 
      6  0.376651D-02
 Leave Link  716 at Tue Oct  6 20:46:27 2020, MaxMem=  2684354560 cpu:               2.3 elap:               0.7
 (Enter /udrive/faculty/rpeverati/g16/g16/l103.exe)

 GradGradGradGradGradGradGradGradGradGradGradGradGradGradGradGradGradGrad
 Berny optimization.
 Optmz: redundant internal coordinate code flag= 1
 Red2BG:  D1=  3.34D-01 OD1=  1.65D-15 B2RMS=  0.00D+00 IAprox=1
 Red2BG is reusing G-inverse.
 Internal  Forces:  Max     0.000033525 RMS     0.000014418
 Search for a local minimum.
 Step number   1 out of a maximum of    2
 All quantities printed in internal units (Hartrees-Bohrs-Radians)
 Second derivative matrix not updated -- analytic derivatives used.
 The second derivative matrix:
                          R1        R2        R3        A1        A2
           R1           0.48095
           R2          -0.00502   0.01062
           R3           0.00304   0.09091   0.16009
           A1           0.00659   0.00657  -0.00127   0.10019
           A2          -0.00156   0.00243   0.00154   0.00515   0.01915
           A3           0.00000   0.00000   0.00000  -0.00000  -0.00000
                          A3
           A3           0.00377
 ITU=  0
 Eigenvectors of the second derivative matrix:
                           1         2         3         4         5
     Eigenvalues --    -0.03275   0.00377   0.01881   0.10071   0.20310
   1         R1         0.01189  -0.00000  -0.00458   0.01621  -0.00247
   2         R2         0.90301  -0.00000  -0.01386  -0.03768   0.42764
   3         R3        -0.42602   0.00000   0.02048   0.03727   0.90369
   4         A1        -0.04832  -0.00000   0.06499  -0.99643   0.01671
   5         A2        -0.02449  -0.00000  -0.99757  -0.06370   0.01371
   6         A3        -0.00000  -1.00000   0.00000   0.00000   0.00000
                           6
     Eigenvalues --     0.48113
   1         R1         0.99978
   2         R2        -0.00913
   3         R3         0.00679
   4         A1         0.01707
   5         A2        -0.00321
   6         A3         0.00000
 Eigenvalue     1 is  -3.28D-02 should be greater than     0.000000 Eigenvector:
                          R2        R3        A1        A2        R1
   1                    0.90301  -0.42602  -0.04832  -0.02449   0.01189
                          A3
   1                   -0.00000
 Angle between quadratic step and forces=  59.73 degrees.
 Linear search not attempted -- first point.
 Iteration  1 RMS(Cart)=  0.00010760 RMS(Int)=  0.00000000
 Iteration  2 RMS(Cart)=  0.00000000 RMS(Int)=  0.00000000
 ITry= 1 IFail=0 DXMaxC= 1.74D-04 DCOld= 1.00D+10 DXMaxT= 3.00D-01 DXLimC= 3.00D+00 Rises=F
 Variable       Old X    -DE/DX   Delta X   Delta X   Delta X     New X
                                 (Linear)    (Quad)   (Total)
    R1        1.85203   0.00003   0.00000   0.00007   0.00007   1.85210
    R2        2.46618   0.00001   0.00000   0.00026   0.00026   2.46643
    R3        1.60820  -0.00000   0.00000  -0.00011  -0.00011   1.60808
    A1        1.74109   0.00001   0.00000   0.00005   0.00005   1.74114
    A2        2.90581  -0.00000   0.00000  -0.00005  -0.00005   2.90577
    A3        3.14158   0.00000   0.00000   0.00002   0.00002   3.14159
         Item               Value     Threshold  Converged?
 Maximum Force            0.000034     0.000450     YES
 RMS     Force            0.000014     0.000300     YES
 Maximum Displacement     0.000174     0.001800     YES
 RMS     Displacement     0.000108     0.001200     YES
 Predicted change in Energy=-5.173173D-09
 Optimization completed.
    -- Stationary point found.
                           ----------------------------
                           !   Optimized Parameters   !
                           ! (Angstroms and Degrees)  !
 --------------------------                            --------------------------
 ! Name  Definition              Value          Derivative Info.                !
 --------------------------------------------------------------------------------
 ! R1    R(1,2)                  0.9801         -DE/DX =    0.0                 !
 ! R2    R(1,3)                  1.305          -DE/DX =    0.0                 !
 ! R3    R(3,4)                  0.851          -DE/DX =    0.0                 !
 ! A1    A(2,1,3)               99.7572         -DE/DX =    0.0                 !
 ! A2    L(1,3,4,2,-1)         166.4909         -DE/DX =    0.0                 !
 ! A3    L(1,3,4,2,-2)         179.999          -DE/DX =    0.0                 !
 --------------------------------------------------------------------------------
 GradGradGradGradGradGradGradGradGradGradGradGradGradGradGradGradGradGrad

 Leave Link  103 at Tue Oct  6 20:46:28 2020, MaxMem=  2684354560 cpu:               1.8 elap:               0.5
 (Enter /udrive/faculty/rpeverati/g16/g16/l9999.exe)

 ----------------------------------------------------------------------

 Electric dipole moment (input orientation):
 (Debye = 10**-18 statcoulomb cm , SI units = C m)
                  (au)            (Debye)         (10**-30 SI)
   Tot        0.667124D+00      0.169566D+01      0.565612D+01
   x          0.154866D+00      0.393631D+00      0.131301D+01
   y          0.648900D+00      0.164934D+01      0.550160D+01
   z         -0.369691D-04     -0.939660D-04     -0.313437D-03

 Dipole polarizability, Alpha (input orientation).
 (esu units = cm**3 , SI units = C**2 m**2 J**-1)
 Alpha(0;0):
               (au)            (10**-24 esu)      (10**-40 SI)
   iso        0.105057D+02      0.155679D+01      0.173216D+01
   aniso      0.177731D+02      0.263370D+01      0.293038D+01
   xx         0.220861D+02      0.327282D+01      0.364151D+01
   yx         0.420514D+00      0.623137D-01      0.693334D-01
   yy         0.684581D+01      0.101444D+01      0.112872D+01
   zx        -0.416197D-03     -0.616740D-04     -0.686216D-04
   zy        -0.203946D-03     -0.302216D-04     -0.336261D-04
   zz         0.258526D+01      0.383096D+00      0.426252D+00

 ----------------------------------------------------------------------

 Dipole orientation:
     8         -0.47355418          0.11294490         -0.32032835
     1         -1.18870671          0.28361216          1.37950568
     1          1.85767762         -0.44339257          0.26094826
     1          3.24968224         -0.77560858          0.99460147

 Electric dipole moment (dipole orientation):
 (Debye = 10**-18 statcoulomb cm , SI units = C m)
                  (au)            (Debye)         (10**-30 SI)
   Tot        0.667124D+00      0.169566D+01      0.565612D+01
   x          0.000000D+00      0.000000D+00      0.000000D+00
   y          0.000000D+00      0.000000D+00      0.000000D+00
   z          0.667124D+00      0.169566D+01      0.565612D+01

 Dipole polarizability, Alpha (dipole orientation).
 (esu units = cm**3 , SI units = C**2 m**2 J**-1)
 Alpha(0;0):
               (au)            (10**-24 esu)      (10**-40 SI)
   iso        0.105057D+02      0.155679D+01      0.173216D+01
   aniso      0.177731D+02      0.263370D+01      0.293038D+01
   xx         0.200786D+02      0.297534D+01      0.331051D+01
   yx        -0.417481D+01     -0.618643D+00     -0.688334D+00
   yy         0.358159D+01      0.530736D+00      0.590524D+00
   zx         0.371218D+01      0.550088D+00      0.612056D+00
   zy        -0.885946D+00     -0.131284D+00     -0.146073D+00
   zz         0.785700D+01      0.116429D+01      0.129544D+01

 ----------------------------------------------------------------------

 Test job not archived.
 1\1\GINC-NODE59\Freq\UB3LYP\6-31G(d)\H3O1(2)\RPEVERATI\06-Oct-2020\0\\
 #P Freq B3LYP/6-31G* 5D 7F Integral=UltraFineGrid SCF=(NoSymm,XQC,MaxC
 yc=120) IOp(1/33=1) EmpiricalDispersion=GD3BJ Geom=Check Guess=Read\\T
 S search on BH76.\\0,2\O,-0.2899355098,-0.1050751382,0.0000472441\H,-0
 .4595632501,0.8601844034,0.0000030762\H,1.0151011201,-0.1002979668,0.0
 000125469\H,1.8418427067,0.1015279303,-0.0000088674\\Version=ES64L-G16
 RevA.03\State=2-A\HF=-76.8933467\S2=0.758606\S2-1=0.\S2A=0.750017\RMSD
 =3.451e-09\RMSF=1.340e-05\ZeroPoint=0.0189198\Thermal=0.0220972\Dipole
 =0.1548665,0.6489001,-0.000037\DipoleDeriv=-0.1160246,-0.0746094,-0.00
 00065,-0.0160422,-0.1800011,-0.0000149,-0.0000095,-0.0000129,-0.472969
 6,0.3778447,0.0416013,-0.0000023,-0.025887,0.0660329,0.0000152,0.00000
 06,0.0000135,0.3572942,-0.4614533,0.0254431,0.0000145,0.0403789,0.1305
 877,0.0000001,0.0000135,-0.0000005,0.125876,0.1996331,0.007565,-0.0000
 057,0.0015502,-0.0166195,-0.0000004,-0.0000046,0.,-0.0102006\Polar=22.
 0861113,0.4205139,6.8458059,-0.0004162,-0.0002039,2.5852612\Quadrupole
 =0.3235579,0.5604388,-0.8839967,-0.6167233,0.0000029,-0.0000569\PG=C01
  [X(H3O1)]\NImag=1\\0.04917097,-0.06656668,0.48476491,0.00000222,-0.00
 002251,0.00203575,-0.04123844,0.05930058,-0.00000195,0.04394071,0.0859
 1481,-0.46652615,0.00002117,-0.08035526,0.46619953,-0.00000327,0.00002
 190,-0.00047403,0.00000291,-0.00002134,0.00010266,0.08051639,0.0122568
 1,-0.00000285,-0.00248138,-0.00828313,0.00000051,-0.01475996,0.0022816
 3,-0.01936862,0.00000075,0.01952772,-0.00162893,-0.00000044,0.01024984
 ,0.03963499,-0.00000142,0.00000041,-0.00393873,-0.00000083,0.00000034,
 0.00093629,0.00000082,-0.00000140,0.00755362,-0.08844892,-0.00499071,0
 .00000258,-0.00022089,0.00272358,-0.00000015,-0.06327505,-0.03205918,0
 .00000144,0.15194486,-0.02162976,0.00112987,0.00000058,0.00152697,0.00
 195555,-0.00000012,-0.01422352,-0.01863744,0.00000065,0.03432632,0.015
 55202,0.00000247,0.00000020,0.00237701,-0.00000012,-0.00000018,-0.0005
 6493,0.00000153,0.00000110,-0.00455119,-0.00000388,-0.00000111,0.00273
 910\\-0.00000030,0.00002958,0.00000004,0.00000910,-0.00003248,0.,-0.00
 001127,0.00000273,-0.00000009,0.00000247,0.00000018,0.00000006\\\@


 REPARTEE - WHAT YOU THINK OF AFTER YOU BECOME A DEPARTEE.
 Job cpu time:       0 days  0 hours  1 minutes 25.4 seconds.
 Elapsed time:       0 days  0 hours  0 minutes 14.4 seconds.
 File lengths (MBytes):  RWF=      5 Int=      0 D2E=      0 Chk=      1 Scr=      1
 Normal termination of Gaussian 16 at Tue Oct  6 20:46:28 2020.
