 Entering Gaussian System, Link 0=g16
 Input=MN_88_RKT12_BH76_B3LYP_631Gs.in
 Output=MN_88_RKT12_BH76_B3LYP_631Gs.log
 Initial command:
 /udrive/faculty/rpeverati/g16/g16/l1.exe "/udrive/scratch-directories/gaussian09/rpeverati/Gau-22641.inp" -scrdir="/udrive/scratch-directories/gaussian09/rpeverati/"
 Entering Link 1 = /udrive/faculty/rpeverati/g16/g16/l1.exe PID=     22661.
  
 Copyright (c) 1988,1990,1992,1993,1995,1998,2003,2009,2016,
            Gaussian, Inc.  All Rights Reserved.
  
 This is part of the Gaussian(R) 16 program.  It is based on
 the Gaussian(R) 09 system (copyright 2009, Gaussian, Inc.),
 the Gaussian(R) 03 system (copyright 2003, Gaussian, Inc.),
 the Gaussian(R) 98 system (copyright 1998, Gaussian, Inc.),
 the Gaussian(R) 94 system (copyright 1995, Gaussian, Inc.),
 the Gaussian 92(TM) system (copyright 1992, Gaussian, Inc.),
 the Gaussian 90(TM) system (copyright 1990, Gaussian, Inc.),
 the Gaussian 88(TM) system (copyright 1988, Gaussian, Inc.),
 the Gaussian 86(TM) system (copyright 1986, Carnegie Mellon
 University), and the Gaussian 82(TM) system (copyright 1983,
 Carnegie Mellon University). Gaussian is a federally registered
 trademark of Gaussian, Inc.
  
 This software contains proprietary and confidential information,
 including trade secrets, belonging to Gaussian, Inc.
  
 This software is provided under written license and may be
 used, copied, transmitted, or stored only in accord with that
 written license.
  
 The following legend is applicable only to US Government
 contracts under FAR:
  
                    RESTRICTED RIGHTS LEGEND
  
 Use, reproduction and disclosure by the US Government is
 subject to restrictions as set forth in subparagraphs (a)
 and (c) of the Commercial Computer Software - Restricted
 Rights clause in FAR 52.227-19.
  
 Gaussian, Inc.
 340 Quinnipiac St., Bldg. 40, Wallingford CT 06492
  
  
 ---------------------------------------------------------------
 Warning -- This program may not be used in any manner that
 competes with the business of Gaussian, Inc. or will provide
 assistance to any competitor of Gaussian, Inc.  The licensee
 of this program is prohibited from giving any competitor of
 Gaussian, Inc. access to this program.  By using this program,
 the user acknowledges that Gaussian, Inc. is engaged in the
 business of creating and licensing software in the field of
 computational chemistry and represents and warrants to the
 licensee that it is not a competitor of Gaussian, Inc. and that
 it will not use this program in any manner prohibited above.
 ---------------------------------------------------------------
  

 Cite this work as:
 Gaussian 16, Revision A.03,
 M. J. Frisch, G. W. Trucks, H. B. Schlegel, G. E. Scuseria, 
 M. A. Robb, J. R. Cheeseman, G. Scalmani, V. Barone, 
 G. A. Petersson, H. Nakatsuji, X. Li, M. Caricato, A. V. Marenich, 
 J. Bloino, B. G. Janesko, R. Gomperts, B. Mennucci, H. P. Hratchian, 
 J. V. Ortiz, A. F. Izmaylov, J. L. Sonnenberg, D. Williams-Young, 
 F. Ding, F. Lipparini, F. Egidi, J. Goings, B. Peng, A. Petrone, 
 T. Henderson, D. Ranasinghe, V. G. Zakrzewski, J. Gao, N. Rega, 
 G. Zheng, W. Liang, M. Hada, M. Ehara, K. Toyota, R. Fukuda, 
 J. Hasegawa, M. Ishida, T. Nakajima, Y. Honda, O. Kitao, H. Nakai, 
 T. Vreven, K. Throssell, J. A. Montgomery, Jr., J. E. Peralta, 
 F. Ogliaro, M. J. Bearpark, J. J. Heyd, E. N. Brothers, K. N. Kudin, 
 V. N. Staroverov, T. A. Keith, R. Kobayashi, J. Normand, 
 K. Raghavachari, A. P. Rendell, J. C. Burant, S. S. Iyengar, 
 J. Tomasi, M. Cossi, J. M. Millam, M. Klene, C. Adamo, R. Cammi, 
 J. W. Ochterski, R. L. Martin, K. Morokuma, O. Farkas, 
 J. B. Foresman, and D. J. Fox, Gaussian, Inc., Wallingford CT, 2016.
 
 ******************************************
 Gaussian 16:  ES64L-G16RevA.03 25-Dec-2016
                 6-Oct-2020 
 ******************************************
 %NoSave
 %nproc=12
 Will use up to   12 processors via shared memory.
 %mem=20GB
 %chk=MN_88_RKT12_BH76_B3LYP_631Gs
 ----------------------------------------------------------------------
 #P Opt(TS,MaxCyc=50,NoEigenTest,MaxStep=10,CalcFC) B3LYP/6-31G* 5D 7F 
 Integral=UltraFineGrid SCF=(NoSymm,XQC,MaxCyc=120) IOp(1/33=1) Empiric
 alDispersion=GD3BJ
 ----------------------------------------------------------------------
 1/5=1,6=50,8=10,10=4,11=1,18=20,26=4,33=1,38=1/1,3;
 2/9=110,12=2,17=6,18=5,40=1/2;
 3/5=1,6=6,7=1,8=11,11=2,25=1,30=1,71=2,74=-5,75=-5,124=41,140=1/1,2,3;
 4/9=2/1;
 5/5=2,7=120,8=3,13=1,38=5/2,8;
 8/6=4,10=90,11=11/1;
 11/6=1,8=1,9=11,15=111,16=1/1,2,10;
 10/6=1,13=1/2;
 6/7=2,8=2,9=2,10=2,28=1/1;
 7/10=1,18=20,25=1/1,2,3,16;
 1/5=1,6=50,8=10,10=4,11=1,18=20,26=4,33=1/3(2);
 2/9=110/2;
 99//99;
 2/9=110/2;
 3/5=1,6=6,7=1,8=11,11=2,25=1,30=1,71=1,74=-5,75=-5,124=41/1,2,3;
 4/5=5,9=2,16=3,69=1/1;
 5/5=2,7=120,8=3,13=1,38=5/2,8;
 7//1,2,3,16;
 1/5=1,6=50,8=10,11=1,18=20,26=4,33=1/3(-5);
 2/9=110/2;
 6/7=2,8=2,9=2,10=2,19=2,28=1/1;
 99/9=1/99;
 Leave Link    1 at Tue Oct  6 20:46:34 2020, MaxMem=  2684354560 cpu:               5.6 elap:               0.6
 (Enter /udrive/faculty/rpeverati/g16/g16/l101.exe)
 ONIOM data not found on unit 2.
 ------------------
 TS search on BH76.
 ------------------
 TstMul:  ICh=     0
 TstMul:  Mul=     2
 TstMul:  ICh=     0
 TstMul:  Mul=     2
 Symbolic Z-matrix:
 Charge =  0 Multiplicity = 2
 P                     0.21743   0.00009  -0.11125 
 H                     0.24661   1.03467   0.85217 
 H                     0.26266  -1.02506   0.86162 
 H                    -1.26642  -0.01095  -0.15063 
 H                    -2.50429   0.00003   0.10558 
 
 RdStrC is calling ZToCFu for IStruc=1 NZ=     5.
 PrtBox:  NBox=     1 Levels=  1 BoxLen=    8.00 SMaxX=        5.23
          Shift=            4.732420            1.937080            0.284642
 Box      1 Number                   0 centers from      1 to      5:
 After GenITR:
 ITRead=  0  0  0  0  0
 MicOpt= -1 -1 -1 -1 -1
 Add virtual bond connecting atoms H5         and H4         Dist= 2.39D+00.
 ITRead=  0  0  0  0  0
 MicOpt= -1 -1 -1 -1 -1
 NAtoms=      5 NQM=        5 NQMF=       0 NMMI=      0 NMMIF=      0
                NMic=       0 NMicF=      0.
                    Isotopes and Nuclear Properties:
 (Nuclear quadrupole moments (NQMom) in fm**2, nuclear magnetic moments (NMagM)
  in nuclear magnetons)

  Atom         1           2           3           4           5
 IAtWgt=          31           1           1           1           1
 AtmWgt=  30.9737634   1.0078250   1.0078250   1.0078250   1.0078250
 NucSpn=           1           1           1           1           1
 AtZEff=   0.0000000   0.0000000   0.0000000   0.0000000   0.0000000
 NQMom=    0.0000000   0.0000000   0.0000000   0.0000000   0.0000000
 NMagM=    1.1316000   2.7928460   2.7928460   2.7928460   2.7928460
 AtZNuc=  15.0000000   1.0000000   1.0000000   1.0000000   1.0000000
 No MM parameters found.
 Leave Link  101 at Tue Oct  6 20:46:35 2020, MaxMem=  2684354560 cpu:              14.7 elap:               1.3
 (Enter /udrive/faculty/rpeverati/g16/g16/l103.exe)

 GradGradGradGradGradGradGradGradGradGradGradGradGradGradGradGradGradGrad
 Berny optimization.
 Optmz: redundant internal coordinate code flag= 1
 Initialization pass.
                           ----------------------------
                           !    Initial Parameters    !
                           ! (Angstroms and Degrees)  !
 --------------------------                            --------------------------
 ! Name  Definition              Value          Derivative Info.                !
 --------------------------------------------------------------------------------
 ! R1    R(1,2)                  1.414          calculate D2E/DX2 analytically  !
 ! R2    R(1,3)                  1.414          calculate D2E/DX2 analytically  !
 ! R3    R(1,4)                  1.4844         calculate D2E/DX2 analytically  !
 ! R4    R(4,5)                  1.2642         calculate D2E/DX2 analytically  !
 ! A1    A(2,1,3)               93.4982         calculate D2E/DX2 analytically  !
 ! A2    A(2,1,4)               92.5302         calculate D2E/DX2 analytically  !
 ! A3    A(3,1,4)               92.5698         calculate D2E/DX2 analytically  !
 ! A4    L(1,4,5,2,-1)         169.6976         calculate D2E/DX2 analytically  !
 ! A5    L(1,4,5,2,-2)         191.3441         calculate D2E/DX2 analytically  !
 ! D1    D(2,1,4,3)            -93.619          calculate D2E/DX2 analytically  !
 --------------------------------------------------------------------------------
 Maximum allowed force set to 1.00D+20.
 Trust Radius=1.00D-01 FncErr=1.00D-07 GrdErr=1.00D-06 EigMax=2.50D+02 EigMin=1.00D-04
 Number of steps in this run=     50 maximum allowed number of steps=    100.
 Search for a saddle point of order  1.
 GradGradGradGradGradGradGradGradGradGradGradGradGradGradGradGradGradGrad

 Leave Link  103 at Tue Oct  6 20:46:36 2020, MaxMem=  2684354560 cpu:               1.3 elap:               0.5
 (Enter /udrive/faculty/rpeverati/g16/g16/l202.exe)
                          Input orientation:                          
 ---------------------------------------------------------------------
 Center     Atomic      Atomic             Coordinates (Angstroms)
 Number     Number       Type             X           Y           Z
 ---------------------------------------------------------------------
      1         15           0        0.217429    0.000088   -0.111249
      2          1           0        0.246610    1.034668    0.852166
      3          1           0        0.262661   -1.025059    0.861622
      4          1           0       -1.266416   -0.010952   -0.150626
      5          1           0       -2.504289    0.000029    0.105575
 ---------------------------------------------------------------------
                    Distance matrix (angstroms):
                    1          2          3          4          5
     1  P    0.000000
     2  H    1.413993   0.000000
     3  H    1.414019   2.059811   0.000000
     4  H    1.484409   2.094794   2.095504   0.000000
     5  H    2.730341   3.032379   3.046051   1.264155   0.000000
 Stoichiometry    H4P(2)
 Framework group  C1[X(H4P)]
 Deg. of freedom     9
 Full point group                 C1      NOp   1
 Largest Abelian subgroup         C1      NOp   1
 Largest concise Abelian subgroup C1      NOp   1
                         Standard orientation:                         
 ---------------------------------------------------------------------
 Center     Atomic      Atomic             Coordinates (Angstroms)
 Number     Number       Type             X           Y           Z
 ---------------------------------------------------------------------
      1         15           0        0.217429    0.000088   -0.111249
      2          1           0        0.246611    1.034668    0.852166
      3          1           0        0.262661   -1.025059    0.861622
      4          1           0       -1.266416   -0.010952   -0.150626
      5          1           0       -2.504289    0.000029    0.105575
 ---------------------------------------------------------------------
 Rotational constants (GHZ):         128.2471139          45.9390495          44.5801269
 Leave Link  202 at Tue Oct  6 20:46:37 2020, MaxMem=  2684354560 cpu:               1.1 elap:               0.5
 (Enter /udrive/faculty/rpeverati/g16/g16/l301.exe)
 Standard basis: 6-31G(d) (5D, 7F)
 Ernie: Thresh=  0.10000D-02 Tol=  0.10000D-05 Strict=F.
 There are    27 symmetry adapted cartesian basis functions of A   symmetry.
 There are    26 symmetry adapted basis functions of A   symmetry.
    26 basis functions,    68 primitive gaussians,    27 cartesian basis functions
    10 alpha electrons        9 beta electrons
       nuclear repulsion energy        21.0106367530 Hartrees.
 IExCor=  402 DFT=T Ex+Corr=B3LYP ExCW=0 ScaHFX=  0.200000
 ScaDFX=  0.800000  0.720000  1.000000  0.810000 ScalE2=  1.000000  1.000000
 IRadAn=      5 IRanWt=     -1 IRanGd=            0 ICorTp=0 IEmpDi=141
 NAtoms=    5 NActive=    5 NUniq=    5 SFac= 1.00D+00 NAtFMM=   60 NAOKFM=F Big=F
 Integral buffers will be    131072 words long.
 Raffenetti 2 integral format.
 Two-electron integral symmetry is turned on.
 R6Disp:  Grimme-D3(BJ) Dispersion energy=       -0.0036897357 Hartrees.
 Nuclear repulsion after empirical dispersion term =       21.0069470173 Hartrees.
 Leave Link  301 at Tue Oct  6 20:46:38 2020, MaxMem=  2684354560 cpu:               2.8 elap:               0.7
 (Enter /udrive/faculty/rpeverati/g16/g16/l302.exe)
 NPDir=0 NMtPBC=     1 NCelOv=     1 NCel=       1 NClECP=     1 NCelD=      1
         NCelK=      1 NCelE2=     1 NClLst=     1 CellRange=     0.0.
 One-electron integrals computed using PRISM.
 One-electron integral symmetry used in STVInt
 NBasis=    26 RedAO= T EigKep=  1.28D-02  NBF=    26
 NBsUse=    26 1.00D-06 EigRej= -1.00D+00 NBFU=    26
 Precomputing XC quadrature grid using
 IXCGrd= 4 IRadAn=           5 IRanWt=          -1 IRanGd=           0 AccXCQ= 0.00D+00.
 Generated NRdTot=       0 NPtTot=           0 NUsed=           0 NTot=          32
 NSgBfM=    27    27    27    27    27 MxSgAt=     5 MxSgA2=     5.
 Leave Link  302 at Tue Oct  6 20:46:38 2020, MaxMem=  2684354560 cpu:               4.1 elap:               0.7
 (Enter /udrive/faculty/rpeverati/g16/g16/l303.exe)
 DipDrv:  MaxL=1.
 Leave Link  303 at Tue Oct  6 20:46:39 2020, MaxMem=  2684354560 cpu:               1.2 elap:               0.4
 (Enter /udrive/faculty/rpeverati/g16/g16/l401.exe)
 SCF N**3 symmetry information disabled.
 ExpMin= 9.98D-02 ExpMax= 1.94D+04 ExpMxC= 2.91D+03 IAcc=3 IRadAn=         5 AccDes= 0.00D+00
 Harris functional with IExCor=  402 and IRadAn=       5 diagonalized for initial guess.
 HarFok:  IExCor=  402 AccDes= 0.00D+00 IRadAn=         5 IDoV= 1 UseB2=F ITyADJ=14
 ICtDFT=  3500011 ScaDFX=  1.000000  1.000000  1.000000  1.000000
 FoFCou: FMM=F IPFlag=           0 FMFlag=      100000 FMFlg1=           0
         NFxFlg=           0 DoJE=T BraDBF=F KetDBF=T FulRan=T
         wScrn=  0.000000 ICntrl=       500 IOpCl=  0 I1Cent=   200000004 NGrid=           0
         NMat0=    1 NMatS0=      1 NMatT0=    0 NMatD0=    1 NMtDS0=    0 NMtDT0=    0
 Petite list used in FoFCou.
 Harris En= -343.575125661837    
 JPrj=0 DoOrth=F DoCkMO=F.
 Initial guess <Sx>= 0.0000 <Sy>= 0.0000 <Sz>= 0.5000 <S**2>= 0.7500 S= 0.5000
 Leave Link  401 at Tue Oct  6 20:46:40 2020, MaxMem=  2684354560 cpu:               6.7 elap:               0.9
 (Enter /udrive/faculty/rpeverati/g16/g16/l502.exe)
 Keep R1 and R2 ints in memory in canonical form, NReq=10470186.
 FoFCou: FMM=F IPFlag=           0 FMFlag=           0 FMFlg1=           0
         NFxFlg=           0 DoJE=F BraDBF=F KetDBF=F FulRan=T
         wScrn=  0.000000 ICntrl=       600 IOpCl=  0 I1Cent=           0 NGrid=           0
         NMat0=    1 NMatS0=    351 NMatT0=    0 NMatD0=    1 NMtDS0=    0 NMtDT0=    0
 Symmetry not used in FoFCou.
 Two-electron integral symmetry not used.
 UHF open shell SCF:
 Using DIIS extrapolation, IDIIS=  1040.
 NGot=  2684354560 LenX=  2684228708 LenY=  2684227538
 Requested convergence on RMS density matrix=1.00D-08 within 120 cycles.
 Requested convergence on MAX density matrix=1.00D-06.
 Requested convergence on             energy=1.00D-06.
 No special actions if energy rises.
 Integral accuracy reduced to 1.0D-05 until final iterations.

 Cycle   1  Pass 0  IDiag  1:
 E= -343.629785152926    
 DIIS: error= 1.22D-02 at cycle   1 NSaved=   1.
 NSaved= 1 IEnMin= 1 EnMin= -343.629785152926     IErMin= 1 ErrMin= 1.22D-02
 ErrMax= 1.22D-02  0.00D+00 EMaxC= 1.00D-01 BMatC= 2.82D-02 BMatP= 2.82D-02
 IDIUse=3 WtCom= 8.78D-01 WtEn= 1.22D-01
 Coeff-Com:  0.100D+01
 Coeff-En:   0.100D+01
 Coeff:      0.100D+01
 Gap=     0.255 Goal=   None    Shift=    0.000
 Gap=     0.185 Goal=   None    Shift=    0.000
 GapD=    0.185 DampG=1.000 DampE=0.500 DampFc=0.5000 IDamp=-1.
 Damping current iteration by 5.00D-01
 RMSDP=6.31D-03 MaxDP=3.92D-02              OVMax= 1.16D-01

 Cycle   2  Pass 0  IDiag  1:
 E= -343.635827547851     Delta-E=       -0.006042394925 Rises=F Damp=T
 DIIS: error= 5.69D-03 at cycle   2 NSaved=   2.
 NSaved= 2 IEnMin= 2 EnMin= -343.635827547851     IErMin= 2 ErrMin= 5.69D-03
 ErrMax= 5.69D-03  0.00D+00 EMaxC= 1.00D-01 BMatC= 5.16D-03 BMatP= 2.82D-02
 IDIUse=3 WtCom= 9.43D-01 WtEn= 5.69D-02
 Coeff-Com: -0.467D+00 0.147D+01
 Coeff-En:   0.000D+00 0.100D+01
 Coeff:     -0.441D+00 0.144D+01
 Gap=     0.274 Goal=   None    Shift=    0.000
 Gap=     0.170 Goal=   None    Shift=    0.000
 RMSDP=3.91D-03 MaxDP=4.18D-02 DE=-6.04D-03 OVMax= 3.71D-02

 Cycle   3  Pass 0  IDiag  1:
 E= -343.642100964285     Delta-E=       -0.006273416434 Rises=F Damp=F
 DIIS: error= 2.97D-03 at cycle   3 NSaved=   3.
 NSaved= 3 IEnMin= 3 EnMin= -343.642100964285     IErMin= 3 ErrMin= 2.97D-03
 ErrMax= 2.97D-03  0.00D+00 EMaxC= 1.00D-01 BMatC= 8.47D-04 BMatP= 5.16D-03
 IDIUse=3 WtCom= 9.70D-01 WtEn= 2.97D-02
 Coeff-Com: -0.242D+00 0.488D+00 0.755D+00
 Coeff-En:   0.000D+00 0.000D+00 0.100D+01
 Coeff:     -0.235D+00 0.473D+00 0.762D+00
 Gap=     0.270 Goal=   None    Shift=    0.000
 Gap=     0.180 Goal=   None    Shift=    0.000
 RMSDP=1.26D-03 MaxDP=1.08D-02 DE=-6.27D-03 OVMax= 2.59D-02

 Cycle   4  Pass 0  IDiag  1:
 E= -343.642574550207     Delta-E=       -0.000473585922 Rises=F Damp=F
 DIIS: error= 1.19D-03 at cycle   4 NSaved=   4.
 NSaved= 4 IEnMin= 4 EnMin= -343.642574550207     IErMin= 4 ErrMin= 1.19D-03
 ErrMax= 1.19D-03  0.00D+00 EMaxC= 1.00D-01 BMatC= 1.16D-04 BMatP= 8.47D-04
 IDIUse=3 WtCom= 9.88D-01 WtEn= 1.19D-02
 Coeff-Com: -0.773D-03-0.500D-01 0.238D+00 0.813D+00
 Coeff-En:   0.000D+00 0.000D+00 0.000D+00 0.100D+01
 Coeff:     -0.764D-03-0.494D-01 0.235D+00 0.815D+00
 Gap=     0.272 Goal=   None    Shift=    0.000
 Gap=     0.181 Goal=   None    Shift=    0.000
 RMSDP=5.13D-04 MaxDP=5.85D-03 DE=-4.74D-04 OVMax= 5.38D-03

 Cycle   5  Pass 0  IDiag  1:
 E= -343.642636648449     Delta-E=       -0.000062098242 Rises=F Damp=F
 DIIS: error= 2.48D-04 at cycle   5 NSaved=   5.
 NSaved= 5 IEnMin= 5 EnMin= -343.642636648449     IErMin= 5 ErrMin= 2.48D-04
 ErrMax= 2.48D-04  0.00D+00 EMaxC= 1.00D-01 BMatC= 5.76D-06 BMatP= 1.16D-04
 IDIUse=3 WtCom= 9.98D-01 WtEn= 2.48D-03
 Coeff-Com:  0.395D-01-0.918D-01-0.468D-01 0.821D-01 0.102D+01
 Coeff-En:   0.000D+00 0.000D+00 0.000D+00 0.000D+00 0.100D+01
 Coeff:      0.394D-01-0.916D-01-0.467D-01 0.819D-01 0.102D+01
 Gap=     0.272 Goal=   None    Shift=    0.000
 Gap=     0.181 Goal=   None    Shift=    0.000
 RMSDP=1.76D-04 MaxDP=1.78D-03 DE=-6.21D-05 OVMax= 2.91D-03

 Cycle   6  Pass 0  IDiag  1:
 E= -343.642641910291     Delta-E=       -0.000005261842 Rises=F Damp=F
 DIIS: error= 4.21D-05 at cycle   6 NSaved=   6.
 NSaved= 6 IEnMin= 6 EnMin= -343.642641910291     IErMin= 6 ErrMin= 4.21D-05
 ErrMax= 4.21D-05  0.00D+00 EMaxC= 1.00D-01 BMatC= 1.72D-07 BMatP= 5.76D-06
 IDIUse=1 WtCom= 1.00D+00 WtEn= 0.00D+00
 Coeff-Com:  0.137D-02-0.142D-02-0.132D-02-0.147D-01 0.210D-01 0.995D+00
 Coeff:      0.137D-02-0.142D-02-0.132D-02-0.147D-01 0.210D-01 0.995D+00
 Gap=     0.272 Goal=   None    Shift=    0.000
 Gap=     0.181 Goal=   None    Shift=    0.000
 RMSDP=2.64D-05 MaxDP=2.01D-04 DE=-5.26D-06 OVMax= 5.05D-04

 Cycle   7  Pass 0  IDiag  1:
 E= -343.642642047773     Delta-E=       -0.000000137482 Rises=F Damp=F
 DIIS: error= 2.42D-05 at cycle   7 NSaved=   7.
 NSaved= 7 IEnMin= 7 EnMin= -343.642642047773     IErMin= 7 ErrMin= 2.42D-05
 ErrMax= 2.42D-05  0.00D+00 EMaxC= 1.00D-01 BMatC= 4.35D-08 BMatP= 1.72D-07
 IDIUse=1 WtCom= 1.00D+00 WtEn= 0.00D+00
 Coeff-Com: -0.452D-02 0.109D-01 0.631D-02-0.142D-01-0.126D+00 0.284D+00
 Coeff-Com:  0.844D+00
 Coeff:     -0.452D-02 0.109D-01 0.631D-02-0.142D-01-0.126D+00 0.284D+00
 Coeff:      0.844D+00
 Gap=     0.272 Goal=   None    Shift=    0.000
 Gap=     0.181 Goal=   None    Shift=    0.000
 RMSDP=1.27D-05 MaxDP=1.03D-04 DE=-1.37D-07 OVMax= 1.61D-04

 Cycle   8  Pass 0  IDiag  1:
 E= -343.642642079424     Delta-E=       -0.000000031650 Rises=F Damp=F
 DIIS: error= 4.36D-06 at cycle   8 NSaved=   8.
 NSaved= 8 IEnMin= 8 EnMin= -343.642642079424     IErMin= 8 ErrMin= 4.36D-06
 ErrMax= 4.36D-06  0.00D+00 EMaxC= 1.00D-01 BMatC= 1.84D-09 BMatP= 4.35D-08
 IDIUse=1 WtCom= 1.00D+00 WtEn= 0.00D+00
 Coeff-Com: -0.191D-03 0.278D-03 0.216D-03 0.755D-03-0.325D-02-0.945D-01
 Coeff-Com:  0.342D-02 0.109D+01
 Coeff:     -0.191D-03 0.278D-03 0.216D-03 0.755D-03-0.325D-02-0.945D-01
 Coeff:      0.342D-02 0.109D+01
 Gap=     0.272 Goal=   None    Shift=    0.000
 Gap=     0.181 Goal=   None    Shift=    0.000
 RMSDP=4.43D-06 MaxDP=2.93D-05 DE=-3.17D-08 OVMax= 8.78D-05

 Initial convergence to 1.0D-05 achieved.  Increase integral accuracy.
 Cycle   9  Pass 1  IDiag  1:
 E= -343.642640569419     Delta-E=        0.000001510005 Rises=F Damp=F
 DIIS: error= 1.19D-06 at cycle   1 NSaved=   1.
 NSaved= 1 IEnMin= 1 EnMin= -343.642640569419     IErMin= 1 ErrMin= 1.19D-06
 ErrMax= 1.19D-06  0.00D+00 EMaxC= 1.00D-01 BMatC= 1.43D-10 BMatP= 1.43D-10
 IDIUse=1 WtCom= 1.00D+00 WtEn= 0.00D+00
 Coeff-Com:  0.100D+01
 Coeff:      0.100D+01
 Gap=     0.272 Goal=   None    Shift=    0.000
 Gap=     0.181 Goal=   None    Shift=    0.000
 RMSDP=4.43D-06 MaxDP=2.93D-05 DE= 1.51D-06 OVMax= 1.12D-05

 Cycle  10  Pass 1  IDiag  1:
 E= -343.642640569547     Delta-E=       -0.000000000128 Rises=F Damp=F
 DIIS: error= 6.11D-07 at cycle   2 NSaved=   2.
 NSaved= 2 IEnMin= 2 EnMin= -343.642640569547     IErMin= 2 ErrMin= 6.11D-07
 ErrMax= 6.11D-07  0.00D+00 EMaxC= 1.00D-01 BMatC= 2.40D-11 BMatP= 1.43D-10
 IDIUse=1 WtCom= 1.00D+00 WtEn= 0.00D+00
 Coeff-Com:  0.851D-01 0.915D+00
 Coeff:      0.851D-01 0.915D+00
 Gap=     0.272 Goal=   None    Shift=    0.000
 Gap=     0.181 Goal=   None    Shift=    0.000
 RMSDP=3.16D-07 MaxDP=3.26D-06 DE=-1.28D-10 OVMax= 6.37D-06

 Cycle  11  Pass 1  IDiag  1:
 E= -343.642640569566     Delta-E=       -0.000000000019 Rises=F Damp=F
 DIIS: error= 2.93D-07 at cycle   3 NSaved=   3.
 NSaved= 3 IEnMin= 3 EnMin= -343.642640569566     IErMin= 3 ErrMin= 2.93D-07
 ErrMax= 2.93D-07  0.00D+00 EMaxC= 1.00D-01 BMatC= 1.23D-11 BMatP= 2.40D-11
 IDIUse=1 WtCom= 1.00D+00 WtEn= 0.00D+00
 Coeff-Com: -0.137D+00 0.389D+00 0.748D+00
 Coeff:     -0.137D+00 0.389D+00 0.748D+00
 Gap=     0.272 Goal=   None    Shift=    0.000
 Gap=     0.181 Goal=   None    Shift=    0.000
 RMSDP=2.02D-07 MaxDP=2.24D-06 DE=-1.89D-11 OVMax= 2.80D-06

 Cycle  12  Pass 1  IDiag  1:
 E= -343.642640569572     Delta-E=       -0.000000000007 Rises=F Damp=F
 DIIS: error= 7.37D-08 at cycle   4 NSaved=   4.
 NSaved= 4 IEnMin= 4 EnMin= -343.642640569572     IErMin= 4 ErrMin= 7.37D-08
 ErrMax= 7.37D-08  0.00D+00 EMaxC= 1.00D-01 BMatC= 6.47D-13 BMatP= 1.23D-11
 IDIUse=1 WtCom= 1.00D+00 WtEn= 0.00D+00
 Coeff-Com: -0.354D-01-0.729D-01 0.419D-01 0.107D+01
 Coeff:     -0.354D-01-0.729D-01 0.419D-01 0.107D+01
 Gap=     0.272 Goal=   None    Shift=    0.000
 Gap=     0.181 Goal=   None    Shift=    0.000
 RMSDP=8.30D-08 MaxDP=5.29D-07 DE=-6.71D-12 OVMax= 1.30D-06

 Cycle  13  Pass 1  IDiag  1:
 E= -343.642640569575     Delta-E=       -0.000000000003 Rises=F Damp=F
 DIIS: error= 2.72D-08 at cycle   5 NSaved=   5.
 NSaved= 5 IEnMin= 5 EnMin= -343.642640569575     IErMin= 5 ErrMin= 2.72D-08
 ErrMax= 2.72D-08  0.00D+00 EMaxC= 1.00D-01 BMatC= 7.70D-14 BMatP= 6.47D-13
 IDIUse=1 WtCom= 1.00D+00 WtEn= 0.00D+00
 Coeff-Com:  0.302D-02-0.461D-01-0.661D-01 0.255D+00 0.854D+00
 Coeff:      0.302D-02-0.461D-01-0.661D-01 0.255D+00 0.854D+00
 Gap=     0.272 Goal=   None    Shift=    0.000
 Gap=     0.181 Goal=   None    Shift=    0.000
 RMSDP=1.81D-08 MaxDP=1.49D-07 DE=-2.84D-12 OVMax= 3.18D-07

 Cycle  14  Pass 1  IDiag  1:
 E= -343.642640569574     Delta-E=        0.000000000001 Rises=F Damp=F
 DIIS: error= 7.28D-09 at cycle   6 NSaved=   6.
 NSaved= 6 IEnMin= 5 EnMin= -343.642640569575     IErMin= 6 ErrMin= 7.28D-09
 ErrMax= 7.28D-09  0.00D+00 EMaxC= 1.00D-01 BMatC= 5.13D-15 BMatP= 7.70D-14
 IDIUse=1 WtCom= 1.00D+00 WtEn= 0.00D+00
 Coeff-Com:  0.330D-02-0.845D-02-0.244D-01 0.886D-02 0.231D+00 0.789D+00
 Coeff:      0.330D-02-0.845D-02-0.244D-01 0.886D-02 0.231D+00 0.789D+00
 Gap=     0.272 Goal=   None    Shift=    0.000
 Gap=     0.181 Goal=   None    Shift=    0.000
 RMSDP=3.35D-09 MaxDP=2.19D-08 DE= 6.82D-13 OVMax= 3.86D-08

 SCF Done:  E(UB3LYP) =  -343.642640570     A.U. after   14 cycles
            NFock= 14  Conv=0.34D-08     -V/T= 2.0020
 <Sx>= 0.0000 <Sy>= 0.0000 <Sz>= 0.5000 <S**2>= 0.7583 S= 0.5041
 <L.S>= 0.000000000000E+00
 KE= 3.429549144234D+02 PE=-8.587685187761D+02 EE= 1.511640167658D+02
 Annihilation of the first spin contaminant:
 S**2 before annihilation     0.7583,   after     0.7500
 Leave Link  502 at Tue Oct  6 20:46:42 2020, MaxMem=  2684354560 cpu:              18.3 elap:               1.8
 (Enter /udrive/faculty/rpeverati/g16/g16/l508.exe)
 QCSCF skips out because SCF is already converged.
 Leave Link  508 at Tue Oct  6 20:46:43 2020, MaxMem=  2684354560 cpu:               0.2 elap:               0.3
 (Enter /udrive/faculty/rpeverati/g16/g16/l801.exe)
 DoSCS=F DFT=T ScalE2(SS,OS)=  1.000000  1.000000
 Range of M.O.s used for correlation:     1    26
 NBasis=    26 NAE=    10 NBE=     9 NFC=     0 NFV=     0
 NROrb=     26 NOA=    10 NOB=     9 NVA=    16 NVB=    17
 Leave Link  801 at Tue Oct  6 20:46:43 2020, MaxMem=  2684354560 cpu:               1.7 elap:               0.5
 (Enter /udrive/faculty/rpeverati/g16/g16/l1101.exe)
 Using compressed storage, NAtomX=     5.
 Will process      6 centers per pass.
 R6Disp: Adding Grimme-D3(BJ) dispersion energy 1st derivatives to the gradient.
 Leave Link 1101 at Tue Oct  6 20:46:44 2020, MaxMem=  2684354560 cpu:               4.1 elap:               0.6
 (Enter /udrive/faculty/rpeverati/g16/g16/l1102.exe)
 Symmetrizing basis deriv contribution to polar:
 IMax=3 JMax=2 DiffMx= 0.00D+00
 Leave Link 1102 at Tue Oct  6 20:46:45 2020, MaxMem=  2684354560 cpu:               1.9 elap:               0.5
 (Enter /udrive/faculty/rpeverati/g16/g16/l1110.exe)
 Forming Gx(P) for the SCF density, NAtomX=     5.
 Integral derivatives from FoFJK, PRISM(SPDF).
 Do as many integral derivatives as possible in FoFJK.
 G2DrvN: MDV=    2684354074.
 G2DrvN: will do     6 centers at a time, making    1 passes.
 Calling FoFCou, ICntrl=  3107 FMM=F I1Cent=   0 AccDes= 0.00D+00.
 FoFJK:  IHMeth= 1 ICntrl=    3107 DoSepK=F KAlg= 0 I1Cent=           0 FoldK=F
 IRaf=         0 NMat=       1 IRICut=       1 DoRegI=T DoRafI=F ISym2E= 0 IDoP0=0 IntGTp=1.
 FoFCou: FMM=F IPFlag=           0 FMFlag=      100000 FMFlg1=           0
         NFxFlg=           0 DoJE=F BraDBF=F KetDBF=F FulRan=T
         wScrn=  0.000000 ICntrl=      3107 IOpCl=  1 I1Cent=           0 NGrid=           0
         NMat0=    1 NMatS0=      1 NMatT0=    0 NMatD0=    1 NMtDS0=    0 NMtDT0=    0
 Symmetry not used in FoFCou.
 End of G2Drv F.D. properties file   721 does not exist.
 End of G2Drv F.D. properties file   722 does not exist.
 End of G2Drv F.D. properties file   788 does not exist.
 Leave Link 1110 at Tue Oct  6 20:46:47 2020, MaxMem=  2684354560 cpu:              18.4 elap:               1.8
 (Enter /udrive/faculty/rpeverati/g16/g16/l1002.exe)
 Minotr:  UHF open shell wavefunction.
          IDoAtm=11111
          Direct CPHF calculation.
          Differentiating once with respect to nuclear coordinates.
          Requested convergence is 1.0D-08 RMS, and 1.0D-07 maximum.
          Secondary convergence is 1.0D-12 RMS, and 1.0D-12 maximum.
          NewPWx=T KeepS1=F KeepF1=F KeepIn=T MapXYZ=F SortEE=F KeepMc=T.
         1470 words used for storage of precomputed grid.
 Keep R1 and R2 ints in memory in canonical form, NReq=10432648.
 FoFCou: FMM=F IPFlag=           0 FMFlag=           0 FMFlg1=           0
         NFxFlg=           0 DoJE=F BraDBF=F KetDBF=F FulRan=T
         wScrn=  0.000000 ICntrl=       600 IOpCl=  0 I1Cent=           0 NGrid=           0
         NMat0=    1 NMatS0=    351 NMatT0=    0 NMatD0=    1 NMtDS0=    0 NMtDT0=    0
 Symmetry not used in FoFCou.
 Two-electron integral symmetry not used.
          MDV=    2684354560 using IRadAn=       1.
          Solving linear equations simultaneously, MaxMat=       0.
          There are    18 degrees of freedom in the 1st order CPHF.  IDoFFX=6 NUNeed=     0.
     12 vectors produced by pass  0 Test12= 1.74D-15 5.56D-09 XBig12= 1.04D-01 1.71D-01.
 AX will form    12 AO Fock derivatives at one time.
     12 vectors produced by pass  1 Test12= 1.74D-15 5.56D-09 XBig12= 5.37D-03 2.73D-02.
     12 vectors produced by pass  2 Test12= 1.74D-15 5.56D-09 XBig12= 2.54D-04 5.98D-03.
     12 vectors produced by pass  3 Test12= 1.74D-15 5.56D-09 XBig12= 2.18D-06 5.26D-04.
     12 vectors produced by pass  4 Test12= 1.74D-15 5.56D-09 XBig12= 4.47D-09 1.66D-05.
     11 vectors produced by pass  5 Test12= 1.74D-15 5.56D-09 XBig12= 2.40D-11 1.56D-06.
      3 vectors produced by pass  6 Test12= 1.74D-15 5.56D-09 XBig12= 3.39D-14 5.39D-08.
 InvSVY:  IOpt=1 It=  1 EMax= 8.88D-16
 Solved reduced A of dimension    74 with    12 vectors.
 End of Minotr F.D. properties file   721 does not exist.
 End of Minotr F.D. properties file   722 does not exist.
 End of Minotr F.D. properties file   788 does not exist.
 Leave Link 1002 at Tue Oct  6 20:46:49 2020, MaxMem=  2684354560 cpu:              19.9 elap:               2.0
 (Enter /udrive/faculty/rpeverati/g16/g16/l601.exe)
 Copying SCF densities to generalized density rwf, IOpCl= 1 IROHF=0.

 **********************************************************************

            Population analysis using the SCF density.

 **********************************************************************

 Orbital symmetries:
 Alpha Orbitals:
       Occupied  (A) (A) (A) (A) (A) (A) (A) (A) (A) (A)
       Virtual   (A) (A) (A) (A) (A) (A) (A) (A) (A) (A) (A) (A)
                 (A) (A) (A) (A)
 Beta  Orbitals:
       Occupied  (A) (A) (A) (A) (A) (A) (A) (A) (A)
       Virtual   (A) (A) (A) (A) (A) (A) (A) (A) (A) (A) (A) (A)
                 (A) (A) (A) (A) (A)
 The electronic state is 2-A.
 Alpha  occ. eigenvalues --  -77.06749  -6.55790  -4.72029  -4.71822  -4.71485
 Alpha  occ. eigenvalues --   -0.66143  -0.43382  -0.39693  -0.30504  -0.24407
 Alpha virt. eigenvalues --    0.02829   0.03618   0.13082   0.27509   0.28535
 Alpha virt. eigenvalues --    0.32304   0.36272   0.64698   0.65339   0.66892
 Alpha virt. eigenvalues --    0.67100   0.71450   0.80007   0.99753   1.12267
 Alpha virt. eigenvalues --    1.14928
  Beta  occ. eigenvalues --  -77.06576  -6.55610  -4.71715  -4.71579  -4.71247
  Beta  occ. eigenvalues --   -0.65005  -0.40664  -0.39493  -0.28633
  Beta virt. eigenvalues --   -0.10517   0.02963   0.05138   0.14008   0.27685
  Beta virt. eigenvalues --    0.28673   0.34318   0.36995   0.66083   0.66528
  Beta virt. eigenvalues --    0.67242   0.68224   0.74285   0.88646   1.01193
  Beta virt. eigenvalues --    1.12335   1.15055
          Condensed to atoms (all electrons):
               1          2          3          4          5
     1  P   14.156645   0.332518   0.332226   0.265637  -0.079117
     2  H    0.332518   0.674890  -0.026079  -0.022742   0.001753
     3  H    0.332226  -0.026079   0.675050  -0.022473   0.001740
     4  H    0.265637  -0.022742  -0.022473   0.760675   0.063452
     5  H   -0.079117   0.001753   0.001740   0.063452   1.038911
          Atomic-Atomic Spin Densities.
               1          2          3          4          5
     1  P    0.375235  -0.004551  -0.004571   0.056685  -0.089163
     2  H   -0.004551  -0.006623   0.000861  -0.000095   0.001044
     3  H   -0.004571   0.000861  -0.006593  -0.000141   0.001080
     4  H    0.056685  -0.000095  -0.000141  -0.107761  -0.051148
     5  H   -0.089163   0.001044   0.001080  -0.051148   0.925738
 Mulliken charges and spin densities:
               1          2
     1  P   -0.007909   0.333635
     2  H    0.039659  -0.009364
     3  H    0.039537  -0.009364
     4  H   -0.044548  -0.102459
     5  H   -0.026738   0.787551
 Sum of Mulliken charges =   0.00000   1.00000
 Mulliken charges and spin densities with hydrogens summed into heavy atoms:
               1          2
     1  P    0.000000   1.000000
 APT charges:
               1
     1  P   -0.479369
     2  H    0.230636
     3  H    0.230673
     4  H    0.032382
     5  H   -0.014322
 Sum of APT charges =   0.00000
 APT charges with hydrogens summed into heavy atoms:
               1
     1  P    0.000000
 Electronic spatial extent (au):  <R**2>=             82.9680
 Charge=              0.0000 electrons
 Dipole moment (field-independent basis, Debye):
    X=              0.0612    Y=              0.0010    Z=              0.7821  Tot=              0.7845
 Quadrupole moment (field-independent basis, Debye-Ang):
   XX=            -18.2829   YY=            -15.7472   ZZ=            -17.4110
   XY=             -0.0051   XZ=              1.1110   YZ=             -0.0004
 Traceless Quadrupole moment (field-independent basis, Debye-Ang):
   XX=             -1.1358   YY=              1.3998   ZZ=             -0.2640
   XY=             -0.0051   XZ=              1.1110   YZ=             -0.0004
 Octapole moment (field-independent basis, Debye-Ang**2):
  XXX=              7.2399  YYY=             -0.0000  ZZZ=              1.2653  XYY=              1.0710
  XXY=              0.0065  XXZ=              0.6545  XZZ=              0.5728  YZZ=              0.0011
  YYZ=              0.1852  XYZ=              0.0023
 Hexadecapole moment (field-independent basis, Debye-Ang**3):
 XXXX=            -96.5705 YYYY=            -30.6813 ZZZZ=            -33.8711 XXXY=             -0.0097
 XXXZ=              2.6234 YYYX=             -0.0133 YYYZ=              0.0071 ZZZX=              2.1331
 ZZZY=             -0.0072 XXYY=            -19.5991 XXZZ=            -20.2791 YYZZ=            -10.2535
 XXYZ=             -0.0005 YYXZ=              0.6860 ZZXY=             -0.0084
 N-N= 2.100694701733D+01 E-N=-8.587685189096D+02  KE= 3.429549144234D+02
  Exact polarizability:   0.000   0.000   0.000   0.000   0.000   0.000
 Approx polarizability:  60.302  -0.073  30.578  -1.471   0.019  26.522
                          Isotropic Fermi Contact Couplings
        Atom                 a.u.       MegaHertz       Gauss      10(-4) cm-1
     1  P(31)              0.02414      43.72556      15.60237      14.58528
     2  H(1)              -0.00293     -13.09895      -4.67403      -4.36934
     3  H(1)              -0.00295     -13.16750      -4.69849      -4.39221
     4  H(1)              -0.02457    -109.82262     -39.18744     -36.63288
     5  H(1)               0.24879    1112.07469     396.81590     370.94819
 --------------------------------------------------------
       Center         ----  Spin Dipole Couplings  ----
                      3XX-RR        3YY-RR        3ZZ-RR
 --------------------------------------------------------
     1   Atom        1.165111     -0.555095     -0.610016
     2   Atom        0.004669     -0.000133     -0.004536
     3   Atom        0.004669     -0.000391     -0.004278
     4   Atom        0.119341     -0.061544     -0.057798
     5   Atom       -0.013995      0.007468      0.006526
 --------------------------------------------------------
                        XY            XZ            YZ
 --------------------------------------------------------
     1   Atom        0.010965     -0.091536     -0.000889
     2   Atom        0.003689      0.002014      0.011927
     3   Atom       -0.003586      0.002116     -0.011954
     4   Atom       -0.000526     -0.018606      0.000200
     5   Atom        0.000201      0.004348     -0.000041
 --------------------------------------------------------


 ---------------------------------------------------------------------------------
              Anisotropic Spin Dipole Couplings in Principal Axis System
 ---------------------------------------------------------------------------------

       Atom             a.u.   MegaHertz   Gauss  10(-4) cm-1        Axes

              Baa    -0.6147  -132.894   -47.420   -44.329  0.0513  0.0054  0.9987
     1 P(31)  Bbb    -0.5552  -120.017   -42.825   -40.033 -0.0066  1.0000 -0.0051
              Bcc     1.1699   252.911    90.245    84.362  0.9987  0.0064 -0.0514
 
              Baa    -0.0145    -7.736    -2.760    -2.580  0.0439 -0.6448  0.7631
     2 H(1)   Bbb     0.0024     1.284     0.458     0.428  0.8724 -0.3474 -0.3438
              Bcc     0.0121     6.452     2.302     2.152  0.4868  0.6808  0.5473
 
              Baa    -0.0145    -7.722    -2.755    -2.576  0.0385  0.6524  0.7569
     3 H(1)   Bbb     0.0024     1.287     0.459     0.429  0.8730  0.3466 -0.3432
              Bcc     0.0121     6.435     2.296     2.146 -0.4863  0.6740 -0.5561
 
              Baa    -0.0616   -32.844   -11.719   -10.956 -0.0052  0.9969 -0.0786
     4 H(1)   Bbb    -0.0597   -31.863   -11.370   -10.629  0.1033  0.0787  0.9915
              Bcc     0.1213    64.707    23.089    21.584  0.9946 -0.0030 -0.1033
 
              Baa    -0.0149    -7.939    -2.833    -2.648  0.9799 -0.0092 -0.1991
     5 H(1)   Bbb     0.0074     3.954     1.411     1.319  0.1991  0.0064  0.9799
              Bcc     0.0075     3.986     1.422     1.330  0.0077  0.9999 -0.0081
 

 ---------------------------------------------------------------------------------

 No NMR shielding tensors so no spin-rotation constants.
 Leave Link  601 at Tue Oct  6 20:46:50 2020, MaxMem=  2684354560 cpu:               6.0 elap:               0.8
 (Enter /udrive/faculty/rpeverati/g16/g16/l701.exe)
 ... and contract with generalized density number  0.
 Compute integral second derivatives.
 R6Disp: Adding Grimme-D3(BJ) dispersion energy 2nd derivatives to the Hessian.
 Leave Link  701 at Tue Oct  6 20:46:51 2020, MaxMem=  2684354560 cpu:               5.3 elap:               0.8
 (Enter /udrive/faculty/rpeverati/g16/g16/l702.exe)
 L702 exits ... SP integral derivatives will be done elsewhere.
 Leave Link  702 at Tue Oct  6 20:46:52 2020, MaxMem=  2684354560 cpu:               1.1 elap:               0.4
 (Enter /udrive/faculty/rpeverati/g16/g16/l703.exe)
 Integral derivatives from FoFJK, PRISM(SPDF).
 Compute integral second derivatives, UseDBF=F ICtDFT=           0.
 Calling FoFJK, ICntrl=    100147 FMM=F ISym2X=0 I1Cent= 0 IOpClX= 1 NMat=1 NMatS=1 NMatT=0.
 FoFJK:  IHMeth= 1 ICntrl=  100147 DoSepK=F KAlg= 0 I1Cent=           0 FoldK=F
 IRaf=         0 NMat=       1 IRICut=       1 DoRegI=T DoRafI=F ISym2E= 0 IDoP0=0 IntGTp=1.
 FoFCou: FMM=F IPFlag=           0 FMFlag=      100000 FMFlg1=         800
         NFxFlg=           0 DoJE=F BraDBF=F KetDBF=F FulRan=T
         wScrn=  0.000000 ICntrl=    100147 IOpCl=  1 I1Cent=           0 NGrid=           0
         NMat0=    1 NMatS0=      1 NMatT0=    0 NMatD0=    1 NMtDS0=    0 NMtDT0=    0
 Symmetry not used in FoFCou.
 Leave Link  703 at Tue Oct  6 20:46:55 2020, MaxMem=  2684354560 cpu:              26.6 elap:               2.5
 (Enter /udrive/faculty/rpeverati/g16/g16/l716.exe)
 Dipole        = 2.40627068D-02 3.81655932D-04 3.07692405D-01
 Polarizability= 0.00000000D+00 0.00000000D+00 0.00000000D+00
                 0.00000000D+00 0.00000000D+00 0.00000000D+00
 ***** Axes restored to original set *****
 -------------------------------------------------------------------
 Center     Atomic                   Forces (Hartrees/Bohr)
 Number     Number              X              Y              Z
 -------------------------------------------------------------------
      1       15           0.008260969   -0.000067749   -0.006863547
      2        1          -0.000038094    0.003149924    0.003339213
      3        1           0.000003662   -0.003111195    0.003387795
      4        1          -0.012748651    0.000182098    0.001269250
      5        1           0.004522115   -0.000153078   -0.001132710
 -------------------------------------------------------------------
 Cartesian Forces:  Max     0.012748651 RMS     0.004785501
 Force constants in Cartesian coordinates: 
                1             2             3             4             5 
      1  0.172488D+00
      2 -0.825969D-03  0.259291D+00
      3  0.864188D-03  0.438812D-04  0.255240D+00
      4 -0.157877D-01  0.111581D-01  0.498114D-02  0.184731D-01
      5 -0.251818D-02 -0.120510D+00 -0.886585D-01  0.306350D-02  0.135074D+00
      6 -0.902042D-02 -0.113557D+00 -0.121331D+00  0.582808D-02  0.101528D+00
      7 -0.156195D-01 -0.943812D-02  0.364881D-02 -0.707448D-03 -0.355315D-03
      8  0.404400D-02 -0.118746D+00  0.886776D-01  0.578554D-03 -0.143700D-01
      9 -0.107989D-01  0.113357D+00 -0.123186D+00  0.189817D-02 -0.125972D-01
     10 -0.920011D-01 -0.706411D-03 -0.110305D-01 -0.338447D-02 -0.246610D-03
     11 -0.109243D-02 -0.232787D-01 -0.495948D-04 -0.152228D-01 -0.204610D-03
     12  0.909961D-02  0.134684D-03 -0.123648D-01 -0.125350D-01 -0.402738D-03
     13 -0.490800D-01 -0.187619D-03  0.153641D-02  0.140656D-02  0.566129D-04
     14  0.392584D-03  0.324373D-02 -0.133728D-04  0.422595D-03  0.105381D-04
     15  0.985549D-02  0.214208D-04  0.164181D-02 -0.172427D-03  0.130289D-03
                6             7             8             9            10 
      6  0.114510D+00
      7  0.171143D-02  0.185003D-01
      8  0.128499D-01 -0.479970D-02  0.133064D+00
      9  0.947140D-02  0.744391D-02 -0.101579D+00  0.116366D+00
     10  0.149406D-02 -0.353599D-02  0.211861D-03  0.150993D-02  0.484333D-01
     11 -0.123430D-02  0.150483D-01  0.539277D-04  0.122580D-02  0.137118D-02
     12 -0.303330D-02 -0.126664D-01  0.181134D-03 -0.304220D-02  0.199881D-01
     13 -0.131458D-04  0.136270D-02 -0.347155D-04 -0.531367D-04  0.504882D-01
     14  0.412841D-03 -0.455159D-03 -0.201124D-05 -0.405853D-03 -0.630021D-03
     15  0.382408D-03 -0.137710D-03 -0.129263D-03  0.391122D-03 -0.119615D-01
               11            12            13            14            15 
     11  0.317778D-01
     12  0.292643D-04  0.251464D-01
     13 -0.104280D-03 -0.388626D-02 -0.417750D-02
     14 -0.834846D-02  0.576563D-04  0.270001D-03  0.509620D-02
     15  0.288250D-04 -0.670606D-02  0.241614D-02 -0.512717D-04  0.429072D-02
 FormGI is forming the generalized inverse of G from B-inverse, IUseBI=4.
 Force constants in internal coordinates: 
                1             2             3             4             5 
      1  0.226966D+00
      2 -0.546250D-03  0.226920D+00
      3 -0.770086D-03 -0.774095D-03  0.145500D+00
      4  0.110677D-05  0.387327D-04  0.472562D-01 -0.479286D-02
      5  0.405272D-02  0.399869D-02  0.130431D-02  0.000000D+00  0.442782D-01
      6  0.524596D-02  0.234297D-02  0.658509D-02 -0.372511D-02 -0.901305D-02
      7  0.246861D-02  0.529671D-02  0.642680D-02 -0.364618D-02 -0.934112D-02
      8 -0.116380D-02 -0.212739D-03  0.249502D-04  0.105839D-02 -0.126667D-03
      9  0.303819D-03  0.866994D-03 -0.222557D-03 -0.342068D-03 -0.834632D-03
     10 -0.442818D-02 -0.436861D-02 -0.192441D-02  0.348963D-03 -0.435012D-01
                6             7             8             9            10 
      6  0.142706D+00
      7 -0.555900D-02  0.141813D+00
      8 -0.220287D-02  0.111086D-02  0.173417D-01
      9 -0.221932D-02  0.214066D-02  0.395360D-03  0.107952D-01
     10  0.247763D-02  0.294481D-02  0.179817D-03  0.841546D-03  0.433361D-01
 Leave Link  716 at Tue Oct  6 20:46:55 2020, MaxMem=  2684354560 cpu:               1.6 elap:               0.5
 (Enter /udrive/faculty/rpeverati/g16/g16/l103.exe)

 GradGradGradGradGradGradGradGradGradGradGradGradGradGradGradGradGradGrad
 Berny optimization.
 Optmz: redundant internal coordinate code flag= 1
 Red2BG:  D1=  1.68D-01 OD1=  1.24D-15 B2RMS=  0.00D+00 IAprox=1
 Red2BG is reusing G-inverse.
 Internal  Forces:  Max     0.008223096 RMS     0.003636063
 Search for a saddle point.
 Step number   1 out of a maximum of   50
 All quantities printed in internal units (Hartrees-Bohrs-Radians)
 Swapping is turned off.
 Second derivative matrix not updated -- analytic derivatives used.
 The second derivative matrix:
                          R1        R2        R3        R4        A1
           R1           0.22697
           R2          -0.00055   0.22692
           R3          -0.00077  -0.00077   0.14550
           R4           0.00000   0.00004   0.04726  -0.00479
           A1           0.00405   0.00400   0.00130   0.00000   0.04428
           A2           0.00525   0.00234   0.00659  -0.00373  -0.00901
           A3           0.00247   0.00530   0.00643  -0.00365  -0.00934
           A4          -0.00116  -0.00021   0.00002   0.00106  -0.00013
           A5           0.00030   0.00087  -0.00022  -0.00034  -0.00083
           D1          -0.00443  -0.00437  -0.00192   0.00035  -0.04350
                          A2        A3        A4        A5        D1
           A2           0.14271
           A3          -0.00556   0.14181
           A4          -0.00220   0.00111   0.01734
           A5          -0.00222   0.00214   0.00040   0.01080
           D1           0.00248   0.00294   0.00018   0.00084   0.04334
 ITU=  0
 Eigenvectors of the second derivative matrix:
                           1         2         3         4         5
     Eigenvalues --    -0.01884   0.01069   0.01733   0.08380   0.13758
   1         R1         0.00247   0.00232   0.00489  -0.04966   0.04220
   2         R2         0.00253   0.00428   0.00060  -0.04919   0.04316
   3         R3         0.27863  -0.00504  -0.00970  -0.04191   0.27193
   4         R4        -0.95857   0.01076   0.02416  -0.03862   0.12366
   5         A1        -0.00831  -0.01103   0.00338   0.67660   0.20046
   6         A2        -0.03520  -0.01591   0.01942   0.15644  -0.62949
   7         A3        -0.03499   0.01449  -0.00746   0.16865  -0.67176
   8         A4         0.02690   0.04997   0.99818  -0.00523   0.00556
   9         A5        -0.01010  -0.99831   0.04979  -0.01605  -0.00296
  10         D1         0.01166   0.01113  -0.00397  -0.69345  -0.13917
                           6         7         8         9
     Eigenvalues --     0.14784   0.16142   0.22745   0.22760
   1         R1        -0.02679   0.01263  -0.54720   0.83391
   2         R2         0.02439   0.01151  -0.83188  -0.55040
   3         R3        -0.02330  -0.91977   0.00455  -0.00084
   4         R4        -0.00849  -0.25215   0.00256  -0.00066
   5         A1        -0.00026   0.02577  -0.03420   0.00735
   6         A2         0.72325  -0.22260  -0.04799   0.03632
   7         A3        -0.68859  -0.19973  -0.05884  -0.01356
   8         A4        -0.01802  -0.00029   0.00413  -0.00453
   9         A5        -0.02238   0.00229  -0.00390  -0.00161
  10         D1        -0.00184  -0.00579   0.03934  -0.00846
 RLam0= 2.22D-03.
 Iter=   1 RLamda= 0.00000000D+00 Sum=-4.80176048D-04.
 Iter=   2 RLamda=-4.80176048D-04 Sum=-4.78652440D-04.
 Iter=   3 RLamda=-4.78652440D-04 Sum=-4.78657245D-04.
 RFO step:  Lambda0=2.215348537D-03 Lambda=-4.78652440D-04.
 Linear search not attempted -- option 19 set.
 Maximum step size (   0.100) exceeded in Quadratic search.
    -- Step size scaled by   0.304
 Iteration  1 RMS(Cart)=  0.02537515 RMS(Int)=  0.00007287
 Iteration  2 RMS(Cart)=  0.00009533 RMS(Int)=  0.00000108
 Iteration  3 RMS(Cart)=  0.00000001 RMS(Int)=  0.00000108
 ITry= 1 IFail=0 DXMaxC= 7.02D-02 DCOld= 1.00D+10 DXMaxT= 1.00D-01 DXLimC= 3.00D+00 Rises=F
 Variable       Old X    -DE/DX   Delta X   Delta X   Delta X     New X
                                 (Linear)    (Quad)   (Total)
    R1        2.67206   0.00458   0.00000   0.00606   0.00606   2.67812
    R2        2.67211   0.00459   0.00000   0.00605   0.00605   2.67815
    R3        2.80513   0.00822   0.00000  -0.01533  -0.01533   2.78979
    R4        2.38891  -0.00466   0.00000   0.09833   0.09833   2.48724
    A1        1.63185  -0.00041   0.00000  -0.00135  -0.00135   1.63050
    A2        1.61496  -0.00035   0.00000   0.00229   0.00229   1.61725
    A3        1.61565  -0.00038   0.00000   0.00208   0.00208   1.61773
    A4        2.96178   0.00053   0.00000   0.00334   0.00334   2.96512
    A5        3.33959  -0.00007   0.00000   0.00025   0.00025   3.33984
    D1       -1.63396   0.00044   0.00000   0.00114   0.00114  -1.63282
         Item               Value     Threshold  Converged?
 Maximum Force            0.008223     0.000450     NO 
 RMS     Force            0.003636     0.000300     NO 
 Maximum Displacement     0.070156     0.001800     NO 
 RMS     Displacement     0.025397     0.001200     NO 
 Predicted change in Energy= 4.581092D-04
 Lowest energy point so far.  Saving SCF results.
 Largest change from initial coordinates is atom    5       0.037 Angstoms.
 GradGradGradGradGradGradGradGradGradGradGradGradGradGradGradGradGradGrad

 Leave Link  103 at Tue Oct  6 20:46:56 2020, MaxMem=  2684354560 cpu:               2.1 elap:               0.4
 (Enter /udrive/faculty/rpeverati/g16/g16/l202.exe)
                          Input orientation:                          
 ---------------------------------------------------------------------
 Center     Atomic      Atomic             Coordinates (Angstroms)
 Number     Number       Type             X           Y           Z
 ---------------------------------------------------------------------
      1         15           0        0.224336    0.000075   -0.111816
      2          1           0        0.254975    1.036426    0.854357
      3          1           0        0.269398   -1.026667    0.864031
      4          1           0       -1.251300   -0.009955   -0.154814
      5          1           0       -2.541414   -0.001103    0.105730
 ---------------------------------------------------------------------
                    Distance matrix (angstroms):
                    1          2          3          4          5
     1  P    0.000000
     2  H    1.417198   0.000000
     3  H    1.417218   2.063165   0.000000
     4  H    1.476296   2.093371   2.093865   0.000000
     5  H    2.774292   3.075174   3.086659   1.316190   0.000000
 Stoichiometry    H4P(2)
 Framework group  C1[X(H4P)]
 Deg. of freedom     9
 Full point group                 C1      NOp   1
 RotChk:  IX=0 Diff= 1.19D-03
 Largest Abelian subgroup         C1      NOp   1
 Largest concise Abelian subgroup C1      NOp   1
                         Standard orientation:                         
 ---------------------------------------------------------------------
 Center     Atomic      Atomic             Coordinates (Angstroms)
 Number     Number       Type             X           Y           Z
 ---------------------------------------------------------------------
      1         15           0        0.219256    0.000058   -0.111380
      2          1           0        0.250302    1.035728    0.855509
      3          1           0        0.263754   -1.027377    0.863763
      4          1           0       -1.256381   -0.009248   -0.154508
      5          1           0       -2.546512    0.000031    0.105936
 ---------------------------------------------------------------------
 Rotational constants (GHZ):         127.6492026          45.0292904          43.7399759
 Leave Link  202 at Tue Oct  6 20:46:57 2020, MaxMem=  2684354560 cpu:               1.2 elap:               0.4
 (Enter /udrive/faculty/rpeverati/g16/g16/l301.exe)
 Standard basis: 6-31G(d) (5D, 7F)
 Ernie: Thresh=  0.10000D-02 Tol=  0.10000D-05 Strict=F.
 There are    27 symmetry adapted cartesian basis functions of A   symmetry.
 There are    26 symmetry adapted basis functions of A   symmetry.
    26 basis functions,    68 primitive gaussians,    27 cartesian basis functions
    10 alpha electrons        9 beta electrons
       nuclear repulsion energy        20.9472861315 Hartrees.
 IExCor=  402 DFT=T Ex+Corr=B3LYP ExCW=0 ScaHFX=  0.200000
 ScaDFX=  0.800000  0.720000  1.000000  0.810000 ScalE2=  1.000000  1.000000
 IRadAn=      5 IRanWt=     -1 IRanGd=            0 ICorTp=0 IEmpDi=141
 NAtoms=    5 NActive=    5 NUniq=    5 SFac= 1.00D+00 NAtFMM=   60 NAOKFM=F Big=F
 Integral buffers will be    131072 words long.
 Raffenetti 2 integral format.
 Two-electron integral symmetry is turned on.
 R6Disp:  Grimme-D3(BJ) Dispersion energy=       -0.0036631101 Hartrees.
 Nuclear repulsion after empirical dispersion term =       20.9436230215 Hartrees.
 Leave Link  301 at Tue Oct  6 20:46:57 2020, MaxMem=  2684354560 cpu:               2.1 elap:               0.5
 (Enter /udrive/faculty/rpeverati/g16/g16/l302.exe)
 NPDir=0 NMtPBC=     1 NCelOv=     1 NCel=       1 NClECP=     1 NCelD=      1
         NCelK=      1 NCelE2=     1 NClLst=     1 CellRange=     0.0.
 One-electron integrals computed using PRISM.
 One-electron integral symmetry used in STVInt
 NBasis=    26 RedAO= T EigKep=  1.30D-02  NBF=    26
 NBsUse=    26 1.00D-06 EigRej= -1.00D+00 NBFU=    26
 Precomputing XC quadrature grid using
 IXCGrd= 4 IRadAn=           5 IRanWt=          -1 IRanGd=           0 AccXCQ= 0.00D+00.
 Generated NRdTot=       0 NPtTot=           0 NUsed=           0 NTot=          32
 NSgBfM=    27    27    27    27    27 MxSgAt=     5 MxSgA2=     5.
 Leave Link  302 at Tue Oct  6 20:46:58 2020, MaxMem=  2684354560 cpu:               4.1 elap:               0.7
 (Enter /udrive/faculty/rpeverati/g16/g16/l303.exe)
 DipDrv:  MaxL=1.
 Leave Link  303 at Tue Oct  6 20:46:59 2020, MaxMem=  2684354560 cpu:               1.4 elap:               0.4
 (Enter /udrive/faculty/rpeverati/g16/g16/l401.exe)
 Initial guess from the checkpoint file:  "MN_88_RKT12_BH76_B3LYP_631Gs.chk"
 SCF N**3 symmetry information disabled.
 B after Tr=    -0.000000   -0.000000    0.000000
         Rot=    1.000000   -0.000341    0.000471    0.000238 Ang=  -0.07 deg.
 Guess basis will be translated and rotated to current coordinates.
 JPrj=2 DoOrth=T DoCkMO=T.
 Initial guess <Sx>= 0.0000 <Sy>= 0.0000 <Sz>= 0.5000 <S**2>= 0.7585 S= 0.5042
 Generating alternative initial guess.
 ExpMin= 9.98D-02 ExpMax= 1.94D+04 ExpMxC= 2.91D+03 IAcc=2 IRadAn=         4 AccDes= 0.00D+00
 Harris functional with IExCor=  402 and IRadAn=       4 diagonalized for initial guess.
 HarFok:  IExCor=  402 AccDes= 0.00D+00 IRadAn=         4 IDoV= 1 UseB2=F ITyADJ=14
 ICtDFT=  3500011 ScaDFX=  1.000000  1.000000  1.000000  1.000000
 FoFCou: FMM=F IPFlag=           0 FMFlag=      100000 FMFlg1=           0
         NFxFlg=           0 DoJE=T BraDBF=F KetDBF=T FulRan=T
         wScrn=  0.000000 ICntrl=       500 IOpCl=  0 I1Cent=   200000004 NGrid=           0
         NMat0=    1 NMatS0=      1 NMatT0=    0 NMatD0=    1 NMtDS0=    0 NMtDT0=    0
 Petite list used in FoFCou.
 Harris En= -343.571299244744    
 Leave Link  401 at Tue Oct  6 20:47:00 2020, MaxMem=  2684354560 cpu:               7.2 elap:               1.0
 (Enter /udrive/faculty/rpeverati/g16/g16/l502.exe)
 Keep R1 and R2 ints in memory in canonical form, NReq=10470186.
 FoFCou: FMM=F IPFlag=           0 FMFlag=           0 FMFlg1=           0
         NFxFlg=           0 DoJE=F BraDBF=F KetDBF=F FulRan=T
         wScrn=  0.000000 ICntrl=       600 IOpCl=  0 I1Cent=           0 NGrid=           0
         NMat0=    1 NMatS0=    351 NMatT0=    0 NMatD0=    1 NMtDS0=    0 NMtDT0=    0
 Symmetry not used in FoFCou.
 Two-electron integral symmetry not used.
 UHF open shell SCF:
 Using DIIS extrapolation, IDIIS=  1040.
 NGot=  2684354560 LenX=  2684228708 LenY=  2684227538
 Requested convergence on RMS density matrix=1.00D-08 within 120 cycles.
 Requested convergence on MAX density matrix=1.00D-06.
 Requested convergence on             energy=1.00D-06.
 No special actions if energy rises.
 Integral accuracy reduced to 1.0D-05 until final iterations.

 Cycle   1  Pass 0  IDiag  1:
 E= -343.641916924936    
 DIIS: error= 2.76D-03 at cycle   1 NSaved=   1.
 NSaved= 1 IEnMin= 1 EnMin= -343.641916924936     IErMin= 1 ErrMin= 2.76D-03
 ErrMax= 2.76D-03  0.00D+00 EMaxC= 1.00D-01 BMatC= 3.31D-04 BMatP= 3.31D-04
 IDIUse=3 WtCom= 9.72D-01 WtEn= 2.76D-02
 Coeff-Com:  0.100D+01
 Coeff-En:   0.100D+01
 Coeff:      0.100D+01
 Gap=     0.492 Goal=   None    Shift=    0.000
 Gap=     0.435 Goal=   None    Shift=    0.000
 GapD=    0.435 DampG=2.000 DampE=1.000 DampFc=2.0000 IDamp=-1.
 RMSDP=7.67D-04 MaxDP=7.16D-03              OVMax= 1.33D-02

 Cycle   2  Pass 0  IDiag  1:
 E= -343.642155540981     Delta-E=       -0.000238616045 Rises=F Damp=F
 DIIS: error= 8.00D-04 at cycle   2 NSaved=   2.
 NSaved= 2 IEnMin= 2 EnMin= -343.642155540981     IErMin= 2 ErrMin= 8.00D-04
 ErrMax= 8.00D-04  0.00D+00 EMaxC= 1.00D-01 BMatC= 2.53D-05 BMatP= 3.31D-04
 IDIUse=3 WtCom= 9.92D-01 WtEn= 8.00D-03
 Coeff-Com:  0.212D-02 0.998D+00
 Coeff-En:   0.000D+00 0.100D+01
 Coeff:      0.210D-02 0.998D+00
 Gap=     0.277 Goal=   None    Shift=    0.000
 Gap=     0.179 Goal=   None    Shift=    0.000
 RMSDP=4.00D-04 MaxDP=4.52D-03 DE=-2.39D-04 OVMax= 5.78D-03

 Cycle   3  Pass 0  IDiag  1:
 E= -343.642172649094     Delta-E=       -0.000017108113 Rises=F Damp=F
 DIIS: error= 3.71D-04 at cycle   3 NSaved=   3.
 NSaved= 3 IEnMin= 3 EnMin= -343.642172649094     IErMin= 3 ErrMin= 3.71D-04
 ErrMax= 3.71D-04  0.00D+00 EMaxC= 1.00D-01 BMatC= 1.14D-05 BMatP= 2.53D-05
 IDIUse=3 WtCom= 9.96D-01 WtEn= 3.71D-03
 Coeff-Com: -0.576D-01 0.394D+00 0.664D+00
 Coeff-En:   0.000D+00 0.000D+00 0.100D+01
 Coeff:     -0.573D-01 0.392D+00 0.665D+00
 Gap=     0.276 Goal=   None    Shift=    0.000
 Gap=     0.181 Goal=   None    Shift=    0.000
 RMSDP=1.35D-04 MaxDP=1.64D-03 DE=-1.71D-05 OVMax= 2.63D-03

 Cycle   4  Pass 0  IDiag  1:
 E= -343.642179384531     Delta-E=       -0.000006735437 Rises=F Damp=F
 DIIS: error= 1.13D-04 at cycle   4 NSaved=   4.
 NSaved= 4 IEnMin= 4 EnMin= -343.642179384531     IErMin= 4 ErrMin= 1.13D-04
 ErrMax= 1.13D-04  0.00D+00 EMaxC= 1.00D-01 BMatC= 1.11D-06 BMatP= 1.14D-05
 IDIUse=3 WtCom= 9.99D-01 WtEn= 1.13D-03
 Coeff-Com:  0.338D-02-0.183D+00 0.676D-01 0.111D+01
 Coeff-En:   0.000D+00 0.000D+00 0.000D+00 0.100D+01
 Coeff:      0.338D-02-0.183D+00 0.675D-01 0.111D+01
 Gap=     0.276 Goal=   None    Shift=    0.000
 Gap=     0.181 Goal=   None    Shift=    0.000
 RMSDP=8.46D-05 MaxDP=9.53D-04 DE=-6.74D-06 OVMax= 1.13D-03

 Cycle   5  Pass 0  IDiag  1:
 E= -343.642180439018     Delta-E=       -0.000001054487 Rises=F Damp=F
 DIIS: error= 2.50D-05 at cycle   5 NSaved=   5.
 NSaved= 5 IEnMin= 5 EnMin= -343.642180439018     IErMin= 5 ErrMin= 2.50D-05
 ErrMax= 2.50D-05  0.00D+00 EMaxC= 1.00D-01 BMatC= 3.86D-08 BMatP= 1.11D-06
 IDIUse=1 WtCom= 1.00D+00 WtEn= 0.00D+00
 Coeff-Com:  0.524D-02-0.472D-01-0.324D-01 0.346D-01 0.104D+01
 Coeff:      0.524D-02-0.472D-01-0.324D-01 0.346D-01 0.104D+01
 Gap=     0.276 Goal=   None    Shift=    0.000
 Gap=     0.181 Goal=   None    Shift=    0.000
 RMSDP=2.10D-05 MaxDP=2.22D-04 DE=-1.05D-06 OVMax= 2.79D-04

 Cycle   6  Pass 0  IDiag  1:
 E= -343.642180485689     Delta-E=       -0.000000046671 Rises=F Damp=F
 DIIS: error= 4.47D-06 at cycle   6 NSaved=   6.
 NSaved= 6 IEnMin= 6 EnMin= -343.642180485689     IErMin= 6 ErrMin= 4.47D-06
 ErrMax= 4.47D-06  0.00D+00 EMaxC= 1.00D-01 BMatC= 2.19D-09 BMatP= 3.86D-08
 IDIUse=1 WtCom= 1.00D+00 WtEn= 0.00D+00
 Coeff-Com: -0.146D-03 0.969D-02-0.394D-02-0.508D-01 0.163D-01 0.103D+01
 Coeff:     -0.146D-03 0.969D-02-0.394D-02-0.508D-01 0.163D-01 0.103D+01
 Gap=     0.276 Goal=   None    Shift=    0.000
 Gap=     0.181 Goal=   None    Shift=    0.000
 RMSDP=3.39D-06 MaxDP=2.39D-05 DE=-4.67D-08 OVMax= 6.17D-05

 Initial convergence to 1.0D-05 achieved.  Increase integral accuracy.
 Cycle   7  Pass 1  IDiag  1:
 E= -343.642179910683     Delta-E=        0.000000575006 Rises=F Damp=F
 DIIS: error= 2.22D-06 at cycle   1 NSaved=   1.
 NSaved= 1 IEnMin= 1 EnMin= -343.642179910683     IErMin= 1 ErrMin= 2.22D-06
 ErrMax= 2.22D-06  0.00D+00 EMaxC= 1.00D-01 BMatC= 4.57D-10 BMatP= 4.57D-10
 IDIUse=1 WtCom= 1.00D+00 WtEn= 0.00D+00
 Coeff-Com:  0.100D+01
 Coeff:      0.100D+01
 Gap=     0.276 Goal=   None    Shift=    0.000
 Gap=     0.181 Goal=   None    Shift=    0.000
 RMSDP=3.39D-06 MaxDP=2.39D-05 DE= 5.75D-07 OVMax= 1.39D-05

 Cycle   8  Pass 1  IDiag  1:
 E= -343.642179910882     Delta-E=       -0.000000000199 Rises=F Damp=F
 DIIS: error= 1.15D-06 at cycle   2 NSaved=   2.
 NSaved= 2 IEnMin= 2 EnMin= -343.642179910882     IErMin= 2 ErrMin= 1.15D-06
 ErrMax= 1.15D-06  0.00D+00 EMaxC= 1.00D-01 BMatC= 1.73D-10 BMatP= 4.57D-10
 IDIUse=1 WtCom= 1.00D+00 WtEn= 0.00D+00
 Coeff-Com:  0.360D+00 0.640D+00
 Coeff:      0.360D+00 0.640D+00
 Gap=     0.276 Goal=   None    Shift=    0.000
 Gap=     0.181 Goal=   None    Shift=    0.000
 RMSDP=5.01D-07 MaxDP=3.46D-06 DE=-1.99D-10 OVMax= 7.27D-06

 Cycle   9  Pass 1  IDiag  1:
 E= -343.642179910964     Delta-E=       -0.000000000081 Rises=F Damp=F
 DIIS: error= 3.19D-07 at cycle   3 NSaved=   3.
 NSaved= 3 IEnMin= 3 EnMin= -343.642179910964     IErMin= 3 ErrMin= 3.19D-07
 ErrMax= 3.19D-07  0.00D+00 EMaxC= 1.00D-01 BMatC= 6.84D-12 BMatP= 1.73D-10
 IDIUse=1 WtCom= 1.00D+00 WtEn= 0.00D+00
 Coeff-Com: -0.140D+00-0.642D-01 0.120D+01
 Coeff:     -0.140D+00-0.642D-01 0.120D+01
 Gap=     0.276 Goal=   None    Shift=    0.000
 Gap=     0.181 Goal=   None    Shift=    0.000
 RMSDP=2.07D-07 MaxDP=1.20D-06 DE=-8.14D-11 OVMax= 2.40D-06

 Cycle  10  Pass 1  IDiag  1:
 E= -343.642179910971     Delta-E=       -0.000000000008 Rises=F Damp=F
 DIIS: error= 5.37D-08 at cycle   4 NSaved=   4.
 NSaved= 4 IEnMin= 4 EnMin= -343.642179910971     IErMin= 4 ErrMin= 5.37D-08
 ErrMax= 5.37D-08  0.00D+00 EMaxC= 1.00D-01 BMatC= 5.74D-13 BMatP= 6.84D-12
 IDIUse=1 WtCom= 1.00D+00 WtEn= 0.00D+00
 Coeff-Com: -0.458D-01-0.439D-01 0.224D+00 0.865D+00
 Coeff:     -0.458D-01-0.439D-01 0.224D+00 0.865D+00
 Gap=     0.276 Goal=   None    Shift=    0.000
 Gap=     0.181 Goal=   None    Shift=    0.000
 RMSDP=5.19D-08 MaxDP=5.18D-07 DE=-7.73D-12 OVMax= 5.96D-07

 Cycle  11  Pass 1  IDiag  1:
 E= -343.642179910971     Delta-E=        0.000000000000 Rises=F Damp=F
 DIIS: error= 2.58D-08 at cycle   5 NSaved=   5.
 NSaved= 5 IEnMin= 4 EnMin= -343.642179910971     IErMin= 5 ErrMin= 2.58D-08
 ErrMax= 2.58D-08  0.00D+00 EMaxC= 1.00D-01 BMatC= 8.88D-14 BMatP= 5.74D-13
 IDIUse=1 WtCom= 1.00D+00 WtEn= 0.00D+00
 Coeff-Com:  0.517D-02-0.416D-02-0.101D+00 0.214D+00 0.886D+00
 Coeff:      0.517D-02-0.416D-02-0.101D+00 0.214D+00 0.886D+00
 Gap=     0.276 Goal=   None    Shift=    0.000
 Gap=     0.181 Goal=   None    Shift=    0.000
 RMSDP=2.04D-08 MaxDP=1.99D-07 DE= 3.41D-13 OVMax= 4.03D-07

 Cycle  12  Pass 1  IDiag  1:
 E= -343.642179910971     Delta-E=       -0.000000000001 Rises=F Damp=F
 DIIS: error= 1.24D-08 at cycle   6 NSaved=   6.
 NSaved= 6 IEnMin= 6 EnMin= -343.642179910971     IErMin= 6 ErrMin= 1.24D-08
 ErrMax= 1.24D-08  0.00D+00 EMaxC= 1.00D-01 BMatC= 1.64D-14 BMatP= 8.88D-14
 IDIUse=1 WtCom= 1.00D+00 WtEn= 0.00D+00
 Coeff-Com:  0.602D-02 0.261D-02-0.541D-01-0.174D-01 0.330D+00 0.733D+00
 Coeff:      0.602D-02 0.261D-02-0.541D-01-0.174D-01 0.330D+00 0.733D+00
 Gap=     0.276 Goal=   None    Shift=    0.000
 Gap=     0.181 Goal=   None    Shift=    0.000
 RMSDP=6.62D-09 MaxDP=7.49D-08 DE=-5.68D-13 OVMax= 9.34D-08

 SCF Done:  E(UB3LYP) =  -343.642179911     A.U. after   12 cycles
            NFock= 12  Conv=0.66D-08     -V/T= 2.0020
 <Sx>= 0.0000 <Sy>= 0.0000 <Sz>= 0.5000 <S**2>= 0.7573 S= 0.5037
 <L.S>= 0.000000000000E+00
 KE= 3.429432582276D+02 PE=-8.586372344207D+02 EE= 1.511081732607D+02
 Annihilation of the first spin contaminant:
 S**2 before annihilation     0.7573,   after     0.7500
 Leave Link  502 at Tue Oct  6 20:47:02 2020, MaxMem=  2684354560 cpu:              17.8 elap:               1.8
 (Enter /udrive/faculty/rpeverati/g16/g16/l508.exe)
 QCSCF skips out because SCF is already converged.
 Leave Link  508 at Tue Oct  6 20:47:03 2020, MaxMem=  2684354560 cpu:               0.4 elap:               0.3
 (Enter /udrive/faculty/rpeverati/g16/g16/l701.exe)
 ... and contract with generalized density number  0.
 Compute integral first derivatives.
 R6Disp: Adding Grimme-D3(BJ) dispersion energy 1st derivatives to the gradient.
 Leave Link  701 at Tue Oct  6 20:47:04 2020, MaxMem=  2684354560 cpu:               3.6 elap:               0.6
 (Enter /udrive/faculty/rpeverati/g16/g16/l702.exe)
 L702 exits ... SP integral derivatives will be done elsewhere.
 Leave Link  702 at Tue Oct  6 20:47:04 2020, MaxMem=  2684354560 cpu:               1.7 elap:               0.6
 (Enter /udrive/faculty/rpeverati/g16/g16/l703.exe)
 Integral derivatives from FoFJK, PRISM(SPDF).
 Compute integral first derivatives, UseDBF=F ICtDFT=           0.
 Calling FoFJK, ICntrl=      2127 FMM=F ISym2X=0 I1Cent= 0 IOpClX= 1 NMat=1 NMatS=1 NMatT=0.
 FoFJK:  IHMeth= 1 ICntrl=    2127 DoSepK=F KAlg= 0 I1Cent=           0 FoldK=F
 IRaf=         0 NMat=       1 IRICut=       1 DoRegI=T DoRafI=F ISym2E= 0 IDoP0=0 IntGTp=1.
 FoFCou: FMM=F IPFlag=           0 FMFlag=      100000 FMFlg1=         800
         NFxFlg=           0 DoJE=F BraDBF=F KetDBF=F FulRan=T
         wScrn=  0.000000 ICntrl=      2127 IOpCl=  1 I1Cent=           0 NGrid=           0
         NMat0=    1 NMatS0=      1 NMatT0=    0 NMatD0=    1 NMtDS0=    0 NMtDT0=    0
 Symmetry not used in FoFCou.
 Leave Link  703 at Tue Oct  6 20:47:06 2020, MaxMem=  2684354560 cpu:               9.2 elap:               1.2
 (Enter /udrive/faculty/rpeverati/g16/g16/l716.exe)
 Dipole        = 1.23589561D-02 3.02227368D-04 3.04971759D-01
 ***** Axes restored to original set *****
 -------------------------------------------------------------------
 Center     Atomic                   Forces (Hartrees/Bohr)
 Number     Number              X              Y              Z
 -------------------------------------------------------------------
      1       15           0.006225348   -0.000053020   -0.004805681
      2        1          -0.000041609    0.002200708    0.002336044
      3        1          -0.000014917   -0.002173065    0.002371207
      4        1          -0.009547035    0.000127808    0.000918782
      5        1           0.003378213   -0.000102431   -0.000820352
 -------------------------------------------------------------------
 Cartesian Forces:  Max     0.009547035 RMS     0.003527053
 Leave Link  716 at Tue Oct  6 20:47:06 2020, MaxMem=  2684354560 cpu:               1.7 elap:               0.5
 (Enter /udrive/faculty/rpeverati/g16/g16/l103.exe)

 GradGradGradGradGradGradGradGradGradGradGradGradGradGradGradGradGradGrad
 Berny optimization.
 Optmz: redundant internal coordinate code flag= 1
 Red2BG:  D1=  1.64D-01 OD1=  1.89D-02 B2RMS=  0.00D+00 IAprox=0
 FormGI is forming the generalized inverse of G from B-inverse, IUseBI=4.
 Internal  Forces:  Max     0.006165628 RMS     0.002666685
 Search for a saddle point.
 Step number   2 out of a maximum of   50
 All quantities printed in internal units (Hartrees-Bohrs-Radians)
 Swapping is turned off.
 Update second derivatives using D2CorX and points    1    2
 The second derivative matrix:
                          R1        R2        R3        R4        A1
           R1           0.22695
           R2          -0.00056   0.22691
           R3          -0.00095  -0.00095   0.14736
           R4          -0.00012  -0.00009   0.04378  -0.00510
           A1           0.00405   0.00400   0.00136  -0.00001   0.04428
           A2           0.00526   0.00236   0.00636  -0.00335  -0.00902
           A3           0.00249   0.00531   0.00622  -0.00329  -0.00935
           A4          -0.00117  -0.00022  -0.00006   0.00095  -0.00013
           A5           0.00030   0.00087  -0.00023  -0.00035  -0.00083
           D1          -0.00443  -0.00437  -0.00195   0.00031  -0.04350
                          A2        A3        A4        A5        D1
           A2           0.14273
           A3          -0.00553   0.14184
           A4          -0.00219   0.00112   0.01734
           A5          -0.00222   0.00214   0.00039   0.01080
           D1           0.00248   0.00295   0.00018   0.00084   0.04334
 ITU=  0  0
 Eigenvectors of the second derivative matrix:
                           1         2         3         4         5
     Eigenvalues --    -0.01712   0.01069   0.01732   0.08378   0.13756
   1         R1         0.00203   0.00232   0.00496  -0.04984   0.04311
   2         R2         0.00207   0.00429   0.00068  -0.04937   0.04407
   3         R3         0.25931  -0.00499  -0.00812  -0.04442   0.27572
   4         R4        -0.96421   0.01164   0.02383  -0.03644   0.11455
   5         A1        -0.00787  -0.01103   0.00327   0.67600   0.20258
   6         A2        -0.03214  -0.01593   0.01915   0.15687  -0.62921
   7         A3        -0.03204   0.01448  -0.00773   0.16907  -0.67151
   8         A4         0.02610   0.04997   0.99820  -0.00500   0.00509
   9         A5        -0.01096  -0.99830   0.04980  -0.01604  -0.00298
  10         D1         0.01107   0.01114  -0.00385  -0.69378  -0.13839
                           6         7         8         9
     Eigenvalues --     0.14784   0.16133   0.22744   0.22760
   1         R1         0.02688   0.00995  -0.56088   0.82475
   2         R2        -0.02431   0.00882  -0.82265  -0.56407
   3         R3         0.02350  -0.92415   0.00849  -0.00151
   4         R4         0.00780  -0.23466   0.00380  -0.00083
   5         A1         0.00027   0.02546  -0.03415   0.00675
   6         A2        -0.72326  -0.22327  -0.04867   0.03554
   7         A3         0.68858  -0.20048  -0.05867  -0.01452
   8         A4         0.01798   0.00054   0.00426  -0.00447
   9         A5         0.02238   0.00230  -0.00388  -0.00167
  10         D1         0.00177  -0.00444   0.03957  -0.00782
 RLam0= 1.35D-03.
 Iter=   1 RLamda= 0.00000000D+00 Sum=-2.63740279D-04.
 Iter=   2 RLamda=-2.63740279D-04 Sum=-2.63272038D-04.
 Iter=   3 RLamda=-2.63272038D-04 Sum=-2.63272866D-04.
 RFO step:  Lambda0=1.351863230D-03 Lambda=-2.63272038D-04.
 Linear search not attempted -- option 19 set.
 Maximum step size (   0.100) exceeded in Quadratic search.
    -- Step size scaled by   0.365
 Iteration  1 RMS(Cart)=  0.02545443 RMS(Int)=  0.00006572
 Iteration  2 RMS(Cart)=  0.00008731 RMS(Int)=  0.00000082
 Iteration  3 RMS(Cart)=  0.00000001 RMS(Int)=  0.00000082
 ITry= 1 IFail=0 DXMaxC= 7.05D-02 DCOld= 1.00D+10 DXMaxT= 1.00D-01 DXLimC= 3.00D+00 Rises=F
 Variable       Old X    -DE/DX   Delta X   Delta X   Delta X     New X
                                 (Linear)    (Quad)   (Total)
    R1        2.67812   0.00320   0.00000   0.00513   0.00513   2.68325
    R2        2.67815   0.00321   0.00000   0.00512   0.00512   2.68327
    R3        2.78979   0.00617   0.00000  -0.01434  -0.01434   2.77545
    R4        2.48724  -0.00347   0.00000   0.09861   0.09861   2.58585
    A1        1.63050  -0.00029   0.00000  -0.00110  -0.00110   1.62940
    A2        1.61725  -0.00029   0.00000   0.00200   0.00200   1.61924
    A3        1.61773  -0.00031   0.00000   0.00182   0.00182   1.61955
    A4        2.96512   0.00038   0.00000   0.00289   0.00289   2.96802
    A5        3.33984  -0.00005   0.00000   0.00060   0.00060   3.34043
    D1       -1.63282   0.00032   0.00000   0.00092   0.00091  -1.63191
         Item               Value     Threshold  Converged?
 Maximum Force            0.006166     0.000450     NO 
 RMS     Force            0.002667     0.000300     NO 
 Maximum Displacement     0.070492     0.001800     NO 
 RMS     Displacement     0.025474     0.001200     NO 
 Predicted change in Energy= 3.316064D-04
 Largest change from initial coordinates is atom    5       0.080 Angstoms.
 GradGradGradGradGradGradGradGradGradGradGradGradGradGradGradGradGradGrad

 Leave Link  103 at Tue Oct  6 20:47:07 2020, MaxMem=  2684354560 cpu:               1.9 elap:               0.5
 (Enter /udrive/faculty/rpeverati/g16/g16/l202.exe)
                          Input orientation:                          
 ---------------------------------------------------------------------
 Center     Atomic      Atomic             Coordinates (Angstroms)
 Number     Number       Type             X           Y           Z
 ---------------------------------------------------------------------
      1         15           0        0.231691    0.000062   -0.112127
      2          1           0        0.263235    1.037938    0.856363
      3          1           0        0.276028   -1.028037    0.866260
      4          1           0       -1.236242   -0.008945   -0.158946
      5          1           0       -2.578716   -0.002242    0.105939
 ---------------------------------------------------------------------
                    Distance matrix (angstroms):
                    1          2          3          4          5
     1  P    0.000000
     2  H    1.419913   0.000000
     3  H    1.419927   2.066038   0.000000
     4  H    1.468707   2.091709   2.092022   0.000000
     5  H    2.818856   3.117980   3.127284   1.368374   0.000000
 Stoichiometry    H4P(2)
 Framework group  C1[X(H4P)]
 Deg. of freedom     9
 Full point group                 C1      NOp   1
 RotChk:  IX=0 Diff= 1.27D-03
 Largest Abelian subgroup         C1      NOp   1
 Largest concise Abelian subgroup C1      NOp   1
                         Standard orientation:                         
 ---------------------------------------------------------------------
 Center     Atomic      Atomic             Coordinates (Angstroms)
 Number     Number       Type             X           Y           Z
 ---------------------------------------------------------------------
      1         15           0        0.221208    0.000035   -0.111429
      2          1           0        0.253495    1.036483    0.858564
      3          1           0        0.264362   -1.029515    0.865483
      4          1           0       -1.246722   -0.007536   -0.158598
      5          1           0       -2.589251    0.000036    0.105990
 ---------------------------------------------------------------------
 Rotational constants (GHZ):         127.1396452          44.1285569          42.9038300
 Leave Link  202 at Tue Oct  6 20:47:08 2020, MaxMem=  2684354560 cpu:               0.9 elap:               0.4
 (Enter /udrive/faculty/rpeverati/g16/g16/l301.exe)
 Standard basis: 6-31G(d) (5D, 7F)
 Ernie: Thresh=  0.10000D-02 Tol=  0.10000D-05 Strict=F.
 There are    27 symmetry adapted cartesian basis functions of A   symmetry.
 There are    26 symmetry adapted basis functions of A   symmetry.
    26 basis functions,    68 primitive gaussians,    27 cartesian basis functions
    10 alpha electrons        9 beta electrons
       nuclear repulsion energy        20.8885850880 Hartrees.
 IExCor=  402 DFT=T Ex+Corr=B3LYP ExCW=0 ScaHFX=  0.200000
 ScaDFX=  0.800000  0.720000  1.000000  0.810000 ScalE2=  1.000000  1.000000
 IRadAn=      5 IRanWt=     -1 IRanGd=            0 ICorTp=0 IEmpDi=141
 NAtoms=    5 NActive=    5 NUniq=    5 SFac= 1.00D+00 NAtFMM=   60 NAOKFM=F Big=F
 Integral buffers will be    131072 words long.
 Raffenetti 2 integral format.
 Two-electron integral symmetry is turned on.
 R6Disp:  Grimme-D3(BJ) Dispersion energy=       -0.0036351761 Hartrees.
 Nuclear repulsion after empirical dispersion term =       20.8849499119 Hartrees.
 Leave Link  301 at Tue Oct  6 20:47:09 2020, MaxMem=  2684354560 cpu:               2.2 elap:               0.5
 (Enter /udrive/faculty/rpeverati/g16/g16/l302.exe)
 NPDir=0 NMtPBC=     1 NCelOv=     1 NCel=       1 NClECP=     1 NCelD=      1
         NCelK=      1 NCelE2=     1 NClLst=     1 CellRange=     0.0.
 One-electron integrals computed using PRISM.
 One-electron integral symmetry used in STVInt
 NBasis=    26 RedAO= T EigKep=  1.31D-02  NBF=    26
 NBsUse=    26 1.00D-06 EigRej= -1.00D+00 NBFU=    26
 Precomputing XC quadrature grid using
 IXCGrd= 4 IRadAn=           5 IRanWt=          -1 IRanGd=           0 AccXCQ= 0.00D+00.
 Generated NRdTot=       0 NPtTot=           0 NUsed=           0 NTot=          32
 NSgBfM=    27    27    27    27    27 MxSgAt=     5 MxSgA2=     5.
 Leave Link  302 at Tue Oct  6 20:47:10 2020, MaxMem=  2684354560 cpu:               3.9 elap:               0.7
 (Enter /udrive/faculty/rpeverati/g16/g16/l303.exe)
 DipDrv:  MaxL=1.
 Leave Link  303 at Tue Oct  6 20:47:10 2020, MaxMem=  2684354560 cpu:               1.5 elap:               0.5
 (Enter /udrive/faculty/rpeverati/g16/g16/l401.exe)
 Initial guess from the checkpoint file:  "MN_88_RKT12_BH76_B3LYP_631Gs.chk"
 SCF N**3 symmetry information disabled.
 B after Tr=     0.000000   -0.000000   -0.000000
         Rot=    1.000000   -0.000373    0.000563    0.000233 Ang=  -0.08 deg.
 Guess basis will be translated and rotated to current coordinates.
 JPrj=2 DoOrth=T DoCkMO=T.
 Initial guess <Sx>= 0.0000 <Sy>= 0.0000 <Sz>= 0.5000 <S**2>= 0.7575 S= 0.5037
 Generating alternative initial guess.
 ExpMin= 9.98D-02 ExpMax= 1.94D+04 ExpMxC= 2.91D+03 IAcc=2 IRadAn=         4 AccDes= 0.00D+00
 Harris functional with IExCor=  402 and IRadAn=       4 diagonalized for initial guess.
 HarFok:  IExCor=  402 AccDes= 0.00D+00 IRadAn=         4 IDoV= 1 UseB2=F ITyADJ=14
 ICtDFT=  3500011 ScaDFX=  1.000000  1.000000  1.000000  1.000000
 FoFCou: FMM=F IPFlag=           0 FMFlag=      100000 FMFlg1=           0
         NFxFlg=           0 DoJE=T BraDBF=F KetDBF=T FulRan=T
         wScrn=  0.000000 ICntrl=       500 IOpCl=  0 I1Cent=   200000004 NGrid=           0
         NMat0=    1 NMatS0=      1 NMatT0=    0 NMatD0=    1 NMtDS0=    0 NMtDT0=    0
 Petite list used in FoFCou.
 Harris En= -343.569467709454    
 Leave Link  401 at Tue Oct  6 20:47:11 2020, MaxMem=  2684354560 cpu:               7.0 elap:               0.9
 (Enter /udrive/faculty/rpeverati/g16/g16/l502.exe)
 Keep R1 and R2 ints in memory in canonical form, NReq=10470186.
 FoFCou: FMM=F IPFlag=           0 FMFlag=           0 FMFlg1=           0
         NFxFlg=           0 DoJE=F BraDBF=F KetDBF=F FulRan=T
         wScrn=  0.000000 ICntrl=       600 IOpCl=  0 I1Cent=           0 NGrid=           0
         NMat0=    1 NMatS0=    351 NMatT0=    0 NMatD0=    1 NMtDS0=    0 NMtDT0=    0
 Symmetry not used in FoFCou.
 Two-electron integral symmetry not used.
 UHF open shell SCF:
 Using DIIS extrapolation, IDIIS=  1040.
 NGot=  2684354560 LenX=  2684228708 LenY=  2684227538
 Requested convergence on RMS density matrix=1.00D-08 within 120 cycles.
 Requested convergence on MAX density matrix=1.00D-06.
 Requested convergence on             energy=1.00D-06.
 No special actions if energy rises.
 Integral accuracy reduced to 1.0D-05 until final iterations.

 Cycle   1  Pass 0  IDiag  1:
 E= -343.641614483668    
 DIIS: error= 2.59D-03 at cycle   1 NSaved=   1.
 NSaved= 1 IEnMin= 1 EnMin= -343.641614483668     IErMin= 1 ErrMin= 2.59D-03
 ErrMax= 2.59D-03  0.00D+00 EMaxC= 1.00D-01 BMatC= 2.80D-04 BMatP= 2.80D-04
 IDIUse=3 WtCom= 9.74D-01 WtEn= 2.59D-02
 Coeff-Com:  0.100D+01
 Coeff-En:   0.100D+01
 Coeff:      0.100D+01
 Gap=     0.491 Goal=   None    Shift=    0.000
 Gap=     0.428 Goal=   None    Shift=    0.000
 GapD=    0.428 DampG=2.000 DampE=1.000 DampFc=2.0000 IDamp=-1.
 RMSDP=7.15D-04 MaxDP=6.81D-03              OVMax= 1.23D-02

 Cycle   2  Pass 0  IDiag  1:
 E= -343.641819388158     Delta-E=       -0.000204904490 Rises=F Damp=F
 DIIS: error= 7.40D-04 at cycle   2 NSaved=   2.
 NSaved= 2 IEnMin= 2 EnMin= -343.641819388158     IErMin= 2 ErrMin= 7.40D-04
 ErrMax= 7.40D-04  0.00D+00 EMaxC= 1.00D-01 BMatC= 2.14D-05 BMatP= 2.80D-04
 IDIUse=3 WtCom= 9.93D-01 WtEn= 7.40D-03
 Coeff-Com: -0.699D-03 0.100D+01
 Coeff-En:   0.000D+00 0.100D+01
 Coeff:     -0.694D-03 0.100D+01
 Gap=     0.280 Goal=   None    Shift=    0.000
 Gap=     0.179 Goal=   None    Shift=    0.000
 RMSDP=3.56D-04 MaxDP=4.14D-03 DE=-2.05D-04 OVMax= 5.09D-03

 Cycle   3  Pass 0  IDiag  1:
 E= -343.641833783082     Delta-E=       -0.000014394924 Rises=F Damp=F
 DIIS: error= 3.22D-04 at cycle   3 NSaved=   3.
[...]
     88                8                                               46     9                                        39            
 
     XX                X                                               XX     X                                        XX            
     XX                X                                                X     X                                                      
     XX                X                                                                                                             
     XX                X                                                                                                             
     XX                X                                                                                                             
     XX                X                                                                                                             
     XX                X                                                                                                             
     XX                X                                                                                                             
     XX                X                                                                                                             
     XX                X                                                                                                             
     X                 X                                                                                                             
     X                 X                                                                                                             
     X                 X                                                                                                             
     X                 X                                                                                                             
     X                 X                                                                                                             
                       X                                                                                                             
                       X                                                                                                             
                       X                                                                                                             
                       X                                                                                                             
                       X                                                                                                             
 
 ***** Axes restored to original set *****
 -------------------------------------------------------------------
 Center     Atomic                   Forces (Hartrees/Bohr)
 Number     Number              X              Y              Z
 -------------------------------------------------------------------
      1       15           0.000000516    0.000000454    0.000000801
      2        1           0.000000001    0.000000031    0.000000286
      3        1          -0.000000093   -0.000000035    0.000000168
      4        1          -0.000000962   -0.000000795   -0.000001800
      5        1           0.000000538    0.000000345    0.000000545
 -------------------------------------------------------------------
 Cartesian Forces:  Max     0.000001800 RMS     0.000000670
 Force constants in Cartesian coordinates: 
                1             2             3             4             5 
      1  0.222435D+00
      2 -0.725644D-04  0.252253D+00
      3  0.157184D-02 -0.132538D-04  0.248968D+00
      4 -0.194249D-01  0.139537D-01  0.683071D-02  0.224297D-01
      5 -0.214474D-02 -0.114629D+00 -0.825385D-01  0.270514D-02  0.129088D+00
      6 -0.885974D-02 -0.106353D+00 -0.116099D+00  0.581654D-02  0.951641D-01
      7 -0.193634D-01 -0.133697D-01  0.652509D-02 -0.946706D-03 -0.225465D-03
      8  0.256194D-02 -0.112698D+00  0.825388D-01  0.316560D-03 -0.141787D-01
      9 -0.946409D-02  0.106267D+00 -0.118091D+00  0.182875D-02 -0.121900D-01
     10 -0.167115D+00 -0.462662D-03 -0.149221D-01 -0.239731D-02 -0.310633D-03
     11 -0.310006D-03 -0.259936D-01  0.155253D-04 -0.171442D-01 -0.282814D-03
     12  0.137550D-01  0.934759D-04 -0.153667D-01 -0.144648D-01 -0.500455D-03
     13 -0.165315D-01 -0.488378D-04 -0.556142D-05  0.339170D-03 -0.243012D-04
     14 -0.346263D-04  0.106744D-02 -0.255006D-05  0.168749D-03  0.264443D-05
     15  0.299694D-02  0.581645D-05  0.589722D-03 -0.112449D-04  0.648460D-04
                6             7             8             9            10 
      6  0.109984D+00
      7  0.176444D-02  0.224623D-01
      8  0.124474D-01 -0.321659D-02  0.127046D+00
      9  0.930325D-02  0.636685D-02 -0.953110D-01  0.111993D+00
     10  0.131152D-02 -0.249230D-02  0.312289D-03  0.130051D-02  0.155218D+00
     11 -0.140265D-02  0.169786D-01 -0.168824D-03  0.137693D-02  0.424902D-03
     12 -0.332834D-02 -0.146472D-01  0.388269D-03 -0.334771D-02  0.156925D-01
     13 -0.327632D-04  0.340155D-03  0.257965D-04 -0.320212D-04  0.167868D-01
     14  0.144504D-03 -0.166880D-03  0.000000D+00 -0.143222D-03  0.361035D-04
     15  0.140673D-03 -0.921941D-05 -0.634201D-04  0.142849D-03 -0.338242D-02
               11            12            13            14            15 
     11  0.282677D-01
     12  0.178973D-04  0.235168D-01
     13  0.506877D-04 -0.335593D-03 -0.934624D-03
     14 -0.182243D-02  0.000000D+00 -0.334535D-05  0.752665D-03
     15 -0.769825D-05 -0.147405D-02  0.405939D-03  0.000000D+00  0.600809D-03
 FormGI is forming the generalized inverse of G from B-inverse, IUseBI=4.
 Force constants in internal coordinates: 
                1             2             3             4             5 
      1  0.215271D+00
      2 -0.356380D-03  0.215263D+00
      3 -0.451056D-03 -0.464377D-03  0.188668D+00
      4  0.540523D-04  0.596037D-04  0.161264D-01 -0.102841D-02
      5  0.393045D-02  0.390348D-02  0.113713D-02  0.126202D-04  0.439445D-01
      6  0.721734D-02  0.263995D-02  0.760335D-02 -0.886846D-03 -0.107595D-01
      7  0.270334D-02  0.724518D-02  0.757209D-02 -0.903211D-03 -0.109434D-01
      8 -0.552839D-03 -0.121383D-03 -0.300716D-03  0.261021D-03 -0.655839D-04
      9  0.122736D-03  0.412808D-03  0.859744D-04 -0.167638D-03 -0.357091D-03
     10 -0.450086D-02 -0.447182D-02 -0.199512D-02  0.881477D-04 -0.428536D-01
                6             7             8             9            10 
      6  0.161555D+00
      7 -0.753527D-02  0.161433D+00
      8 -0.116610D-02  0.536200D-03  0.670969D-02
      9 -0.101581D-02  0.107274D-02  0.200089D-03  0.432825D-02
     10  0.211823D-02  0.230941D-02  0.101252D-03  0.354951D-03  0.427322D-01
 Leave Link  716 at Tue Oct  6 20:48:57 2020, MaxMem=  2684354560 cpu:               1.7 elap:               0.4
 (Enter /udrive/faculty/rpeverati/g16/g16/l103.exe)

 GradGradGradGradGradGradGradGradGradGradGradGradGradGradGradGradGradGrad
 Berny optimization.
 Optmz: redundant internal coordinate code flag= 1
 Red2BG:  D1=  1.47D-01 OD1=  1.38D-15 B2RMS=  0.00D+00 IAprox=1
 Red2BG is reusing G-inverse.
 Internal  Forces:  Max     0.000002672 RMS     0.000000895
 Search for a local minimum.
 Step number   1 out of a maximum of    2
 All quantities printed in internal units (Hartrees-Bohrs-Radians)
 Second derivative matrix not updated -- analytic derivatives used.
 The second derivative matrix:
                          R1        R2        R3        R4        A1
           R1           0.21527
           R2          -0.00036   0.21526
           R3          -0.00045  -0.00046   0.18867
           R4           0.00005   0.00006   0.01613  -0.00103
           A1           0.00393   0.00390   0.00114   0.00001   0.04394
           A2           0.00722   0.00264   0.00760  -0.00089  -0.01076
           A3           0.00270   0.00725   0.00757  -0.00090  -0.01094
           A4          -0.00055  -0.00012  -0.00030   0.00026  -0.00007
           A5           0.00012   0.00041   0.00009  -0.00017  -0.00036
           D1          -0.00450  -0.00447  -0.00200   0.00009  -0.04285
                          A2        A3        A4        A5        D1
           A2           0.16155
           A3          -0.00754   0.16143
           A4          -0.00117   0.00054   0.00671
           A5          -0.00102   0.00107   0.00020   0.00433
           D1           0.00212   0.00231   0.00010   0.00035   0.04273
 ITU=  0
 Eigenvectors of the second derivative matrix:
                           1         2         3         4         5
     Eigenvalues --    -0.00244   0.00430   0.00672   0.08284   0.15311
   1         R1         0.00112   0.00106  -0.00228   0.05453   0.08817
   2         R2         0.00112   0.00202  -0.00037   0.05431   0.08811
   3         R3         0.08493  -0.00190   0.00118   0.03900   0.25646
   4         R4        -0.99542   0.02930  -0.02893   0.01113   0.03452
   5         A1        -0.00303  -0.00433  -0.00153  -0.68206   0.18320
   6         A2        -0.01005  -0.00577  -0.00809  -0.13572  -0.65944
   7         A3        -0.01013   0.00605   0.00328  -0.13915  -0.66114
   8         A4         0.03112   0.07531  -0.99664   0.00204   0.00180
   9         A5        -0.02704  -0.99667  -0.07608   0.00651  -0.00054
  10         D1         0.00417   0.00433   0.00180   0.69957  -0.10938
                           6         7         8         9
     Eigenvalues --     0.16861   0.19282   0.21607   0.21685
   1         R1         0.06809  -0.05635   0.69809  -0.70293
   2         R2        -0.06854  -0.05512  -0.70946  -0.69153
   3         R3         0.00191   0.96114   0.00030  -0.04123
   4         R4         0.00012   0.07828   0.00001  -0.00251
   5         A1        -0.00142  -0.02216  -0.00002  -0.02832
   6         A2        -0.70463   0.17907   0.06771  -0.10861
   7         A3         0.70287   0.17695  -0.06888  -0.10825
   8         A4         0.00723  -0.00184  -0.00199   0.00266
   9         A5         0.00884   0.00030  -0.00165  -0.00167
  10         D1         0.00152   0.00218   0.00008   0.04061
 Eigenvalue     1 is  -2.44D-03 should be greater than     0.000000 Eigenvector:
                          R4        R3        A4        A5        A3
   1                   -0.99542   0.08493   0.03112  -0.02704  -0.01013
                          A2        D1        A1        R2        R1
   1                   -0.01005   0.00417  -0.00303   0.00112   0.00112
 Angle between quadratic step and forces=  17.02 degrees.
 Linear search not attempted -- first point.
 Iteration  1 RMS(Cart)=  0.00023355 RMS(Int)=  0.00000004
 Iteration  2 RMS(Cart)=  0.00000005 RMS(Int)=  0.00000000
 ITry= 1 IFail=0 DXMaxC= 3.92D-04 DCOld= 1.00D+10 DXMaxT= 3.00D-01 DXLimC= 3.00D+00 Rises=F
 Variable       Old X    -DE/DX   Delta X   Delta X   Delta X     New X
                                 (Linear)    (Quad)   (Total)
    R1        2.69230   0.00000   0.00000  -0.00000  -0.00000   2.69230
    R2        2.69230   0.00000   0.00000   0.00000   0.00000   2.69230
    R3        2.73509   0.00000   0.00000   0.00001   0.00001   2.73510
    R4        3.06010  -0.00000   0.00000  -0.00015  -0.00015   3.05995
    A1        1.62794  -0.00000   0.00000  -0.00000  -0.00000   1.62794
    A2        1.62377   0.00000   0.00000  -0.00000  -0.00000   1.62377
    A3        1.62377  -0.00000   0.00000  -0.00000  -0.00000   1.62377
    A4        2.97187  -0.00000   0.00000  -0.00040  -0.00040   2.97147
    A5        3.35162   0.00000   0.00000   0.00016   0.00016   3.35178
    D1       -1.63092   0.00000   0.00000   0.00000   0.00000  -1.63092
         Item               Value     Threshold  Converged?
 Maximum Force            0.000003     0.000450     YES
 RMS     Force            0.000001     0.000300     YES
 Maximum Displacement     0.000392     0.001800     YES
 RMS     Displacement     0.000234     0.001200     YES
 Predicted change in Energy=-6.585725D-10
 Optimization completed.
    -- Stationary point found.
                           ----------------------------
                           !   Optimized Parameters   !
                           ! (Angstroms and Degrees)  !
 --------------------------                            --------------------------
 ! Name  Definition              Value          Derivative Info.                !
 --------------------------------------------------------------------------------
 ! R1    R(1,2)                  1.4247         -DE/DX =    0.0                 !
 ! R2    R(1,3)                  1.4247         -DE/DX =    0.0                 !
 ! R3    R(1,4)                  1.4473         -DE/DX =    0.0                 !
 ! R4    R(4,5)                  1.6193         -DE/DX =    0.0                 !
 ! A1    A(2,1,3)               93.2743         -DE/DX =    0.0                 !
 ! A2    A(2,1,4)               93.0354         -DE/DX =    0.0                 !
 ! A3    A(3,1,4)               93.0353         -DE/DX =    0.0                 !
 ! A4    L(1,4,5,2,-1)         170.2759         -DE/DX =    0.0                 !
 ! A5    L(1,4,5,2,-2)         192.0335         -DE/DX =    0.0                 !
 ! D1    D(2,1,4,3)            -93.4449         -DE/DX =    0.0                 !
 --------------------------------------------------------------------------------
 GradGradGradGradGradGradGradGradGradGradGradGradGradGradGradGradGradGrad

 Leave Link  103 at Tue Oct  6 20:48:57 2020, MaxMem=  2684354560 cpu:               1.3 elap:               0.4
 (Enter /udrive/faculty/rpeverati/g16/g16/l9999.exe)

 ----------------------------------------------------------------------

 Electric dipole moment (input orientation):
 (Debye = 10**-18 statcoulomb cm , SI units = C m)
                  (au)            (Debye)         (10**-30 SI)
   Tot        0.313137D+00      0.795916D+00      0.265489D+01
   x         -0.916921D-01     -0.233058D+00     -0.777398D+00
   y          0.133678D-02      0.339775D-02      0.113337D-01
   z          0.299409D+00      0.761022D+00      0.253850D+01

 Dipole polarizability, Alpha (input orientation).
 (esu units = cm**3 , SI units = C**2 m**2 J**-1)
 Alpha(0;0):
               (au)            (10**-24 esu)      (10**-40 SI)
   iso        0.267375D+02      0.396209D+01      0.440842D+01
   aniso      0.181727D+02      0.269292D+01      0.299628D+01
   xx         0.388004D+02      0.574963D+01      0.639733D+01
   yx         0.472377D-01      0.699990D-02      0.778844D-02
   yy         0.216503D+02      0.320824D+01      0.356965D+01
   zx        -0.231193D+00     -0.342592D-01     -0.381185D-01
   zy        -0.107962D-01     -0.159983D-02     -0.178005D-02
   zz         0.197618D+02      0.292840D+01      0.325829D+01

 ----------------------------------------------------------------------

 Dipole orientation:
    15          0.44099211          0.00121596         -0.34999784
     1          1.02345282          1.96058465          1.40216593
     1          1.03719731         -1.95409861          1.40207184
     1         -2.21088611         -0.00811259          0.31944320
     1         -4.92912951         -0.01814506          1.72488227

 Electric dipole moment (dipole orientation):
 (Debye = 10**-18 statcoulomb cm , SI units = C m)
                  (au)            (Debye)         (10**-30 SI)
   Tot        0.313137D+00      0.795916D+00      0.265489D+01
   x          0.000000D+00      0.000000D+00      0.000000D+00
   y          0.000000D+00      0.000000D+00      0.000000D+00
   z          0.313137D+00      0.795916D+00      0.265489D+01

 Dipole polarizability, Alpha (dipole orientation).
 (esu units = cm**3 , SI units = C**2 m**2 J**-1)
 Alpha(0;0):
               (au)            (10**-24 esu)      (10**-40 SI)
   iso        0.267375D+02      0.396209D+01      0.440842D+01
   aniso      0.181727D+02      0.269292D+01      0.299628D+01
   xx         0.370386D+02      0.548856D+01      0.610684D+01
   yx         0.557456D-01      0.826064D-02      0.919120D-02
   yy         0.216504D+02      0.320826D+01      0.356967D+01
   zx        -0.552185D+01     -0.818254D+00     -0.910431D+00
   zy        -0.200852D-01     -0.297632D-02     -0.331161D-02
   zz         0.215235D+02      0.318946D+01      0.354875D+01

 ----------------------------------------------------------------------

 Test job not archived.
 1\1\GINC-NODE22\Freq\UB3LYP\6-31G(d)\H4P1(2)\RPEVERATI\06-Oct-2020\0\\
 #P Freq B3LYP/6-31G* 5D 7F Integral=UltraFineGrid SCF=(NoSymm,XQC,MaxC
 yc=120) IOp(1/33=1) EmpiricalDispersion=GD3BJ Geom=Check Guess=Read\\T
 S search on BH76.\\0,2\P,0.2773676267,0.0000019132,-0.1087610341\H,0.3
 012432909,1.0410007038,0.8636216747\H,0.3068885599,-1.0305367337,0.874
 5472726\H,-1.1681706711,-0.0043189481,-0.180932467\H,-2.7613333973,-0.
 0073720873,0.1090126793\\Version=ES64L-G16RevA.03\State=2-A\HF=-343.64
 13281\S2=0.75294\S2-1=0.\S2A=0.750001\RMSD=8.288e-10\RMSF=6.702e-07\Ze
 roPoint=0.0244789\Thermal=0.0283813\Dipole=-0.0916921,0.0013368,0.2994
 091\DipoleDeriv=0.2325924,-0.0004952,-0.0363778,-0.0001579,0.3391091,0
 .0002328,0.0274233,0.000413,0.4017276,0.0068878,0.0813482,0.0506747,-0
 .013608,-0.1363175,-0.0799653,-0.0397023,-0.2041852,-0.1882486,0.00725
 9,-0.0800336,0.0510901,0.0139569,-0.1336887,0.0796647,-0.0409633,0.203
 3855,-0.1912389,-0.410038,-0.0012671,-0.0550667,-0.0007018,-0.0528076,
 0.0001126,0.0530158,0.0004007,-0.0029623,0.1632989,0.0004476,-0.010320
 4,0.0005108,-0.0162954,-0.0000448,0.0002265,-0.0000141,-0.0192778\Pola
 r=38.8004309,0.0472377,21.6503072,-0.2311927,-0.0107962,19.7618286\Qua
 drupole=-0.5299533,0.856608,-0.3266547,0.0009667,0.9091288,-0.0037547\
 PG=C01 [X(H4P1)]\NImag=1\\0.22243516,-0.00007256,0.25225307,0.00157184
 ,-0.00001325,0.24896756,-0.01942485,0.01395375,0.00683071,0.02242970,-
 0.00214474,-0.11462867,-0.08253848,0.00270514,0.12908753,-0.00885974,-
 0.10635333,-0.11609925,0.00581654,0.09516405,0.10998366,-0.01936344,-0
 .01336969,0.00652509,-0.00094671,-0.00022546,0.00176444,0.02246230,0.0
 0256194,-0.11269822,0.08253876,0.00031656,-0.01417869,0.01244743,-0.00
 321659,0.12704606,-0.00946409,0.10626729,-0.11809133,0.00182875,-0.012
 18996,0.00930325,0.00636685,-0.09531104,0.11199294,-0.16711533,-0.0004
 6266,-0.01492208,-0.00239731,-0.00031063,0.00131152,-0.00249230,0.0003
 1229,0.00130051,0.15521811,-0.00031001,-0.02599361,0.00001553,-0.01714
 420,-0.00028281,-0.00140265,0.01697862,-0.00016882,0.00137693,0.000424
 90,0.02826768,0.01375505,0.00009348,-0.01536670,-0.01446476,-0.0005004
 5,-0.00332834,-0.01464716,0.00038827,-0.00334771,0.01569247,0.00001790
 ,0.02351680,-0.01653153,-0.00004884,-0.00000556,0.00033917,-0.00002430
 ,-0.00003276,0.00034016,0.00002580,-0.00003202,0.01678683,0.00005069,-
 0.00033559,-0.00093462,-0.00003463,0.00106744,-0.00000255,0.00016875,0
 .00000264,0.00014450,-0.00016688,-0.00000032,-0.00014322,0.00003610,-0
 .00182243,0.00000081,-0.00000335,0.00075267,0.00299694,0.00000582,0.00
 058972,-0.00001124,0.00006485,0.00014067,-0.00000922,-0.00006342,0.000
 14285,-0.00338242,-0.00000770,-0.00147405,0.00040594,0.00000046,0.0006
 0081\\-0.00000052,-0.00000045,-0.00000080,0.,-0.00000003,-0.00000029,0
 .00000009,0.00000004,-0.00000017,0.00000096,0.00000079,0.00000180,-0.0
 0000054,-0.00000034,-0.00000054\\\@


 IF AT FIRST YOU DON'T SUCCEED, TRY, TRY AGAIN.
 THEN GIVE UP;
 THERE'S NO USE BEING A DAMN FOOL ABOUT IT.

                                 -- W. C. FIELDS
 Job cpu time:       0 days  0 hours  2 minutes  7.3 seconds.
 Elapsed time:       0 days  0 hours  0 minutes 16.3 seconds.
 File lengths (MBytes):  RWF=      5 Int=      0 D2E=      0 Chk=      1 Scr=      1
 Normal termination of Gaussian 16 at Tue Oct  6 20:48:59 2020.
