 Entering Gaussian System, Link 0=g16
 Input=MN_84_RKT08_BH76_B3LYP_631Gs.in
 Output=MN_84_RKT08_BH76_B3LYP_631Gs.log
 Initial command:
 /udrive/faculty/rpeverati/g16/g16/l1.exe "/udrive/scratch-directories/gaussian09/rpeverati/Gau-29917.inp" -scrdir="/udrive/scratch-directories/gaussian09/rpeverati/"
 Entering Link 1 = /udrive/faculty/rpeverati/g16/g16/l1.exe PID=     29918.
  
 Copyright (c) 1988,1990,1992,1993,1995,1998,2003,2009,2016,
            Gaussian, Inc.  All Rights Reserved.
  
 This is part of the Gaussian(R) 16 program.  It is based on
 the Gaussian(R) 09 system (copyright 2009, Gaussian, Inc.),
 the Gaussian(R) 03 system (copyright 2003, Gaussian, Inc.),
 the Gaussian(R) 98 system (copyright 1998, Gaussian, Inc.),
 the Gaussian(R) 94 system (copyright 1995, Gaussian, Inc.),
 the Gaussian 92(TM) system (copyright 1992, Gaussian, Inc.),
 the Gaussian 90(TM) system (copyright 1990, Gaussian, Inc.),
 the Gaussian 88(TM) system (copyright 1988, Gaussian, Inc.),
 the Gaussian 86(TM) system (copyright 1986, Carnegie Mellon
 University), and the Gaussian 82(TM) system (copyright 1983,
 Carnegie Mellon University). Gaussian is a federally registered
 trademark of Gaussian, Inc.
  
 This software contains proprietary and confidential information,
 including trade secrets, belonging to Gaussian, Inc.
  
 This software is provided under written license and may be
 used, copied, transmitted, or stored only in accord with that
 written license.
  
 The following legend is applicable only to US Government
 contracts under FAR:
  
                    RESTRICTED RIGHTS LEGEND
  
 Use, reproduction and disclosure by the US Government is
 subject to restrictions as set forth in subparagraphs (a)
 and (c) of the Commercial Computer Software - Restricted
 Rights clause in FAR 52.227-19.
  
 Gaussian, Inc.
 340 Quinnipiac St., Bldg. 40, Wallingford CT 06492
  
  
 ---------------------------------------------------------------
 Warning -- This program may not be used in any manner that
 competes with the business of Gaussian, Inc. or will provide
 assistance to any competitor of Gaussian, Inc.  The licensee
 of this program is prohibited from giving any competitor of
 Gaussian, Inc. access to this program.  By using this program,
 the user acknowledges that Gaussian, Inc. is engaged in the
 business of creating and licensing software in the field of
 computational chemistry and represents and warrants to the
 licensee that it is not a competitor of Gaussian, Inc. and that
 it will not use this program in any manner prohibited above.
 ---------------------------------------------------------------
  

 Cite this work as:
 Gaussian 16, Revision A.03,
 M. J. Frisch, G. W. Trucks, H. B. Schlegel, G. E. Scuseria, 
 M. A. Robb, J. R. Cheeseman, G. Scalmani, V. Barone, 
 G. A. Petersson, H. Nakatsuji, X. Li, M. Caricato, A. V. Marenich, 
 J. Bloino, B. G. Janesko, R. Gomperts, B. Mennucci, H. P. Hratchian, 
 J. V. Ortiz, A. F. Izmaylov, J. L. Sonnenberg, D. Williams-Young, 
 F. Ding, F. Lipparini, F. Egidi, J. Goings, B. Peng, A. Petrone, 
 T. Henderson, D. Ranasinghe, V. G. Zakrzewski, J. Gao, N. Rega, 
 G. Zheng, W. Liang, M. Hada, M. Ehara, K. Toyota, R. Fukuda, 
 J. Hasegawa, M. Ishida, T. Nakajima, Y. Honda, O. Kitao, H. Nakai, 
 T. Vreven, K. Throssell, J. A. Montgomery, Jr., J. E. Peralta, 
 F. Ogliaro, M. J. Bearpark, J. J. Heyd, E. N. Brothers, K. N. Kudin, 
 V. N. Staroverov, T. A. Keith, R. Kobayashi, J. Normand, 
 K. Raghavachari, A. P. Rendell, J. C. Burant, S. S. Iyengar, 
 J. Tomasi, M. Cossi, J. M. Millam, M. Klene, C. Adamo, R. Cammi, 
 J. W. Ochterski, R. L. Martin, K. Morokuma, O. Farkas, 
 J. B. Foresman, and D. J. Fox, Gaussian, Inc., Wallingford CT, 2016.
 
 ******************************************
 Gaussian 16:  ES64L-G16RevA.03 25-Dec-2016
                 6-Oct-2020 
 ******************************************
 %NoSave
 %nproc=12
 Will use up to   12 processors via shared memory.
 %mem=20GB
 %chk=MN_84_RKT08_BH76_B3LYP_631Gs
 ----------------------------------------------------------------------
 #P Opt(TS,MaxCyc=50,NoEigenTest,MaxStep=10,CalcFC) B3LYP/6-31G* 5D 7F 
 Integral=UltraFineGrid SCF=(NoSymm,XQC,MaxCyc=120) IOp(1/33=1) Empiric
 alDispersion=GD3BJ
 ----------------------------------------------------------------------
 1/5=1,6=50,8=10,10=4,11=1,18=20,26=4,33=1,38=1/1,3;
 2/9=110,12=2,17=6,18=5,40=1/2;
 3/5=1,6=6,7=1,8=11,11=2,25=1,30=1,71=2,74=-5,75=-5,124=41,140=1/1,2,3;
 4/9=2/1;
 5/5=2,7=120,8=3,13=1,38=5/2,8;
 8/6=4,10=90,11=11/1;
 11/6=1,8=1,9=11,15=111,16=1/1,2,10;
 10/6=1,13=1/2;
 6/7=2,8=2,9=2,10=2,28=1/1;
 7/10=1,18=20,25=1/1,2,3,16;
 1/5=1,6=50,8=10,10=4,11=1,18=20,26=4,33=1/3(2);
 2/9=110/2;
 99//99;
 2/9=110/2;
 3/5=1,6=6,7=1,8=11,11=2,25=1,30=1,71=1,74=-5,75=-5,124=41/1,2,3;
 4/5=5,9=2,16=3,69=1/1;
 5/5=2,7=120,8=3,13=1,38=5/2,8;
 7//1,2,3,16;
 1/5=1,6=50,8=10,11=1,18=20,26=4,33=1/3(-5);
 2/9=110/2;
 6/7=2,8=2,9=2,10=2,19=2,28=1/1;
 99/9=1/99;
 Leave Link    1 at Tue Oct  6 20:46:24 2020, MaxMem=  2684354560 cpu:               7.2 elap:               0.7
 (Enter /udrive/faculty/rpeverati/g16/g16/l101.exe)
 ONIOM data not found on unit 2.
 ------------------
 TS search on BH76.
 ------------------
 TstMul:  ICh=     0
 TstMul:  Mul=     2
 TstMul:  ICh=     0
 TstMul:  Mul=     2
 Symbolic Z-matrix:
 Charge =  0 Multiplicity = 2
 C                    -1.80062   0.16806   0.21737 
 H                    -2.15165  -0.76439  -0.20442 
 H                    -2.00034   1.06077  -0.36035 
 H                    -1.87514   0.26606   1.29228 
 H                    -0.42003   0.03937   0.05086 
 Cl                    1.01476  -0.09471  -0.12251 
 
 RdStrC is calling ZToCFu for IStruc=1 NZ=     6.
 PrtBox:  NBox=     1 Levels=  1 BoxLen=    8.00 SMaxX=        5.98
          Shift=            4.066020            1.444480            0.680954
 Box      1 Number                   0 centers from      1 to      6:
 After GenITR:
 ITRead=  0  0  0  0  0  0
 MicOpt= -1 -1 -1 -1 -1 -1
 Add virtual bond connecting atoms H5         and C1         Dist= 2.64D+00.
 ITRead=  0  0  0  0  0  0
 MicOpt= -1 -1 -1 -1 -1 -1
 NAtoms=      6 NQM=        6 NQMF=       0 NMMI=      0 NMMIF=      0
                NMic=       0 NMicF=      0.
                    Isotopes and Nuclear Properties:
 (Nuclear quadrupole moments (NQMom) in fm**2, nuclear magnetic moments (NMagM)
  in nuclear magnetons)

  Atom         1           2           3           4           5           6
 IAtWgt=          12           1           1           1           1          35
 AtmWgt=  12.0000000   1.0078250   1.0078250   1.0078250   1.0078250  34.9688527
 NucSpn=           0           1           1           1           1           3
 AtZEff=   0.0000000   0.0000000   0.0000000   0.0000000   0.0000000   0.0000000
 NQMom=    0.0000000   0.0000000   0.0000000   0.0000000   0.0000000  -8.1650000
 NMagM=    0.0000000   2.7928460   2.7928460   2.7928460   2.7928460   0.8218740
 AtZNuc=   6.0000000   1.0000000   1.0000000   1.0000000   1.0000000  17.0000000
 No MM parameters found.
 Leave Link  101 at Tue Oct  6 20:46:25 2020, MaxMem=  2684354560 cpu:              13.7 elap:               1.3
 (Enter /udrive/faculty/rpeverati/g16/g16/l103.exe)

 GradGradGradGradGradGradGradGradGradGradGradGradGradGradGradGradGradGrad
 Berny optimization.
 Optmz: redundant internal coordinate code flag= 1
 Initialization pass.
                           ----------------------------
                           !    Initial Parameters    !
                           ! (Angstroms and Degrees)  !
 --------------------------                            --------------------------
 ! Name  Definition              Value          Derivative Info.                !
 --------------------------------------------------------------------------------
 ! R1    R(1,2)                  1.0819         calculate D2E/DX2 analytically  !
 ! R2    R(1,3)                  1.0819         calculate D2E/DX2 analytically  !
 ! R3    R(1,4)                  1.0819         calculate D2E/DX2 analytically  !
 ! R4    R(1,5)                  1.3965         calculate D2E/DX2 analytically  !
 ! R5    R(5,6)                  1.4514         calculate D2E/DX2 analytically  !
 ! A1    A(2,1,3)              116.2983         calculate D2E/DX2 analytically  !
 ! A2    A(2,1,4)              116.298          calculate D2E/DX2 analytically  !
 ! A3    A(2,1,5)              101.235          calculate D2E/DX2 analytically  !
 ! A4    A(3,1,4)              116.2983         calculate D2E/DX2 analytically  !
 ! A5    A(3,1,5)              101.2363         calculate D2E/DX2 analytically  !
 ! A6    A(4,1,5)              101.2387         calculate D2E/DX2 analytically  !
 ! A7    L(1,5,6,2,-1)         179.983          calculate D2E/DX2 analytically  !
 ! A8    L(1,5,6,2,-2)         179.9906         calculate D2E/DX2 analytically  !
 ! D1    D(2,1,4,3)           -142.6998         calculate D2E/DX2 analytically  !
 ! D2    D(2,1,5,3)            119.9994         calculate D2E/DX2 analytically  !
 ! D3    D(2,1,5,4)           -119.9999         calculate D2E/DX2 analytically  !
 ! D4    D(3,1,5,4)            120.0007         calculate D2E/DX2 analytically  !
 --------------------------------------------------------------------------------
 Maximum allowed force set to 1.00D+20.
 Trust Radius=1.00D-01 FncErr=1.00D-07 GrdErr=1.00D-06 EigMax=2.50D+02 EigMin=1.00D-04
 Number of steps in this run=     50 maximum allowed number of steps=    100.
 Search for a saddle point of order  1.
 GradGradGradGradGradGradGradGradGradGradGradGradGradGradGradGradGradGrad

 Leave Link  103 at Tue Oct  6 20:46:26 2020, MaxMem=  2684354560 cpu:               1.4 elap:               0.4
 (Enter /udrive/faculty/rpeverati/g16/g16/l202.exe)
                          Input orientation:                          
 ---------------------------------------------------------------------
 Center     Atomic      Atomic             Coordinates (Angstroms)
 Number     Number       Type             X           Y           Z
 ---------------------------------------------------------------------
      1          6           0       -1.800621    0.168058    0.217373
      2          1           0       -2.151645   -0.764386   -0.204420
      3          1           0       -2.000343    1.060773   -0.360345
      4          1           0       -1.875139    0.266062    1.292282
      5          1           0       -0.420026    0.039365    0.050855
      6         17           0        1.014761   -0.094715   -0.122506
 ---------------------------------------------------------------------
                    Distance matrix (angstroms):
                    1          2          3          4          5
     1  C    0.000000
     2  H    1.081933   0.000000
     3  H    1.081937   1.838045   0.000000
     4  H    1.081937   1.838042   1.838048   0.000000
     5  H    1.396543   1.926054   1.926074   1.926107   0.000000
     6  Cl   2.847971   3.237483   3.237680   3.237794   1.451428
                    6
     6  Cl   0.000000
 This structure is nearly, but not quite of a higher symmetry.
 Consider Symm=Loose if the higher symmetry is desired.
 Stoichiometry    CH4Cl(2)
 Framework group  C1[X(CH4Cl)]
 Deg. of freedom    12
 Full point group                 C1      NOp   1
 Largest Abelian subgroup         C1      NOp   1
 Largest concise Abelian subgroup C1      NOp   1
                         Standard orientation:                         
 ---------------------------------------------------------------------
 Center     Atomic      Atomic             Coordinates (Angstroms)
 Number     Number       Type             X           Y           Z
 ---------------------------------------------------------------------
      1          6           0        1.123581    0.795539    1.192653
      2          1           0        0.451257    0.990690    2.017563
      3          1           0        1.453376    1.657976    0.628715
      4          1           0        1.856169    0.014241    1.345872
      5          1           0        0.262287    0.185511    0.278120
      6         17           0       -0.633210   -0.448332   -0.672129
 ---------------------------------------------------------------------
 Rotational constants (GHZ):         148.4293786           5.6191147           5.6191139
 Leave Link  202 at Tue Oct  6 20:46:27 2020, MaxMem=  2684354560 cpu:               1.1 elap:               0.4
 (Enter /udrive/faculty/rpeverati/g16/g16/l301.exe)
 Standard basis: 6-31G(d) (5D, 7F)
 Ernie: Thresh=  0.10000D-02 Tol=  0.10000D-05 Strict=F.
 There are    42 symmetry adapted cartesian basis functions of A   symmetry.
 There are    40 symmetry adapted basis functions of A   symmetry.
    40 basis functions,    96 primitive gaussians,    42 cartesian basis functions
    14 alpha electrons       13 beta electrons
       nuclear repulsion energy        46.2514809951 Hartrees.
 IExCor=  402 DFT=T Ex+Corr=B3LYP ExCW=0 ScaHFX=  0.200000
 ScaDFX=  0.800000  0.720000  1.000000  0.810000 ScalE2=  1.000000  1.000000
 IRadAn=      5 IRanWt=     -1 IRanGd=            0 ICorTp=0 IEmpDi=141
 NAtoms=    6 NActive=    6 NUniq=    6 SFac= 1.00D+00 NAtFMM=   60 NAOKFM=F Big=F
 Integral buffers will be    131072 words long.
 Raffenetti 2 integral format.
 Two-electron integral symmetry is turned on.
 R6Disp:  Grimme-D3(BJ) Dispersion energy=       -0.0043702156 Hartrees.
 Nuclear repulsion after empirical dispersion term =       46.2471107794 Hartrees.
 Leave Link  301 at Tue Oct  6 20:46:28 2020, MaxMem=  2684354560 cpu:               1.8 elap:               0.5
 (Enter /udrive/faculty/rpeverati/g16/g16/l302.exe)
 NPDir=0 NMtPBC=     1 NCelOv=     1 NCel=       1 NClECP=     1 NCelD=      1
         NCelK=      1 NCelE2=     1 NClLst=     1 CellRange=     0.0.
 One-electron integrals computed using PRISM.
 One-electron integral symmetry used in STVInt
 NBasis=    40 RedAO= T EigKep=  1.04D-02  NBF=    40
 NBsUse=    40 1.00D-06 EigRej= -1.00D+00 NBFU=    40
 Precomputing XC quadrature grid using
 IXCGrd= 4 IRadAn=           5 IRanWt=          -1 IRanGd=           0 AccXCQ= 0.00D+00.
 Generated NRdTot=       0 NPtTot=           0 NUsed=           0 NTot=          32
 NSgBfM=    42    42    42    42    42 MxSgAt=     6 MxSgA2=     6.
 Leave Link  302 at Tue Oct  6 20:46:29 2020, MaxMem=  2684354560 cpu:               3.2 elap:               0.6
 (Enter /udrive/faculty/rpeverati/g16/g16/l303.exe)
 DipDrv:  MaxL=1.
 Leave Link  303 at Tue Oct  6 20:46:29 2020, MaxMem=  2684354560 cpu:               1.3 elap:               0.5
 (Enter /udrive/faculty/rpeverati/g16/g16/l401.exe)
 SCF N**3 symmetry information disabled.
 ExpMin= 1.43D-01 ExpMax= 2.52D+04 ExpMxC= 3.78D+03 IAcc=3 IRadAn=         5 AccDes= 0.00D+00
 Harris functional with IExCor=  402 and IRadAn=       5 diagonalized for initial guess.
 HarFok:  IExCor=  402 AccDes= 0.00D+00 IRadAn=         5 IDoV= 1 UseB2=F ITyADJ=14
 ICtDFT=  3500011 ScaDFX=  1.000000  1.000000  1.000000  1.000000
 FoFCou: FMM=F IPFlag=           0 FMFlag=      100000 FMFlg1=           0
         NFxFlg=           0 DoJE=T BraDBF=F KetDBF=T FulRan=T
         wScrn=  0.000000 ICntrl=       500 IOpCl=  0 I1Cent=   200000004 NGrid=           0
         NMat0=    1 NMatS0=      1 NMatT0=    0 NMatD0=    1 NMtDS0=    0 NMtDT0=    0
 Petite list used in FoFCou.
 Harris En= -500.568635148049    
 JPrj=0 DoOrth=F DoCkMO=F.
 Initial guess <Sx>= 0.0000 <Sy>= 0.0000 <Sz>= 0.5000 <S**2>= 0.7500 S= 0.5000
 Leave Link  401 at Tue Oct  6 20:46:30 2020, MaxMem=  2684354560 cpu:               5.0 elap:               0.8
 (Enter /udrive/faculty/rpeverati/g16/g16/l502.exe)
 Keep R1 and R2 ints in memory in canonical form, NReq=11031061.
 FoFCou: FMM=F IPFlag=           0 FMFlag=           0 FMFlg1=           0
         NFxFlg=           0 DoJE=F BraDBF=F KetDBF=F FulRan=T
         wScrn=  0.000000 ICntrl=       600 IOpCl=  0 I1Cent=           0 NGrid=           0
         NMat0=    1 NMatS0=    820 NMatT0=    0 NMatD0=    1 NMtDS0=    0 NMtDT0=    0
 Symmetry not used in FoFCou.
 Two-electron integral symmetry not used.
 UHF open shell SCF:
 Using DIIS extrapolation, IDIIS=  1040.
 NGot=  2684354560 LenX=  2683676641 LenY=  2683674436
 Requested convergence on RMS density matrix=1.00D-08 within 120 cycles.
 Requested convergence on MAX density matrix=1.00D-06.
 Requested convergence on             energy=1.00D-06.
 No special actions if energy rises.
 Integral accuracy reduced to 1.0D-05 until final iterations.

 Cycle   1  Pass 0  IDiag  1:
 E= -500.569699121249    
 DIIS: error= 4.24D-02 at cycle   1 NSaved=   1.
 NSaved= 1 IEnMin= 1 EnMin= -500.569699121249     IErMin= 1 ErrMin= 4.24D-02
 ErrMax= 4.24D-02  0.00D+00 EMaxC= 1.00D-01 BMatC= 2.45D-01 BMatP= 2.45D-01
 IDIUse=3 WtCom= 5.76D-01 WtEn= 4.24D-01
 Coeff-Com:  0.100D+01
 Coeff-En:   0.100D+01
 Coeff:      0.100D+01
 Gap=     0.379 Goal=   None    Shift=    0.000
 Gap=     0.232 Goal=   None    Shift=    0.000
 GapD=    0.232 DampG=1.000 DampE=0.500 DampFc=0.5000 IDamp=-1.
 Damping current iteration by 5.00D-01
 RMSDP=1.41D-02 MaxDP=1.47D-01              OVMax= 3.18D-01

 Cycle   2  Pass 0  IDiag  1:
 E= -500.599341947933     Delta-E=       -0.029642826684 Rises=F Damp=T
 DIIS: error= 9.66D-03 at cycle   2 NSaved=   2.
 NSaved= 2 IEnMin= 2 EnMin= -500.599341947933     IErMin= 2 ErrMin= 9.66D-03
 ErrMax= 9.66D-03  0.00D+00 EMaxC= 1.00D-01 BMatC= 1.44D-02 BMatP= 2.45D-01
 IDIUse=3 WtCom= 9.03D-01 WtEn= 9.66D-02
 Coeff-Com:  0.120D+00 0.880D+00
 Coeff-En:   0.203D+00 0.797D+00
 Coeff:      0.128D+00 0.872D+00
 Gap=     0.368 Goal=   None    Shift=    0.000
 Gap=     0.245 Goal=   None    Shift=    0.000
 RMSDP=3.50D-03 MaxDP=4.04D-02 DE=-2.96D-02 OVMax= 1.67D-01

 Cycle   3  Pass 0  IDiag  1:
 E= -500.641138219355     Delta-E=       -0.041796271422 Rises=F Damp=F
 DIIS: error= 4.32D-03 at cycle   3 NSaved=   3.
 NSaved= 3 IEnMin= 3 EnMin= -500.641138219355     IErMin= 3 ErrMin= 4.32D-03
 ErrMax= 4.32D-03  0.00D+00 EMaxC= 1.00D-01 BMatC= 1.71D-03 BMatP= 1.44D-02
 IDIUse=3 WtCom= 9.57D-01 WtEn= 4.32D-02
 Coeff-Com:  0.186D-01 0.167D+00 0.815D+00
 Coeff-En:   0.000D+00 0.000D+00 0.100D+01
 Coeff:      0.178D-01 0.160D+00 0.823D+00
 Gap=     0.368 Goal=   None    Shift=    0.000
 Gap=     0.144 Goal=   None    Shift=    0.000
 RMSDP=1.14D-03 MaxDP=1.41D-02 DE=-4.18D-02 OVMax= 2.52D-02

 Cycle   4  Pass 0  IDiag  1:
 E= -500.641685892471     Delta-E=       -0.000547673116 Rises=F Damp=F
 DIIS: error= 2.17D-03 at cycle   4 NSaved=   4.
 NSaved= 4 IEnMin= 4 EnMin= -500.641685892471     IErMin= 4 ErrMin= 2.17D-03
 ErrMax= 2.17D-03  0.00D+00 EMaxC= 1.00D-01 BMatC= 5.87D-04 BMatP= 1.71D-03
 IDIUse=3 WtCom= 9.78D-01 WtEn= 2.17D-02
 Coeff-Com: -0.104D-02-0.456D-01 0.334D+00 0.713D+00
 Coeff-En:   0.000D+00 0.000D+00 0.000D+00 0.100D+01
 Coeff:     -0.102D-02-0.446D-01 0.327D+00 0.719D+00
 Gap=     0.366 Goal=   None    Shift=    0.000
 Gap=     0.142 Goal=   None    Shift=    0.000
 RMSDP=6.13D-04 MaxDP=6.01D-03 DE=-5.48D-04 OVMax= 7.47D-03

 Cycle   5  Pass 0  IDiag  1:
 E= -500.641894991458     Delta-E=       -0.000209098987 Rises=F Damp=F
 DIIS: error= 3.30D-04 at cycle   5 NSaved=   5.
 NSaved= 5 IEnMin= 5 EnMin= -500.641894991458     IErMin= 5 ErrMin= 3.30D-04
 ErrMax= 3.30D-04  0.00D+00 EMaxC= 1.00D-01 BMatC= 1.42D-05 BMatP= 5.87D-04
 IDIUse=3 WtCom= 9.97D-01 WtEn= 3.30D-03
 Coeff-Com: -0.356D-02-0.240D-02-0.996D-01-0.998D-01 0.121D+01
 Coeff-En:   0.000D+00 0.000D+00 0.000D+00 0.000D+00 0.100D+01
 Coeff:     -0.355D-02-0.240D-02-0.993D-01-0.994D-01 0.120D+01
 Gap=     0.367 Goal=   None    Shift=    0.000
 Gap=     0.143 Goal=   None    Shift=    0.000
 RMSDP=1.38D-04 MaxDP=1.34D-03 DE=-2.09D-04 OVMax= 3.66D-03

 Cycle   6  Pass 0  IDiag  1:
 E= -500.641906035846     Delta-E=       -0.000011044388 Rises=F Damp=F
 DIIS: error= 7.32D-05 at cycle   6 NSaved=   6.
 NSaved= 6 IEnMin= 6 EnMin= -500.641906035846     IErMin= 6 ErrMin= 7.32D-05
 ErrMax= 7.32D-05  0.00D+00 EMaxC= 1.00D-01 BMatC= 1.09D-06 BMatP= 1.42D-05
 IDIUse=1 WtCom= 1.00D+00 WtEn= 0.00D+00
 Coeff-Com: -0.556D-03 0.249D-02-0.326D-01-0.559D-01 0.240D+00 0.847D+00
 Coeff:     -0.556D-03 0.249D-02-0.326D-01-0.559D-01 0.240D+00 0.847D+00
 Gap=     0.367 Goal=   None    Shift=    0.000
 Gap=     0.143 Goal=   None    Shift=    0.000
 RMSDP=2.72D-05 MaxDP=2.43D-04 DE=-1.10D-05 OVMax= 4.33D-04

 Cycle   7  Pass 0  IDiag  1:
 E= -500.641906514487     Delta-E=       -0.000000478641 Rises=F Damp=F
 DIIS: error= 2.22D-05 at cycle   7 NSaved=   7.
 NSaved= 7 IEnMin= 7 EnMin= -500.641906514487     IErMin= 7 ErrMin= 2.22D-05
 ErrMax= 2.22D-05  0.00D+00 EMaxC= 1.00D-01 BMatC= 1.07D-07 BMatP= 1.09D-06
 IDIUse=1 WtCom= 1.00D+00 WtEn= 0.00D+00
 Coeff-Com:  0.179D-03 0.459D-03 0.124D-02-0.214D-02-0.492D-01 0.148D+00
 Coeff-Com:  0.901D+00
 Coeff:      0.179D-03 0.459D-03 0.124D-02-0.214D-02-0.492D-01 0.148D+00
 Coeff:      0.901D+00
 Gap=     0.367 Goal=   None    Shift=    0.000
 Gap=     0.143 Goal=   None    Shift=    0.000
 RMSDP=8.02D-06 MaxDP=6.47D-05 DE=-4.79D-07 OVMax= 8.30D-05

 Initial convergence to 1.0D-05 achieved.  Increase integral accuracy.
 Cycle   8  Pass 1  IDiag  1:
 E= -500.641909063962     Delta-E=       -0.000002549475 Rises=F Damp=F
 DIIS: error= 1.13D-05 at cycle   1 NSaved=   1.
 NSaved= 1 IEnMin= 1 EnMin= -500.641909063962     IErMin= 1 ErrMin= 1.13D-05
 ErrMax= 1.13D-05  0.00D+00 EMaxC= 1.00D-01 BMatC= 1.31D-08 BMatP= 1.31D-08
 IDIUse=1 WtCom= 1.00D+00 WtEn= 0.00D+00
 Coeff-Com:  0.100D+01
 Coeff:      0.100D+01
 Gap=     0.367 Goal=   None    Shift=    0.000
 Gap=     0.143 Goal=   None    Shift=    0.000
 RMSDP=8.02D-06 MaxDP=6.47D-05 DE=-2.55D-06 OVMax= 3.21D-05

 Cycle   9  Pass 1  IDiag  1:
 E= -500.641909068339     Delta-E=       -0.000000004376 Rises=F Damp=F
 DIIS: error= 7.66D-06 at cycle   2 NSaved=   2.
 NSaved= 2 IEnMin= 2 EnMin= -500.641909068339     IErMin= 2 ErrMin= 7.66D-06
 ErrMax= 7.66D-06  0.00D+00 EMaxC= 1.00D-01 BMatC= 4.93D-09 BMatP= 1.31D-08
 IDIUse=1 WtCom= 1.00D+00 WtEn= 0.00D+00
 Coeff-Com:  0.345D+00 0.655D+00
 Coeff:      0.345D+00 0.655D+00
 Gap=     0.367 Goal=   None    Shift=    0.000
 Gap=     0.143 Goal=   None    Shift=    0.000
 RMSDP=1.32D-06 MaxDP=1.17D-05 DE=-4.38D-09 OVMax= 1.20D-05

 Cycle  10  Pass 1  IDiag  1:
 E= -500.641909069838     Delta-E=       -0.000000001499 Rises=F Damp=F
 DIIS: error= 1.84D-06 at cycle   3 NSaved=   3.
 NSaved= 3 IEnMin= 3 EnMin= -500.641909069838     IErMin= 3 ErrMin= 1.84D-06
 ErrMax= 1.84D-06  0.00D+00 EMaxC= 1.00D-01 BMatC= 3.60D-10 BMatP= 4.93D-09
 IDIUse=1 WtCom= 1.00D+00 WtEn= 0.00D+00
 Coeff-Com: -0.202D+00-0.947D-01 0.130D+01
 Coeff:     -0.202D+00-0.947D-01 0.130D+01
 Gap=     0.367 Goal=   None    Shift=    0.000
 Gap=     0.143 Goal=   None    Shift=    0.000
 RMSDP=5.93D-07 MaxDP=6.54D-06 DE=-1.50D-09 OVMax= 9.47D-06

 Cycle  11  Pass 1  IDiag  1:
 E= -500.641909070062     Delta-E=       -0.000000000224 Rises=F Damp=F
 DIIS: error= 8.02D-07 at cycle   4 NSaved=   4.
 NSaved= 4 IEnMin= 4 EnMin= -500.641909070062     IErMin= 4 ErrMin= 8.02D-07
 ErrMax= 8.02D-07  0.00D+00 EMaxC= 1.00D-01 BMatC= 8.38D-11 BMatP= 3.60D-10
 IDIUse=1 WtCom= 1.00D+00 WtEn= 0.00D+00
 Coeff-Com: -0.119D+00-0.890D-01 0.619D+00 0.589D+00
 Coeff:     -0.119D+00-0.890D-01 0.619D+00 0.589D+00
 Gap=     0.367 Goal=   None    Shift=    0.000
 Gap=     0.143 Goal=   None    Shift=    0.000
 RMSDP=1.67D-07 MaxDP=2.00D-06 DE=-2.24D-10 OVMax= 2.63D-06

 Cycle  12  Pass 1  IDiag  1:
 E= -500.641909070085     Delta-E=       -0.000000000023 Rises=F Damp=F
 DIIS: error= 2.15D-07 at cycle   5 NSaved=   5.
 NSaved= 5 IEnMin= 5 EnMin= -500.641909070085     IErMin= 5 ErrMin= 2.15D-07
 ErrMax= 2.15D-07  0.00D+00 EMaxC= 1.00D-01 BMatC= 7.05D-12 BMatP= 8.38D-11
 IDIUse=1 WtCom= 1.00D+00 WtEn= 0.00D+00
 Coeff-Com: -0.371D-01-0.335D-01 0.173D+00 0.281D+00 0.617D+00
 Coeff:     -0.371D-01-0.335D-01 0.173D+00 0.281D+00 0.617D+00
 Gap=     0.367 Goal=   None    Shift=    0.000
 Gap=     0.143 Goal=   None    Shift=    0.000
 RMSDP=4.38D-08 MaxDP=4.75D-07 DE=-2.29D-11 OVMax= 1.26D-06

 Cycle  13  Pass 1  IDiag  1:
 E= -500.641909070088     Delta-E=       -0.000000000004 Rises=F Damp=F
 DIIS: error= 3.71D-08 at cycle   6 NSaved=   6.
 NSaved= 6 IEnMin= 6 EnMin= -500.641909070088     IErMin= 6 ErrMin= 3.71D-08
 ErrMax= 3.71D-08  0.00D+00 EMaxC= 1.00D-01 BMatC= 1.58D-13 BMatP= 7.05D-12
 IDIUse=1 WtCom= 1.00D+00 WtEn= 0.00D+00
 Coeff-Com:  0.129D-01 0.974D-02-0.666D-01-0.733D-01-0.157D-01 0.113D+01
 Coeff:      0.129D-01 0.974D-02-0.666D-01-0.733D-01-0.157D-01 0.113D+01
 Gap=     0.367 Goal=   None    Shift=    0.000
 Gap=     0.143 Goal=   None    Shift=    0.000
 RMSDP=1.63D-08 MaxDP=1.38D-07 DE=-3.87D-12 OVMax= 2.73D-07

 Cycle  14  Pass 1  IDiag  1:
 E= -500.641909070089     Delta-E=       -0.000000000000 Rises=F Damp=F
 DIIS: error= 1.26D-08 at cycle   7 NSaved=   7.
 NSaved= 7 IEnMin= 7 EnMin= -500.641909070089     IErMin= 7 ErrMin= 1.26D-08
 ErrMax= 1.26D-08  0.00D+00 EMaxC= 1.00D-01 BMatC= 1.51D-14 BMatP= 1.58D-13
 IDIUse=1 WtCom= 1.00D+00 WtEn= 0.00D+00
 Coeff-Com:  0.544D-02 0.441D-02-0.273D-01-0.350D-01-0.301D-01 0.326D+00
 Coeff-Com:  0.756D+00
 Coeff:      0.544D-02 0.441D-02-0.273D-01-0.350D-01-0.301D-01 0.326D+00
 Coeff:      0.756D+00
 Gap=     0.367 Goal=   None    Shift=    0.000
 Gap=     0.143 Goal=   None    Shift=    0.000
 RMSDP=2.85D-09 MaxDP=3.50D-08 DE=-2.27D-13 OVMax= 5.46D-08

 SCF Done:  E(UB3LYP) =  -500.641909070     A.U. after   14 cycles
            NFock= 14  Conv=0.28D-08     -V/T= 2.0020
 <Sx>= 0.0000 <Sy>= 0.0000 <Sz>= 0.5000 <S**2>= 0.7560 S= 0.5030
 <L.S>= 0.000000000000E+00
 KE= 4.996479970290D+02 PE=-1.280461923467D+03 EE= 2.339249065885D+02
 Annihilation of the first spin contaminant:
 S**2 before annihilation     0.7560,   after     0.7500
 Leave Link  502 at Tue Oct  6 20:46:33 2020, MaxMem=  2684354560 cpu:              25.1 elap:               2.5
 (Enter /udrive/faculty/rpeverati/g16/g16/l508.exe)
 QCSCF skips out because SCF is already converged.
 Leave Link  508 at Tue Oct  6 20:46:34 2020, MaxMem=  2684354560 cpu:               0.4 elap:               0.3
 (Enter /udrive/faculty/rpeverati/g16/g16/l801.exe)
 DoSCS=F DFT=T ScalE2(SS,OS)=  1.000000  1.000000
 Range of M.O.s used for correlation:     1    40
 NBasis=    40 NAE=    14 NBE=    13 NFC=     0 NFV=     0
 NROrb=     40 NOA=    14 NOB=    13 NVA=    26 NVB=    27
 Leave Link  801 at Tue Oct  6 20:46:35 2020, MaxMem=  2684354560 cpu:               1.4 elap:               0.4
 (Enter /udrive/faculty/rpeverati/g16/g16/l1101.exe)
 Using compressed storage, NAtomX=     6.
 Will process      7 centers per pass.
 R6Disp: Adding Grimme-D3(BJ) dispersion energy 1st derivatives to the gradient.
 Leave Link 1101 at Tue Oct  6 20:46:36 2020, MaxMem=  2684354560 cpu:               3.7 elap:               0.6
 (Enter /udrive/faculty/rpeverati/g16/g16/l1102.exe)
 Symmetrizing basis deriv contribution to polar:
 IMax=3 JMax=2 DiffMx= 0.00D+00
 Leave Link 1102 at Tue Oct  6 20:46:37 2020, MaxMem=  2684354560 cpu:               1.7 elap:               0.5
 (Enter /udrive/faculty/rpeverati/g16/g16/l1110.exe)
 Forming Gx(P) for the SCF density, NAtomX=     6.
 Integral derivatives from FoFJK, PRISM(SPDF).
 Do as many integral derivatives as possible in FoFJK.
 G2DrvN: MDV=    2684353992.
 G2DrvN: will do     7 centers at a time, making    1 passes.
 Calling FoFCou, ICntrl=  3107 FMM=F I1Cent=   0 AccDes= 0.00D+00.
 FoFJK:  IHMeth= 1 ICntrl=    3107 DoSepK=F KAlg= 0 I1Cent=           0 FoldK=F
 IRaf=         0 NMat=       1 IRICut=       1 DoRegI=T DoRafI=F ISym2E= 0 IDoP0=0 IntGTp=1.
 FoFCou: FMM=F IPFlag=           0 FMFlag=      100000 FMFlg1=           0
         NFxFlg=           0 DoJE=F BraDBF=F KetDBF=F FulRan=T
         wScrn=  0.000000 ICntrl=      3107 IOpCl=  1 I1Cent=           0 NGrid=           0
         NMat0=    1 NMatS0=      1 NMatT0=    0 NMatD0=    1 NMtDS0=    0 NMtDT0=    0
 Symmetry not used in FoFCou.
 End of G2Drv F.D. properties file   721 does not exist.
 End of G2Drv F.D. properties file   722 does not exist.
 End of G2Drv F.D. properties file   788 does not exist.
 Leave Link 1110 at Tue Oct  6 20:46:39 2020, MaxMem=  2684354560 cpu:              24.6 elap:               2.5
 (Enter /udrive/faculty/rpeverati/g16/g16/l1002.exe)
 Minotr:  UHF open shell wavefunction.
          IDoAtm=111111
          Direct CPHF calculation.
          Differentiating once with respect to nuclear coordinates.
          Requested convergence is 1.0D-08 RMS, and 1.0D-07 maximum.
          Secondary convergence is 1.0D-12 RMS, and 1.0D-12 maximum.
          NewPWx=T KeepS1=F KeepF1=F KeepIn=T MapXYZ=F SortEE=F KeepMc=T.
         1761 words used for storage of precomputed grid.
 Keep R1 and R2 ints in memory in canonical form, NReq=10994480.
 FoFCou: FMM=F IPFlag=           0 FMFlag=           0 FMFlg1=           0
         NFxFlg=           0 DoJE=F BraDBF=F KetDBF=F FulRan=T
         wScrn=  0.000000 ICntrl=       600 IOpCl=  0 I1Cent=           0 NGrid=           0
         NMat0=    1 NMatS0=    820 NMatT0=    0 NMatD0=    1 NMtDS0=    0 NMtDT0=    0
 Symmetry not used in FoFCou.
 Two-electron integral symmetry not used.
          MDV=    2684354560 using IRadAn=       1.
          Solving linear equations simultaneously, MaxMat=       0.
          There are    21 degrees of freedom in the 1st order CPHF.  IDoFFX=6 NUNeed=     0.
     15 vectors produced by pass  0 Test12= 3.40D-15 4.76D-09 XBig12= 1.30D-01 1.84D-01.
 AX will form    15 AO Fock derivatives at one time.
     15 vectors produced by pass  1 Test12= 3.40D-15 4.76D-09 XBig12= 5.01D-03 3.85D-02.
     15 vectors produced by pass  2 Test12= 3.40D-15 4.76D-09 XBig12= 5.86D-04 8.26D-03.
     15 vectors produced by pass  3 Test12= 3.40D-15 4.76D-09 XBig12= 3.94D-06 5.19D-04.
     15 vectors produced by pass  4 Test12= 3.40D-15 4.76D-09 XBig12= 1.02D-07 7.85D-05.
     14 vectors produced by pass  5 Test12= 3.40D-15 4.76D-09 XBig12= 6.49D-10 7.06D-06.
      7 vectors produced by pass  6 Test12= 3.40D-15 4.76D-09 XBig12= 1.28D-12 3.04D-07.
      1 vectors produced by pass  7 Test12= 3.40D-15 4.76D-09 XBig12= 2.70D-15 1.29D-08.
 InvSVY:  IOpt=1 It=  1 EMax= 1.55D-15
 Solved reduced A of dimension    97 with    15 vectors.
 End of Minotr F.D. properties file   721 does not exist.
 End of Minotr F.D. properties file   722 does not exist.
 End of Minotr F.D. properties file   788 does not exist.
 Leave Link 1002 at Tue Oct  6 20:46:43 2020, MaxMem=  2684354560 cpu:              36.2 elap:               3.5
 (Enter /udrive/faculty/rpeverati/g16/g16/l601.exe)
 Copying SCF densities to generalized density rwf, IOpCl= 1 IROHF=0.

 **********************************************************************

            Population analysis using the SCF density.

 **********************************************************************

 Orbital symmetries:
 Alpha Orbitals:
       Occupied  (A) (A) (A) (A) (A) (A) (A) (A) (A) (A) (A) (A)
                 (A) (A)
       Virtual   (A) (A) (A) (A) (A) (A) (A) (A) (A) (A) (A) (A)
                 (A) (A) (A) (A) (A) (A) (A) (A) (A) (A) (A) (A)
                 (A) (A)
 Beta  Orbitals:
       Occupied  (A) (A) (A) (A) (A) (A) (A) (A) (A) (A) (A) (A)
                 (A)
       Virtual   (A) (A) (A) (A) (A) (A) (A) (A) (A) (A) (A) (A)
                 (A) (A) (A) (A) (A) (A) (A) (A) (A) (A) (A) (A)
                 (A) (A) (A)
 The electronic state is 2-A.
 Alpha  occ. eigenvalues -- -101.50858 -10.22910  -9.44153  -7.20822  -7.19412
 Alpha  occ. eigenvalues --   -7.19412  -0.82058  -0.73474  -0.47209  -0.45556
 Alpha  occ. eigenvalues --   -0.45556  -0.30827  -0.30827  -0.27806
 Alpha virt. eigenvalues --    0.08881   0.14547   0.14620   0.14620   0.39302
 Alpha virt. eigenvalues --    0.42418   0.42419   0.43913   0.53444   0.53776
 Alpha virt. eigenvalues --    0.53777   0.85159   0.85189   0.85190   0.87598
 Alpha virt. eigenvalues --    0.87599   0.89066   0.89067   0.99680   1.03599
 Alpha virt. eigenvalues --    1.34925   1.59456   1.59456   2.01281   2.17257
 Alpha virt. eigenvalues --    2.17257
  Beta  occ. eigenvalues -- -101.50521 -10.21878  -9.43834  -7.19786  -7.19215
  Beta  occ. eigenvalues --   -7.19215  -0.79808  -0.70645  -0.44811  -0.44811
  Beta  occ. eigenvalues --   -0.43545  -0.30121  -0.30121
  Beta virt. eigenvalues --   -0.15810   0.09855   0.15179   0.15179   0.16809
  Beta virt. eigenvalues --    0.40498   0.42767   0.42768   0.46474   0.54281
  Beta virt. eigenvalues --    0.54282   0.57487   0.86133   0.86760   0.86761
  Beta virt. eigenvalues --    0.89129   0.89129   0.89649   0.89650   1.00579
  Beta virt. eigenvalues --    1.05899   1.36078   1.63720   1.63720   2.06505
  Beta virt. eigenvalues --    2.18521   2.18521
          Condensed to atoms (all electrons):
               1          2          3          4          5          6
     1  C    5.382018   0.370553   0.370545   0.370542   0.139175  -0.105934
     2  H    0.370553   0.479895  -0.023294  -0.023295  -0.015590   0.001038
     3  H    0.370545  -0.023294   0.479901  -0.023295  -0.015583   0.001039
     4  H    0.370542  -0.023295  -0.023295   0.479904  -0.015579   0.001039
     5  H    0.139175  -0.015590  -0.015583  -0.015579   0.671335   0.147790
     6  Cl  -0.105934   0.001038   0.001039   0.001039   0.147790  17.148649
          Atomic-Atomic Spin Densities.
               1          2          3          4          5          6
     1  C    0.804701  -0.017365  -0.017366  -0.017366   0.067733  -0.106977
     2  H   -0.017365  -0.013678   0.003171   0.003171   0.000685   0.003614
     3  H   -0.017366   0.003171  -0.013673   0.003172   0.000684   0.003614
     4  H   -0.017366   0.003171   0.003172  -0.013671   0.000683   0.003613
     5  H    0.067733   0.000685   0.000684   0.000683  -0.111906  -0.022217
     6  Cl  -0.106977   0.003614   0.003614   0.003613  -0.022217   0.530526
 Mulliken charges and spin densities:
               1          2
     1  C   -0.526898   0.713360
     2  H    0.210694  -0.020401
     3  H    0.210688  -0.020398
     4  H    0.210684  -0.020398
     5  H    0.088452  -0.064338
     6  Cl  -0.193620   0.412175
 Sum of Mulliken charges =  -0.00000   1.00000
 Mulliken charges and spin densities with hydrogens summed into heavy atoms:
               1          2
     1  C    0.193620   0.587825
     6  Cl  -0.193620   0.412175
 APT charges:
               1
     1  C   -1.208043
     2  H    0.424958
     3  H    0.425014
     4  H    0.425051
     5  H    0.167539
     6  Cl  -0.234520
 Sum of APT charges =  -0.00000
 APT charges with hydrogens summed into heavy atoms:
               1
     1  C    0.234520
     6  Cl  -0.234520
 Electronic spatial extent (au):  <R**2>=            236.9660
 Charge=             -0.0000 electrons
 Dipole moment (field-independent basis, Debye):
    X=              1.8489    Y=              1.3090    Z=              1.9624  Tot=              2.9972
 Quadrupole moment (field-independent basis, Debye-Ang):
   XX=            -20.0519   YY=            -20.4632   ZZ=            -19.9480
   XY=              0.5833   XZ=              0.8745   YZ=              0.6190
 Traceless Quadrupole moment (field-independent basis, Debye-Ang):
   XX=              0.1024   YY=             -0.3088   ZZ=              0.2064
   XY=              0.5833   XZ=              0.8745   YZ=              0.6190
 Octapole moment (field-independent basis, Debye-Ang**2):
  XXX=              1.1122  YYY=              1.1614  ZZZ=              1.3192  XYY=              0.8496
  XXY=             -0.3909  XXZ=              0.1545  XZZ=             -0.6570  YZZ=              0.1534
  YYZ=             -0.0885  XYZ=             -0.9727
 Hexadecapole moment (field-independent basis, Debye-Ang**3):
 XXXX=           -113.4718 YYYY=            -71.1871 ZZZZ=           -122.7204 XXXY=            -30.7005
 XXXZ=            -43.1603 YYYX=            -28.1329 YYYZ=            -32.5756 ZZZX=            -45.6107
 ZZZY=            -29.7537 XXYY=            -29.5079 XXZZ=            -39.0790 YYZZ=            -32.6443
 XXYZ=            -11.1008 YYXZ=            -14.9356 ZZXY=            -10.3430
 N-N= 4.624711077943D+01 E-N=-1.280461924542D+03  KE= 4.996479970290D+02
  Exact polarizability:   0.000   0.000   0.000   0.000   0.000   0.000
 Approx polarizability:  34.892   9.587  28.137  14.373  10.175  36.604
                          Isotropic Fermi Contact Couplings
        Atom                 a.u.       MegaHertz       Gauss      10(-4) cm-1
     1  C(13)              0.14261     160.32352      57.20742      53.47817
     2  H(1)              -0.00635     -28.38099     -10.12704      -9.46688
     3  H(1)              -0.00635     -28.37361     -10.12441      -9.46442
     4  H(1)              -0.00635     -28.37101     -10.12348      -9.46355
     5  H(1)              -0.01644     -73.47362     -26.21722     -24.50816
     6  Cl(35)             0.11469      50.28838      17.94414      16.77440
 --------------------------------------------------------
       Center         ----  Spin Dipole Couplings  ----
                      3XX-RR        3YY-RR        3ZZ-RR
 --------------------------------------------------------
     1   Atom        0.053396     -0.161861      0.108465
     2   Atom        0.013378     -0.037373      0.023995
     3   Atom       -0.024299      0.021124      0.003174
     4   Atom        0.010301      0.018121     -0.028422
     5   Atom        0.012543     -0.037936      0.025393
     6   Atom        0.198649     -0.599491      0.400841
 --------------------------------------------------------
                        XY            XZ            YZ
 --------------------------------------------------------
     1   Atom        0.305978      0.458692      0.324897
     2   Atom        0.001312     -0.031490      0.023712
     3   Atom        0.032692      0.002131     -0.032166
     4   Atom       -0.037540      0.024060      0.004700
     5   Atom        0.071688      0.107474      0.076102
     6   Atom        1.132638      1.698045      1.202077
 --------------------------------------------------------


 ---------------------------------------------------------------------------------
              Anisotropic Spin Dipole Couplings in Principal Axis System
 ---------------------------------------------------------------------------------

       Atom             a.u.   MegaHertz   Gauss  10(-4) cm-1        Axes

              Baa    -0.3786   -50.803   -18.128   -16.946 -0.2476  0.8973 -0.3654
     1 C(13)  Bbb    -0.3786   -50.803   -18.128   -16.946  0.7472 -0.0632 -0.6616
              Bcc     0.7572   101.606    36.255    33.892  0.6167  0.4368  0.6549
 
              Baa    -0.0480   -25.632    -9.146    -8.550 -0.2191  0.8943 -0.3902
     2 H(1)   Bbb    -0.0060    -3.195    -1.140    -1.066  0.7718  0.4035  0.4914
              Bcc     0.0540    28.826    10.286     9.615 -0.5969  0.1934  0.7786
 
              Baa    -0.0480   -25.632    -9.146    -8.550  0.7643 -0.5312 -0.3655
     3 H(1)   Bbb    -0.0060    -3.195    -1.140    -1.066  0.5581  0.2613  0.7875
              Bcc     0.0540    28.827    10.286     9.616  0.3229  0.8059 -0.4962
 
              Baa    -0.0480   -25.632    -9.146    -8.550 -0.5452 -0.3630  0.7556
     4 H(1)   Bbb    -0.0060    -3.195    -1.140    -1.066  0.4723  0.6117  0.6346
              Bcc     0.0540    28.827    10.286     9.616 -0.6926  0.7029 -0.1620
 
              Baa    -0.0887   -47.325   -16.887   -15.786 -0.2356  0.8962 -0.3759
     5 H(1)   Bbb    -0.0887   -47.325   -16.887   -15.786  0.7510 -0.0776 -0.6557
              Bcc     0.1774    94.650    33.774    31.572  0.6168  0.4368  0.6548
 
              Baa    -1.4013   -73.341   -26.170   -24.464 -0.6665 -0.1526  0.7298
     6 Cl(35) Bbb    -1.4013   -73.341   -26.170   -24.464 -0.4186  0.8866 -0.1969
              Bcc     2.8026   146.682    52.340    48.928  0.6169  0.4367  0.6547
 

 ---------------------------------------------------------------------------------

 No NMR shielding tensors so no spin-rotation constants.
 Leave Link  601 at Tue Oct  6 20:46:44 2020, MaxMem=  2684354560 cpu:               4.3 elap:               0.6
 (Enter /udrive/faculty/rpeverati/g16/g16/l701.exe)
 ... and contract with generalized density number  0.
 Compute integral second derivatives.
 R6Disp: Adding Grimme-D3(BJ) dispersion energy 2nd derivatives to the Hessian.
 Leave Link  701 at Tue Oct  6 20:46:45 2020, MaxMem=  2684354560 cpu:               4.1 elap:               0.9
 (Enter /udrive/faculty/rpeverati/g16/g16/l702.exe)
 L702 exits ... SP integral derivatives will be done elsewhere.
 Leave Link  702 at Tue Oct  6 20:46:46 2020, MaxMem=  2684354560 cpu:               1.4 elap:               0.5
 (Enter /udrive/faculty/rpeverati/g16/g16/l703.exe)
 Integral derivatives from FoFJK, PRISM(SPDF).
 Compute integral second derivatives, UseDBF=F ICtDFT=           0.
 Calling FoFJK, ICntrl=    100147 FMM=F ISym2X=0 I1Cent= 0 IOpClX= 1 NMat=1 NMatS=1 NMatT=0.
 FoFJK:  IHMeth= 1 ICntrl=  100147 DoSepK=F KAlg= 0 I1Cent=           0 FoldK=F
 IRaf=         0 NMat=       1 IRICut=       1 DoRegI=T DoRafI=F ISym2E= 0 IDoP0=0 IntGTp=1.
 FoFCou: FMM=F IPFlag=           0 FMFlag=      100000 FMFlg1=         800
         NFxFlg=           0 DoJE=F BraDBF=F KetDBF=F FulRan=T
         wScrn=  0.000000 ICntrl=    100147 IOpCl=  1 I1Cent=           0 NGrid=           0
         NMat0=    1 NMatS0=      1 NMatT0=    0 NMatD0=    1 NMtDS0=    0 NMtDT0=    0
 Symmetry not used in FoFCou.
 Leave Link  703 at Tue Oct  6 20:46:49 2020, MaxMem=  2684354560 cpu:              29.6 elap:               2.9
 (Enter /udrive/faculty/rpeverati/g16/g16/l716.exe)
 Dipole        = 7.27406615D-01 5.15005738D-01 7.72080903D-01
 Polarizability= 0.00000000D+00 0.00000000D+00 0.00000000D+00
                 0.00000000D+00 0.00000000D+00 0.00000000D+00
 ***** Axes restored to original set *****
 -------------------------------------------------------------------
 Center     Atomic                   Forces (Hartrees/Bohr)
 Number     Number              X              Y              Z
 -------------------------------------------------------------------
      1        6           0.008097239   -0.000752060   -0.000974859
      2        1          -0.002111968   -0.003249740   -0.001403084
      3        1          -0.001570643    0.003266569   -0.001959234
      4        1          -0.001121967    0.000429787    0.003940677
      5        1          -0.016487350    0.001536357    0.001988335
      6       17           0.013194689   -0.001230913   -0.001591836
 -------------------------------------------------------------------
 Cartesian Forces:  Max     0.016487350 RMS     0.005648574
 Force constants in Cartesian coordinates: 
                1             2             3             4             5 
      1  0.117274D+00
      2  0.467903D-01  0.614934D+00
      3  0.605339D-01 -0.564027D-02  0.611988D+00
      4 -0.581075D-01 -0.978085D-01 -0.467290D-01  0.596206D-01
      5 -0.885952D-01 -0.279196D+00 -0.101535D+00  0.969611D-01  0.290796D+00
      6 -0.422980D-01 -0.100837D+00 -0.993737D-01  0.455241D-01  0.110812D+00
      7 -0.347295D-01  0.526825D-01 -0.398518D-01  0.616935D-02 -0.969222D-02
      8  0.443372D-01 -0.262216D+00  0.135094D+00  0.708939D-02 -0.140924D-01
      9 -0.341030D-01  0.133553D+00 -0.139746D+00  0.290884D-02 -0.109462D-01
     10 -0.243952D-01 -0.602836D-04  0.281221D-01  0.484079D-02 -0.635319D-03
     11 -0.927316D-03 -0.564224D-01 -0.281124D-01  0.388818D-02  0.225000D-02
     12  0.179435D-01 -0.272690D-01 -0.355870D+00  0.222054D-02  0.168804D-02
     13  0.890779D-01 -0.101208D-01 -0.130936D-01 -0.150215D-01  0.235499D-02
     14 -0.101382D-01 -0.185168D-01  0.122261D-02 -0.990090D-02 -0.379427D-03
     15 -0.131112D-01  0.122233D-02 -0.178797D-01 -0.360771D-02 -0.454048D-03
     16 -0.891201D-01  0.851687D-02  0.110184D-01  0.249827D-02 -0.393328D-03
     17  0.853323D-02  0.141734D-02 -0.102931D-02 -0.229223D-03  0.621498D-03
     18  0.110348D-01 -0.102907D-02  0.881806D-03 -0.316840D-03  0.435254D-03
                6             7             8             9            10 
      6  0.949179D-01
      7  0.643306D-02  0.352795D-01
      8  0.142638D-01 -0.506549D-01  0.271076D+00
      9  0.960550D-02  0.366885D-01 -0.146230D+00  0.138987D+00
     10 -0.115489D-01  0.416991D-02 -0.977297D-03 -0.735845D-02  0.249450D-01
     11 -0.251357D-01 -0.349172D-02  0.671555D-02  0.246816D-01 -0.266019D-03
     12 -0.540892D-02  0.240372D-02 -0.409192D-02 -0.920293D-02 -0.226489D-01
     13  0.228527D-02 -0.134251D-01  0.220965D-03  0.236322D-02 -0.121579D-01
     14  0.474668D-03  0.113223D-01 -0.191887D-02 -0.637351D-03  0.218304D-02
     15  0.247917D-03 -0.527658D-02  0.141297D-02  0.195025D-03  0.135471D-01
     16 -0.395559D-03  0.253585D-02 -0.153992D-04 -0.499076D-03  0.259739D-02
     17  0.422580D-03 -0.165983D-03  0.435210D-03 -0.421131D-03 -0.244118D-03
     18  0.112473D-04 -0.396872D-03 -0.449027D-03  0.161021D-03 -0.112858D-03
               11            12            13            14            15 
     11  0.476630D-01
     12  0.298698D-01  0.372735D+00
     13  0.102445D-02  0.927083D-05 -0.108571D-01
     14 -0.111540D-04 -0.271535D-03  0.317191D-02  0.224078D-01
     15 -0.139334D-02 -0.297900D-02  0.407072D-02 -0.385792D-03  0.221958D-01
     16 -0.227570D-03  0.718704D-04 -0.376163D-01  0.336180D-02  0.437777D-02
     17 -0.194972D-03  0.746144D-04  0.334846D-02 -0.158148D-02 -0.402125D-03
     18  0.900718D-04  0.726678D-03  0.436517D-02 -0.402601D-03 -0.177996D-02
               16            17            18 
     16  0.119105D+00
     17 -0.112424D-01 -0.697603D-03
     18 -0.145734D-01  0.135537D-02  0.000000D+00
 FormGI is forming the generalized inverse of G from B-inverse, IUseBI=4.
 Force constants in internal coordinates: 
                1             2             3             4             5 
      1  0.376894D+00
      2  0.291682D-03  0.376895D+00
      3  0.292105D-03  0.291380D-03  0.376896D+00
      4  0.122387D-02  0.122430D-02  0.122534D-02  0.333542D-01
      5 -0.227629D-03 -0.220716D-03 -0.218903D-03  0.834565D-01  0.121908D+00
      6  0.228342D-02  0.228330D-02 -0.351292D-02 -0.146934D-02  0.341041D-03
      7  0.300341D-02 -0.321365D-02  0.329296D-02 -0.429600D-02  0.997630D-03
      8  0.143361D-02 -0.221659D-02 -0.275330D-02  0.493574D-02 -0.112514D-02
      9 -0.321391D-02  0.300421D-02  0.329142D-02 -0.429476D-02  0.996953D-03
     10 -0.221746D-02  0.143062D-02 -0.275341D-02  0.492954D-02 -0.115361D-02
     11 -0.245709D-02 -0.245659D-02  0.704208D-03  0.586409D-02 -0.137309D-02
     12 -0.197380D-02  0.989089D-03  0.985937D-03  0.578754D-05  0.108897D-03
     13  0.000000D+00 -0.942475D-03  0.940978D-03  0.000000D+00  0.553278D-05
     14 -0.389487D-02 -0.389620D-02 -0.317476D-02  0.152834D-01 -0.354826D-02
     15  0.218736D-02  0.218646D-02 -0.567472D-02  0.181330D-02 -0.417082D-03
     16 -0.287970D-02  0.506615D-02 -0.283821D-02  0.906366D-03 -0.213831D-03
     17 -0.506705D-02  0.287969D-02  0.283652D-02 -0.906934D-03  0.203250D-03
                6             7             8             9            10 
      6  0.166928D-01
      7 -0.896727D-02  0.217344D-01
      8 -0.533055D-02 -0.924529D-02  0.433120D-01
      9 -0.896797D-02 -0.677578D-02  0.103003D-01  0.217355D-01
     10 -0.533038D-02  0.103004D-01 -0.193303D-01 -0.924448D-02  0.433078D-01
     11  0.126040D-01 -0.104230D-01 -0.172966D-01 -0.104246D-01 -0.172943D-01
     12 -0.260837D-03 -0.268087D-03  0.118897D-02  0.572149D-03 -0.633454D-03
     13 -0.249627D-03  0.279375D-03 -0.241695D-04  0.125568D-04  0.553211D-03
     14 -0.446524D-02 -0.539679D-02  0.826717D-02 -0.539697D-02  0.826554D-02
     15  0.142939D-01 -0.928619D-02  0.251598D-02 -0.928642D-02  0.251391D-02
     16  0.714671D-02 -0.166193D-01  0.994995D-03  0.733342D-02  0.151932D-02
     17 -0.714718D-02 -0.733308D-02 -0.152098D-02  0.166198D-01 -0.994590D-03
               11            12            13            14            15 
     11  0.474802D-01
     12 -0.623103D-03  0.235152D-01
     13 -0.595190D-03 -0.106997D-04  0.713196D-02
     14  0.732530D-02  0.349091D-04  0.320352D-04  0.240236D-01
     15  0.166056D-02 -0.895204D-04 -0.865832D-04  0.883676D-03  0.171113D-01
     16  0.830382D-03  0.937175D-04 -0.875031D-04  0.441629D-03  0.855520D-02
     17 -0.830180D-03  0.183238D-03  0.000000D+00 -0.442047D-03 -0.855614D-02
               16            17 
     16  0.172550D-01
     17  0.869984D-02  0.172560D-01
 Leave Link  716 at Tue Oct  6 20:46:50 2020, MaxMem=  2684354560 cpu:               2.6 elap:               0.5
 (Enter /udrive/faculty/rpeverati/g16/g16/l103.exe)

 GradGradGradGradGradGradGradGradGradGradGradGradGradGradGradGradGradGrad
 Berny optimization.
 Optmz: redundant internal coordinate code flag= 1
 Red2BG:  D1=  2.30D-01 OD1=  4.11D-15 B2RMS=  0.00D+00 IAprox=1
 Red2BG is reusing G-inverse.
 Internal  Forces:  Max     0.013347243 RMS     0.003757998
 Search for a saddle point.
 Step number   1 out of a maximum of   50
 All quantities printed in internal units (Hartrees-Bohrs-Radians)
 Swapping is turned off.
 Second derivative matrix not updated -- analytic derivatives used.
 The second derivative matrix:
                          R1        R2        R3        R4        R5
           R1           0.37689
           R2           0.00029   0.37690
           R3           0.00029   0.00029   0.37690
           R4           0.00122   0.00122   0.00123   0.03335
           R5          -0.00023  -0.00022  -0.00022   0.08346   0.12191
           A1           0.00228   0.00228  -0.00351  -0.00147   0.00034
           A2           0.00300  -0.00321   0.00329  -0.00430   0.00100
           A3           0.00143  -0.00222  -0.00275   0.00494  -0.00113
           A4          -0.00321   0.00300   0.00329  -0.00429   0.00100
           A5          -0.00222   0.00143  -0.00275   0.00493  -0.00115
           A6          -0.00246  -0.00246   0.00070   0.00586  -0.00137
           A7          -0.00197   0.00099   0.00099   0.00001   0.00011
           A8          -0.00000  -0.00094   0.00094   0.00000   0.00001
           D1          -0.00389  -0.00390  -0.00317   0.01528  -0.00355
           D2           0.00219   0.00219  -0.00567   0.00181  -0.00042
           D3          -0.00288   0.00507  -0.00284   0.00091  -0.00021
           D4          -0.00507   0.00288   0.00284  -0.00091   0.00020
                          A1        A2        A3        A4        A5
           A1           0.01669
           A2          -0.00897   0.02173
           A3          -0.00533  -0.00925   0.04331
           A4          -0.00897  -0.00678   0.01030   0.02174
           A5          -0.00533   0.01030  -0.01933  -0.00924   0.04331
           A6           0.01260  -0.01042  -0.01730  -0.01042  -0.01729
           A7          -0.00026  -0.00027   0.00119   0.00057  -0.00063
           A8          -0.00025   0.00028  -0.00002   0.00001   0.00055
           D1          -0.00447  -0.00540   0.00827  -0.00540   0.00827
           D2           0.01429  -0.00929   0.00252  -0.00929   0.00251
           D3           0.00715  -0.01662   0.00099   0.00733   0.00152
           D4          -0.00715  -0.00733  -0.00152   0.01662  -0.00099
                          A6        A7        A8        D1        D2
           A6           0.04748
           A7          -0.00062   0.02352
           A8          -0.00060  -0.00001   0.00713
           D1           0.00733   0.00003   0.00003   0.02402
           D2           0.00166  -0.00009  -0.00009   0.00088   0.01711
           D3           0.00083   0.00009  -0.00009   0.00044   0.00856
           D4          -0.00083   0.00018  -0.00000  -0.00044  -0.00856
                          D3        D4
           D3           0.01726
           D4           0.00870   0.01726
 ITU=  0
 Eigenvectors of the second derivative matrix:
                           1         2         3         4         5
     Eigenvalues --    -0.02267   0.00711   0.02344   0.03671   0.04297
   1         R1        -0.00600   0.00000   0.00581  -0.01582  -0.02233
   2         R2        -0.00600   0.00259  -0.00292  -0.01586   0.02235
   3         R3        -0.00651  -0.00259  -0.00288   0.00742  -0.00005
   4         R4         0.82203  -0.00015  -0.00139  -0.18194  -0.00031
   5         R5        -0.48365   0.00006   0.00009   0.14381   0.00008
   6         A1         0.04306   0.00314   0.00356   0.40048   0.00012
   7         A2         0.05749  -0.00306   0.00320  -0.02483   0.35721
   8         A3        -0.08179   0.00002  -0.02800  -0.09807   0.34448
   9         A4         0.05744  -0.00003  -0.00679  -0.02461  -0.35701
  10         A5        -0.08189  -0.00946   0.01425  -0.09768  -0.34522
  11         A6        -0.08335   0.00937   0.01379  -0.35311   0.00024
  12         A7         0.00093   0.00065   0.99935   0.00143   0.01311
  13         A8        -0.00011   0.99989  -0.00064   0.00018  -0.00226
  14         D1        -0.24755  -0.00125  -0.00130  -0.66477  -0.00052
  15         D2        -0.00998   0.00013  -0.00090   0.36358  -0.00012
  16         D3        -0.00503   0.00006   0.00145   0.18197  -0.50301
  17         D4         0.00495  -0.00006   0.00235  -0.18161  -0.50289
                           6         7         8         9        10
     Eigenvalues --     0.04671   0.07384   0.07442   0.17238   0.37695
   1         R1         0.00206  -0.00440  -0.00070   0.00132   0.17999
   2         R2         0.00207   0.00428  -0.00110   0.00135   0.64979
   3         R3        -0.02862  -0.00023  -0.00875   0.00080  -0.73780
   4         R4        -0.14434  -0.00106  -0.03521  -0.51871   0.00053
   5         R5         0.12277   0.00144   0.03874  -0.85371   0.00002
   6         A1        -0.17831  -0.01189  -0.35298   0.00139   0.01354
   7         A2         0.25816   0.35137   0.23028   0.01145  -0.01218
   8         A3        -0.36900  -0.58615   0.28858  -0.01111   0.00264
   9         A4         0.25885  -0.33507   0.25298   0.01142  -0.00329
  10         A5        -0.36901   0.60406   0.24901  -0.01084   0.00756
  11         A6         0.20844  -0.02481  -0.74129  -0.01598  -0.00719
  12         A7        -0.00785  -0.02740   0.01657  -0.00061  -0.00125
  13         A8        -0.00464   0.00707   0.01105   0.00000  -0.00354
  14         D1        -0.42879  -0.00199  -0.05787  -0.03605  -0.00228
  15         D2        -0.44580  -0.00664  -0.19485  -0.00606   0.01808
  16         D3        -0.22253  -0.16784  -0.09203  -0.00300   0.01467
  17         D4         0.22327  -0.16120   0.10282   0.00306  -0.00341
                          11        12
     Eigenvalues --     0.37696   0.37767
   1         R1        -0.81323   0.55265
   2         R2         0.51986   0.55380
   3         R3         0.25946   0.62236
   4         R4        -0.00019   0.00500
   5         R5         0.00002   0.00053
   6         A1        -0.00478   0.00058
   7         A2        -0.00988   0.00584
   8         A3        -0.00875  -0.00612
   9         A4         0.01533   0.00586
  10         A5         0.00517  -0.00612
  11         A6         0.00253  -0.00696
  12         A7         0.00673   0.00021
  13         A8        -0.00067   0.00018
  14         D1         0.00082  -0.01819
  15         D2        -0.00637  -0.00358
  16         D3         0.01278  -0.00178
  17         D4         0.01915   0.00180
 RLam0= 3.58D-03.
 Iter=   1 RLamda= 0.00000000D+00 Sum=-7.61233043D-04.
 Iter=   2 RLamda=-7.61233043D-04 Sum=-7.56943352D-04.
 Iter=   3 RLamda=-7.56943352D-04 Sum=-7.56967288D-04.
 Iter=   4 RLamda=-7.56967288D-04 Sum=-7.56967154D-04.
 RFO step:  Lambda0=3.582692576D-03 Lambda=-7.56967288D-04.
 Linear search not attempted -- option 19 set.
 Maximum step size (   0.100) exceeded in Quadratic search.
    -- Step size scaled by   0.281
 Iteration  1 RMS(Cart)=  0.01773515 RMS(Int)=  0.00011542
 Iteration  2 RMS(Cart)=  0.00005939 RMS(Int)=  0.00009855
 Iteration  3 RMS(Cart)=  0.00000000 RMS(Int)=  0.00009855
 ITry= 1 IFail=0 DXMaxC= 5.41D-02 DCOld= 1.00D+10 DXMaxT= 1.00D-01 DXLimC= 3.00D+00 Rises=F
 Variable       Old X    -DE/DX   Delta X   Delta X   Delta X     New X
                                 (Linear)    (Quad)   (Total)
    R1        2.04456   0.00403   0.00000   0.00217   0.00217   2.04673
    R2        2.04456   0.00403   0.00000   0.00217   0.00217   2.04674
    R3        2.04456   0.00403   0.00000   0.00217   0.00217   2.04674
    R4        2.63908  -0.00333   0.00000   0.09067   0.09067   2.72976
    R5        2.74280   0.01335   0.00000  -0.03436  -0.03436   2.70844
    A1        2.02979  -0.00011   0.00000   0.00741   0.00718   2.03697
    A2        2.02978  -0.00033   0.00000   0.00745   0.00724   2.03703
    A3        1.76688   0.00038   0.00000  -0.01160  -0.01157   1.75532
    A4        2.02979  -0.00033   0.00000   0.00744   0.00724   2.03703
    A5        1.76691   0.00037   0.00000  -0.01161  -0.01158   1.75533
    A6        1.76695   0.00044   0.00000  -0.01166  -0.01164   1.75531
    A7        3.14130   0.00001   0.00000   0.00024   0.00024   3.14154
    A8        3.14143   0.00000   0.00000   0.00007   0.00007   3.14150
    D1       -2.49058   0.00116   0.00000  -0.03545  -0.03561  -2.52619
    D2        2.09439   0.00014   0.00000  -0.00001  -0.00003   2.09436
    D3       -2.09439   0.00007   0.00000  -0.00001  -0.00002  -2.09441
    D4        2.09441  -0.00007   0.00000  -0.00000   0.00001   2.09441
         Item               Value     Threshold  Converged?
 Maximum Force            0.013347     0.000450     NO 
 RMS     Force            0.003758     0.000300     NO 
 Maximum Displacement     0.054075     0.001800     NO 
 RMS     Displacement     0.017732     0.001200     NO 
 Predicted change in Energy= 7.023060D-04
 Lowest energy point so far.  Saving SCF results.
 Largest change from initial coordinates is atom    5       0.011 Angstoms.
 GradGradGradGradGradGradGradGradGradGradGradGradGradGradGradGradGradGrad

 Leave Link  103 at Tue Oct  6 20:46:51 2020, MaxMem=  2684354560 cpu:               3.3 elap:               0.7
 (Enter /udrive/faculty/rpeverati/g16/g16/l202.exe)
                          Input orientation:                          
 ---------------------------------------------------------------------
 Center     Atomic      Atomic             Coordinates (Angstroms)
 Number     Number       Type             X           Y           Z
 ---------------------------------------------------------------------
      1          6           0       -1.819423    0.169801    0.219634
      2          1           0       -2.159056   -0.766866   -0.205070
      3          1           0       -2.007131    1.064285   -0.361520
      4          1           0       -1.881430    0.266958    1.296570
      5          1           0       -0.391411    0.036592    0.047336
      6         17           0        1.025438   -0.095613   -0.123711
 ---------------------------------------------------------------------
                    Distance matrix (angstroms):
                    1          2          3          4          5
     1  C    0.000000
     2  H    1.083084   0.000000
     3  H    1.083086   1.844091   0.000000
     4  H    1.083086   1.844123   1.844124   0.000000
     5  H    1.444524   1.958016   1.958026   1.958011   0.000000
     6  Cl   2.877771   3.255488   3.255517   3.255539   1.433247
                    6
     6  Cl   0.000000
 Stoichiometry    CH4Cl(2)
 Framework group  C1[X(CH4Cl)]
 Deg. of freedom    12
 Full point group                 C1      NOp   1
 RotChk:  IX=3 Diff= 1.27D+00
 Largest Abelian subgroup         C1      NOp   1
 Largest concise Abelian subgroup C1      NOp   1
                         Standard orientation:                         
 ---------------------------------------------------------------------
 Center     Atomic      Atomic             Coordinates (Angstroms)
 Number     Number       Type             X           Y           Z
 ---------------------------------------------------------------------
      1          6           0        1.843351   -0.000002    0.000001
      2          1           0        2.042041    0.524561    0.926514
      3          1           0        2.042073    0.540143   -0.917511
      4          1           0        2.042097   -1.064658   -0.008992
      5          1           0        0.398827   -0.000050   -0.000015
      6         17           0       -1.034420    0.000001   -0.000000
 ---------------------------------------------------------------------
 Rotational constants (GHZ):         147.4541693           5.5185089           5.5185041
 Leave Link  202 at Tue Oct  6 20:46:52 2020, MaxMem=  2684354560 cpu:               1.0 elap:               0.4
 (Enter /udrive/faculty/rpeverati/g16/g16/l301.exe)
 Standard basis: 6-31G(d) (5D, 7F)
 Ernie: Thresh=  0.10000D-02 Tol=  0.10000D-05 Strict=F.
 There are    42 symmetry adapted cartesian basis functions of A   symmetry.
 There are    40 symmetry adapted basis functions of A   symmetry.
    40 basis functions,    96 primitive gaussians,    42 cartesian basis functions
    14 alpha electrons       13 beta electrons
       nuclear repulsion energy        45.9869684240 Hartrees.
 IExCor=  402 DFT=T Ex+Corr=B3LYP ExCW=0 ScaHFX=  0.200000
 ScaDFX=  0.800000  0.720000  1.000000  0.810000 ScalE2=  1.000000  1.000000
 IRadAn=      5 IRanWt=     -1 IRanGd=            0 ICorTp=0 IEmpDi=141
 NAtoms=    6 NActive=    6 NUniq=    6 SFac= 1.00D+00 NAtFMM=   60 NAOKFM=F Big=F
 Integral buffers will be    131072 words long.
 Raffenetti 2 integral format.
 Two-electron integral symmetry is turned on.
 R6Disp:  Grimme-D3(BJ) Dispersion energy=       -0.0044410625 Hartrees.
 Nuclear repulsion after empirical dispersion term =       45.9825273615 Hartrees.
 Leave Link  301 at Tue Oct  6 20:46:52 2020, MaxMem=  2684354560 cpu:               1.6 elap:               0.4
 (Enter /udrive/faculty/rpeverati/g16/g16/l302.exe)
 NPDir=0 NMtPBC=     1 NCelOv=     1 NCel=       1 NClECP=     1 NCelD=      1
         NCelK=      1 NCelE2=     1 NClLst=     1 CellRange=     0.0.
 One-electron integrals computed using PRISM.
 One-electron integral symmetry used in STVInt
 NBasis=    40 RedAO= T EigKep=  1.10D-02  NBF=    40
 NBsUse=    40 1.00D-06 EigRej= -1.00D+00 NBFU=    40
 Precomputing XC quadrature grid using
 IXCGrd= 4 IRadAn=           5 IRanWt=          -1 IRanGd=           0 AccXCQ= 0.00D+00.
 Generated NRdTot=       0 NPtTot=           0 NUsed=           0 NTot=          32
 NSgBfM=    42    42    42    42    42 MxSgAt=     6 MxSgA2=     6.
 Leave Link  302 at Tue Oct  6 20:46:53 2020, MaxMem=  2684354560 cpu:               3.4 elap:               0.6
 (Enter /udrive/faculty/rpeverati/g16/g16/l303.exe)
 DipDrv:  MaxL=1.
 Leave Link  303 at Tue Oct  6 20:46:54 2020, MaxMem=  2684354560 cpu:               1.2 elap:               0.4
 (Enter /udrive/faculty/rpeverati/g16/g16/l401.exe)
 Initial guess from the checkpoint file:  "MN_84_RKT08_BH76_B3LYP_631Gs.chk"
 SCF N**3 symmetry information disabled.
 B after Tr=     0.000000   -0.000000    0.000000
         Rot=    0.894221    0.093783   -0.336800    0.279535 Ang=  53.18 deg.
 Guess basis will be translated and rotated to current coordinates.
 JPrj=2 DoOrth=T DoCkMO=T.
 Initial guess <Sx>= 0.0000 <Sy>= 0.0000 <Sz>= 0.5000 <S**2>= 0.7562 S= 0.5031
 Generating alternative initial guess.
 ExpMin= 1.43D-01 ExpMax= 2.52D+04 ExpMxC= 3.78D+03 IAcc=2 IRadAn=         4 AccDes= 0.00D+00
 Harris functional with IExCor=  402 and IRadAn=       4 diagonalized for initial guess.
 HarFok:  IExCor=  402 AccDes= 0.00D+00 IRadAn=         4 IDoV= 1 UseB2=F ITyADJ=14
 ICtDFT=  3500011 ScaDFX=  1.000000  1.000000  1.000000  1.000000
 FoFCou: FMM=F IPFlag=           0 FMFlag=      100000 FMFlg1=           0
         NFxFlg=           0 DoJE=T BraDBF=F KetDBF=T FulRan=T
         wScrn=  0.000000 ICntrl=       500 IOpCl=  0 I1Cent=   200000004 NGrid=           0
         NMat0=    1 NMatS0=      1 NMatT0=    0 NMatD0=    1 NMtDS0=    0 NMtDT0=    0
 Petite list used in FoFCou.
 Harris En= -500.566526482712    
 Leave Link  401 at Tue Oct  6 20:46:55 2020, MaxMem=  2684354560 cpu:               6.8 elap:               1.0
 (Enter /udrive/faculty/rpeverati/g16/g16/l502.exe)
 Keep R1 and R2 ints in memory in canonical form, NReq=11031061.
 FoFCou: FMM=F IPFlag=           0 FMFlag=           0 FMFlg1=           0
         NFxFlg=           0 DoJE=F BraDBF=F KetDBF=F FulRan=T
         wScrn=  0.000000 ICntrl=       600 IOpCl=  0 I1Cent=           0 NGrid=           0
         NMat0=    1 NMatS0=    820 NMatT0=    0 NMatD0=    1 NMtDS0=    0 NMtDT0=    0
 Symmetry not used in FoFCou.
 Two-electron integral symmetry not used.
 UHF open shell SCF:
 Using DIIS extrapolation, IDIIS=  1040.
 NGot=  2684354560 LenX=  2683676641 LenY=  2683674436
 Requested convergence on RMS density matrix=1.00D-08 within 120 cycles.
 Requested convergence on MAX density matrix=1.00D-06.
 Requested convergence on             energy=1.00D-06.
 No special actions if energy rises.
 Integral accuracy reduced to 1.0D-05 until final iterations.

 Cycle   1  Pass 0  IDiag  1:
 E= -500.640626104494    
 DIIS: error= 2.72D-03 at cycle   1 NSaved=   1.
 NSaved= 1 IEnMin= 1 EnMin= -500.640626104494     IErMin= 1 ErrMin= 2.72D-03
 ErrMax= 2.72D-03  0.00D+00 EMaxC= 1.00D-01 BMatC= 8.20D-04 BMatP= 8.20D-04
 IDIUse=3 WtCom= 9.73D-01 WtEn= 2.72D-02
 Coeff-Com:  0.100D+01
 Coeff-En:   0.100D+01
 Coeff:      0.100D+01
 Gap=     0.529 Goal=   None    Shift=    0.000
 Gap=     0.592 Goal=   None    Shift=    0.000
 GapD=    0.529 DampG=2.000 DampE=1.000 DampFc=2.0000 IDamp=-1.
 RMSDP=8.12D-04 MaxDP=1.50D-02              OVMax= 2.81D-02

 Cycle   2  Pass 0  IDiag  1:
 E= -500.641093026687     Delta-E=       -0.000466922193 Rises=F Damp=F
 DIIS: error= 1.91D-03 at cycle   2 NSaved=   2.
 NSaved= 2 IEnMin= 2 EnMin= -500.641093026687     IErMin= 2 ErrMin= 1.91D-03
 ErrMax= 1.91D-03  0.00D+00 EMaxC= 1.00D-01 BMatC= 2.92D-04 BMatP= 8.20D-04
 IDIUse=3 WtCom= 9.81D-01 WtEn= 1.91D-02
 Coeff-Com:  0.289D+00 0.711D+00
 Coeff-En:   0.000D+00 0.100D+01
 Coeff:      0.283D+00 0.717D+00
 Gap=     0.363 Goal=   None    Shift=    0.000
 Gap=     0.145 Goal=   None    Shift=    0.000
 RMSDP=5.07D-04 MaxDP=7.13D-03 DE=-4.67D-04 OVMax= 9.01D-03

 Cycle   3  Pass 0  IDiag  1:
 E= -500.641156319297     Delta-E=       -0.000063292610 Rises=F Damp=F
 DIIS: error= 1.12D-03 at cycle   3 NSaved=   3.
 NSaved= 3 IEnMin= 3 EnMin= -500.641156319297     IErMin= 3 ErrMin= 1.12D-03
 ErrMax= 1.12D-03  0.00D+00 EMaxC= 1.00D-01 BMatC= 1.22D-04 BMatP= 2.92D-04
 IDIUse=3 WtCom= 9.89D-01 WtEn= 1.12D-02
 Coeff-Com: -0.600D-01 0.392D+00 0.668D+00
 Coeff-En:   0.000D+00 0.241D+00 0.759D+00
 Coeff:     -0.594D-01 0.390D+00 0.669D+00
 Gap=     0.363 Goal=   None    Shift=    0.000
 Gap=     0.148 Goal=   None    Shift=    0.000
 RMSDP=1.68D-04 MaxDP=3.73D-03 DE=-6.33D-05 OVMax= 6.65D-03

 Cycle   4  Pass 0  IDiag  1:
 E= -500.641200531036     Delta-E=       -0.000044211739 Rises=F Damp=F
 DIIS: error= 1.34D-04 at cycle   4 NSaved=   4.
 NSaved= 4 IEnMin= 4 EnMin= -500.641200531036     IErMin= 4 ErrMin= 1.34D-04
 ErrMax= 1.34D-04  0.00D+00 EMaxC= 1.00D-01 BMatC= 2.43D-06 BMatP= 1.22D-04
 IDIUse=3 WtCom= 9.99D-01 WtEn= 1.34D-03
 Coeff-Com: -0.146D-01-0.154D-01 0.678D-01 0.962D+00
 Coeff-En:   0.000D+00 0.000D+00 0.000D+00 0.100D+01
 Coeff:     -0.146D-01-0.154D-01 0.678D-01 0.962D+00
 Gap=     0.363 Goal=   None    Shift=    0.000
 Gap=     0.148 Goal=   None    Shift=    0.000
 RMSDP=7.14D-05 MaxDP=1.28D-03 DE=-4.42D-05 OVMax= 1.17D-03

 Cycle   5  Pass 0  IDiag  1:
 E= -500.641202021172     Delta-E=       -0.000001490136 Rises=F Damp=F
 DIIS: error= 5.10D-05 at cycle   5 NSaved=   5.
 NSaved= 5 IEnMin= 5 EnMin= -500.641202021172     IErMin= 5 ErrMin= 5.10D-05
 ErrMax= 5.10D-05  0.00D+00 EMaxC= 1.00D-01 BMatC= 3.67D-07 BMatP= 2.43D-06
 IDIUse=1 WtCom= 1.00D+00 WtEn= 0.00D+00
 Coeff-Com:  0.639D-02-0.680D-01-0.824D-01 0.238D+00 0.906D+00
 Coeff:      0.639D-02-0.680D-01-0.824D-01 0.238D+00 0.906D+00
 Gap=     0.363 Goal=   None    Shift=    0.000
 Gap=     0.148 Goal=   None    Shift=    0.000
 RMSDP=2.34D-05 MaxDP=3.53D-04 DE=-1.49D-06 OVMax= 4.80D-04

 Cycle   6  Pass 0  IDiag  1:
 E= -500.641202223061     Delta-E=       -0.000000201889 Rises=F Damp=F
 DIIS: error= 1.35D-05 at cycle   6 NSaved=   6.
 NSaved= 6 IEnMin= 6 EnMin= -500.641202223061     IErMin= 6 ErrMin= 1.35D-05
 ErrMax= 1.35D-05  0.00D+00 EMaxC= 1.00D-01 BMatC= 1.90D-08 BMatP= 3.67D-07
 IDIUse=1 WtCom= 1.00D+00 WtEn= 0.00D+00
 Coeff-Com:  0.209D-02-0.147D-01-0.203D-01 0.723D-03 0.219D+00 0.813D+00
 Coeff:      0.209D-02-0.147D-01-0.203D-01 0.723D-03 0.219D+00 0.813D+00
 Gap=     0.363 Goal=   None    Shift=    0.000
 Gap=     0.148 Goal=   None    Shift=    0.000
 RMSDP=3.13D-06 MaxDP=3.51D-05 DE=-2.02D-07 OVMax= 4.43D-05

 Initial convergence to 1.0D-05 achieved.  Increase integral accuracy.
 Cycle   7  Pass 1  IDiag  1:
 E= -500.641208571296     Delta-E=       -0.000006348236 Rises=F Damp=F
 DIIS: error= 3.05D-06 at cycle   1 NSaved=   1.
 NSaved= 1 IEnMin= 1 EnMin= -500.641208571296     IErMin= 1 ErrMin= 3.05D-06
 ErrMax= 3.05D-06  0.00D+00 EMaxC= 1.00D-01 BMatC= 1.50D-09 BMatP= 1.50D-09
 IDIUse=1 WtCom= 1.00D+00 WtEn= 0.00D+00
 Coeff-Com:  0.100D+01
 Coeff:      0.100D+01
 Gap=     0.363 Goal=   None    Shift=    0.000
 Gap=     0.148 Goal=   None    Shift=    0.000
 RMSDP=3.13D-06 MaxDP=3.51D-05 DE=-6.35D-06 OVMax= 1.69D-05

 Cycle   8  Pass 1  IDiag  1:
 E= -500.641208571864     Delta-E=       -0.000000000568 Rises=F Damp=F
 DIIS: error= 1.68D-06 at cycle   2 NSaved=   2.
 NSaved= 2 IEnMin= 2 EnMin= -500.641208571864     IErMin= 2 ErrMin= 1.68D-06
 ErrMax= 1.68D-06  0.00D+00 EMaxC= 1.00D-01 BMatC= 6.26D-10 BMatP= 1.50D-09
 IDIUse=1 WtCom= 1.00D+00 WtEn= 0.00D+00
 Coeff-Com:  0.346D+00 0.654D+00
 Coeff:      0.346D+00 0.654D+00
 Gap=     0.363 Goal=   None    Shift=    0.000
 Gap=     0.148 Goal=   None    Shift=    0.000
 RMSDP=6.25D-07 MaxDP=8.21D-06 DE=-5.68D-10 OVMax= 1.06D-05

 Cycle   9  Pass 1  IDiag  1:
 E= -500.641208572062     Delta-E=       -0.000000000198 Rises=F Damp=F
 DIIS: error= 1.04D-06 at cycle   3 NSaved=   3.
 NSaved= 3 IEnMin= 3 EnMin= -500.641208572062     IErMin= 3 ErrMin= 1.04D-06
 ErrMax= 1.04D-06  0.00D+00 EMaxC= 1.00D-01 BMatC= 1.03D-10 BMatP= 6.26D-10
 IDIUse=1 WtCom= 1.00D+00 WtEn= 0.00D+00
 Coeff-Com: -0.812D-01 0.189D+00 0.892D+00
 Coeff:     -0.812D-01 0.189D+00 0.892D+00
 Gap=     0.363 Goal=   None    Shift=    0.000
 Gap=     0.148 Goal=   None    Shift=    0.000
 RMSDP=2.35D-07 MaxDP=3.03D-06 DE=-1.98D-10 OVMax= 4.24D-06

 Cycle  10  Pass 1  IDiag  1:
 E= -500.641208572099     Delta-E=       -0.000000000036 Rises=F Damp=F
 DIIS: error= 7.86D-07 at cycle   4 NSaved=   4.
 NSaved= 4 IEnMin= 4 EnMin= -500.641208572099     IErMin= 4 ErrMin= 7.86D-07
 ErrMax= 7.86D-07  0.00D+00 EMaxC= 1.00D-01 BMatC= 3.21D-11 BMatP= 1.03D-10
 IDIUse=1 WtCom= 1.00D+00 WtEn= 0.00D+00
 Coeff-Com: -0.107D+00-0.166D-01 0.453D+00 0.670D+00
 Coeff:     -0.107D+00-0.166D-01 0.453D+00 0.670D+00
 Gap=     0.363 Goal=   None    Shift=    0.000
 Gap=     0.148 Goal=   None    Shift=    0.000
 RMSDP=9.13D-08 MaxDP=1.35D-06 DE=-3.64D-11 OVMax= 1.78D-06

 Cycle  11  Pass 1  IDiag  1:
 E= -500.641208572108     Delta-E=       -0.000000000010 Rises=F Damp=F
 DIIS: error= 1.64D-07 at cycle   5 NSaved=   5.
 NSaved= 5 IEnMin= 5 EnMin= -500.641208572108     IErMin= 5 ErrMin= 1.64D-07
 ErrMax= 1.64D-07  0.00D+00 EMaxC= 1.00D-01 BMatC= 1.40D-12 BMatP= 3.21D-11
 IDIUse=1 WtCom= 1.00D+00 WtEn= 0.00D+00
 Coeff-Com: -0.299D-01-0.203D-01 0.728D-01 0.225D+00 0.752D+00
 Coeff:     -0.299D-01-0.203D-01 0.728D-01 0.225D+00 0.752D+00
 Gap=     0.363 Goal=   None    Shift=    0.000
 Gap=     0.148 Goal=   None    Shift=    0.000
 RMSDP=2.44D-08 MaxDP=3.21D-07 DE=-9.78D-12 OVMax= 4.04D-07

 Cycle  12  Pass 1  IDiag  1:
 E= -500.641208572109     Delta-E=       -0.000000000001 Rises=F Damp=F
 DIIS: error= 2.48D-08 at cycle   6 NSaved=   6.
 NSaved= 6 IEnMin= 6 EnMin= -500.641208572109     IErMin= 6 ErrMin= 2.48D-08
 ErrMax= 2.48D-08  0.00D+00 EMaxC= 1.00D-01 BMatC= 5.35D-14 BMatP= 1.40D-12
 IDIUse=1 WtCom= 1.00D+00 WtEn= 0.00D+00
 Coeff-Com:  0.743D-02 0.112D-02-0.380D-01-0.456D-01 0.578D-01 0.102D+01
 Coeff:      0.743D-02 0.112D-02-0.380D-01-0.456D-01 0.578D-01 0.102D+01
 Gap=     0.363 Goal=   None    Shift=    0.000
 Gap=     0.148 Goal=   None    Shift=    0.000
 RMSDP=7.62D-09 MaxDP=1.04D-07 DE=-1.02D-12 OVMax= 1.26D-07

 SCF Done:  E(UB3LYP) =  -500.641208572     A.U. after   12 cycles
            NFock= 12  Conv=0.76D-08     -V/T= 2.0020
 <Sx>= 0.0000 <Sy>= 0.0000 <Sz>= 0.5000 <S**2>= 0.7560 S= 0.5030
 <L.S>= 0.000000000000E+00
 KE= 4.996352996734D+02 PE=-1.279933541617D+03 EE= 2.336745060102D+02
 Annihilation of the first spin contaminant:
 S**2 before annihilation     0.7560,   after     0.7500
 Leave Link  502 at Tue Oct  6 20:46:58 2020, MaxMem=  2684354560 cpu:              23.2 elap:               2.4
 (Enter /udrive/faculty/rpeverati/g16/g16/l508.exe)
 QCSCF skips out because SCF is already converged.
 Leave Link  508 at Tue Oct  6 20:46:58 2020, MaxMem=  2684354560 cpu:               0.4 elap:               0.4
 (Enter /udrive/faculty/rpeverati/g16/g16/l701.exe)
 ... and contract with generalized density number  0.
 Compute integral first derivatives.
 R6Disp: Adding Grimme-D3(BJ) dispersion energy 1st derivatives to the gradient.
 Leave Link  701 at Tue Oct  6 20:46:59 2020, MaxMem=  2684354560 cpu:               3.4 elap:               0.6
 (Enter /udrive/faculty/rpeverati/g16/g16/l702.exe)
 L702 exits ... SP integral derivatives will be done elsewhere.
 Leave Link  702 at Tue Oct  6 20:47:00 2020, MaxMem=  2684354560 cpu:               1.3 elap:               0.4
 (Enter /udrive/faculty/rpeverati/g16/g16/l703.exe)
 Integral derivatives from FoFJK, PRISM(SPDF).
 Compute integral first derivatives, UseDBF=F ICtDFT=           0.
 Calling FoFJK, ICntrl=      2127 FMM=F ISym2X=0 I1Cent= 0 IOpClX= 1 NMat=1 NMatS=1 NMatT=0.
 FoFJK:  IHMeth= 1 ICntrl=    2127 DoSepK=F KAlg= 0 I1Cent=           0 FoldK=F
 IRaf=         0 NMat=       1 IRICut=       1 DoRegI=T DoRafI=F ISym2E= 0 IDoP0=0 IntGTp=1.
 FoFCou: FMM=F IPFlag=           0 FMFlag=      100000 FMFlg1=         800
         NFxFlg=           0 DoJE=F BraDBF=F KetDBF=F FulRan=T
         wScrn=  0.000000 ICntrl=      2127 IOpCl=  1 I1Cent=           0 NGrid=           0
         NMat0=    1 NMatS0=      1 NMatT0=    0 NMatD0=    1 NMtDS0=    0 NMtDT0=    0
 Symmetry not used in FoFCou.
 Leave Link  703 at Tue Oct  6 20:47:01 2020, MaxMem=  2684354560 cpu:               8.5 elap:               1.0
 (Enter /udrive/faculty/rpeverati/g16/g16/l716.exe)
 Dipole        = 1.19669513D+00-5.89391806D-06-1.19173715D-06
 ***** Axes restored to original set *****
 -------------------------------------------------------------------
 Center     Atomic                   Forces (Hartrees/Bohr)
 Number     Number              X              Y              Z
 -------------------------------------------------------------------
      1        6           0.006130595   -0.000570770   -0.000742270
      2        1          -0.001565344   -0.002336510   -0.001001908
      3        1          -0.001175213    0.002357241   -0.001402277
      4        1          -0.000855306    0.000313609    0.002841449
      5        1          -0.012533310    0.001169176    0.001511544
      6       17           0.009998578   -0.000932746   -0.001206539
 -------------------------------------------------------------------
 Cartesian Forces:  Max     0.012533310 RMS     0.004270149
 Leave Link  716 at Tue Oct  6 20:47:02 2020, MaxMem=  2684354560 cpu:               1.3 elap:               0.4
 (Enter /udrive/faculty/rpeverati/g16/g16/l103.exe)

 GradGradGradGradGradGradGradGradGradGradGradGradGradGradGradGradGradGrad
 Berny optimization.
 Optmz: redundant internal coordinate code flag= 1
 Red2BG:  D1=  2.31D-01 OD1=  5.55D-02 B2RMS=  0.00D+00 IAprox=0
 FormGI is forming the generalized inverse of G from B-inverse, IUseBI=4.
 Internal  Forces:  Max     0.010114213 RMS     0.002823391
 Search for a saddle point.
 Step number   2 out of a maximum of   50
 All quantities printed in internal units (Hartrees-Bohrs-Radians)
 Swapping is turned off.
 Update second derivatives using D2CorX and points    1    2
 The second derivative matrix:
                          R1        R2        R3        R4        R5
           R1           0.37689
           R2           0.00029   0.37689
           R3           0.00029   0.00029   0.37690
           R4           0.00118   0.00119   0.00119   0.03120
           R5          -0.00029  -0.00028  -0.00028   0.08123   0.12396
           A1           0.00228   0.00228  -0.00352  -0.00166   0.00017
           A2           0.00300  -0.00322   0.00329  -0.00441   0.00080
           A3           0.00143  -0.00222  -0.00275   0.00505  -0.00078
           A4          -0.00322   0.00300   0.00329  -0.00441   0.00080
           A5          -0.00222   0.00143  -0.00275   0.00504  -0.00080
           A6          -0.00246  -0.00246   0.00070   0.00593  -0.00100
           A7          -0.00197   0.00099   0.00099   0.00004   0.00009
           A8           0.00000  -0.00094   0.00094   0.00001   0.00000
           D1          -0.00390  -0.00390  -0.00318   0.01546  -0.00241
           D2           0.00219   0.00219  -0.00568   0.00177  -0.00040
           D3          -0.00288   0.00507  -0.00284   0.00088  -0.00020
           D4          -0.00507   0.00288   0.00284  -0.00089   0.00019
                          A1        A2        A3        A4        A5
           A1           0.01668
           A2          -0.00898   0.02173
           A3          -0.00532  -0.00924   0.04332
           A4          -0.00898  -0.00678   0.01030   0.02173
           A5          -0.00532   0.01030  -0.01932  -0.00924   0.04332
           A6           0.01261  -0.01042  -0.01728  -0.01043  -0.01728
           A7          -0.00026  -0.00027   0.00118   0.00057  -0.00064
           A8          -0.00025   0.00028  -0.00003   0.00001   0.00055
           D1          -0.00444  -0.00540   0.00831  -0.00540   0.00831
           D2           0.01429  -0.00929   0.00252  -0.00929   0.00252
           D3           0.00714  -0.01662   0.00100   0.00733   0.00152
           D4          -0.00715  -0.00733  -0.00152   0.01662  -0.00100
                          A6        A7        A8        D1        D2
           A6           0.04750
           A7          -0.00063   0.02352
           A8          -0.00060  -0.00001   0.00713
           D1           0.00739   0.00002   0.00003   0.02422
           D2           0.00167  -0.00009  -0.00009   0.00090   0.01711
           D3           0.00083   0.00009  -0.00009   0.00045   0.00856
           D4          -0.00083   0.00018  -0.00000  -0.00045  -0.00856
                          D3        D4
           D3           0.01726
           D4           0.00870   0.01726
 ITU=  0  0
 Eigenvectors of the second derivative matrix:
                           1         2         3         4         5
     Eigenvalues --    -0.02166   0.00711   0.02344   0.03669   0.04296
   1         R1        -0.00602  -0.00000   0.00581  -0.01581  -0.02233
   2         R2        -0.00602   0.00259  -0.00292  -0.01584   0.02235
   3         R3        -0.00653  -0.00259  -0.00289   0.00740  -0.00005
   4         R4         0.83043   0.00009  -0.00055  -0.18097  -0.00027
   5         R5        -0.46953  -0.00007  -0.00041   0.14632   0.00006
   6         A1         0.03990   0.00308   0.00339   0.39657   0.00015
[...]
                6             7             8             9            10 
      6  0.161687D-01
      7 -0.856181D-02  0.181669D-01
      8 -0.224602D-02 -0.443972D-02  0.206654D-01
      9 -0.856187D-02 -0.764616D-02  0.478463D-02  0.181670D-01
     10 -0.224551D-02  0.478447D-02 -0.855220D-02 -0.444011D-02  0.206655D-01
     11  0.662852D-02 -0.472899D-02 -0.785783D-02 -0.472895D-02 -0.785777D-02
     12 -0.352609D-04 -0.353962D-04 -0.127364D-02  0.734395D-04  0.634234D-03
     13 -0.305910D-04  0.323467D-04 -0.168555D-05  0.000000D+00 -0.555182D-03
     14 -0.196578D-02 -0.237012D-02  0.504699D-02 -0.237025D-02  0.504695D-02
     15  0.156965D-01 -0.878207D-02  0.476420D-03 -0.878217D-02  0.476912D-03
     16  0.784829D-02 -0.166833D-01  0.163485D-02  0.790122D-02 -0.115831D-02
     17 -0.784822D-02 -0.790128D-02  0.115843D-02  0.166834D-01 -0.163522D-02
               11            12            13            14            15 
     11  0.220484D-01
     12  0.633180D-03  0.172652D-01
     13  0.551428D-03  0.000000D+00  0.436309D-02
     14  0.491665D-02  0.264450D-05  0.225671D-05  0.162530D-01
     15  0.322662D-02 -0.184357D-03 -0.160434D-03  0.299507D-03  0.164669D-01
     16  0.161337D-02  0.184663D-03 -0.160582D-03  0.149691D-03  0.823346D-02
     17 -0.161325D-02  0.369020D-03  0.000000D+00 -0.149816D-03 -0.823344D-02
               16            17 
     16  0.165166D-01
     17  0.828316D-02  0.165166D-01
 Leave Link  716 at Tue Oct  6 20:48:58 2020, MaxMem=  2684354560 cpu:               1.8 elap:               0.4
 (Enter /udrive/faculty/rpeverati/g16/g16/l103.exe)

 GradGradGradGradGradGradGradGradGradGradGradGradGradGradGradGradGradGrad
 Berny optimization.
 Optmz: redundant internal coordinate code flag= 1
 Red2BG:  D1=  2.32D-01 OD1=  8.99D-15 B2RMS=  0.00D+00 IAprox=1
 Red2BG is reusing G-inverse.
 Internal  Forces:  Max     0.000030351 RMS     0.000009282
 Search for a local minimum.
 Step number   1 out of a maximum of    2
 All quantities printed in internal units (Hartrees-Bohrs-Radians)
 Second derivative matrix not updated -- analytic derivatives used.
 The second derivative matrix:
                          R1        R2        R3        R4        R5
           R1           0.37081
           R2           0.00024   0.37081
           R3           0.00024   0.00024   0.37081
           R4           0.00059   0.00059   0.00059   0.01042
           R5          -0.00007  -0.00007  -0.00007   0.04713   0.19995
           A1           0.00248   0.00248  -0.00443  -0.00038   0.00007
           A2           0.00294  -0.00421   0.00310  -0.00128   0.00025
           A3          -0.00001  -0.00130  -0.00173   0.00212  -0.00041
           A4          -0.00421   0.00294   0.00310  -0.00128   0.00025
           A5          -0.00130  -0.00001  -0.00173   0.00212  -0.00041
           A6          -0.00141  -0.00141  -0.00052   0.00232  -0.00045
           A7          -0.00128   0.00064   0.00064  -0.00000  -0.00000
           A8          -0.00000  -0.00056   0.00056  -0.00000  -0.00000
           D1          -0.00349  -0.00349  -0.00302   0.00697  -0.00136
           D2           0.00227   0.00227  -0.00538   0.00059  -0.00011
           D3          -0.00271   0.00498  -0.00269   0.00029  -0.00006
           D4          -0.00498   0.00271   0.00269  -0.00029   0.00006
                          A1        A2        A3        A4        A5
           A1           0.01617
           A2          -0.00856   0.01817
           A3          -0.00225  -0.00444   0.02067
           A4          -0.00856  -0.00765   0.00478   0.01817
           A5          -0.00225   0.00478  -0.00855  -0.00444   0.02067
           A6           0.00663  -0.00473  -0.00786  -0.00473  -0.00786
           A7          -0.00004  -0.00004  -0.00127   0.00007   0.00063
           A8          -0.00003   0.00003  -0.00000   0.00000  -0.00056
           D1          -0.00197  -0.00237   0.00505  -0.00237   0.00505
           D2           0.01570  -0.00878   0.00048  -0.00878   0.00048
           D3           0.00785  -0.01668   0.00163   0.00790  -0.00116
           D4          -0.00785  -0.00790   0.00116   0.01668  -0.00164
                          A6        A7        A8        D1        D2
           A6           0.02205
           A7           0.00063   0.01727
           A8           0.00055  -0.00000   0.00436
           D1           0.00492   0.00000   0.00000   0.01625
           D2           0.00323  -0.00018  -0.00016   0.00030   0.01647
           D3           0.00161   0.00018  -0.00016   0.00015   0.00823
           D4          -0.00161   0.00037  -0.00000  -0.00015  -0.00823
                          D3        D4
           D3           0.01652
           D4           0.00828   0.01652
 ITU=  0
 Eigenvectors of the second derivative matrix:
                           1         2         3         4         5
     Eigenvalues --    -0.00338   0.00433   0.01700   0.02407   0.02686
   1         R1         0.00470   0.00000   0.00185  -0.01189   0.00567
   2         R2         0.00470  -0.00123  -0.00098  -0.01197  -0.00970
   3         R3         0.00478   0.00123  -0.00097  -0.00504   0.00882
   4         R4        -0.92487   0.00016  -0.00153  -0.29540   0.04328
   5         R5         0.21681  -0.00004   0.00037   0.07099  -0.01044
   6         A1        -0.03555  -0.00230   0.00783   0.18609   0.04634
   7         A2        -0.03774   0.00229   0.00751   0.06723  -0.12188
   8         A3         0.08280   0.00003   0.12246  -0.18383  -0.19606
   9         A4        -0.03774  -0.00001  -0.01416   0.06891   0.02291
  10         A5         0.08279  -0.02387  -0.06257  -0.17162   0.77226
  11         A6         0.08293   0.02389  -0.06252  -0.36580  -0.45840
  12         A7         0.00000  -0.00000   0.98690  -0.02017   0.05204
  13         A8         0.00000  -0.99936  -0.00001  -0.00682  -0.03332
  14         D1         0.26987   0.00065  -0.00480  -0.80479   0.11148
  15         D2         0.00150  -0.00790   0.02195   0.11042   0.18121
  16         D3         0.00075  -0.00790  -0.02163   0.05749   0.27745
  17         D4        -0.00075  -0.00000  -0.04358  -0.05293   0.09625
                           6         7         8         9        10
     Eigenvalues --     0.02706   0.05274   0.05310   0.21102   0.37091
   1         R1        -0.00961  -0.02077  -0.00933   0.00036   0.08490
   2         R2         0.00456   0.02082  -0.00927   0.00036   0.70659
   3         R3         0.01007  -0.00007   0.02653   0.00034  -0.70176
   4         R4         0.04502  -0.00007   0.03320  -0.22878   0.00021
   5         R5        -0.01086   0.00002  -0.00826  -0.97348  -0.00000
   6         A1         0.05348  -0.00115   0.53305   0.00004   0.01581
   7         A2         0.01018   0.48865  -0.30493   0.00029  -0.01535
   8         A3         0.74535  -0.24589  -0.08171  -0.00044   0.00095
   9         A4        -0.11878  -0.48733  -0.30695   0.00029  -0.00148
  10         A5        -0.11196   0.24613  -0.08046  -0.00044   0.00282
  11         A6        -0.51000  -0.00062   0.33860  -0.00050  -0.00149
  12         A7        -0.15113   0.00586   0.00327   0.00000  -0.00030
  13         A8        -0.01059  -0.00125   0.00208   0.00000  -0.00217
  14         D1         0.11548  -0.00010   0.04633  -0.00147  -0.00173
  15         D2         0.20182  -0.00113   0.51423  -0.00016   0.01723
  16         D3        -0.06492  -0.44878   0.25621  -0.00008   0.01601
  17         D4        -0.26674  -0.44765  -0.25802   0.00008  -0.00122
                          11        12
     Eigenvalues --     0.37092   0.37142
   1         R1         0.82887   0.55223
   2         R2        -0.44051   0.55307
   3         R3        -0.34327   0.62351
   4         R4         0.00010   0.00237
   5         R5        -0.00000   0.00011
   6         A1         0.00774  -0.00035
   7         A2         0.01004   0.00368
   8         A3         0.00284  -0.00512
   9         A4        -0.01828   0.00370
  10         A5        -0.00099  -0.00511
  11         A6        -0.00074  -0.00550
  12         A7        -0.00448   0.00013
  13         A8         0.00015   0.00011
  14         D1        -0.00086  -0.01641
  15         D2         0.00844  -0.00273
  16         D3        -0.01088  -0.00135
  17         D4        -0.01932   0.00137
 Eigenvalue     1 is  -3.38D-03 should be greater than     0.000000 Eigenvector:
                          R4        D1        R5        A6        A3
   1                   -0.92487   0.26987   0.21681   0.08293   0.08280
                          A5        A2        A4        A1        R3
   1                    0.08279  -0.03774  -0.03774  -0.03555   0.00478
 Angle between quadratic step and forces=  64.62 degrees.
 Linear search not attempted -- first point.
 Iteration  1 RMS(Cart)=  0.00027122 RMS(Int)=  0.00000012
 Iteration  2 RMS(Cart)=  0.00000007 RMS(Int)=  0.00000010
 ITry= 1 IFail=0 DXMaxC= 7.98D-04 DCOld= 1.00D+10 DXMaxT= 3.00D-01 DXLimC= 3.00D+00 Rises=F
 Variable       Old X    -DE/DX   Delta X   Delta X   Delta X     New X
                                 (Linear)    (Quad)   (Total)
    R1        2.05099  -0.00000   0.00000   0.00002   0.00002   2.05100
    R2        2.05099  -0.00000   0.00000   0.00002   0.00002   2.05100
    R3        2.05099  -0.00000   0.00000   0.00002   0.00002   2.05101
    R4        3.22445   0.00001   0.00000  -0.00153  -0.00153   3.22292
    R5        2.57321   0.00003   0.00000   0.00051   0.00051   2.57372
    A1        2.06432  -0.00000   0.00000  -0.00015  -0.00015   2.06417
    A2        2.06434  -0.00000   0.00000  -0.00018  -0.00018   2.06416
    A3        1.70352   0.00001   0.00000   0.00036   0.00036   1.70388
    A4        2.06434  -0.00000   0.00000  -0.00018  -0.00018   2.06416
    A5        1.70352   0.00001   0.00000   0.00036   0.00036   1.70388
    A6        1.70345   0.00001   0.00000   0.00041   0.00041   1.70386
    A7        3.14160  -0.00000   0.00000  -0.00000  -0.00000   3.14160
    A8        3.14163  -0.00000   0.00000  -0.00002  -0.00002   3.14161
    D1       -2.69103   0.00002   0.00000   0.00122   0.00122  -2.68981
    D2        2.09439   0.00000   0.00000   0.00001   0.00001   2.09440
    D3       -2.09440   0.00000   0.00000   0.00001   0.00001  -2.09439
    D4        2.09440  -0.00000   0.00000  -0.00001  -0.00001   2.09439
         Item               Value     Threshold  Converged?
 Maximum Force            0.000030     0.000450     YES
 RMS     Force            0.000009     0.000300     YES
 Maximum Displacement     0.000798     0.001800     YES
 RMS     Displacement     0.000271     0.001200     YES
 Predicted change in Energy=-3.058907D-08
 Optimization completed.
    -- Stationary point found.
                           ----------------------------
                           !   Optimized Parameters   !
                           ! (Angstroms and Degrees)  !
 --------------------------                            --------------------------
 ! Name  Definition              Value          Derivative Info.                !
 --------------------------------------------------------------------------------
 ! R1    R(1,2)                  1.0853         -DE/DX =    0.0                 !
 ! R2    R(1,3)                  1.0853         -DE/DX =    0.0                 !
 ! R3    R(1,4)                  1.0853         -DE/DX =    0.0                 !
 ! R4    R(1,5)                  1.7063         -DE/DX =    0.0                 !
 ! R5    R(5,6)                  1.3617         -DE/DX =    0.0                 !
 ! A1    A(2,1,3)              118.2766         -DE/DX =    0.0                 !
 ! A2    A(2,1,4)              118.2777         -DE/DX =    0.0                 !
 ! A3    A(2,1,5)               97.6045         -DE/DX =    0.0                 !
 ! A4    A(3,1,4)              118.2777         -DE/DX =    0.0                 !
 ! A5    A(3,1,5)               97.6046         -DE/DX =    0.0                 !
 ! A6    A(4,1,5)               97.6006         -DE/DX =    0.0                 !
 ! A7    L(1,5,6,2,-1)         180.0006         -DE/DX =    0.0                 !
 ! A8    L(1,5,6,2,-2)         180.0023         -DE/DX =    0.0                 !
 ! D1    D(2,1,4,3)           -154.1845         -DE/DX =    0.0                 !
 ! D2    D(2,1,5,3)            119.9998         -DE/DX =    0.0                 !
 ! D3    D(2,1,5,4)           -120.0001         -DE/DX =    0.0                 !
 ! D4    D(3,1,5,4)            120.0001         -DE/DX =    0.0                 !
 --------------------------------------------------------------------------------
 GradGradGradGradGradGradGradGradGradGradGradGradGradGradGradGradGradGrad

 Leave Link  103 at Tue Oct  6 20:48:58 2020, MaxMem=  2684354560 cpu:               2.0 elap:               0.5
 (Enter /udrive/faculty/rpeverati/g16/g16/l9999.exe)

 ----------------------------------------------------------------------

 Electric dipole moment (input orientation):
 (Debye = 10**-18 statcoulomb cm , SI units = C m)
                  (au)            (Debye)         (10**-30 SI)
   Tot        0.116694D+01      0.296606D+01      0.989373D+01
   x         -0.115360D+01     -0.293216D+01     -0.978062D+01
   y          0.107619D+00      0.273539D+00      0.912429D+00
   z          0.139197D+00      0.353804D+00      0.118016D+01

 Dipole polarizability, Alpha (input orientation).
 (esu units = cm**3 , SI units = C**2 m**2 J**-1)
 Alpha(0;0):
               (au)            (10**-24 esu)      (10**-40 SI)
   iso        0.244192D+02      0.361855D+01      0.402618D+01
   aniso      0.207252D+02      0.307116D+01      0.341713D+01
   xx         0.377649D+02      0.559619D+01      0.622660D+01
   yx        -0.188948D+01     -0.279992D+00     -0.311533D+00
   yy         0.176871D+02      0.262096D+01      0.291621D+01
   zx        -0.244357D+01     -0.362100D+00     -0.402891D+00
   zy         0.227955D+00      0.337795D-01      0.375848D-01
   zz         0.178056D+02      0.263851D+01      0.293574D+01

 ----------------------------------------------------------------------

 Dipole orientation:
     6          0.00016125          0.00010873          3.67244187
     1         -1.02942996         -1.75283891          3.94386512
     1         -1.00314146          1.76823271          3.94387398
     1          2.03307536         -0.01506962          3.94369911
     1          0.00012819          0.00011176          0.44799576
    17          0.00016035          0.00010937         -2.12521787

 Electric dipole moment (dipole orientation):
 (Debye = 10**-18 statcoulomb cm , SI units = C m)
                  (au)            (Debye)         (10**-30 SI)
   Tot        0.116694D+01      0.296606D+01      0.989373D+01
   x          0.000000D+00      0.000000D+00      0.000000D+00
   y          0.000000D+00      0.000000D+00      0.000000D+00
   z          0.116694D+01      0.296606D+01      0.989373D+01

 Dipole polarizability, Alpha (dipole orientation).
 (esu units = cm**3 , SI units = C**2 m**2 J**-1)
 Alpha(0;0):
               (au)            (10**-24 esu)      (10**-40 SI)
   iso        0.244192D+02      0.361855D+01      0.402618D+01
   aniso      0.207252D+02      0.307116D+01      0.341713D+01
   xx         0.175108D+02      0.259483D+01      0.288714D+01
   yx         0.000000D+00      0.000000D+00      0.000000D+00
   yy         0.175108D+02      0.259484D+01      0.288714D+01
   zx        -0.368338D-03     -0.545821D-04     -0.607308D-04
   zy         0.151983D-04      0.225215D-05      0.250586D-05
   zz         0.382360D+02      0.566599D+01      0.630427D+01

 ----------------------------------------------------------------------

 Test job not archived.
 1\1\GINC-NODE63\Freq\UB3LYP\6-31G(d)\C1H4Cl1(2)\RPEVERATI\06-Oct-2020\
 0\\#P Freq B3LYP/6-31G* 5D 7F Integral=UltraFineGrid SCF=(NoSymm,XQC,M
 axCyc=120) IOp(1/33=1) EmpiricalDispersion=GD3BJ Geom=Check Guess=Read
 \\TS search on BH76.\\0,2\C,-1.9211399305,0.179287766,0.2318925118\H,-
 2.2078163964,-0.7724157853,-0.2040341694\H,-2.0542874777,1.0778302097,
 -0.362117868\H,-1.9271993517,0.272179267,1.3132290041\H,-0.2343454923,
 0.0219274512,0.0283401888\Cl,1.1117754522,-0.1036512309,-0.1340703773\
 \Version=ES64L-G16RevA.03\State=2-A\HF=-500.6399557\S2=0.754478\S2-1=0
 .\S2A=0.750015\RMSD=3.076e-10\RMSF=1.298e-05\ZeroPoint=0.0391741\Therm
 al=0.0431716\Dipole=-1.1535988,0.1076187,0.1391973\DipoleDeriv=-0.2893
 324,0.030146,0.0390109,0.0301457,0.0309891,-0.0036403,0.0390095,-0.003
 6404,0.0290812,0.0919684,-0.0429156,-0.0227907,0.0002786,0.0012749,-0.
 0299941,-0.0020169,-0.0267199,0.0509152,0.0962019,0.024041,-0.022582,-
 0.0150771,0.0083032,0.0408631,0.0043526,0.0336302,0.0396538,0.0972379,
 -0.0011252,0.0194866,-0.005201,0.0633212,-0.0084531,-0.0282173,-0.0044
 946,-0.0163996,0.6359319,-0.0435033,-0.0562766,-0.0435028,0.1736692,0.
 00525,-0.056269,0.0052493,0.1764007,-0.6320077,0.033357,0.0431517,0.03
 33566,-0.2775576,-0.0040255,0.0431411,-0.0040246,-0.2796513\Polar=37.7
 64947,-1.8894797,17.6870854,-2.4435741,0.2279554,17.8055805\Quadrupole
 =0.7653826,-0.386105,-0.3792776,-0.1083617,-0.1400952,0.0130727\PG=C01
  [X(C1H4Cl1)]\NImag=1\\0.07953292,0.04992350,0.61001681,0.06459829,-0.
 00602581,0.60688583,-0.04178402,-0.08255078,-0.04080566,0.03753401,-0.
 07202399,-0.28493780,-0.10444708,0.07978625,0.29535359,-0.03574390,-0.
 10364884,-0.10351820,0.03906045,0.11354923,0.09828926,-0.02393609,0.03
 599149,-0.03077981,0.00536542,-0.00763010,0.00481260,0.01924995,0.0264
 5797,-0.26167115,0.13644421,0.00507535,-0.01307308,0.01458724,-0.03148
 572,0.26888958,-0.02421663,0.13468128,-0.14463318,0.00159448,-0.011113
 44,0.01011279,0.02674402,-0.14718774,0.14303770,-0.01820451,-0.0024727
 2,0.00814016,0.00441755,-0.00063018,-0.00878776,0.00417846,-0.00043125
 ,-0.00475443,0.01393127,-0.00346600,-0.05832623,-0.02607888,0.00155231
 ,0.00289788,-0.02467001,-0.00120888,0.00674861,0.02381301,0.00273462,0
 .04876780,-0.00348525,-0.02511417,-0.35370877,0.00158984,0.00215980,-0
 .00491164,0.00131028,-0.00438120,-0.00852328,0.00023328,0.02747799,0.3
 6847871,0.05325314,-0.00562215,-0.00727182,-0.00652111,0.00058057,0.00
 078433,-0.00580030,0.00043500,0.00079869,-0.00524723,0.00047657,0.0003
 4801,0.11376906,-0.00562215,-0.00648864,0.00067842,-0.00410307,-0.0005
 7172,-0.00002971,0.00467664,-0.00118647,0.00004646,0.00091854,0.000044
 85,-0.00019690,-0.00935287,0.01438565,-0.00727076,0.00067835,-0.006135
 39,-0.00146858,-0.00038505,0.00006366,-0.00212213,0.00083107,-0.000042
 31,0.00552071,-0.00062612,-0.00182887,-0.01209648,0.00112847,0.0149728
 0,-0.04886144,0.00473066,0.00611884,0.00098815,-0.00008255,-0.00012572
 ,0.00094256,-0.00005135,-0.00016614,0.00092447,-0.00008862,0.00000385,
 -0.14945357,0.01348291,0.01743723,0.19545983,0.00473068,0.00140701,-0.
 00057086,0.00023995,0.00033114,0.00021210,-0.00034342,0.00029251,-0.00
 023957,-0.00011902,-0.00013291,0.00005448,0.01348288,-0.00618367,-0.00
 162673,-0.01799106,0.00428592,0.00611825,-0.00057080,0.00110971,0.0000
 2947,0.00023654,-0.00003587,0.00003505,-0.00029358,0.00004829,-0.00035
 197,0.00008401,0.00049385,0.01743726,-0.00162673,-0.00702989,-0.023268
 06,0.00217057,0.00541392\\-0.00003174,0.00000308,0.00000514,0.00001243
 ,-0.00000246,-0.00000330,0.00001257,-0.00000021,-0.00000350,0.00001384
 ,-0.00000112,0.00000013,0.00002287,-0.00000210,-0.00000230,-0.00002998
 ,0.00000280,0.00000383\\\@


 LET US PLACE AT THE END OF EVERY CHAPTER.....THE
 TWO LETTERS USED BY THE ROMAN JUDGES WHEN THEY DID
 NOT UNDERSTAND A PLEADING.
 N. L. -NON LIQUET- IT IS NOT CLEAR.
                                              -- VOLTAIRE
 Job cpu time:       0 days  0 hours  2 minutes 33.9 seconds.
 Elapsed time:       0 days  0 hours  0 minutes 19.7 seconds.
 File lengths (MBytes):  RWF=      8 Int=      0 D2E=      0 Chk=      1 Scr=      1
 Normal termination of Gaussian 16 at Tue Oct  6 20:48:59 2020.
