 Entering Gaussian System, Link 0=g16
 Input=MN_87_RKT11_BH76_B3LYP_631Gs.in
 Output=MN_87_RKT11_BH76_B3LYP_631Gs.log
 Initial command:
 /udrive/faculty/rpeverati/g16/g16/l1.exe "/udrive/scratch-directories/gaussian09/rpeverati/Gau-1421.inp" -scrdir="/udrive/scratch-directories/gaussian09/rpeverati/"
 Entering Link 1 = /udrive/faculty/rpeverati/g16/g16/l1.exe PID=      1422.
  
 Copyright (c) 1988,1990,1992,1993,1995,1998,2003,2009,2016,
            Gaussian, Inc.  All Rights Reserved.
  
 This is part of the Gaussian(R) 16 program.  It is based on
 the Gaussian(R) 09 system (copyright 2009, Gaussian, Inc.),
 the Gaussian(R) 03 system (copyright 2003, Gaussian, Inc.),
 the Gaussian(R) 98 system (copyright 1998, Gaussian, Inc.),
 the Gaussian(R) 94 system (copyright 1995, Gaussian, Inc.),
 the Gaussian 92(TM) system (copyright 1992, Gaussian, Inc.),
 the Gaussian 90(TM) system (copyright 1990, Gaussian, Inc.),
 the Gaussian 88(TM) system (copyright 1988, Gaussian, Inc.),
 the Gaussian 86(TM) system (copyright 1986, Carnegie Mellon
 University), and the Gaussian 82(TM) system (copyright 1983,
 Carnegie Mellon University). Gaussian is a federally registered
 trademark of Gaussian, Inc.
  
 This software contains proprietary and confidential information,
 including trade secrets, belonging to Gaussian, Inc.
  
 This software is provided under written license and may be
 used, copied, transmitted, or stored only in accord with that
 written license.
  
 The following legend is applicable only to US Government
 contracts under FAR:
  
                    RESTRICTED RIGHTS LEGEND
  
 Use, reproduction and disclosure by the US Government is
 subject to restrictions as set forth in subparagraphs (a)
 and (c) of the Commercial Computer Software - Restricted
 Rights clause in FAR 52.227-19.
  
 Gaussian, Inc.
 340 Quinnipiac St., Bldg. 40, Wallingford CT 06492
  
  
 ---------------------------------------------------------------
 Warning -- This program may not be used in any manner that
 competes with the business of Gaussian, Inc. or will provide
 assistance to any competitor of Gaussian, Inc.  The licensee
 of this program is prohibited from giving any competitor of
 Gaussian, Inc. access to this program.  By using this program,
 the user acknowledges that Gaussian, Inc. is engaged in the
 business of creating and licensing software in the field of
 computational chemistry and represents and warrants to the
 licensee that it is not a competitor of Gaussian, Inc. and that
 it will not use this program in any manner prohibited above.
 ---------------------------------------------------------------
  

 Cite this work as:
 Gaussian 16, Revision A.03,
 M. J. Frisch, G. W. Trucks, H. B. Schlegel, G. E. Scuseria, 
 M. A. Robb, J. R. Cheeseman, G. Scalmani, V. Barone, 
 G. A. Petersson, H. Nakatsuji, X. Li, M. Caricato, A. V. Marenich, 
 J. Bloino, B. G. Janesko, R. Gomperts, B. Mennucci, H. P. Hratchian, 
 J. V. Ortiz, A. F. Izmaylov, J. L. Sonnenberg, D. Williams-Young, 
 F. Ding, F. Lipparini, F. Egidi, J. Goings, B. Peng, A. Petrone, 
 T. Henderson, D. Ranasinghe, V. G. Zakrzewski, J. Gao, N. Rega, 
 G. Zheng, W. Liang, M. Hada, M. Ehara, K. Toyota, R. Fukuda, 
 J. Hasegawa, M. Ishida, T. Nakajima, Y. Honda, O. Kitao, H. Nakai, 
 T. Vreven, K. Throssell, J. A. Montgomery, Jr., J. E. Peralta, 
 F. Ogliaro, M. J. Bearpark, J. J. Heyd, E. N. Brothers, K. N. Kudin, 
 V. N. Staroverov, T. A. Keith, R. Kobayashi, J. Normand, 
 K. Raghavachari, A. P. Rendell, J. C. Burant, S. S. Iyengar, 
 J. Tomasi, M. Cossi, J. M. Millam, M. Klene, C. Adamo, R. Cammi, 
 J. W. Ochterski, R. L. Martin, K. Morokuma, O. Farkas, 
 J. B. Foresman, and D. J. Fox, Gaussian, Inc., Wallingford CT, 2016.
 
 ******************************************
 Gaussian 16:  ES64L-G16RevA.03 25-Dec-2016
                10-Oct-2020 
 ******************************************
 %NoSave
 %nproc=12
 Will use up to   12 processors via shared memory.
 %mem=20GB
 %chk=MN_87_RKT11_BH76_B3LYP_631Gs
 ----------------------------------------------------------------------
 #P Opt(TS,MaxCyc=50,NoEigenTest,MaxStep=10,AddRedundant) B3LYP/6-31G* 
 5D 7F Integral=UltraFineGrid SCF=(NoSymm,XQC,MaxCyc=120) IOp(1/33=1) E
 mpiricalDispersion=GD3BJ
 ----------------------------------------------------------------------
 1/5=1,6=50,8=10,11=1,18=120,26=4,33=1,38=1/1,3;
 2/9=110,12=2,17=6,18=5,40=1/2;
 3/5=1,6=6,7=1,8=11,11=2,25=1,30=1,71=1,74=-5,75=-5,124=41/1,2,3;
 4/9=2/1;
 5/5=2,7=120,8=3,13=1,38=5/2,8;
 6/7=2,8=2,9=2,10=2,28=1/1;
 7//1,2,3,16;
 1/5=1,6=50,8=10,11=1,18=20,26=4,33=1/3(2);
 2/9=110/2;
 99//99;
 2/9=110/2;
 3/5=1,6=6,7=1,8=11,11=2,25=1,30=1,71=1,74=-5,75=-5,124=41/1,2,3;
 4/5=5,9=2,16=3,69=1/1;
 5/5=2,7=120,8=3,13=1,38=5/2,8;
 7//1,2,3,16;
 1/5=1,6=50,8=10,11=1,18=20,26=4,33=1/3(-5);
 2/9=110/2;
 6/7=2,8=2,9=2,10=2,19=2,28=1/1;
 99/9=1/99;
 Leave Link    1 at Sat Oct 10 10:19:10 2020, MaxMem=  2684354560 cpu:               4.9 elap:               0.4
 (Enter /udrive/faculty/rpeverati/g16/g16/l101.exe)
 ONIOM results not found on unit 2.
 ------------------
 TS search on BH76.
 ------------------
 TstMul:  ICh=     0
 TstMul:  Mul=     3
 TstMul:  ICh=     0
 TstMul:  Mul=     3
 Symbolic Z-matrix:
 Charge =  0 Multiplicity = 3
 C                     0.00029  -1.14229   0. 
 H                    -1.05596  -1.38474   0. 
 H                     0.52017  -1.40739   0.91245 
 H                     0.52017  -1.40739  -0.91245 
 H                     0.01156   0.1601    0. 
 O                     0.00029   1.36164   0. 
 
 RdStrC is calling ZToCFu for IStruc=1 NZ=     6.
 PrtBox:  NBox=     1 Levels=  1 BoxLen=    8.00 SMaxX=        5.23
          Shift=            1.995470            2.659580            1.724280
 Box      1 Number                   0 centers from      1 to      6:
 After GenITR:
 ITRead=  0  0  0  0  0  0
 MicOpt= -1 -1 -1 -1 -1 -1
 Add virtual bond connecting atoms O6         and H5         Dist= 2.27D+00.
 Add virtual bond connecting atoms H5         and C1         Dist= 2.46D+00.
 The following ModRedundant input section has been read:
 B       1       5 D                                                           
 B       5       6 D                                                           
 
 ITRead=  0  0  0  0  0  0
 MicOpt= -1 -1 -1 -1 -1 -1
 NAtoms=      6 NQM=        6 NQMF=       0 NMMI=      0 NMMIF=      0
                NMic=       0 NMicF=      0.
                    Isotopes and Nuclear Properties:
 (Nuclear quadrupole moments (NQMom) in fm**2, nuclear magnetic moments (NMagM)
  in nuclear magnetons)

  Atom         1           2           3           4           5           6
 IAtWgt=          12           1           1           1           1          16
 AtmWgt=  12.0000000   1.0078250   1.0078250   1.0078250   1.0078250  15.9949146
 NucSpn=           0           1           1           1           1           0
 AtZEff=   0.0000000   0.0000000   0.0000000   0.0000000   0.0000000   0.0000000
 NQMom=    0.0000000   0.0000000   0.0000000   0.0000000   0.0000000   0.0000000
 NMagM=    0.0000000   2.7928460   2.7928460   2.7928460   2.7928460   0.0000000
 AtZNuc=   6.0000000   1.0000000   1.0000000   1.0000000   1.0000000   8.0000000
 No MM parameters found.
 Leave Link  101 at Sat Oct 10 10:19:11 2020, MaxMem=  2684354560 cpu:              14.5 elap:               1.2
 (Enter /udrive/faculty/rpeverati/g16/g16/l103.exe)

 GradGradGradGradGradGradGradGradGradGradGradGradGradGradGradGradGradGrad
 Berny optimization.
 Optmz: redundant internal coordinate code flag= 1
 Initialization pass.
                           ----------------------------
                           !    Initial Parameters    !
                           ! (Angstroms and Degrees)  !
 --------------------------                            --------------------------
 ! Name  Definition              Value          Derivative Info.                !
 --------------------------------------------------------------------------------
 ! R1    R(1,2)                  1.0837         estimate D2E/DX2                !
 ! R2    R(1,3)                  1.0831         estimate D2E/DX2                !
 ! R3    R(1,4)                  1.0831         estimate D2E/DX2                !
 ! R4    R(1,5)                  1.3024         calc D2E/DXDY, step=    0.0026  !
 ! R5    R(5,6)                  1.2016         calc D2E/DXDY, step=    0.0026  !
 ! A1    A(2,1,3)              114.3975         estimate D2E/DX2                !
 ! A2    A(2,1,4)              114.3975         estimate D2E/DX2                !
 ! A3    A(2,1,5)              103.4234         estimate D2E/DX2                !
 ! A4    A(3,1,4)              114.7971         estimate D2E/DX2                !
 ! A5    A(3,1,5)              103.9219         estimate D2E/DX2                !
 ! A6    A(4,1,5)              103.9219         estimate D2E/DX2                !
 ! A7    L(1,5,6,2,-1)         178.9668         estimate D2E/DX2                !
 ! A8    L(1,5,6,2,-2)         180.0            estimate D2E/DX2                !
 ! D1    D(2,1,4,3)           -135.1686         estimate D2E/DX2                !
 ! D2    D(2,1,5,3)            119.7805         estimate D2E/DX2                !
 ! D3    D(2,1,5,4)           -119.7805         estimate D2E/DX2                !
 ! D4    D(3,1,5,4)            120.4391         estimate D2E/DX2                !
 --------------------------------------------------------------------------------
 Maximum allowed force set to 1.00D+20.
 Trust Radius=1.00D-01 FncErr=1.00D-07 GrdErr=1.00D-06 EigMax=2.50D+02 EigMin=1.00D-04
 Number of steps in this run=     50 maximum allowed number of steps=    100.
 Search for a saddle point of order  1.
 GradGradGradGradGradGradGradGradGradGradGradGradGradGradGradGradGradGrad

 Leave Link  103 at Sat Oct 10 10:19:11 2020, MaxMem=  2684354560 cpu:               0.3 elap:               0.1
 (Enter /udrive/faculty/rpeverati/g16/g16/l202.exe)
                          Input orientation:                          
 ---------------------------------------------------------------------
 Center     Atomic      Atomic             Coordinates (Angstroms)
 Number     Number       Type             X           Y           Z
 ---------------------------------------------------------------------
      1          6           0        0.000290   -1.142287    0.000000
      2          1           0       -1.055957   -1.384735    0.000000
      3          1           0        0.520167   -1.407389    0.912450
      4          1           0        0.520167   -1.407389   -0.912450
      5          1           0        0.011560    0.160099    0.000000
      6          8           0        0.000290    1.361642    0.000000
 ---------------------------------------------------------------------
                    Distance matrix (angstroms):
                    1          2          3          4          5
     1  C    0.000000
     2  H    1.083715   0.000000
     3  H    1.083105   1.821331   0.000000
     4  H    1.083105   1.821331   1.824899   0.000000
     5  H    1.302435   1.877793   1.883684   1.883684   0.000000
     6  O    2.503929   2.942489   2.961481   2.961481   1.201596
                    6
     6  O    0.000000
 Stoichiometry    CH4O(3)
 Framework group  CS[SG(CH2O),X(H2)]
 Deg. of freedom     8
 Full point group                 CS      NOp   2
 Largest Abelian subgroup         CS      NOp   2
 Largest concise Abelian subgroup CS      NOp   2
                         Standard orientation:                         
 ---------------------------------------------------------------------
 Center     Atomic      Atomic             Coordinates (Angstroms)
 Number     Number       Type             X           Y           Z
 ---------------------------------------------------------------------
      1          6           0        0.000290   -1.142287    0.000000
      2          1           0       -1.055957   -1.384735    0.000000
      3          1           0        0.520168   -1.407389    0.912450
      4          1           0        0.520168   -1.407389   -0.912450
      5          1           0        0.011560    0.160099   -0.000000
      6          8           0        0.000290    1.361642   -0.000000
 ---------------------------------------------------------------------
 Rotational constants (GHZ):         150.9743796           9.6384202           9.6367904
 Leave Link  202 at Sat Oct 10 10:19:11 2020, MaxMem=  2684354560 cpu:               0.1 elap:               0.0
 (Enter /udrive/faculty/rpeverati/g16/g16/l301.exe)
 Standard basis: 6-31G(d) (5D, 7F)
 Ernie: Thresh=  0.10000D-02 Tol=  0.10000D-05 Strict=F.
 There are    28 symmetry adapted cartesian basis functions of A'  symmetry.
 There are    10 symmetry adapted cartesian basis functions of A"  symmetry.
 There are    26 symmetry adapted basis functions of A'  symmetry.
 There are    10 symmetry adapted basis functions of A"  symmetry.
    36 basis functions,    72 primitive gaussians,    38 cartesian basis functions
    10 alpha electrons        8 beta electrons
       nuclear repulsion energy        30.9103326491 Hartrees.
 IExCor=  402 DFT=T Ex+Corr=B3LYP ExCW=0 ScaHFX=  0.200000
 ScaDFX=  0.800000  0.720000  1.000000  0.810000 ScalE2=  1.000000  1.000000
 IRadAn=      5 IRanWt=     -1 IRanGd=            0 ICorTp=0 IEmpDi=141
 NAtoms=    6 NActive=    6 NUniq=    5 SFac= 1.44D+00 NAtFMM=   60 NAOKFM=F Big=F
 Integral buffers will be    131072 words long.
 Raffenetti 2 integral format.
 Two-electron integral symmetry is turned on.
 R6Disp:  Grimme-D3(BJ) Dispersion energy=       -0.0030709377 Hartrees.
 Nuclear repulsion after empirical dispersion term =       30.9072617113 Hartrees.
 Leave Link  301 at Sat Oct 10 10:19:11 2020, MaxMem=  2684354560 cpu:               1.2 elap:               0.1
 (Enter /udrive/faculty/rpeverati/g16/g16/l302.exe)
 NPDir=0 NMtPBC=     1 NCelOv=     1 NCel=       1 NClECP=     1 NCelD=      1
         NCelK=      1 NCelE2=     1 NClLst=     1 CellRange=     0.0.
 One-electron integrals computed using PRISM.
 One-electron integral symmetry used in STVInt
 NBasis=    36 RedAO= T EigKep=  1.14D-02  NBF=    26    10
 NBsUse=    36 1.00D-06 EigRej= -1.00D+00 NBFU=    26    10
 Precomputing XC quadrature grid using
 IXCGrd= 4 IRadAn=           5 IRanWt=          -1 IRanGd=           0 AccXCQ= 0.00D+00.
 Generated NRdTot=       0 NPtTot=           0 NUsed=           0 NTot=          32
 NSgBfM=    38    38    38    38    38 MxSgAt=     6 MxSgA2=     6.
 Leave Link  302 at Sat Oct 10 10:19:12 2020, MaxMem=  2684354560 cpu:               3.5 elap:               0.3
 (Enter /udrive/faculty/rpeverati/g16/g16/l303.exe)
 DipDrv:  MaxL=1.
 Leave Link  303 at Sat Oct 10 10:19:12 2020, MaxMem=  2684354560 cpu:               0.8 elap:               0.1
 (Enter /udrive/faculty/rpeverati/g16/g16/l401.exe)
 SCF N**3 symmetry information disabled.
 ExpMin= 1.61D-01 ExpMax= 5.48D+03 ExpMxC= 8.25D+02 IAcc=3 IRadAn=         5 AccDes= 0.00D+00
 Harris functional with IExCor=  402 and IRadAn=       5 diagonalized for initial guess.
 HarFok:  IExCor=  402 AccDes= 0.00D+00 IRadAn=         5 IDoV= 1 UseB2=F ITyADJ=14
 ICtDFT=  3500011 ScaDFX=  1.000000  1.000000  1.000000  1.000000
 FoFCou: FMM=F IPFlag=           0 FMFlag=      100000 FMFlg1=           0
         NFxFlg=           0 DoJE=T BraDBF=F KetDBF=T FulRan=T
         wScrn=  0.000000 ICntrl=       500 IOpCl=  0 I1Cent=   200000004 NGrid=           0
         NMat0=    1 NMatS0=      1 NMatT0=    0 NMatD0=    1 NMtDS0=    0 NMtDT0=    0
 Petite list used in FoFCou.
 Harris En= -115.519805411833    
 JPrj=0 DoOrth=F DoCkMO=F.
 Initial guess orbital symmetries:
 Alpha Orbitals:
       Occupied  (A') (A') (A') (A') (A") (A') (A') (A") (A') (A')
       Virtual   (A') (A') (A") (A') (A') (A") (A') (A') (A') (A")
                 (A') (A') (A") (A') (A') (A") (A') (A') (A") (A')
                 (A') (A") (A') (A") (A') (A')
 Beta  Orbitals:
       Occupied  (A') (A') (A') (A') (A") (A') (A') (A")
       Virtual   (A') (A') (A') (A') (A") (A') (A') (A") (A') (A')
                 (A') (A") (A') (A') (A") (A') (A') (A") (A') (A')
                 (A") (A') (A') (A") (A') (A") (A') (A')
 The electronic state of the initial guess is 3-A'.
 Initial guess <Sx>= 0.0000 <Sy>= 0.0000 <Sz>= 1.0000 <S**2>= 2.0000 S= 1.0000
 Leave Link  401 at Sat Oct 10 10:19:12 2020, MaxMem=  2684354560 cpu:               4.8 elap:               0.4
 (Enter /udrive/faculty/rpeverati/g16/g16/l502.exe)
 Keep R1 and R2 ints in memory in symmetry-blocked form, NReq=10589866.
 FoFCou: FMM=F IPFlag=           0 FMFlag=           0 FMFlg1=           0
         NFxFlg=           0 DoJE=F BraDBF=F KetDBF=F FulRan=T
         wScrn=  0.000000 ICntrl=       600 IOpCl=  0 I1Cent=           0 NGrid=           0
         NMat0=    1 NMatS0=    666 NMatT0=    0 NMatD0=    1 NMtDS0=    0 NMtDT0=    0
 Petite list used in FoFCou.
 UHF open shell SCF:
 Using DIIS extrapolation, IDIIS=  1040.
 NGot=  2684354560 LenX=  2684115610 LenY=  2684113725
 Requested convergence on RMS density matrix=1.00D-08 within 120 cycles.
 Requested convergence on MAX density matrix=1.00D-06.
 Requested convergence on             energy=1.00D-06.
 No special actions if energy rises.
 Integral accuracy reduced to 1.0D-05 until final iterations.

 Cycle   1  Pass 0  IDiag  1:
 E= -115.503736725750    
 DIIS: error= 5.59D-02 at cycle   1 NSaved=   1.
 NSaved= 1 IEnMin= 1 EnMin= -115.503736725750     IErMin= 1 ErrMin= 5.59D-02
 ErrMax= 5.59D-02  0.00D+00 EMaxC= 1.00D-01 BMatC= 2.08D-01 BMatP= 2.08D-01
 IDIUse=3 WtCom= 4.41D-01 WtEn= 5.59D-01
 Coeff-Com:  0.100D+01
 Coeff-En:   0.100D+01
 Coeff:      0.100D+01
 Gap=     0.362 Goal=   None    Shift=    0.000
 Gap=     0.151 Goal=   None    Shift=    0.000
 GapD=    0.151 DampG=1.000 DampE=0.500 DampFc=0.5000 IDamp=-1.
 Damping current iteration by 5.00D-01
 RMSDP=1.11D-02 MaxDP=1.50D-01              OVMax= 1.67D-01

 Cycle   2  Pass 0  IDiag  1:
 E= -115.530176453320     Delta-E=       -0.026439727570 Rises=F Damp=T
 DIIS: error= 1.23D-02 at cycle   2 NSaved=   2.
 NSaved= 2 IEnMin= 2 EnMin= -115.530176453320     IErMin= 2 ErrMin= 1.23D-02
 ErrMax= 1.23D-02  0.00D+00 EMaxC= 1.00D-01 BMatC= 1.23D-02 BMatP= 2.08D-01
 IDIUse=3 WtCom= 8.77D-01 WtEn= 1.23D-01
 Coeff-Com:  0.562D-01 0.944D+00
 Coeff-En:   0.843D-01 0.916D+00
 Coeff:      0.596D-01 0.940D+00
 Gap=     0.375 Goal=   None    Shift=    0.000
 Gap=     0.147 Goal=   None    Shift=    0.000
 RMSDP=2.34D-03 MaxDP=4.31D-02 DE=-2.64D-02 OVMax= 1.46D-01

 Cycle   3  Pass 0  IDiag  1:
 E= -115.560545834649     Delta-E=       -0.030369381329 Rises=F Damp=F
 DIIS: error= 1.28D-02 at cycle   3 NSaved=   3.
 NSaved= 3 IEnMin= 3 EnMin= -115.560545834649     IErMin= 2 ErrMin= 1.23D-02
 ErrMax= 1.28D-02  0.00D+00 EMaxC= 1.00D-01 BMatC= 1.03D-02 BMatP= 1.23D-02
 IDIUse=3 WtCom= 8.72D-01 WtEn= 1.28D-01
 Coeff-Com: -0.942D-02 0.472D+00 0.538D+00
 Coeff-En:   0.000D+00 0.000D+00 0.100D+01
 Coeff:     -0.821D-02 0.411D+00 0.597D+00
 Gap=     0.386 Goal=   None    Shift=    0.000
 Gap=     0.158 Goal=   None    Shift=    0.000
 RMSDP=1.49D-03 MaxDP=2.12D-02 DE=-3.04D-02 OVMax= 4.09D-02

 Cycle   4  Pass 0  IDiag  1:
 E= -115.562494527223     Delta-E=       -0.001948692574 Rises=F Damp=F
 DIIS: error= 5.77D-03 at cycle   4 NSaved=   4.
 NSaved= 4 IEnMin= 4 EnMin= -115.562494527223     IErMin= 4 ErrMin= 5.77D-03
 ErrMax= 5.77D-03  0.00D+00 EMaxC= 1.00D-01 BMatC= 1.63D-03 BMatP= 1.03D-02
 IDIUse=3 WtCom= 9.42D-01 WtEn= 5.77D-02
 Coeff-Com: -0.843D-02-0.624D-01 0.270D+00 0.800D+00
 Coeff-En:   0.000D+00 0.000D+00 0.113D+00 0.887D+00
 Coeff:     -0.794D-02-0.588D-01 0.261D+00 0.805D+00
 Gap=     0.382 Goal=   None    Shift=    0.000
 Gap=     0.148 Goal=   None    Shift=    0.000
 RMSDP=4.75D-04 MaxDP=9.34D-03 DE=-1.95D-03 OVMax= 1.71D-02

 Cycle   5  Pass 0  IDiag  1:
 E= -115.562902176109     Delta-E=       -0.000407648886 Rises=F Damp=F
 DIIS: error= 7.17D-04 at cycle   5 NSaved=   5.
 NSaved= 5 IEnMin= 5 EnMin= -115.562902176109     IErMin= 5 ErrMin= 7.17D-04
 ErrMax= 7.17D-04  0.00D+00 EMaxC= 1.00D-01 BMatC= 2.97D-05 BMatP= 1.63D-03
 IDIUse=3 WtCom= 9.93D-01 WtEn= 7.17D-03
 Coeff-Com: -0.173D-02-0.149D-01-0.434D-01 0.166D-01 0.104D+01
 Coeff-En:   0.000D+00 0.000D+00 0.000D+00 0.000D+00 0.100D+01
 Coeff:     -0.171D-02-0.148D-01-0.431D-01 0.165D-01 0.104D+01
 Gap=     0.384 Goal=   None    Shift=    0.000
 Gap=     0.148 Goal=   None    Shift=    0.000
 RMSDP=1.16D-04 MaxDP=1.57D-03 DE=-4.08D-04 OVMax= 1.75D-03

 Cycle   6  Pass 0  IDiag  1:
 E= -115.562912202134     Delta-E=       -0.000010026025 Rises=F Damp=F
 DIIS: error= 1.42D-04 at cycle   6 NSaved=   6.
 NSaved= 6 IEnMin= 6 EnMin= -115.562912202134     IErMin= 6 ErrMin= 1.42D-04
 ErrMax= 1.42D-04  0.00D+00 EMaxC= 1.00D-01 BMatC= 2.00D-06 BMatP= 2.97D-05
 IDIUse=3 WtCom= 9.99D-01 WtEn= 1.42D-03
 Coeff-Com: -0.104D-04 0.372D-02-0.351D-01-0.664D-01 0.251D+00 0.847D+00
 Coeff-En:   0.000D+00 0.000D+00 0.000D+00 0.000D+00 0.000D+00 0.100D+01
 Coeff:     -0.103D-04 0.371D-02-0.351D-01-0.663D-01 0.250D+00 0.847D+00
 Gap=     0.384 Goal=   None    Shift=    0.000
 Gap=     0.148 Goal=   None    Shift=    0.000
 RMSDP=2.20D-05 MaxDP=2.45D-04 DE=-1.00D-05 OVMax= 4.43D-04

 Cycle   7  Pass 0  IDiag  1:
 E= -115.562912859903     Delta-E=       -0.000000657769 Rises=F Damp=F
 DIIS: error= 2.07D-05 at cycle   7 NSaved=   7.
 NSaved= 7 IEnMin= 7 EnMin= -115.562912859903     IErMin= 7 ErrMin= 2.07D-05
 ErrMax= 2.07D-05  0.00D+00 EMaxC= 1.00D-01 BMatC= 3.09D-08 BMatP= 2.00D-06
 IDIUse=1 WtCom= 1.00D+00 WtEn= 0.00D+00
 Coeff-Com:  0.531D-04 0.372D-04 0.400D-02 0.774D-02-0.546D-01-0.103D+00
 Coeff-Com:  0.115D+01
 Coeff:      0.531D-04 0.372D-04 0.400D-02 0.774D-02-0.546D-01-0.103D+00
 Coeff:      0.115D+01
 Gap=     0.384 Goal=   None    Shift=    0.000
 Gap=     0.148 Goal=   None    Shift=    0.000
 RMSDP=4.72D-06 MaxDP=4.44D-05 DE=-6.58D-07 OVMax= 5.28D-05

 Initial convergence to 1.0D-05 achieved.  Increase integral accuracy.
 Cycle   8  Pass 1  IDiag  1:
 E= -115.562911565399     Delta-E=        0.000001294504 Rises=F Damp=F
 DIIS: error= 2.57D-06 at cycle   1 NSaved=   1.
 NSaved= 1 IEnMin= 1 EnMin= -115.562911565399     IErMin= 1 ErrMin= 2.57D-06
 ErrMax= 2.57D-06  0.00D+00 EMaxC= 1.00D-01 BMatC= 7.99D-10 BMatP= 7.99D-10
 IDIUse=1 WtCom= 1.00D+00 WtEn= 0.00D+00
 Coeff-Com:  0.100D+01
 Coeff:      0.100D+01
 Gap=     0.384 Goal=   None    Shift=    0.000
 Gap=     0.148 Goal=   None    Shift=    0.000
 RMSDP=4.72D-06 MaxDP=4.44D-05 DE= 1.29D-06 OVMax= 1.02D-05

 Cycle   9  Pass 1  IDiag  1:
 E= -115.562911565893     Delta-E=       -0.000000000493 Rises=F Damp=F
 DIIS: error= 1.21D-06 at cycle   2 NSaved=   2.
 NSaved= 2 IEnMin= 2 EnMin= -115.562911565893     IErMin= 2 ErrMin= 1.21D-06
 ErrMax= 1.21D-06  0.00D+00 EMaxC= 1.00D-01 BMatC= 1.23D-10 BMatP= 7.99D-10
 IDIUse=1 WtCom= 1.00D+00 WtEn= 0.00D+00
 Coeff-Com: -0.163D+00 0.116D+01
 Coeff:     -0.163D+00 0.116D+01
 Gap=     0.384 Goal=   None    Shift=    0.000
 Gap=     0.148 Goal=   None    Shift=    0.000
 RMSDP=3.15D-07 MaxDP=3.73D-06 DE=-4.93D-10 OVMax= 4.98D-06

 Cycle  10  Pass 1  IDiag  1:
 E= -115.562911565959     Delta-E=       -0.000000000066 Rises=F Damp=F
 DIIS: error= 9.21D-07 at cycle   3 NSaved=   3.
 NSaved= 3 IEnMin= 3 EnMin= -115.562911565959     IErMin= 3 ErrMin= 9.21D-07
 ErrMax= 9.21D-07  0.00D+00 EMaxC= 1.00D-01 BMatC= 6.96D-11 BMatP= 1.23D-10
 IDIUse=1 WtCom= 1.00D+00 WtEn= 0.00D+00
 Coeff-Com: -0.215D+00 0.544D+00 0.671D+00
 Coeff:     -0.215D+00 0.544D+00 0.671D+00
 Gap=     0.384 Goal=   None    Shift=    0.000
 Gap=     0.148 Goal=   None    Shift=    0.000
 RMSDP=1.49D-07 MaxDP=1.70D-06 DE=-6.64D-11 OVMax= 3.92D-06

 Cycle  11  Pass 1  IDiag  1:
 E= -115.562911565976     Delta-E=       -0.000000000017 Rises=F Damp=F
 DIIS: error= 4.73D-07 at cycle   4 NSaved=   4.
 NSaved= 4 IEnMin= 4 EnMin= -115.562911565976     IErMin= 4 ErrMin= 4.73D-07
 ErrMax= 4.73D-07  0.00D+00 EMaxC= 1.00D-01 BMatC= 1.83D-11 BMatP= 6.96D-11
 IDIUse=1 WtCom= 1.00D+00 WtEn= 0.00D+00
 Coeff-Com: -0.867D-01 0.845D-01 0.397D+00 0.605D+00
 Coeff:     -0.867D-01 0.845D-01 0.397D+00 0.605D+00
 Gap=     0.384 Goal=   None    Shift=    0.000
 Gap=     0.148 Goal=   None    Shift=    0.000
 RMSDP=5.77D-08 MaxDP=6.33D-07 DE=-1.73D-11 OVMax= 1.30D-06

 Cycle  12  Pass 1  IDiag  1:
 E= -115.562911565981     Delta-E=       -0.000000000005 Rises=F Damp=F
 DIIS: error= 3.89D-08 at cycle   5 NSaved=   5.
 NSaved= 5 IEnMin= 5 EnMin= -115.562911565981     IErMin= 5 ErrMin= 3.89D-08
 ErrMax= 3.89D-08  0.00D+00 EMaxC= 1.00D-01 BMatC= 1.34D-13 BMatP= 1.83D-11
 IDIUse=1 WtCom= 1.00D+00 WtEn= 0.00D+00
 Coeff-Com:  0.796D-02-0.299D-01-0.862D-02 0.139D-01 0.102D+01
 Coeff:      0.796D-02-0.299D-01-0.862D-02 0.139D-01 0.102D+01
 Gap=     0.384 Goal=   None    Shift=    0.000
 Gap=     0.148 Goal=   None    Shift=    0.000
 RMSDP=8.15D-09 MaxDP=8.69D-08 DE=-4.60D-12 OVMax= 2.28D-07

 SCF Done:  E(UB3LYP) =  -115.562911566     A.U. after   12 cycles
            NFock= 12  Conv=0.81D-08     -V/T= 2.0055
 <Sx>= 0.0000 <Sy>= 0.0000 <Sz>= 1.0000 <S**2>= 2.0095 S= 1.0032
 <L.S>= 0.000000000000E+00
 KE= 1.149330143160D+02 PE=-3.329955335098D+02 EE= 7.159234591649D+01
 Annihilation of the first spin contaminant:
 S**2 before annihilation     2.0095,   after     2.0000
 Leave Link  502 at Sat Oct 10 10:19:13 2020, MaxMem=  2684354560 cpu:              12.5 elap:               1.1
 (Enter /udrive/faculty/rpeverati/g16/g16/l508.exe)
 QCSCF skips out because SCF is already converged.
 Leave Link  508 at Sat Oct 10 10:19:13 2020, MaxMem=  2684354560 cpu:               0.1 elap:               0.0
 (Enter /udrive/faculty/rpeverati/g16/g16/l601.exe)
 Copying SCF densities to generalized density rwf, IOpCl= 1 IROHF=0.

 **********************************************************************

            Population analysis using the SCF density.

 **********************************************************************

 Orbital symmetries:
 Alpha Orbitals:
       Occupied  (A') (A') (A') (A') (A') (A') (A") (A') (A") (A')
       Virtual   (A') (A') (A") (A') (A') (A") (A') (A') (A') (A")
                 (A') (A') (A") (A') (A') (A') (A") (A') (A') (A")
                 (A') (A") (A') (A") (A') (A')
 Beta  Orbitals:
       Occupied  (A') (A') (A') (A') (A") (A') (A') (A")
       Virtual   (A') (A') (A') (A') (A") (A') (A") (A') (A') (A')
                 (A') (A") (A') (A") (A') (A') (A') (A') (A") (A')
                 (A") (A') (A") (A') (A') (A") (A') (A')
 The electronic state is 3-A'.
 Alpha  occ. eigenvalues --  -19.21121 -10.20251  -0.97557  -0.72236  -0.47929
 Alpha  occ. eigenvalues --   -0.43500  -0.43403  -0.39515  -0.32150  -0.28051
 Alpha virt. eigenvalues --    0.10320   0.15756   0.15861   0.25535   0.49965
 Alpha virt. eigenvalues --    0.50398   0.52807   0.70474   0.84857   0.88158
 Alpha virt. eigenvalues --    0.88175   0.88989   0.89700   0.94432   1.15599
 Alpha virt. eigenvalues --    1.61243   1.61432   1.62155   1.71750   1.76273
 Alpha virt. eigenvalues --    1.76360   1.76521   1.87519   2.20349   2.20480
 Alpha virt. eigenvalues --    2.50689
  Beta  occ. eigenvalues --  -19.17251 -10.19320  -0.86452  -0.69401  -0.42726
  Beta  occ. eigenvalues --   -0.42674  -0.40413  -0.28156
  Beta virt. eigenvalues --   -0.13325  -0.12439   0.11032   0.16341   0.16413
  Beta virt. eigenvalues --    0.28846   0.50909   0.50937   0.56675   0.72458
  Beta virt. eigenvalues --    0.88757   0.88849   0.90735   0.91915   0.95199
  Beta virt. eigenvalues --    0.98429   1.18460   1.64915   1.64937   1.67209
  Beta virt. eigenvalues --    1.80417   1.81513   1.83027   1.83809   1.92398
  Beta virt. eigenvalues --    2.21684   2.21854   2.55574
          Condensed to atoms (all electrons):
               1          2          3          4          5          6
     1  C    5.337816   0.368225   0.366488   0.366488   0.242421  -0.054048
     2  H    0.368225   0.500707  -0.023909  -0.023909  -0.013038   0.000699
     3  H    0.366488  -0.023909   0.503441  -0.025048  -0.012608  -0.000087
     4  H    0.366488  -0.023909  -0.025048   0.503441  -0.012608  -0.000087
     5  H    0.242421  -0.013038  -0.012608  -0.012608   0.380062   0.049206
     6  O   -0.054048   0.000699  -0.000087  -0.000087   0.049206   8.318162
          Atomic-Atomic Spin Densities.
               1          2          3          4          5          6
     1  C    0.673957  -0.014539  -0.014093  -0.014093   0.056814  -0.085188
     2  H   -0.014539  -0.009057   0.002702   0.002702   0.000182   0.002237
     3  H   -0.014093   0.002702  -0.011592   0.003435   0.000051   0.002693
     4  H   -0.014093   0.002702   0.003435  -0.011592   0.000051   0.002693
     5  H    0.056814   0.000182   0.000051   0.000051  -0.071618  -0.062638
     6  O   -0.085188   0.002237   0.002693   0.002693  -0.062638   1.663889
 Mulliken charges and spin densities:
               1          2
     1  C   -0.627390   0.602856
     2  H    0.191226  -0.015774
     3  H    0.191723  -0.016805
     4  H    0.191723  -0.016805
     5  H    0.366565  -0.077158
     6  O   -0.313846   1.523686
 Sum of Mulliken charges =   0.00000   2.00000
 Mulliken charges and spin densities with hydrogens summed into heavy atoms:
               1          2
     1  C   -0.052719   0.553472
     6  O    0.052719   1.446528
 Electronic spatial extent (au):  <R**2>=            144.2452
 Charge=              0.0000 electrons
 Dipole moment (field-independent basis, Debye):
    X=              0.0006    Y=             -1.9250    Z=             -0.0000  Tot=              1.9250
 Quadrupole moment (field-independent basis, Debye-Ang):
   XX=            -12.3788   YY=            -14.9751   ZZ=            -13.4984
   XY=              0.0057   XZ=             -0.0000   YZ=              0.0000
 Traceless Quadrupole moment (field-independent basis, Debye-Ang):
   XX=              1.2386   YY=             -1.3577   ZZ=              0.1190
   XY=              0.0057   XZ=             -0.0000   YZ=              0.0000
 Octapole moment (field-independent basis, Debye-Ang**2):
  XXX=             -0.7830  YYY=              2.9438  ZZZ=             -0.0000  XYY=              0.0355
  XXY=              1.6371  XXZ=             -0.0000  XZZ=              0.7627  YZZ=              0.0508
  YYZ=             -0.0000  XYZ=              0.0000
 Hexadecapole moment (field-independent basis, Debye-Ang**3):
 XXXX=            -16.9656 YYYY=           -142.6652 ZZZZ=            -18.2475 XXXY=              1.1529
 XXXZ=             -0.0000 YYYX=             -0.0575 YYYZ=              0.0000 ZZZX=             -0.0000
 ZZZY=             -0.0000 XXYY=            -23.7509 XXZZ=             -5.8863 YYZZ=            -25.9437
 XXYZ=             -0.0000 YYXZ=             -0.0000 ZZXY=             -1.1435
 N-N= 3.090726171135D+01 E-N=-3.329955333123D+02  KE= 1.149330143160D+02
                          Isotropic Fermi Contact Couplings
        Atom                 a.u.       MegaHertz       Gauss      10(-4) cm-1
     1  C(13)              0.15121      84.99253      30.32745      28.35045
     2  H(1)              -0.00417      -9.31570      -3.32407      -3.10738
     3  H(1)              -0.00487     -10.88654      -3.88459      -3.63136
     4  H(1)              -0.00487     -10.88654      -3.88459      -3.63136
     5  H(1)              -0.03242     -72.46172     -25.85614     -24.17063
     6  O(17)              0.21715     -65.81699     -23.48514     -21.95418
 --------------------------------------------------------
       Center         ----  Spin Dipole Couplings  ----
                      3XX-RR        3YY-RR        3ZZ-RR
 --------------------------------------------------------
     1   Atom       -0.337937      0.681272     -0.343335
     2   Atom        0.039331      0.008552     -0.047883
     3   Atom       -0.026027      0.008443      0.017584
     4   Atom       -0.026027      0.008443      0.017584
     5   Atom       -0.162524      0.360458     -0.197935
     6   Atom        2.514285      0.362765     -2.877050
 --------------------------------------------------------
                        XY            XZ            YZ
 --------------------------------------------------------
     1   Atom        0.012717      0.000000     -0.000000
     2   Atom        0.020451     -0.000000     -0.000000
     3   Atom       -0.009925      0.036956     -0.018882
     4   Atom       -0.009925     -0.036956      0.018882
     5   Atom       -0.001947      0.000000     -0.000000
     6   Atom        0.022164     -0.000000     -0.000000
 --------------------------------------------------------


 ---------------------------------------------------------------------------------
              Anisotropic Spin Dipole Couplings in Principal Axis System
 ---------------------------------------------------------------------------------

       Atom             a.u.   MegaHertz   Gauss  10(-4) cm-1        Axes

              Baa    -0.3433   -46.072   -16.440   -15.368 -0.0000  0.0000  1.0000
     1 C(13)  Bbb    -0.3381   -45.369   -16.189   -15.134  0.9999 -0.0125  0.0000
              Bcc     0.6814    91.442    32.629    30.502  0.0125  0.9999 -0.0000
 
              Baa    -0.0479   -25.548    -9.116    -8.522  0.0000  0.0000  1.0000
     2 H(1)   Bbb    -0.0017    -0.882    -0.315    -0.294 -0.4465  0.8948 -0.0000
              Bcc     0.0495    26.430     9.431     8.816  0.8948  0.4465  0.0000
 
              Baa    -0.0471   -25.153    -8.975    -8.390  0.8665 -0.0148 -0.4990
     3 H(1)   Bbb    -0.0026    -1.367    -0.488    -0.456  0.2405  0.8883  0.3913
              Bcc     0.0497    26.520     9.463     8.846  0.4375 -0.4591  0.7732
 
              Baa    -0.0471   -25.153    -8.975    -8.390  0.8665 -0.0148  0.4990
     4 H(1)   Bbb    -0.0026    -1.367    -0.488    -0.456  0.2405  0.8883 -0.3913
              Bcc     0.0497    26.520     9.463     8.846 -0.4375  0.4591  0.7732
 
              Baa    -0.1979  -105.609   -37.684   -35.227  0.0000  0.0000  1.0000
     5 H(1)   Bbb    -0.1625   -86.719   -30.943   -28.926  1.0000  0.0037  0.0000
              Bcc     0.3605   192.327    68.627    64.154 -0.0037  1.0000  0.0000
 
              Baa    -2.8771   208.181    74.284    69.442  0.0000  0.0000  1.0000
     6 O(17)  Bbb     0.3625   -26.233    -9.361    -8.750 -0.0103  0.9999 -0.0000
              Bcc     2.5145  -181.948   -64.924   -60.691  0.9999  0.0103  0.0000
 

 ---------------------------------------------------------------------------------

 No NMR shielding tensors so no spin-rotation constants.
 Leave Link  601 at Sat Oct 10 10:19:14 2020, MaxMem=  2684354560 cpu:               5.6 elap:               0.5
 (Enter /udrive/faculty/rpeverati/g16/g16/l701.exe)
 ... and contract with generalized density number  0.
 Compute integral first derivatives.
 R6Disp: Adding Grimme-D3(BJ) dispersion energy 1st derivatives to the gradient.
 Leave Link  701 at Sat Oct 10 10:19:14 2020, MaxMem=  2684354560 cpu:               3.2 elap:               0.3
 (Enter /udrive/faculty/rpeverati/g16/g16/l702.exe)
 L702 exits ... SP integral derivatives will be done elsewhere.
 Leave Link  702 at Sat Oct 10 10:19:14 2020, MaxMem=  2684354560 cpu:               0.8 elap:               0.1
 (Enter /udrive/faculty/rpeverati/g16/g16/l703.exe)
 Integral derivatives from FoFJK, PRISM(SPDF).
 Compute integral first derivatives, UseDBF=F ICtDFT=           0.
 Calling FoFJK, ICntrl=      2127 FMM=F ISym2X=1 I1Cent= 0 IOpClX= 1 NMat=1 NMatS=1 NMatT=0.
 FoFJK:  IHMeth= 1 ICntrl=    2127 DoSepK=F KAlg= 0 I1Cent=           0 FoldK=F
 IRaf=         0 NMat=       1 IRICut=       1 DoRegI=T DoRafI=F ISym2E= 1 IDoP0=0 IntGTp=1.
 FoFCou: FMM=F IPFlag=           0 FMFlag=      100000 FMFlg1=         800
         NFxFlg=           0 DoJE=F BraDBF=F KetDBF=F FulRan=T
         wScrn=  0.000000 ICntrl=      2127 IOpCl=  1 I1Cent=           0 NGrid=           0
         NMat0=    1 NMatS0=      1 NMatT0=    0 NMatD0=    1 NMtDS0=    0 NMtDT0=    0
 Petite list used in FoFCou.
 Leave Link  703 at Sat Oct 10 10:19:15 2020, MaxMem=  2684354560 cpu:               6.6 elap:               0.6
 (Enter /udrive/faculty/rpeverati/g16/g16/l716.exe)
 Dipole        = 2.50169272D-04-7.57345397D-01-2.22327686D-16
 ***** Axes restored to original set *****
 -------------------------------------------------------------------
 Center     Atomic                   Forces (Hartrees/Bohr)
 Number     Number              X              Y              Z
 -------------------------------------------------------------------
      1        6           0.000308582    0.008181415    0.000000000
      2        1          -0.003925250   -0.001935525   -0.000000000
      3        1           0.001895384   -0.002214472    0.003334657
      4        1           0.001895384   -0.002214472   -0.003334657
      5        1          -0.000090449   -0.010841788   -0.000000000
      6        8          -0.000083650    0.009024841    0.000000000
 -------------------------------------------------------------------
 Cartesian Forces:  Max     0.010841788 RMS     0.004245419
 Leave Link  716 at Sat Oct 10 10:19:15 2020, MaxMem=  2684354560 cpu:               0.8 elap:               0.1
 (Enter /udrive/faculty/rpeverati/g16/g16/l103.exe)

 GradGradGradGradGradGradGradGradGradGradGradGradGradGradGradGradGradGrad
 Berny optimization.
 Optmz: redundant internal coordinate code flag= 1
 FormGI is forming the generalized inverse of G from B-inverse, IUseBI=4.
 Internal  Forces:  Max     0.009025228 RMS     0.002903112
 Numerically estimating second derivatives.
 Iteration  1 RMS(Cart)=  0.00140027 RMS(Int)=  0.00000000
 Iteration  2 RMS(Cart)=  0.00000000 RMS(Int)=  0.00000000
 Largest change from initial coordinates is atom    5       0.002 Angstoms.
 GradGradGradGradGradGradGradGradGradGradGradGradGradGradGradGradGradGrad

 Leave Link  103 at Sat Oct 10 10:19:15 2020, MaxMem=  2684354560 cpu:               0.4 elap:               0.1
 (Enter /udrive/faculty/rpeverati/g16/g16/l202.exe)
                          Input orientation:                          
 ---------------------------------------------------------------------
 Center     Atomic      Atomic             Coordinates (Angstroms)
 Number     Number       Type             X           Y           Z
 ---------------------------------------------------------------------
      1          6           0        0.000296   -1.141405   -0.000000
      2          1           0       -1.055952   -1.383849    0.000000
      3          1           0        0.520172   -1.406509    0.912450
      4          1           0        0.520172   -1.406509   -0.912450
      5          1           0        0.011548    0.158335   -0.000000
      6          8           0        0.000282    1.359878    0.000000
 ---------------------------------------------------------------------
                    Distance matrix (angstroms):
                    1          2          3          4          5
     1  C    0.000000
     2  H    1.083715   0.000000
     3  H    1.083105   1.821331   0.000000
     4  H    1.083105   1.821331   1.824899   0.000000
     5  H    1.299789   1.875603   1.881489   1.881489   0.000000
     6  O    2.501283   2.940012   2.959011   2.959011   1.201596
                    6
     6  O    0.000000
 Stoichiometry    CH4O(3)
 Framework group  CS[SG(CH2O),X(H2)]
 Deg. of freedom     8
 Full point group                 CS      NOp   2
 RotChk:  IX=0 Diff= 7.89D-06
 Largest Abelian subgroup         CS      NOp   2
 Largest concise Abelian subgroup CS      NOp   2
                         Standard orientation:                         
 ---------------------------------------------------------------------
 Center     Atomic      Atomic             Coordinates (Angstroms)
 Number     Number       Type             X           Y           Z
 ---------------------------------------------------------------------
      1          6           0        0.000291   -1.140964   -0.000000
      2          1           0       -1.055958   -1.383402   -0.000000
      3          1           0        0.520166   -1.406071    0.912450
      4          1           0        0.520166   -1.406071   -0.912450
      5          1           0        0.011550    0.158776    0.000000
      6          8           0        0.000291    1.360319    0.000000
 ---------------------------------------------------------------------
 Rotational constants (GHZ):         150.9744073           9.6577243           9.6560878
 Leave Link  202 at Sat Oct 10 10:19:15 2020, MaxMem=  2684354560 cpu:               0.1 elap:               0.0
 (Enter /udrive/faculty/rpeverati/g16/g16/l301.exe)
 Standard basis: 6-31G(d) (5D, 7F)
 Ernie: Thresh=  0.10000D-02 Tol=  0.10000D-05 Strict=F.
 There are    28 symmetry adapted cartesian basis functions of A'  symmetry.
 There are    10 symmetry adapted cartesian basis functions of A"  symmetry.
 There are    26 symmetry adapted basis functions of A'  symmetry.
 There are    10 symmetry adapted basis functions of A"  symmetry.
    36 basis functions,    72 primitive gaussians,    38 cartesian basis functions
    10 alpha electrons        8 beta electrons
       nuclear repulsion energy        30.9306083417 Hartrees.
 IExCor=  402 DFT=T Ex+Corr=B3LYP ExCW=0 ScaHFX=  0.200000
 ScaDFX=  0.800000  0.720000  1.000000  0.810000 ScalE2=  1.000000  1.000000
 IRadAn=      5 IRanWt=     -1 IRanGd=            0 ICorTp=0 IEmpDi=141
 NAtoms=    6 NActive=    6 NUniq=    5 SFac= 1.44D+00 NAtFMM=   60 NAOKFM=F Big=F
 Integral buffers will be    131072 words long.
 Raffenetti 2 integral format.
 Two-electron integral symmetry is turned on.
 R6Disp:  Grimme-D3(BJ) Dispersion energy=       -0.0030715965 Hartrees.
 Nuclear repulsion after empirical dispersion term =       30.9275367452 Hartrees.
 Leave Link  301 at Sat Oct 10 10:19:16 2020, MaxMem=  2684354560 cpu:               1.3 elap:               0.1
 (Enter /udrive/faculty/rpeverati/g16/g16/l302.exe)
 NPDir=0 NMtPBC=     1 NCelOv=     1 NCel=       1 NClECP=     1 NCelD=      1
         NCelK=      1 NCelE2=     1 NClLst=     1 CellRange=     0.0.
 One-electron integrals computed using PRISM.
 One-electron integral symmetry used in STVInt
 NBasis=    36 RedAO= T EigKep=  1.13D-02  NBF=    26    10
 NBsUse=    36 1.00D-06 EigRej= -1.00D+00 NBFU=    26    10
 Precomputing XC quadrature grid using
 IXCGrd= 4 IRadAn=           5 IRanWt=          -1 IRanGd=           0 AccXCQ= 0.00D+00.
 Generated NRdTot=       0 NPtTot=           0 NUsed=           0 NTot=          32
 NSgBfM=    38    38    38    38    38 MxSgAt=     6 MxSgA2=     6.
 Leave Link  302 at Sat Oct 10 10:19:16 2020, MaxMem=  2684354560 cpu:               3.5 elap:               0.3
 (Enter /udrive/faculty/rpeverati/g16/g16/l303.exe)
 DipDrv:  MaxL=1.
 Leave Link  303 at Sat Oct 10 10:19:16 2020, MaxMem=  2684354560 cpu:               0.8 elap:               0.1
 (Enter /udrive/faculty/rpeverati/g16/g16/l401.exe)
 Initial guess from the checkpoint file:  "MN_87_RKT11_BH76_B3LYP_631Gs.chk"
 SCF N**3 symmetry information disabled.
 B after Tr=    -0.000000    0.000000    0.000000
         Rot=    1.000000   -0.000000   -0.000000    0.000001 Ang=   0.00 deg.
 Guess basis will be translated and rotated to current coordinates.
 JPrj=2 DoOrth=T DoCkMO=T.
 Initial guess orbital symmetries:
 Alpha Orbitals:
       Occupied  (A') (A') (A') (A') (A') (A') (A") (A') (A") (A')
       Virtual   (A') (A') (A") (A') (A') (A") (A') (A') (A') (A")
                 (A') (A') (A") (A') (A') (A') (A") (A') (A') (A")
                 (A') (A") (A') (A") (A') (A')
 Beta  Orbitals:
       Occupied  (A') (A') (A') (A') (A") (A') (A') (A")
       Virtual   (A') (A') (A') (A') (A") (A') (A") (A') (A') (A')
                 (A') (A") (A') (A") (A') (A') (A') (A') (A") (A')
                 (A") (A') (A") (A') (A') (A") (A') (A')
 The electronic state of the initial guess is 3-A'.
 Initial guess <Sx>= 0.0000 <Sy>= 0.0000 <Sz>= 1.0000 <S**2>= 2.0095 S= 1.0032
 Generating alternative initial guess.
 ExpMin= 1.61D-01 ExpMax= 5.48D+03 ExpMxC= 8.25D+02 IAcc=2 IRadAn=         4 AccDes= 0.00D+00
 Harris functional with IExCor=  402 and IRadAn=       4 diagonalized for initial guess.
 HarFok:  IExCor=  402 AccDes= 0.00D+00 IRadAn=         4 IDoV= 1 UseB2=F ITyADJ=14
 ICtDFT=  3500011 ScaDFX=  1.000000  1.000000  1.000000  1.000000
 FoFCou: FMM=F IPFlag=           0 FMFlag=      100000 FMFlg1=           0
         NFxFlg=           0 DoJE=T BraDBF=F KetDBF=T FulRan=T
         wScrn=  0.000000 ICntrl=       500 IOpCl=  0 I1Cent=   200000004 NGrid=           0
         NMat0=    1 NMatS0=      1 NMatT0=    0 NMatD0=    1 NMtDS0=    0 NMtDT0=    0
 Petite list used in FoFCou.
 Harris En= -115.519648993428    
 Leave Link  401 at Sat Oct 10 10:19:17 2020, MaxMem=  2684354560 cpu:               5.9 elap:               0.5
 (Enter /udrive/faculty/rpeverati/g16/g16/l502.exe)
 Keep R1 and R2 ints in memory in symmetry-blocked form, NReq=10589866.
 FoFCou: FMM=F IPFlag=           0 FMFlag=           0 FMFlg1=           0
         NFxFlg=           0 DoJE=F BraDBF=F KetDBF=F FulRan=T
         wScrn=  0.000000 ICntrl=       600 IOpCl=  0 I1Cent=           0 NGrid=           0
         NMat0=    1 NMatS0=    666 NMatT0=    0 NMatD0=    1 NMtDS0=    0 NMtDT0=    0
 Petite list used in FoFCou.
 UHF open shell SCF:
 Using DIIS extrapolation, IDIIS=  1040.
 NGot=  2684354560 LenX=  2684115610 LenY=  2684113725
 Requested convergence on RMS density matrix=1.00D-08 within 120 cycles.
 Requested convergence on MAX density matrix=1.00D-06.
 Requested convergence on             energy=1.00D-06.
 No special actions if energy rises.
 Integral accuracy reduced to 1.0D-05 until final iterations.

 Cycle   1  Pass 0  IDiag  1:
 E= -115.562919717128    
 DIIS: error= 1.40D-04 at cycle   1 NSaved=   1.
 NSaved= 1 IEnMin= 1 EnMin= -115.562919717128     IErMin= 1 ErrMin= 1.40D-04
 ErrMax= 1.40D-04  0.00D+00 EMaxC= 1.00D-01 BMatC= 2.39D-06 BMatP= 2.39D-06
 IDIUse=3 WtCom= 9.99D-01 WtEn= 1.40D-03
 Coeff-Com:  0.100D+01
 Coeff-En:   0.100D+01
 Coeff:      0.100D+01
 Gap=     0.384 Goal=   None    Shift=    0.000
 Gap=     0.148 Goal=   None    Shift=    0.000
 RMSDP=3.78D-05 MaxDP=4.24D-04              OVMax= 1.30D-03

 Cycle   2  Pass 0  IDiag  1:
 E= -115.562920544791     Delta-E=       -0.000000827663 Rises=F Damp=F
 DIIS: error= 1.62D-04 at cycle   2 NSaved=   2.
 NSaved= 2 IEnMin= 2 EnMin= -115.562920544791     IErMin= 1 ErrMin= 1.40D-04
 ErrMax= 1.62D-04  0.00D+00 EMaxC= 1.00D-01 BMatC= 1.34D-06 BMatP= 2.39D-06
 IDIUse=3 WtCom= 9.98D-01 WtEn= 1.62D-03
 Coeff-Com:  0.386D+00 0.614D+00
 Coeff-En:   0.000D+00 0.100D+01
 Coeff:      0.386D+00 0.614D+00
 Gap=     0.384 Goal=   None    Shift=    0.000
 Gap=     0.148 Goal=   None    Shift=    0.000
 RMSDP=1.97D-05 MaxDP=2.26D-04 DE=-8.28D-07 OVMax= 4.55D-04

 Cycle   3  Pass 0  IDiag  1:
 E= -115.562920769158     Delta-E=       -0.000000224367 Rises=F Damp=F
 DIIS: error= 7.33D-05 at cycle   3 NSaved=   3.
 NSaved= 3 IEnMin= 3 EnMin= -115.562920769158     IErMin= 3 ErrMin= 7.33D-05
 ErrMax= 7.33D-05  0.00D+00 EMaxC= 1.00D-01 BMatC= 4.08D-07 BMatP= 1.34D-06
 IDIUse=1 WtCom= 1.00D+00 WtEn= 0.00D+00
 Coeff-Com: -0.103D-01 0.350D+00 0.660D+00
 Coeff:     -0.103D-01 0.350D+00 0.660D+00
 Gap=     0.384 Goal=   None    Shift=    0.000
 Gap=     0.148 Goal=   None    Shift=    0.000
 RMSDP=7.79D-06 MaxDP=1.38D-04 DE=-2.24D-07 OVMax= 3.47D-04

 Initial convergence to 1.0D-05 achieved.  Increase integral accuracy.
 Cycle   4  Pass 1  IDiag  1:
 E= -115.562919589373     Delta-E=        0.000001179785 Rises=F Damp=F
 DIIS: error= 1.88D-05 at cycle   1 NSaved=   1.
 NSaved= 1 IEnMin= 1 EnMin= -115.562919589373     IErMin= 1 ErrMin= 1.88D-05
 ErrMax= 1.88D-05  0.00D+00 EMaxC= 1.00D-01 BMatC= 1.48D-08 BMatP= 1.48D-08
 IDIUse=1 WtCom= 1.00D+00 WtEn= 0.00D+00
 Coeff-Com:  0.100D+01
 Coeff:      0.100D+01
 Gap=     0.384 Goal=   None    Shift=    0.000
 Gap=     0.148 Goal=   None    Shift=    0.000
 RMSDP=7.79D-06 MaxDP=1.38D-04 DE= 1.18D-06 OVMax= 7.00D-05

 Cycle   5  Pass 1  IDiag  1:
 E= -115.562919589584     Delta-E=       -0.000000000212 Rises=F Damp=F
 DIIS: error= 1.75D-05 at cycle   2 NSaved=   2.
 NSaved= 2 IEnMin= 2 EnMin= -115.562919589584     IErMin= 2 ErrMin= 1.75D-05
 ErrMax= 1.75D-05  0.00D+00 EMaxC= 1.00D-01 BMatC= 1.90D-08 BMatP= 1.48D-08
 IDIUse=1 WtCom= 1.00D+00 WtEn= 0.00D+00
 Coeff-Com:  0.534D+00 0.466D+00
 Coeff:      0.534D+00 0.466D+00
 Gap=     0.384 Goal=   None    Shift=    0.000
 Gap=     0.148 Goal=   None    Shift=    0.000
 RMSDP=1.71D-06 MaxDP=2.70D-05 DE=-2.12D-10 OVMax= 6.27D-05

 Cycle   6  Pass 1  IDiag  1:
 E= -115.562919594095     Delta-E=       -0.000000004510 Rises=F Damp=F
 DIIS: error= 5.69D-06 at cycle   3 NSaved=   3.
 NSaved= 3 IEnMin= 3 EnMin= -115.562919594095     IErMin= 3 ErrMin= 5.69D-06
 ErrMax= 5.69D-06  0.00D+00 EMaxC= 1.00D-01 BMatC= 1.23D-09 BMatP= 1.48D-08
 IDIUse=1 WtCom= 1.00D+00 WtEn= 0.00D+00
 Coeff-Com:  0.398D-01 0.194D+00 0.766D+00
 Coeff:      0.398D-01 0.194D+00 0.766D+00
 Gap=     0.384 Goal=   None    Shift=    0.000
 Gap=     0.148 Goal=   None    Shift=    0.000
 RMSDP=5.76D-07 MaxDP=8.62D-06 DE=-4.51D-09 OVMax= 1.11D-05

 Cycle   7  Pass 1  IDiag  1:
 E= -115.562919594443     Delta-E=       -0.000000000348 Rises=F Damp=F
 DIIS: error= 1.18D-06 at cycle   4 NSaved=   4.
 NSaved= 4 IEnMin= 4 EnMin= -115.562919594443     IErMin= 4 ErrMin= 1.18D-06
 ErrMax= 1.18D-06  0.00D+00 EMaxC= 1.00D-01 BMatC= 1.17D-10 BMatP= 1.23D-09
 IDIUse=1 WtCom= 1.00D+00 WtEn= 0.00D+00
 Coeff-Com: -0.134D+00-0.307D-01 0.210D+00 0.955D+00
 Coeff:     -0.134D+00-0.307D-01 0.210D+00 0.955D+00
 Gap=     0.384 Goal=   None    Shift=    0.000
 Gap=     0.148 Goal=   None    Shift=    0.000
 RMSDP=3.60D-07 MaxDP=4.34D-06 DE=-3.48D-10 OVMax= 7.68D-06

 Cycle   8  Pass 1  IDiag  1:
 E= -115.562919594498     Delta-E=       -0.000000000055 Rises=F Damp=F
 DIIS: error= 4.16D-07 at cycle   5 NSaved=   5.
 NSaved= 5 IEnMin= 5 EnMin= -115.562919594498     IErMin= 5 ErrMin= 4.16D-07
 ErrMax= 4.16D-07  0.00D+00 EMaxC= 1.00D-01 BMatC= 1.08D-11 BMatP= 1.17D-10
 IDIUse=1 WtCom= 1.00D+00 WtEn= 0.00D+00
 Coeff-Com: -0.535D-01-0.197D-01 0.347D-01 0.388D+00 0.650D+00
 Coeff:     -0.535D-01-0.197D-01 0.347D-01 0.388D+00 0.650D+00
 Gap=     0.384 Goal=   None    Shift=    0.000
 Gap=     0.148 Goal=   None    Shift=    0.000
 RMSDP=5.54D-08 MaxDP=8.46D-07 DE=-5.54D-11 OVMax= 9.43D-07

 Cycle   9  Pass 1  IDiag  1:
 E= -115.562919594501     Delta-E=       -0.000000000003 Rises=F Damp=F
 DIIS: error= 6.13D-08 at cycle   6 NSaved=   6.
 NSaved= 6 IEnMin= 6 EnMin= -115.562919594501     IErMin= 6 ErrMin= 6.13D-08
 ErrMax= 6.13D-08  0.00D+00 EMaxC= 1.00D-01 BMatC= 2.00D-13 BMatP= 1.08D-11
 IDIUse=1 WtCom= 1.00D+00 WtEn= 0.00D+00
 Coeff-Com:  0.120D-01 0.225D-02-0.137D-01-0.902D-01-0.608D-01 0.115D+01
 Coeff:      0.120D-01 0.225D-02-0.137D-01-0.902D-01-0.608D-01 0.115D+01
 Gap=     0.384 Goal=   None    Shift=    0.000
 Gap=     0.148 Goal=   None    Shift=    0.000
 RMSDP=1.12D-08 MaxDP=1.46D-07 DE=-2.90D-12 OVMax= 1.83D-07

 Cycle  10  Pass 1  IDiag  1:
 E= -115.562919594502     Delta-E=       -0.000000000000 Rises=F Damp=F
 DIIS: error= 9.50D-09 at cycle   7 NSaved=   7.
 NSaved= 7 IEnMin= 7 EnMin= -115.562919594502     IErMin= 7 ErrMin= 9.50D-09
 ErrMax= 9.50D-09  0.00D+00 EMaxC= 1.00D-01 BMatC= 1.70D-14 BMatP= 2.00D-13
 IDIUse=1 WtCom= 1.00D+00 WtEn= 0.00D+00
 Coeff-Com:  0.596D-02 0.195D-02-0.348D-02-0.423D-01-0.611D-01 0.134D+00
 Coeff-Com:  0.965D+00
 Coeff:      0.596D-02 0.195D-02-0.348D-02-0.423D-01-0.611D-01 0.134D+00
 Coeff:      0.965D+00
 Gap=     0.384 Goal=   None    Shift=    0.000
 Gap=     0.148 Goal=   None    Shift=    0.000
 RMSDP=3.21D-09 MaxDP=3.02D-08 DE=-2.27D-13 OVMax= 3.99D-08

 SCF Done:  E(UB3LYP) =  -115.562919595     A.U. after   10 cycles
            NFock= 10  Conv=0.32D-08     -V/T= 2.0055
 <Sx>= 0.0000 <Sy>= 0.0000 <Sz>= 1.0000 <S**2>= 2.0095 S= 1.0031
 <L.S>= 0.000000000000E+00
 KE= 1.149353449202D+02 PE=-3.330374536862D+02 EE= 7.161165242624D+01
 Annihilation of the first spin contaminant:
 S**2 before annihilation     2.0095,   after     2.0000
 Leave Link  502 at Sat Oct 10 10:19:18 2020, MaxMem=  2684354560 cpu:              12.4 elap:               1.1
 (Enter /udrive/faculty/rpeverati/g16/g16/l508.exe)
 QCSCF skips out because SCF is already converged.
 Leave Link  508 at Sat Oct 10 10:19:18 2020, MaxMem=  2684354560 cpu:               0.1 elap:               0.0
 (Enter /udrive/faculty/rpeverati/g16/g16/l701.exe)
 ... and contract with generalized density number  0.
 Compute integral first derivatives.
 R6Disp: Adding Grimme-D3(BJ) dispersion energy 1st derivatives to the gradient.
 Leave Link  701 at Sat Oct 10 10:19:18 2020, MaxMem=  2684354560 cpu:               3.2 elap:               0.3
 (Enter /udrive/faculty/rpeverati/g16/g16/l702.exe)
 L702 exits ... SP integral derivatives will be done elsewhere.
 Leave Link  702 at Sat Oct 10 10:19:18 2020, MaxMem=  2684354560 cpu:               0.7 elap:               0.1
 (Enter /udrive/faculty/rpeverati/g16/g16/l703.exe)
 Integral derivatives from FoFJK, PRISM(SPDF).
 Compute integral first derivatives, UseDBF=F ICtDFT=           0.
 Calling FoFJK, ICntrl=      2127 FMM=F ISym2X=1 I1Cent= 0 IOpClX= 1 NMat=1 NMatS=1 NMatT=0.
 FoFJK:  IHMeth= 1 ICntrl=    2127 DoSepK=F KAlg= 0 I1Cent=           0 FoldK=F
 IRaf=         0 NMat=       1 IRICut=       1 DoRegI=T DoRafI=F ISym2E= 1 IDoP0=0 IntGTp=1.
 FoFCou: FMM=F IPFlag=           0 FMFlag=      100000 FMFlg1=         800
         NFxFlg=           0 DoJE=F BraDBF=F KetDBF=F FulRan=T
         wScrn=  0.000000 ICntrl=      2127 IOpCl=  1 I1Cent=           0 NGrid=           0
         NMat0=    1 NMatS0=      1 NMatT0=    0 NMatD0=    1 NMtDS0=    0 NMtDT0=    0
 Petite list used in FoFCou.
 Leave Link  703 at Sat Oct 10 10:19:19 2020, MaxMem=  2684354560 cpu:               6.6 elap:               0.6
 (Enter /udrive/faculty/rpeverati/g16/g16/l716.exe)
 Dipole        = 2.37085749D-04-7.54723249D-01 1.08341258D-19
 ***** Axes restored to original set *****
 -------------------------------------------------------------------
 Center     Atomic                   Forces (Hartrees/Bohr)
 Number     Number              X              Y              Z
 -------------------------------------------------------------------
      1        6           0.000314390    0.007936977    0.000000000
      2        1          -0.003922905   -0.001995908    0.000000000
      3        1           0.001890015   -0.002275516    0.003330552
      4        1           0.001890015   -0.002275516   -0.003330552
      5        1          -0.000082020   -0.010959473   -0.000000000
      6        8          -0.000089495    0.009569436    0.000000000
 -------------------------------------------------------------------
 Cartesian Forces:  Max     0.010959473 RMS     0.004306659
 Leave Link  716 at Sat Oct 10 10:19:19 2020, MaxMem=  2684354560 cpu:               0.7 elap:               0.1
 (Enter /udrive/faculty/rpeverati/g16/g16/l103.exe)

 GradGradGradGradGradGradGradGradGradGradGradGradGradGradGradGradGradGrad
 Berny optimization.
 Optmz: redundant internal coordinate code flag= 1
 Red2BG:  D1=  2.68D-01 OD1=  3.11D-03 B2RMS=  0.00D+00 IAprox=0
 FormGI is forming the generalized inverse of G from B-inverse, IUseBI=4.
 Internal  Forces:  Max     0.009569854 RMS     0.002997160
 Numerically estimating second derivatives.
 Iteration  1 RMS(Cart)=  0.00110699 RMS(Int)=  0.00000000
 Iteration  2 RMS(Cart)=  0.00000000 RMS(Int)=  0.00000000
 Largest change from initial coordinates is atom    6       0.003 Angstoms.
 GradGradGradGradGradGradGradGradGradGradGradGradGradGradGradGradGradGrad

 Leave Link  103 at Sat Oct 10 10:19:19 2020, MaxMem=  2684354560 cpu:               0.6 elap:               0.1
 (Enter /udrive/faculty/rpeverati/g16/g16/l202.exe)
                          Input orientation:                          
 ---------------------------------------------------------------------
 Center     Atomic      Atomic             Coordinates (Angstroms)
 Number     Number       Type             X           Y           Z
 ---------------------------------------------------------------------
      1          6           0        0.000291   -1.142728    0.000000
      2          1           0       -1.055958   -1.385169   -0.000000
      3          1           0        0.520167   -1.407833    0.912450
      4          1           0        0.520167   -1.407833   -0.912450
      5          1           0        0.011569    0.159658    0.000000
      6          8           0        0.000282    1.363847   -0.000000
 ---------------------------------------------------------------------
                    Distance matrix (angstroms):
                    1          2          3          4          5
     1  C    0.000000
     2  H    1.083715   0.000000
     3  H    1.083105   1.821331   0.000000
     4  H    1.083105   1.821331   1.824899   0.000000
     5  H    1.302435   1.877793   1.883684   1.883684   0.000000
     6  O    2.506575   2.944950   2.963959   2.963959   1.204242
                    6
     6  O    0.000000
 Stoichiometry    CH4O(3)
 Framework group  CS[SG(CH2O),X(H2)]
 Deg. of freedom     8
 Full point group                 CS      NOp   2
 RotChk:  IX=0 Diff= 2.74D-06
 Largest Abelian subgroup         CS      NOp   2
 Largest concise Abelian subgroup CS      NOp   2
                         Standard orientation:                         
 ---------------------------------------------------------------------
 Center     Atomic      Atomic             Coordinates (Angstroms)
 Number     Number       Type             X           Y           Z
 ---------------------------------------------------------------------
      1          6           0        0.000290   -1.143463   -0.000000
      2          1           0       -1.055960   -1.385900   -0.000000
      3          1           0        0.520165   -1.408570    0.912450
      4          1           0        0.520165   -1.408570   -0.912450
      5          1           0        0.011573    0.158923    0.000000
      6          8           0        0.000290    1.363112    0.000000
 ---------------------------------------------------------------------
 Rotational constants (GHZ):         150.9743839           9.6192073           9.6175839
 Leave Link  202 at Sat Oct 10 10:19:19 2020, MaxMem=  2684354560 cpu:               0.1 elap:               0.0
 (Enter /udrive/faculty/rpeverati/g16/g16/l301.exe)
 Standard basis: 6-31G(d) (5D, 7F)
 Ernie: Thresh=  0.10000D-02 Tol=  0.10000D-05 Strict=F.
 There are    28 symmetry adapted cartesian basis functions of A'  symmetry.
 There are    10 symmetry adapted cartesian basis functions of A"  symmetry.
 There are    26 symmetry adapted basis functions of A'  symmetry.
 There are    10 symmetry adapted basis functions of A"  symmetry.
    36 basis functions,    72 primitive gaussians,    38 cartesian basis functions
    10 alpha electrons        8 beta electrons
       nuclear repulsion energy        30.8882914780 Hartrees.
 IExCor=  402 DFT=T Ex+Corr=B3LYP ExCW=0 ScaHFX=  0.200000
 ScaDFX=  0.800000  0.720000  1.000000  0.810000 ScalE2=  1.000000  1.000000
 IRadAn=      5 IRanWt=     -1 IRanGd=            0 ICorTp=0 IEmpDi=141
 NAtoms=    6 NActive=    6 NUniq=    5 SFac= 1.44D+00 NAtFMM=   60 NAOKFM=F Big=F
 Integral buffers will be    131072 words long.
 Raffenetti 2 integral format.
 Two-electron integral symmetry is turned on.
 R6Disp:  Grimme-D3(BJ) Dispersion energy=       -0.0030705962 Hartrees.
 Nuclear repulsion after empirical dispersion term =       30.8852208817 Hartrees.
 Leave Link  301 at Sat Oct 10 10:19:19 2020, MaxMem=  2684354560 cpu:               1.3 elap:               0.1
 (Enter /udrive/faculty/rpeverati/g16/g16/l302.exe)
 NPDir=0 NMtPBC=     1 NCelOv=     1 NCel=       1 NClECP=     1 NCelD=      1
         NCelK=      1 NCelE2=     1 NClLst=     1 CellRange=     0.0.
 One-electron integrals computed using PRISM.
 One-electron integral symmetry used in STVInt
 NBasis=    36 RedAO= T EigKep=  1.14D-02  NBF=    26    10
 NBsUse=    36 1.00D-06 EigRej= -1.00D+00 NBFU=    26    10
 Precomputing XC quadrature grid using
 IXCGrd= 4 IRadAn=           5 IRanWt=          -1 IRanGd=           0 AccXCQ= 0.00D+00.
 Generated NRdTot=       0 NPtTot=           0 NUsed=           0 NTot=          32
 NSgBfM=    38    38    38    38    38 MxSgAt=     6 MxSgA2=     6.
 Leave Link  302 at Sat Oct 10 10:19:20 2020, MaxMem=  2684354560 cpu:               3.5 elap:               0.3
 (Enter /udrive/faculty/rpeverati/g16/g16/l303.exe)
 DipDrv:  MaxL=1.
 Leave Link  303 at Sat Oct 10 10:19:20 2020, MaxMem=  2684354560 cpu:               0.8 elap:               0.1
 (Enter /udrive/faculty/rpeverati/g16/g16/l401.exe)
 Initial guess from the checkpoint file:  "MN_87_RKT11_BH76_B3LYP_631Gs.chk"
 SCF N**3 symmetry information disabled.
 B after Tr=     0.000000   -0.000000   -0.000000
         Rot=    1.000000   -0.000000   -0.000000   -0.000001 Ang=  -0.00 deg.
 Guess basis will be translated and rotated to current coordinates.
 JPrj=2 DoOrth=T DoCkMO=T.
 Initial guess orbital symmetries:
 Alpha Orbitals:
       Occupied  (A') (A') (A') (A') (A') (A') (A") (A') (A") (A')
       Virtual   (A') (A') (A") (A') (A') (A") (A') (A') (A') (A")
                 (A') (A') (A") (A') (A') (A') (A") (A') (A') (A")
                 (A') (A") (A') (A") (A') (A')
 Beta  Orbitals:
       Occupied  (A') (A') (A') (A') (A") (A') (A') (A")
       Virtual   (A') (A') (A') (A') (A") (A') (A") (A') (A') (A')
                 (A') (A") (A') (A") (A') (A') (A') (A') (A") (A')
                 (A") (A') (A") (A') (A') (A") (A') (A')
 The electronic state of the initial guess is 3-A'.
 Initial guess <Sx>= 0.0000 <Sy>= 0.0000 <Sz>= 1.0000 <S**2>= 2.0095 S= 1.0032
 Generating alternative initial guess.
 ExpMin= 1.61D-01 ExpMax= 5.48D+03 ExpMxC= 8.25D+02 IAcc=2 IRadAn=         4 AccDes= 0.00D+00
 Harris functional with IExCor=  402 and IRadAn=       4 diagonalized for initial guess.
 HarFok:  IExCor=  402 AccDes= 0.00D+00 IRadAn=         4 IDoV= 1 UseB2=F ITyADJ=14
 ICtDFT=  3500011 ScaDFX=  1.000000  1.000000  1.000000  1.000000
 FoFCou: FMM=F IPFlag=           0 FMFlag=      100000 FMFlg1=           0
         NFxFlg=           0 DoJE=T BraDBF=F KetDBF=T FulRan=T
         wScrn=  0.000000 ICntrl=       500 IOpCl=  0 I1Cent=   200000004 NGrid=           0
         NMat0=    1 NMatS0=      1 NMatT0=    0 NMatD0=    1 NMtDS0=    0 NMtDT0=    0
 Petite list used in FoFCou.
 Harris En= -115.519626538017    
 Leave Link  401 at Sat Oct 10 10:19:20 2020, MaxMem=  2684354560 cpu:               6.1 elap:               0.6
 (Enter /udrive/faculty/rpeverati/g16/g16/l502.exe)
 Keep R1 and R2 ints in memory in symmetry-blocked form, NReq=10589866.
 FoFCou: FMM=F IPFlag=           0 FMFlag=           0 FMFlg1=           0
         NFxFlg=           0 DoJE=F BraDBF=F KetDBF=F FulRan=T
         wScrn=  0.000000 ICntrl=       600 IOpCl=  0 I1Cent=           0 NGrid=           0
         NMat0=    1 NMatS0=    666 NMatT0=    0 NMatD0=    1 NMtDS0=    0 NMtDT0=    0
 Petite list used in FoFCou.
 UHF open shell SCF:
 Using DIIS extrapolation, IDIIS=  1040.
 NGot=  2684354560 LenX=  2684115610 LenY=  2684113725
 Requested convergence on RMS density matrix=1.00D-08 within 120 cycles.
 Requested convergence on MAX density matrix=1.00D-06.
 Requested convergence on             energy=1.00D-06.
 No special actions if energy rises.
 Integral accuracy reduced to 1.0D-05 until final iterations.

 Cycle   1  Pass 0  IDiag  1:
 E= -115.562955099335    
 DIIS: error= 1.96D-04 at cycle   1 NSaved=   1.
 NSaved= 1 IEnMin= 1 EnMin= -115.562955099335     IErMin= 1 ErrMin= 1.96D-04
 ErrMax= 1.96D-04  0.00D+00 EMaxC= 1.00D-01 BMatC= 6.17D-06 BMatP= 6.17D-06
 IDIUse=3 WtCom= 9.98D-01 WtEn= 1.96D-03
 Coeff-Com:  0.100D+01
 Coeff-En:   0.100D+01
 Coeff:      0.100D+01
 Gap=     0.384 Goal=   None    Shift=    0.000
 Gap=     0.148 Goal=   None    Shift=    0.000
 RMSDP=5.42D-05 MaxDP=5.99D-04              OVMax= 8.95D-04

 Cycle   2  Pass 0  IDiag  1:
 E= -115.562957037362     Delta-E=       -0.000001938028 Rises=F Damp=F
 DIIS: error= 5.11D-05 at cycle   2 NSaved=   2.
 NSaved= 2 IEnMin= 2 EnMin= -115.562957037362     IErMin= 2 ErrMin= 5.11D-05
 ErrMax= 5.11D-05  0.00D+00 EMaxC= 1.00D-01 BMatC= 2.46D-07 BMatP= 6.17D-06
 IDIUse=1 WtCom= 1.00D+00 WtEn= 0.00D+00
 Coeff-Com:  0.483D-01 0.952D+00
 Coeff:      0.483D-01 0.952D+00
 Gap=     0.384 Goal=   None    Shift=    0.000
 Gap=     0.148 Goal=   None    Shift=    0.000
 RMSDP=1.32D-05 MaxDP=1.35D-04 DE=-1.94D-06 OVMax= 1.64D-04

 Cycle   3  Pass 0  IDiag  1:
 E= -115.562957092660     Delta-E=       -0.000000055298 Rises=F Damp=F
 DIIS: error= 3.65D-05 at cycle   3 NSaved=   3.
 NSaved= 3 IEnMin= 3 EnMin= -115.562957092660     IErMin= 3 ErrMin= 3.65D-05
 ErrMax= 3.65D-05  0.00D+00 EMaxC= 1.00D-01 BMatC= 1.04D-07 BMatP= 2.46D-07
 IDIUse=1 WtCom= 1.00D+00 WtEn= 0.00D+00
 Coeff-Com: -0.180D-01 0.383D+00 0.635D+00
 Coeff:     -0.180D-01 0.383D+00 0.635D+00
 Gap=     0.384 Goal=   None    Shift=    0.000
 Gap=     0.148 Goal=   None    Shift=    0.000
 RMSDP=4.11D-06 MaxDP=5.46D-05 DE=-5.53D-08 OVMax= 1.05D-04

 Initial convergence to 1.0D-05 achieved.  Increase integral accuracy.
 Cycle   4  Pass 1  IDiag  1:
 E= -115.562955826726     Delta-E=        0.000001265934 Rises=F Damp=F
 DIIS: error= 1.20D-05 at cycle   1 NSaved=   1.
 NSaved= 1 IEnMin= 1 EnMin= -115.562955826726     IErMin= 1 ErrMin= 1.20D-05
 ErrMax= 1.20D-05  0.00D+00 EMaxC= 1.00D-01 BMatC= 8.01D-09 BMatP= 8.01D-09
 IDIUse=1 WtCom= 1.00D+00 WtEn= 0.00D+00
 Coeff-Com:  0.100D+01
 Coeff:      0.100D+01
 Gap=     0.384 Goal=   None    Shift=    0.000
 Gap=     0.148 Goal=   None    Shift=    0.000
 RMSDP=4.11D-06 MaxDP=5.46D-05 DE= 1.27D-06 OVMax= 3.38D-05

 Cycle   5  Pass 1  IDiag  1:
 E= -115.562955826644     Delta-E=        0.000000000082 Rises=F Damp=F
 DIIS: error= 1.27D-05 at cycle   2 NSaved=   2.
 NSaved= 2 IEnMin= 1 EnMin= -115.562955826726     IErMin= 1 ErrMin= 1.20D-05
 ErrMax= 1.27D-05  0.00D+00 EMaxC= 1.00D-01 BMatC= 9.46D-09 BMatP= 8.01D-09
 IDIUse=1 WtCom= 1.00D+00 WtEn= 0.00D+00
 Coeff-Com:  0.522D+00 0.478D+00
 Coeff:      0.522D+00 0.478D+00
 Gap=     0.384 Goal=   None    Shift=    0.000
 Gap=     0.148 Goal=   None    Shift=    0.000
 RMSDP=1.18D-06 MaxDP=1.98D-05 DE= 8.24D-11 OVMax= 4.29D-05

 Cycle   6  Pass 1  IDiag  1:
 E= -115.562955828780     Delta-E=       -0.000000002136 Rises=F Damp=F
 DIIS: error= 3.99D-06 at cycle   3 NSaved=   3.
 NSaved= 3 IEnMin= 3 EnMin= -115.562955828780     IErMin= 3 ErrMin= 3.99D-06
 ErrMax= 3.99D-06  0.00D+00 EMaxC= 1.00D-01 BMatC= 6.00D-10 BMatP= 8.01D-09
 IDIUse=1 WtCom= 1.00D+00 WtEn= 0.00D+00
 Coeff-Com:  0.873D-01 0.219D+00 0.694D+00
 Coeff:      0.873D-01 0.219D+00 0.694D+00
 Gap=     0.384 Goal=   None    Shift=    0.000
 Gap=     0.148 Goal=   None    Shift=    0.000
 RMSDP=4.07D-07 MaxDP=5.73D-06 DE=-2.14D-09 OVMax= 7.77D-06

 Cycle   7  Pass 1  IDiag  1:
 E= -115.562955828934     Delta-E=       -0.000000000154 Rises=F Damp=F
 DIIS: error= 8.13D-07 at cycle   4 NSaved=   4.
 NSaved= 4 IEnMin= 4 EnMin= -115.562955828934     IErMin= 4 ErrMin= 8.13D-07
 ErrMax= 8.13D-07  0.00D+00 EMaxC= 1.00D-01 BMatC= 6.72D-11 BMatP= 6.00D-10
 IDIUse=1 WtCom= 1.00D+00 WtEn= 0.00D+00
 Coeff-Com: -0.126D+00-0.235D-01 0.246D+00 0.903D+00
 Coeff:     -0.126D+00-0.235D-01 0.246D+00 0.903D+00
 Gap=     0.384 Goal=   None    Shift=    0.000
 Gap=     0.148 Goal=   None    Shift=    0.000
 RMSDP=2.10D-07 MaxDP=2.81D-06 DE=-1.54D-10 OVMax= 5.21D-06

 Cycle   8  Pass 1  IDiag  1:
 E= -115.562955828961     Delta-E=       -0.000000000027 Rises=F Damp=F
 DIIS: error= 1.99D-07 at cycle   5 NSaved=   5.
 NSaved= 5 IEnMin= 5 EnMin= -115.562955828961     IErMin= 5 ErrMin= 1.99D-07
 ErrMax= 1.99D-07  0.00D+00 EMaxC= 1.00D-01 BMatC= 3.68D-12 BMatP= 6.72D-11
 IDIUse=1 WtCom= 1.00D+00 WtEn= 0.00D+00
 Coeff-Com: -0.519D-01-0.209D-01 0.331D-01 0.319D+00 0.721D+00
 Coeff:     -0.519D-01-0.209D-01 0.331D-01 0.319D+00 0.721D+00
 Gap=     0.384 Goal=   None    Shift=    0.000
 Gap=     0.148 Goal=   None    Shift=    0.000
 RMSDP=3.34D-08 MaxDP=4.57D-07 DE=-2.74D-11 OVMax= 5.53D-07

 Cycle   9  Pass 1  IDiag  1:
 E= -115.562955828963     Delta-E=       -0.000000000001 Rises=F Damp=F
 DIIS: error= 2.11D-08 at cycle   6 NSaved=   6.
 NSaved= 6 IEnMin= 6 EnMin= -115.562955828963     IErMin= 6 ErrMin= 2.11D-08
 ErrMax= 2.11D-08  0.00D+00 EMaxC= 1.00D-01 BMatC= 4.74D-14 BMatP= 3.68D-12
 IDIUse=1 WtCom= 1.00D+00 WtEn= 0.00D+00
 Coeff-Com:  0.114D-01 0.308D-02-0.161D-01-0.725D-01-0.565D-01 0.113D+01
 Coeff:      0.114D-01 0.308D-02-0.161D-01-0.725D-01-0.565D-01 0.113D+01
 Gap=     0.384 Goal=   None    Shift=    0.000
 Gap=     0.148 Goal=   None    Shift=    0.000
 RMSDP=6.64D-09 MaxDP=5.81D-08 DE=-1.17D-12 OVMax= 8.31D-08

 SCF Done:  E(UB3LYP) =  -115.562955829     A.U. after    9 cycles
            NFock=  9  Conv=0.66D-08     -V/T= 2.0055
 <Sx>= 0.0000 <Sy>= 0.0000 <Sz>= 1.0000 <S**2>= 2.0095 S= 1.0032
 <L.S>= 0.000000000000E+00
 KE= 1.149306900484D+02 PE=-3.329500193643D+02 EE= 7.157115260528D+01
 Annihilation of the first spin contaminant:
 S**2 before annihilation     2.0095,   after     2.0000
 Leave Link  502 at Sat Oct 10 10:19:21 2020, MaxMem=  2684354560 cpu:              11.7 elap:               1.0
 (Enter /udrive/faculty/rpeverati/g16/g16/l508.exe)
 QCSCF skips out because SCF is already converged.
 Leave Link  508 at Sat Oct 10 10:19:21 2020, MaxMem=  2684354560 cpu:               0.1 elap:               0.0
 (Enter /udrive/faculty/rpeverati/g16/g16/l701.exe)
 ... and contract with generalized density number  0.
 Compute integral first derivatives.
 R6Disp: Adding Grimme-D3(BJ) dispersion energy 1st derivatives to the gradient.
 Leave Link  701 at Sat Oct 10 10:19:22 2020, MaxMem=  2684354560 cpu:               3.2 elap:               0.3
 (Enter /udrive/faculty/rpeverati/g16/g16/l702.exe)
 L702 exits ... SP integral derivatives will be done elsewhere.
 Leave Link  702 at Sat Oct 10 10:19:22 2020, MaxMem=  2684354560 cpu:               0.7 elap:               0.1
 (Enter /udrive/faculty/rpeverati/g16/g16/l703.exe)
 Integral derivatives from FoFJK, PRISM(SPDF).
 Compute integral first derivatives, UseDBF=F ICtDFT=           0.
 Calling FoFJK, ICntrl=      2127 FMM=F ISym2X=1 I1Cent= 0 IOpClX= 1 NMat=1 NMatS=1 NMatT=0.
 FoFJK:  IHMeth= 1 ICntrl=    2127 DoSepK=F KAlg= 0 I1Cent=           0 FoldK=F
 IRaf=         0 NMat=       1 IRICut=       1 DoRegI=T DoRafI=F ISym2E= 1 IDoP0=0 IntGTp=1.
 FoFCou: FMM=F IPFlag=           0 FMFlag=      100000 FMFlg1=         800
         NFxFlg=           0 DoJE=F BraDBF=F KetDBF=F FulRan=T
         wScrn=  0.000000 ICntrl=      2127 IOpCl=  1 I1Cent=           0 NGrid=           0
         NMat0=    1 NMatS0=      1 NMatT0=    0 NMatD0=    1 NMtDS0=    0 NMtDT0=    0
 Petite list used in FoFCou.
 Leave Link  703 at Sat Oct 10 10:19:22 2020, MaxMem=  2684354560 cpu:               6.5 elap:               0.6
 (Enter /udrive/faculty/rpeverati/g16/g16/l716.exe)
 Dipole        = 2.46706158D-04-7.56284161D-01-1.33206844D-15
 ***** Axes restored to original set *****
 -------------------------------------------------------------------
 Center     Atomic                   Forces (Hartrees/Bohr)
 Number     Number              X              Y              Z
 -------------------------------------------------------------------
      1        6           0.000303326    0.008801576   -0.000000000
      2        1          -0.003917543   -0.001964389   -0.000000000
      3        1           0.001894022   -0.002238780    0.003329155
      4        1           0.001894022   -0.002238780   -0.003329155
      5        1          -0.000093378   -0.011040918    0.000000000
      6        8          -0.000080448    0.008681292   -0.000000000
 -------------------------------------------------------------------
 Cartesian Forces:  Max     0.011040918 RMS     0.004303829
 Leave Link  716 at Sat Oct 10 10:19:23 2020, MaxMem=  2684354560 cpu:               0.7 elap:               0.1
 (Enter /udrive/faculty/rpeverati/g16/g16/l103.exe)

 GradGradGradGradGradGradGradGradGradGradGradGradGradGradGradGradGradGrad
 Berny optimization.
 Optmz: redundant internal coordinate code flag= 1
 Red2BG:  D1=  2.68D-01 OD1=  3.68D-03 B2RMS=  0.00D+00 IAprox=0
 FormGI is forming the generalized inverse of G from B-inverse, IUseBI=4.
 Internal  Forces:  Max     0.008681664 RMS     0.002866071
 Search for a saddle point.
 Step number   1 out of a maximum of   50
 All quantities printed in internal units (Hartrees-Bohrs-Radians)
 Swapping is turned off.
 Second derivative matrix not updated -- first step.
 The second derivative matrix:
                          R1        R2        R3        R4        R5
           R1           0.35549
           R2          -0.00000   0.35622
           R3          -0.00000  -0.00000   0.35622
           R4           0.00224   0.00178   0.00178   0.08538
           R5           0.00021  -0.00013  -0.00013   0.10853   0.06871
           A1           0.00000   0.00000   0.00000  -0.00221   0.00096
           A2           0.00000   0.00000   0.00000  -0.00572   0.00251
           A3          -0.00000  -0.00000  -0.00000   0.00507  -0.00377
           A4          -0.00000  -0.00000  -0.00000  -0.00557   0.00248
           A5           0.00000   0.00000   0.00000   0.00563  -0.00172
           A6           0.00000   0.00000   0.00000   0.00702  -0.00233
           A7           0.00000   0.00000   0.00000  -0.00035   0.00003
           A8          -0.00000   0.00000   0.00000  -0.00000   0.00000
           D1           0.00000   0.00000   0.00000   0.01599  -0.00704
           D2           0.00000   0.00000   0.00000   0.00203  -0.00124
           D3          -0.00000  -0.00000  -0.00000   0.00129  -0.00022
           D4          -0.00000  -0.00000  -0.00000  -0.00074   0.00102
                          A1        A2        A3        A4        A5
           A1           0.16000
           A2          -0.00000   0.16000
           A3           0.00000   0.00000   0.16000
           A4           0.00000   0.00000  -0.00000   0.16000
           A5          -0.00000  -0.00000   0.00000  -0.00000   0.16000
           A6           0.00000  -0.00000   0.00000  -0.00000   0.00000
           A7          -0.00000  -0.00000   0.00000   0.00000  -0.00000
           A8          -0.00000  -0.00000   0.00000   0.00000  -0.00000
           D1           0.00000  -0.00000   0.00000  -0.00000   0.00000
           D2          -0.00000  -0.00000   0.00000  -0.00000   0.00000
           D3           0.00000   0.00000  -0.00000   0.00000  -0.00000
           D4           0.00000   0.00000  -0.00000   0.00000  -0.00000
                          A6        A7        A8        D1        D2
           A6           0.16000
           A7          -0.00000   0.00230
           A8          -0.00000  -0.00000   0.00230
           D1           0.00000  -0.00000  -0.00000   0.00326
           D2           0.00000  -0.00000  -0.00000   0.00000   0.00230
           D3          -0.00000   0.00000   0.00000  -0.00000  -0.00000
           D4          -0.00000   0.00000   0.00000  -0.00000  -0.00000
                          D3        D4
           D3           0.00230
           D4          -0.00000   0.00230
 ITU=  0
 Eigenvectors of the second derivative matrix:
                           1         2         3         4         5
     Eigenvalues --    -0.03624   0.00230   0.00230   0.05509   0.06734
   1         R1         0.00346  -0.00000  -0.00002   0.00042  -0.00006
   2         R2         0.00329  -0.00000  -0.00002   0.00047  -0.00005
   3         R3         0.00329  -0.00000  -0.00002   0.00047  -0.00005
   4         R4        -0.67078   0.00000   0.00349  -0.06926   0.00794
   5         R5         0.71183  -0.00000  -0.00550   0.14304   0.00023
   6         A1        -0.03636   0.00000   0.00044   0.45289  -0.02282
   7         A2        -0.04843   0.00000   0.00044  -0.00749   0.43085
   8         A3         0.06177  -0.00000  -0.00062  -0.12880   0.16567
   9         A4        -0.04832   0.00000   0.00045  -0.03628  -0.41639
  10         A5         0.05598  -0.00000  -0.00056  -0.14456  -0.15931
  11         A6         0.05704  -0.00000  -0.00056  -0.26216   0.00871
  12         A7        -0.00669   0.00000  -0.99998   0.00055  -0.00004
  13         A8        -0.00000  -1.00000  -0.00000   0.00000  -0.00000
  14         D1         0.16417  -0.00000  -0.00167  -0.65909   0.01813
  15         D2         0.00901  -0.00000  -0.00001   0.38870  -0.02182
  16         D3         0.00396  -0.00000   0.00001   0.17198  -0.55242
  17         D4        -0.00504   0.00000   0.00002  -0.21673  -0.53060
                           6         7         8         9        10
     Eigenvalues --     0.07686   0.15980   0.16002   0.18674   0.35551
   1         R1        -0.00033  -0.00076   0.00000  -0.01060  -0.99936
   2         R2        -0.00041  -0.00049  -0.00002  -0.00719   0.02402
   3         R3        -0.00041  -0.00049  -0.00002  -0.00719   0.02402
   4         R4         0.05441   0.05953   0.00106   0.73380  -0.00982
   5         R5        -0.14201   0.06795  -0.01536   0.66915  -0.00446
   6         A1         0.21004  -0.20945   0.14168   0.01097   0.00004
   7         A2        -0.33228  -0.00126  -0.30635  -0.02445   0.00016
   8         A3         0.29827   0.64954   0.35281  -0.03280  -0.00009
   9         A4        -0.34575   0.29228   0.10638  -0.04131   0.00017
  10         A5         0.29253  -0.09742  -0.73427   0.02652  -0.00016
  11         A6         0.02561  -0.65660   0.45923   0.07800  -0.00024
  12         A7        -0.00032  -0.00012  -0.00001  -0.00127   0.00001
  13         A8        -0.00000  -0.00000  -0.00000  -0.00000   0.00000
  14         D1         0.42427   0.00479   0.00128   0.05581  -0.00043
  15         D2         0.48130   0.00083   0.00034   0.00940  -0.00006
  16         D3         0.23269   0.00087   0.00011   0.00850  -0.00005
  17         D4        -0.24861   0.00004  -0.00024  -0.00089   0.00002
                          11        12
     Eigenvalues --     0.35622   0.35625
   1         R1        -0.00000   0.03385
   2         R2         0.70711   0.70665
   3         R3        -0.70711   0.70665
   4         R4         0.00000   0.01104
   5         R5         0.00000   0.00352
   6         A1         0.00000  -0.00004
   7         A2         0.00000  -0.00020
   8         A3        -0.00000   0.00012
   9         A4         0.00000  -0.00020
  10         A5        -0.00000   0.00018
  11         A6        -0.00000   0.00028
  12         A7         0.00000  -0.00001
  13         A8         0.00000  -0.00000
  14         D1        -0.00000   0.00051
  15         D2        -0.00000   0.00008
  16         D3        -0.00000   0.00005
  17         D4         0.00000  -0.00002
 RLam0= 1.73D-03.
 Iter=   1 RLamda= 0.00000000D+00 Sum=-2.78936676D-04.
 Iter=   2 RLamda=-2.78936676D-04 Sum=-2.78446303D-04.
 Iter=   3 RLamda=-2.78446303D-04 Sum=-2.78447129D-04.
 RFO step:  Lambda0=1.725375245D-03 Lambda=-2.78446303D-04.
 Linear search not attempted -- option 19 set.
 Maximum step size (   0.100) exceeded in Quadratic search.
    -- Step size scaled by   0.467
 Iteration  1 RMS(Cart)=  0.01579536 RMS(Int)=  0.00006182
 Iteration  2 RMS(Cart)=  0.00008498 RMS(Int)=  0.00002340
 Iteration  3 RMS(Cart)=  0.00000001 RMS(Int)=  0.00002340
 ITry= 1 IFail=0 DXMaxC= 5.57D-02 DCOld= 1.00D+10 DXMaxT= 1.00D-01 DXLimC= 3.00D+00 Rises=F
 ClnCor:  largest displacement from symmetrization is 7.64D-05 for atom     4.
[...]
     16 -0.313820D-02  0.494763D-02 -0.272206D-02  0.111749D-02 -0.178353D-03
     17 -0.536986D-02  0.308692D-02  0.301893D-02 -0.639368D-03  0.953927D-03
                6             7             8             9            10 
      6  0.165961D-01
      7 -0.894921D-02  0.232266D-01
      8 -0.604568D-02 -0.107274D-01  0.418356D-01
      9 -0.909004D-02 -0.608689D-02  0.116611D-01  0.236449D-01
     10 -0.507824D-02  0.107835D-01 -0.186499D-01 -0.108944D-01  0.417706D-01
     11  0.131614D-01 -0.113037D-01 -0.159841D-01 -0.125643D-01 -0.160217D-01
     12  0.249420D-03  0.245548D-03 -0.416155D-02 -0.598917D-03  0.213903D-02
     13  0.281476D-05 -0.324112D-05  0.000000D+00  0.000000D+00  0.649879D-03
     14 -0.538781D-02 -0.608101D-02  0.879761D-02 -0.626592D-02  0.840842D-02
     15  0.138553D-01 -0.990882D-02  0.274933D-02 -0.957293D-02  0.320531D-02
     16  0.712765D-02 -0.168641D-01  0.135864D-02  0.692227D-02  0.177548D-02
     17 -0.672766D-02 -0.695527D-02 -0.139069D-02  0.164952D-01 -0.142983D-02
               11            12            13            14            15 
     11  0.467128D-01
     12  0.213977D-02  0.270114D-01
     13 -0.649223D-03  0.000000D+00  0.367698D-02
     14  0.726075D-02  0.169861D-04  0.000000D+00  0.237084D-01
     15  0.189468D-02 -0.549977D-03  0.255072D-03  0.836685D-03  0.175494D-01
     16  0.656802D-03  0.553942D-03  0.255085D-03  0.369359D-03  0.905493D-02
     17 -0.123788D-02  0.110392D-02  0.000000D+00 -0.467326D-03 -0.849445D-02
               16            17 
     16  0.177249D-01
     17  0.867001D-02  0.171645D-01
 Leave Link  716 at Sat Oct 10 10:19:49 2020, MaxMem=  2684354560 cpu:               0.9 elap:               0.1
 (Enter /udrive/faculty/rpeverati/g16/g16/l103.exe)

 GradGradGradGradGradGradGradGradGradGradGradGradGradGradGradGradGradGrad
 Berny optimization.
 Optmz: redundant internal coordinate code flag= 1
 Red2BG:  D1=  2.72D-01 OD1=  4.97D-15 B2RMS=  0.00D+00 IAprox=1
 Red2BG is reusing G-inverse.
 Internal  Forces:  Max     0.000051127 RMS     0.000018827
 Search for a local minimum.
 Step number   1 out of a maximum of    2
 All quantities printed in internal units (Hartrees-Bohrs-Radians)
 Second derivative matrix not updated -- analytic derivatives used.
 The second derivative matrix:
                          R1        R2        R3        R4        R5
           R1           0.36037
           R2           0.00062   0.36200
           R3           0.00062   0.00042   0.36200
           R4           0.00173   0.00125   0.00125   0.04519
           R5           0.00028  -0.00003  -0.00003   0.10568   0.10772
           A1           0.00244   0.00236  -0.00325  -0.00183   0.00084
           A2           0.00339  -0.00283   0.00367  -0.00484   0.00221
           A3           0.00122  -0.00236  -0.00296   0.00473  -0.00378
           A4          -0.00293   0.00345   0.00381  -0.00462   0.00210
           A5          -0.00239   0.00054  -0.00256   0.00487  -0.00141
           A6          -0.00275  -0.00232  -0.00034   0.00598  -0.00192
           A7          -0.00134   0.00072   0.00072  -0.00025  -0.00002
           A8          -0.00000  -0.00131   0.00131   0.00000   0.00000
           D1          -0.00454  -0.00459  -0.00370   0.01441  -0.00657
           D2           0.00223   0.00186  -0.00574   0.00176  -0.00113
           D3          -0.00314   0.00495  -0.00272   0.00112  -0.00018
           D4          -0.00537   0.00309   0.00302  -0.00064   0.00095
                          A1        A2        A3        A4        A5
           A1           0.01660
           A2          -0.00895   0.02323
           A3          -0.00605  -0.01073   0.04184
           A4          -0.00909  -0.00609   0.01166   0.02364
           A5          -0.00508   0.01078  -0.01865  -0.01089   0.04177
           A6           0.01316  -0.01130  -0.01598  -0.01256  -0.01602
           A7           0.00025   0.00025  -0.00416  -0.00060   0.00214
           A8           0.00000  -0.00000   0.00000  -0.00000   0.00065
           D1          -0.00539  -0.00608   0.00880  -0.00627   0.00841
           D2           0.01386  -0.00991   0.00275  -0.00957   0.00321
           D3           0.00713  -0.01686   0.00136   0.00692   0.00178
           D4          -0.00673  -0.00696  -0.00139   0.01650  -0.00143
                          A6        A7        A8        D1        D2
           A6           0.04671
           A7           0.00214   0.02701
           A8          -0.00065   0.00000   0.00368
           D1           0.00726   0.00002  -0.00000   0.02371
           D2           0.00189  -0.00055   0.00026   0.00084   0.01755
           D3           0.00066   0.00055   0.00026   0.00037   0.00905
           D4          -0.00124   0.00110   0.00000  -0.00047  -0.00849
                          D3        D4
           D3           0.01772
           D4           0.00867   0.01716
 ITU=  0
 Eigenvectors of the second derivative matrix:
                           1         2         3         4         5
     Eigenvalues --    -0.03887   0.00365   0.02588   0.03623   0.04168
   1         R1         0.00602   0.00000   0.00201  -0.02264  -0.02112
   2         R2         0.00573   0.00400  -0.00003  -0.01404   0.02544
   3         R3         0.00630  -0.00399  -0.00034   0.00687   0.00220
   4         R4        -0.77862   0.00004   0.00385  -0.12541   0.03754
   5         R5         0.57575  -0.00003  -0.00816   0.12026  -0.02407
   6         A1        -0.03949  -0.00325  -0.03319   0.40938  -0.06350
   7         A2        -0.05631   0.00320  -0.02654   0.02913   0.31107
   8         A3         0.07627   0.00002  -0.14395  -0.02732   0.38083
   9         A4        -0.05515  -0.00001   0.04449  -0.06306  -0.33578
  10         A5         0.06465  -0.01260   0.08072  -0.12852  -0.30651
  11         A6         0.06737   0.01265   0.08251  -0.35864   0.05350
  12         A7        -0.00230  -0.00001  -0.96982  -0.12866  -0.17813
  13         A8        -0.00008   0.99974  -0.00017   0.00944  -0.01069
  14         D1         0.19907   0.00146   0.03276  -0.62891   0.13271
  15         D2         0.01198  -0.00844  -0.06234   0.38889  -0.03727
  16         D3         0.00543  -0.00843   0.05434   0.11786  -0.51360
  17         D4        -0.00655   0.00001   0.11668  -0.27103  -0.47633
                           6         7         8         9        10
     Eigenvalues --     0.04744   0.07387   0.07581   0.18681   0.36043
   1         R1         0.00194   0.00524   0.00314  -0.00608  -0.94424
   2         R2         0.00126  -0.00384  -0.00572  -0.00346   0.22419
   3         R3         0.02985   0.01188  -0.00905  -0.00298   0.23865
   4         R4         0.12276   0.03311  -0.01106   0.60021  -0.00395
   5         R5        -0.11325  -0.03383   0.02968   0.79908  -0.00279
   6         A1         0.09805   0.27289  -0.23957  -0.00109  -0.00792
   7         A2        -0.27001  -0.44890  -0.10189  -0.00826  -0.00939
   8         A3         0.35809   0.20428   0.58826  -0.00327  -0.00711
   9         A4        -0.23329   0.02838   0.46054  -0.00941   0.01436
  10         A5         0.43195  -0.55094  -0.27914   0.01266   0.00504
  11         A6        -0.22870   0.55043  -0.47321   0.01642   0.00590
  12         A7        -0.06099  -0.01847  -0.08405  -0.00054   0.00504
  13         A8         0.01454  -0.00854   0.00141  -0.00000   0.00005
  14         D1         0.44682   0.06161  -0.03990   0.02309   0.00700
  15         D2         0.41732   0.16727  -0.13762   0.00241  -0.00957
  16         D3         0.24292   0.19849   0.06164   0.00401   0.01085
  17         D4        -0.17440   0.03122   0.19926   0.00159   0.02043
                          11        12
     Eigenvalues --     0.36191   0.36307
   1         R1        -0.00366   0.32759
   2         R2        -0.73551   0.63859
   3         R3         0.67673   0.69560
   4         R4        -0.00052   0.00663
   5         R5        -0.00008   0.00395
   6         A1        -0.01260  -0.00053
   7         A2         0.01481   0.00595
   8         A3        -0.00108  -0.00943
   9         A4         0.00029   0.01248
  10         A5        -0.00628  -0.00671
  11         A6         0.00393  -0.00864
  12         A7        -0.00012   0.00160
  13         A8         0.00513   0.00021
  14         D1         0.00239  -0.02136
  15         D2        -0.01670  -0.00693
  16         D3        -0.01735   0.00056
  17         D4        -0.00065   0.00748
 Eigenvalue     1 is  -3.89D-02 should be greater than     0.000000 Eigenvector:
                          R4        R5        D1        A3        A6
   1                   -0.77862   0.57575   0.19907   0.07627   0.06737
                          A5        A2        A4        A1        D2
   1                    0.06465  -0.05631  -0.05515  -0.03949   0.01198
 Angle between quadratic step and forces=  17.08 degrees.
 Linear search not attempted -- first point.
 Iteration  1 RMS(Cart)=  0.00039377 RMS(Int)=  0.00000010
 Iteration  2 RMS(Cart)=  0.00000007 RMS(Int)=  0.00000007
 ITry= 1 IFail=0 DXMaxC= 1.12D-03 DCOld= 1.00D+10 DXMaxT= 3.00D-01 DXLimC= 3.00D+00 Rises=F
 ClnCor:  largest displacement from symmetrization is 2.90D-05 for atom     4.
 Variable       Old X    -DE/DX   Delta X   Delta X   Delta X     New X
                                 (Linear)    (Quad)   (Total)
    R1        2.05811   0.00000   0.00000   0.00003   0.00003   2.05814
    R2        2.05691  -0.00000   0.00000   0.00000  -0.00000   2.05691
    R3        2.05691  -0.00000   0.00000   0.00000  -0.00000   2.05691
    R4        2.62130   0.00003   0.00000   0.00104   0.00104   2.62234
    R5        2.17009  -0.00005   0.00000  -0.00096  -0.00096   2.16912
    A1        2.00690  -0.00000   0.00000  -0.00025  -0.00024   2.00667
    A2        2.00690  -0.00001   0.00000  -0.00021  -0.00024   2.00667
    A3        1.78681  -0.00001   0.00000  -0.00012  -0.00012   1.78668
    A4        2.01327  -0.00001   0.00000  -0.00011  -0.00011   2.01316
    A5        1.80255   0.00002   0.00000   0.00046   0.00046   1.80301
    A6        1.80255   0.00002   0.00000   0.00045   0.00046   1.80301
    A7        3.12433   0.00000   0.00000  -0.00008  -0.00008   3.12425
    A8        3.14159   0.00000   0.00000   0.00000   0.00000   3.14159
    D1       -2.39869   0.00003   0.00000   0.00080   0.00080  -2.39788
    D2        2.08993   0.00000   0.00000  -0.00014  -0.00013   2.08980
    D3       -2.08993   0.00001   0.00000   0.00011   0.00013  -2.08980
    D4        2.10333   0.00001   0.00000   0.00025   0.00026   2.10359
         Item               Value     Threshold  Converged?
 Maximum Force            0.000051     0.000450     YES
 RMS     Force            0.000019     0.000300     YES
 Maximum Displacement     0.001120     0.001800     YES
 RMS     Displacement     0.000396     0.001200     YES
 Predicted change in Energy=-1.168773D-07
 Optimization completed.
    -- Stationary point found.
                           ----------------------------
                           !   Optimized Parameters   !
                           ! (Angstroms and Degrees)  !
 --------------------------                            --------------------------
 ! Name  Definition              Value          Derivative Info.                !
 --------------------------------------------------------------------------------
 ! R1    R(1,2)                  1.0891         -DE/DX =    0.0                 !
 ! R2    R(1,3)                  1.0885         -DE/DX =    0.0                 !
 ! R3    R(1,4)                  1.0885         -DE/DX =    0.0                 !
 ! R4    R(1,5)                  1.3871         -DE/DX =    0.0                 !
 ! R5    R(5,6)                  1.1484         -DE/DX =   -0.0001              !
 ! A1    A(2,1,3)              114.987          -DE/DX =    0.0                 !
 ! A2    A(2,1,4)              114.987          -DE/DX =    0.0                 !
 ! A3    A(2,1,5)              102.3765         -DE/DX =    0.0                 !
 ! A4    A(3,1,4)              115.3519         -DE/DX =    0.0                 !
 ! A5    A(3,1,5)              103.2784         -DE/DX =    0.0                 !
 ! A6    A(4,1,5)              103.2784         -DE/DX =    0.0                 !
 ! A7    L(1,5,6,2,-1)         179.0107         -DE/DX =    0.0                 !
 ! A8    L(1,5,6,2,-2)         180.0            -DE/DX =    0.0                 !
 ! D1    D(2,1,4,3)           -137.4346         -DE/DX =    0.0                 !
 ! D2    D(2,1,5,3)            119.7441         -DE/DX =    0.0                 !
 ! D3    D(2,1,5,4)           -119.7441         -DE/DX =    0.0                 !
 ! D4    D(3,1,5,4)            120.5117         -DE/DX =    0.0                 !
 --------------------------------------------------------------------------------
 GradGradGradGradGradGradGradGradGradGradGradGradGradGradGradGradGradGrad

 Leave Link  103 at Sat Oct 10 10:19:49 2020, MaxMem=  2684354560 cpu:               0.3 elap:               0.1
 (Enter /udrive/faculty/rpeverati/g16/g16/l9999.exe)

 ----------------------------------------------------------------------

 Electric dipole moment (input orientation):
 (Debye = 10**-18 statcoulomb cm , SI units = C m)
                  (au)            (Debye)         (10**-30 SI)
   Tot        0.853590D+00      0.216961D+01      0.723704D+01
   x          0.870628D-03      0.221292D-02      0.738149D-02
   y         -0.853590D+00     -0.216961D+01     -0.723704D+01
   z          0.000000D+00      0.000000D+00      0.000000D+00

 Dipole polarizability, Alpha (input orientation).
 (esu units = cm**3 , SI units = C**2 m**2 J**-1)
 Alpha(0;0):
               (au)            (10**-24 esu)      (10**-40 SI)
   iso        0.197416D+02      0.292540D+01      0.325494D+01
   aniso      0.167992D+02      0.248939D+01      0.276982D+01
   xx         0.142779D+02      0.211576D+01      0.235410D+01
   yx        -0.819949D-01     -0.121504D-01     -0.135191D-01
   yy         0.309395D+02      0.458477D+01      0.510124D+01
   zx         0.000000D+00      0.000000D+00      0.000000D+00
   zy         0.000000D+00      0.000000D+00      0.000000D+00
   zz         0.140072D+02      0.207566D+01      0.230948D+01

 ----------------------------------------------------------------------

 Dipole orientation:
     6         -0.00019922         -0.00000020          2.20758415
     1         -2.01398299         -0.00205418          2.63241487
     1          0.98737788          1.73917605          2.68804933
     1          0.99092360         -1.73715826          2.68804933
     1          0.02102865          0.00002145         -0.41363083
     8          0.00113488          0.00000116         -2.58362545

 Electric dipole moment (dipole orientation):
 (Debye = 10**-18 statcoulomb cm , SI units = C m)
                  (au)            (Debye)         (10**-30 SI)
   Tot        0.853590D+00      0.216961D+01      0.723704D+01
   x          0.000000D+00      0.000000D+00      0.000000D+00
   y          0.000000D+00      0.000000D+00      0.000000D+00
   z          0.853590D+00      0.216961D+01      0.723704D+01

 Dipole polarizability, Alpha (dipole orientation).
 (esu units = cm**3 , SI units = C**2 m**2 J**-1)
 Alpha(0;0):
               (au)            (10**-24 esu)      (10**-40 SI)
   iso        0.197416D+02      0.292540D+01      0.325494D+01
   aniso      0.167992D+02      0.248939D+01      0.276982D+01
   xx         0.142777D+02      0.211574D+01      0.235408D+01
   yx         0.271673D-03      0.402577D-04      0.447928D-04
   yy         0.140072D+02      0.207566D+01      0.230948D+01
   zx         0.650005D-01      0.963207D-02      0.107171D-01
   zy         0.634565D-04      0.940329D-05      0.104626D-04
   zz         0.309397D+02      0.458479D+01      0.510127D+01

 ----------------------------------------------------------------------

 Test job not archived.
 1\1\GINC-NODE10\Freq\UB3LYP\6-31G(d)\C1H4O1(3)\RPEVERATI\10-Oct-2020\0
 \\#P Freq B3LYP/6-31G* 5D 7F Integral=UltraFineGrid SCF=(NoSymm,XQC,Ma
 xCyc=120) IOp(1/33=1) EmpiricalDispersion=GD3BJ Geom=Check Guess=Read\
 \TS search on BH76.\\0,3\C,0.0010860999,-1.1682027212,0.\H,-1.06433308
 07,-1.3941002593,0.\H,0.524886876,-1.4219198235,0.9197989242\H,0.52488
 6876,-1.4219198235,-0.9197989242\H,0.0109046307,0.2188952473,0.\O,-0.0
 007939298,1.3671956102,0.\\Version=ES64L-G16RevA.03\State=3-A'\HF=-115
 .5622917\S2=2.009852\S2-1=0.\S2A=2.000033\RMSD=8.046e-10\RMSF=2.769e-0
 5\ZeroPoint=0.0389555\Thermal=0.042754\Dipole=0.0008706,-0.8535897,0.\
 DipoleDeriv=0.0200919,-0.0014268,0.0000002,-0.0115867,0.4705589,-0.000
 0002,0.0000039,-0.0000027,0.0163412,-0.0533481,0.0059871,0.0000002,-0.
 0436826,0.002369,0.,-0.0000014,0.0000009,0.0688367,0.0412374,-0.001477
 ,-0.0492885,0.0268409,-0.000446,0.0499279,-0.0523153,-0.0032083,-0.019
 6939,0.0412374,-0.0014769,0.0492887,0.0268409,-0.000446,-0.0499283,0.0
 523153,0.0032083,-0.0196934,0.2119035,0.0038354,-0.0000012,0.003872,-0
 .5565762,0.0000004,0.0000004,-0.0000002,0.207426,-0.2611215,-0.0054421
 ,0.0000005,-0.0022855,0.084541,0.0000002,-0.0000009,0.0000006,-0.25321
 66\Polar=14.2778666,-0.0819949,30.9395443,-0.0000042,0.0000028,14.0072
 419\Quadrupole=1.0078517,-1.1805072,0.1726555,0.0023074,0.,0.\PG=CS [S
 G(C1H2O1),X(H2)]\NImag=1\\0.58882535,-0.00953647,0.13331786,0.00000018
 ,-0.00000016,0.59468481,-0.32875494,-0.05778211,0.00000022,0.34706694,
 -0.06979307,-0.03761403,0.00000006,0.06545717,0.03893518,-0.00000006,0
 .00000005,-0.05581593,-0.00000008,-0.00000002,0.04684194,-0.12038061,0
 .03351145,-0.11620963,-0.00893251,0.00887801,-0.02486152,0.11939726,0.
 03893863,-0.04135735,0.06726148,-0.00410138,0.00468916,-0.00673557,-0.
 03703098,0.04230353,-0.11741422,0.05698437,-0.26181914,0.00241751,-0.0
 0002269,0.00436893,0.12814174,-0.06359190,0.27234280,-0.12038061,0.033
 51145,0.11620986,-0.00893251,0.00887801,0.02486144,0.01004521,-0.00428
 388,-0.01316371,0.11939726,0.03893863,-0.04135735,-0.06726190,-0.00410
 138,0.00468916,0.00673572,-0.00428388,0.00511444,0.00749440,-0.0370309
 8,0.04230353,0.11741422,-0.05698437,-0.26181870,-0.00241751,0.00002269
 ,0.00436878,0.01316371,-0.00749440,-0.01472669,-0.12814174,0.06359190,
 0.27234280,-0.02502414,-0.00107527,-0.00000112,-0.00086676,-0.01444060
 ,0.00000039,-0.00004680,0.00709769,-0.00025265,-0.00004680,0.00709769,
 0.00025265,0.03772474,0.00021248,0.10692023,0.00000033,0.00197331,-0.0
 1618508,-0.00000012,-0.00134724,-0.01512021,-0.00188196,-0.00134724,-0
 .01512022,0.00188196,0.00061019,-0.05847218,0.00000002,-0.00000001,-0.
 01468017,0.00000002,0.,0.00015707,-0.00061627,0.01055828,-0.00122161,0
 .00061629,-0.01055832,-0.00122157,-0.00000010,0.00000003,0.02109121,0.
 00571499,0.00137092,0.00000050,0.00041979,0.00102049,-0.00000017,-0.00
 008254,-0.00062011,0.00027130,-0.00008254,-0.00062011,-0.00027130,-0.0
 1174040,-0.00010144,0.00000005,0.00577076,0.00123975,-0.11990931,0.000
 00018,-0.00144568,0.00548559,-0.00000007,0.00027262,0.00437050,0.00101
 784,0.00027261,0.00437050,-0.00101784,0.00071062,-0.00202264,0.0000000
 1,-0.00104989,0.10770532,-0.00000004,0.00000004,-0.00055087,-0.0000000
 5,-0.00000001,0.00007922,0.00038204,0.00000200,0.00105560,-0.00038209,
 -0.00000190,0.00105549,0.00000026,-0.00000008,-0.00412493,-0.00000012,
 -0.00000004,0.00248550\\-0.00002968,-0.00003727,0.,-0.00000080,0.00001
 363,0.,0.00000843,0.00002752,0.00000519,0.00000843,0.00002752,-0.00000
 519,0.00001432,-0.00008253,0.,-0.00000070,0.00005112,0.\\\@


 IF YOU GIVE A BOY AND A PIG EVERYTHING THEY WANT,
 YOU'LL GET A BAD BOY AND A GOOD PIG.
 Job cpu time:       0 days  0 hours  1 minutes 53.3 seconds.
 Elapsed time:       0 days  0 hours  0 minutes 10.2 seconds.
 File lengths (MBytes):  RWF=      7 Int=      0 D2E=      0 Chk=      1 Scr=      1
 Normal termination of Gaussian 16 at Sat Oct 10 10:19:49 2020.
