                  Welcome to Q-Chem
     A Quantum Leap Into The Future Of Chemistry


 Q-Chem 5.3 (devel), Q-Chem, Inc., Pleasanton, CA (2020)

 Yihan Shao,  Zhengting Gan,  E. Epifanovsky,  A. T. B. Gilbert,  M. Wormit,  
 J. Kussmann,  A. W. Lange,  A. Behn,  Jia Deng,  Xintian Feng,  D. Ghosh,  
 M. Goldey,  P. R. Horn,  L. D. Jacobson,  I. Kaliman,  T. Kus,  A. Landau,  
 Jie Liu,  E. I. Proynov,  R. M. Richard,  R. P. Steele,  E. J. Sundstrom,  
 H. L. Woodcock III,  P. M. Zimmerman,  D. Zuev,  B. Alam,  B. Albrecht,  
 A. Aldossary,  E. Alguire,  S. A. Baeppler,  D. Barton,  Z. Benda,  
 Y. A. Bernard,  E. J. Berquist,  K. B. Bravaya,  H. Burton,  K. Carter-Fenk,  
 D. Casanova,  Chun-Min Chang,  Yunqing Chen,  A. Chien,  K. D. Closser,  
 M. P. Coons,  S. Coriani,  S. Dasgupta,  A. L. Dempwolff,  M. Diedenhofen,  
 Hainam Do,  R. G. Edgar,  Po-Tung Fang,  S. Faraji,  S. Fatehi,  
 Qingguo Feng,  J. Fosso-Tande,  J. Gayvert,  Qinghui Ge,  A. Ghysels,  
 G. Gidofalvi,  J. Gomes,  J. Gonthier,  S. Gulania,  A. Gunina,  D. Hait,  
 M. W. D. Hanson-Heine,  S. Hammes-Schiffer,  P. H. P. Harbach,  
 A. W. Hauser,  M. F. Herbst,  J. E. Herr,  E. G. Hohenstein,  Z. C. Holden,  
 S. Houck,  Kerwin Hui,  B. C. Huynh,  M. Ivanov,  T.-C. Jagau,  Hyunjun Ji,  
 B. Kaduk,  K. Khistyaev,  Jaehoon Kim,  P. Klunzinger,  K. Koh,  
 D. Kosenkov,  L. Koulias,  T. Kowalczyk,  C. M. Krauter,  A. Kunitsa,  
 Ka Un Lao,  A. Laurent,  K. V. Lawler,  Joonho Lee,  D. Lefrancois,  
 S. Lehtola,  D. S. Levine,  Yi-Pei Li,  You-Sheng Lin,  Fenglai Liu,  
 Kuan-Yu Liu,  E. Livshits,  M. Loipersberger,  A. Luenser,  P. Manohar,  
 E. Mansoor,  S. F. Manzer,  Shan-Ping Mao,  Yuezhi Mao,  N. Mardirossian,  
 A. V. Marenich,  T. Markovich,  L. A. Martinez-Martinez,  S. A. Maurer,  
 N. J. Mayhall,  S. C. McKenzie,  J.-M. Mewes,  P. Morgante,  A. F. Morrison,  
 J. W. Mullinax,  K. Nanda,  T. S. Nguyen-Beck,  R. Olivares-Amaya,  
 K. J. Oosterbaan,  J. A. Parkhill,  S. K. Paul,  F. Pavosevic,  Zheng Pei,  
 T. M. Perrine,  F. Plasser,  P. Pokhilko,  S. Prager,  A. Prociuk,  
 E. Ramos,  B. Rana,  D. R. Rehn,  F. Rob,  E. Rossomme,  M. Scheurer,  
 M. Schneider,  N. Sergueev,  S. M. Sharada,  S. Sharma,  W. Skomorowski,  
 D. W. Small,  T. Stauch,  C. J. Stein,  T. Stein,  Yu-Chuan Su,  
 S. P. Veccham,  Zhen Tao,  A. J. W. Thom,  A. Tkatchenko,  T. Tsuchimochi,  
 N. M. Tubman,  L. Vogt,  M. L. Vidal,  O. Vydrov,  M. A. Watson,  J. Wenzel,  
 M. de Wergifosse,  T. A. Wesolowski,  A. White,  J. Witte,  A. Yamada,  
 Jun Yang,  K. Yao,  S. Yeganeh,  S. R. Yost,  Zhi-Qiang You,  A. Zech,  
 Igor Ying Zhang,  Xing Zhang,  Yan Zhao,  Ying Zhu,  B. R. Brooks,  
 G. K. L. Chan,  C. J. Cramer,  M. S. Gordon,  W. J. Hehre,  A. Klamt,  
 M. W. Schmidt,  C. D. Sherrill,  D. G. Truhlar,  A. Aspuru-Guzik,  R. Baer,  
 A. T. Bell,  N. A. Besley,  Jeng-Da Chai,  A. E. DePrince, III,  
 R. A. DiStasio Jr.,  A. Dreuw,  B. D. Dunietz,  T. R. Furlani,  
 Chao-Ping Hsu,  Yousung Jung,  Jing Kong,  D. S. Lambrecht,  WanZhen Liang,  
 C. Ochsenfeld,  V. A. Rassolov,  L. V. Slipchenko,  J. E. Subotnik,  
 T. Van Voorhis,  J. M. Herbert,  A. I. Krylov,  P. M. W. Gill,  M. Head-Gordon

 Contributors to earlier versions of Q-Chem not listed above: 
 R. D. Adamson,  B. Austin,  J. Baker,  G. J. O. Beran,  K. Brandhorst,  
 S. T. Brown,  E. F. C. Byrd,  A. K. Chakraborty,  C.-L. Cheng,  
 Siu Hung Chien,  D. M. Chipman,  D. L. Crittenden,  H. Dachsel,  
 R. J. Doerksen,  A. D. Dutoi,  L. Fusti-Molnar,  W. A. Goddard III,  
 A. Golubeva-Zadorozhnaya,  S. R. Gwaltney,  G. Hawkins,  A. Heyden,  
 S. Hirata,  G. Kedziora,  F. J. Keil,  C. Kelley,  Jihan Kim,  R. A. King,  
 R. Z. Khaliullin,  P. P. Korambath,  W. Kurlancheek,  A. M. Lee,  M. S. Lee,  
 S. V. Levchenko,  Ching Yeh Lin,  D. Liotard,  R. C. Lochan,  I. Lotan,  
 P. E. Maslen,  N. Nair,  D. P. O'Neill,  D. Neuhauser,  E. Neuscamman,  
 C. M. Oana,  R. Olson,  B. Peters,  R. Peverati,  P. A. Pieniazek,  
 Y. M. Rhee,  J. Ritchie,  M. A. Rohrdanz,  E. Rosta,  N. J. Russ,  
 H. F. Schaefer III,  N. E. Schultz,  N. Shenvi,  A. C. Simmonett,  A. Sodt,  
 D. Stuck,  K. S. Thanthiriwatte,  V. Vanovschi,  Tao Wang,  A. Warshel,  
 C. F. Williams,  Q. Wu,  X. Xu,  W. Zhang

 Please cite Q-Chem as follows:
 Y. Shao et al., Mol. Phys. 113, 184-215 (2015)
 DOI: 10.1080/00268976.2014.952696

 Q-Chem 5.3.0 for Intel X86 EM64T Linux

 Parts of Q-Chem use Armadillo 9.800.1 (Horizon Scraper).
 http://arma.sourceforge.net/

 Q-Chem begins on Thu Oct 22 12:19:35 2020  

Host: 
0

     Scratch files written to /home/pierpa/qchem_scratch/qchem10465//
Processing $rem in /home/pierpa/qchem53_dev/config/preferences:
Processing $rem in /home/pierpa/.qchemrc:

Checking the input file for inconsistencies... 	...done.

--------------------------------------------------------------
User input:
--------------------------------------------------------------
$Comment
Geometry optimizations for CLB18.
$End

$Rem
SYMMETRY              False
SYM_IGNORE            True
JOBTYPE               Opt
METHOD                HF-3c
BASIS                 MINIX
MAX_SCF_CYCLES        50
SCF_ALGORITHM         DIIS
SCF_PRINT             1
SCF_FINAL_PRINT       1
XC_GRID               000099000590
MEM_TOTAL             20000
MEM_STATIC            4000
BLAS3_DFT             True
New_DFT               True
$End

$Molecule
-1 1
Cl 0.0000000000 0.0000000000 2.1229641588
C 0.0000000000 0.0000000000 0.2724658492
H -0.5131616625 -0.8888220720 -0.0553144529
H -0.5131616625 0.8888220720 -0.0553144529
H 1.0263233250 0.0000000000 -0.0553144529
F 0.0000000000 0.0000000000 -2.2294866494
$End


--------------------------------------------------------------
 Adding empirical dispersion correction 
 ----------------------------------------------------------------
 Doing -D3(BJ) with
 s6 =   1.00000
 s8 =   0.87770
 a1 =   0.41710
 a2 =   2.91490
 -D3 energy without 3body term =     -0.0152906627 hartrees
 ----------------------------------------------------------------
 Adding gCP correction 
 ----------------------------------------------------------------
 gCP energy =      0.0336918874 hartrees
 ------------------------------------------------------
 Correction for Bais Set Incompleteness Error in  HF-3c
 ------------------------------------------------------
 SRB energy =     -0.0207402356 hartrees
 ----------------------------------------------------------------
             Standard Nuclear Orientation (Angstroms)
    I     Atom           X                Y                Z
 ----------------------------------------------------------------
    1      Cl      0.0000000000     0.0000000000     2.1229641588
    2      C       0.0000000000     0.0000000000     0.2724658492
    3      H      -0.5131616625    -0.8888220720    -0.0553144529
    4      H      -0.5131616625     0.8888220720    -0.0553144529
    5      H       1.0263233250     0.0000000000    -0.0553144529
    6      F       0.0000000000     0.0000000000    -2.2294866494
 ----------------------------------------------------------------
 Nuclear Repulsion Energy =          86.07395253 hartrees
 There are       18 alpha and       18 beta electrons
 Requested basis set is MINIX
 There are 15 shells and 27 basis functions

 Total QAlloc Memory Limit  20000 MB
 Mega-Array Size      3911 MB
 MEM_STATIC part      4000 MB
 A cutoff of  1.0D-11 yielded    111 shell pairs
 There are       373 function pairs (       405 Cartesian)
 Smallest overlap matrix eigenvalue = 2.27E-01

 Scale SEOQF with 1.000000e+00/1.000000e+00/1.000000e-01

 Standard Electronic Orientation quadrupole field applied
 Nucleus-field energy     =    -0.0000000114 hartrees
 Guess from superposition of atomic densities
 Warning:  Energy on first SCF cycle will be non-variational
 SAD guess density has 35.000000 electrons

 -----------------------------------------------------------------------
  General SCF calculation program by
  Eric Jon Sundstrom, Paul Horn, Yuezhi Mao, Dmitri Zuev, Alec White,
  David Stuck, Shaama M.S., Shane Yost, Joonho Lee, David Small,
  Daniel Levine, Susi Lehtola, Hugh Burton, Evgeny Epifanovsky,
  Bang C. Huynh
 -----------------------------------------------------------------------
 Hartree-Fock
 Dispersion:   Grimme D3
 using 4 threads for integral computing
 -------------------------------------------------------
 OpenMP Integral computing Module                
 Release: version 1.0, May 2013, Q-Chem Inc. Pittsburgh 
 -------------------------------------------------------
 HF Exchange   Energy = -43.41554569333812
 One-Electron  Energy = -995.63247006335541
 Total Coulomb Energy = 358.22737869050985
 Nuclear repulsion Energy =  86.07395252326138
 A restricted SCF calculation will be
 performed using DIIS
 SCF converges when DIIS error is below 1.0e-08
 HF Exchange   Energy = -43.41554569333812
 One-Electron  Energy = -995.63247006335541
 Total Coulomb Energy = 358.22737869050985
 ---------------------------------------
  Cycle       Energy         DIIS error
 ---------------------------------------
 HF Exchange   Energy = -44.61805198377139
 One-Electron  Energy = -1008.24501080512516
 Total Coulomb Energy = 371.53816239430614
 Nuclear repulsion Energy =  86.07395252326138
    1    -594.7466845429      1.20e-01  
 HF Exchange   Energy = -44.61805198377139
 One-Electron  Energy = -1008.24501080512516
 Total Coulomb Energy = 371.53816239430614
 HF Exchange   Energy = -44.56867498617601
 One-Electron  Energy = -1008.75091109176162
 Total Coulomb Energy = 371.95358761655689
 Nuclear repulsion Energy =  86.07395252326138
    2    -595.2509478713      1.58e-02  
 HF Exchange   Energy = -44.56867498617601
 One-Electron  Energy = -1008.75091109176162
 Total Coulomb Energy = 371.95358761655689
 HF Exchange   Energy = -44.54947013970695
 One-Electron  Energy = -1008.52173452810359
 Total Coulomb Energy = 371.70120240821853
 Nuclear repulsion Energy =  86.07395252326138
    3    -595.2920459381      5.98e-03  
 HF Exchange   Energy = -44.54947013970695
 One-Electron  Energy = -1008.52173452810359
 Total Coulomb Energy = 371.70120240821853
 HF Exchange   Energy = -44.53442329182757
 One-Electron  Energy = -1008.47193655866374
 Total Coulomb Energy = 371.63592859977814
 Nuclear repulsion Energy =  86.07395252326138
    4    -595.2960497363      1.17e-03  
 HF Exchange   Energy = -44.53442329182757
 One-Electron  Energy = -1008.47193655866374
 Total Coulomb Energy = 371.63592859977814
 HF Exchange   Energy = -44.53318790802235
 One-Electron  Energy = -1008.45607656771631
 Total Coulomb Energy = 371.61882421219383
 Nuclear repulsion Energy =  86.07395252326138
    5    -595.2964787275      2.13e-04  
 HF Exchange   Energy = -44.53318790802235
 One-Electron  Energy = -1008.45607656771631
 Total Coulomb Energy = 371.61882421219383
 HF Exchange   Energy = -44.53279926044642
 One-Electron  Energy = -1008.45337962647204
 Total Coulomb Energy = 371.61573812858109
 Nuclear repulsion Energy =  86.07395252326138
    6    -595.2964877403      4.02e-05  
 HF Exchange   Energy = -44.53279926044642
 One-Electron  Energy = -1008.45337962647204
 Total Coulomb Energy = 371.61573812858109
 HF Exchange   Energy = -44.53276534294438
 One-Electron  Energy = -1008.45315146438520
 Total Coulomb Energy = 371.61547604151588
 Nuclear repulsion Energy =  86.07395252326138
    7    -595.2964882351      5.64e-06  
 HF Exchange   Energy = -44.53276534294438
 One-Electron  Energy = -1008.45315146438520
 Total Coulomb Energy = 371.61547604151588
 HF Exchange   Energy = -44.53276715469534
 One-Electron  Energy = -1008.45314698483583
 Total Coulomb Energy = 371.61547337362038
 Nuclear repulsion Energy =  86.07395252326138
    8    -595.2964882426      5.88e-07  
 HF Exchange   Energy = -44.53276715469534
 One-Electron  Energy = -1008.45314698483583
 Total Coulomb Energy = 371.61547337362038
 HF Exchange   Energy = -44.53276728080601
 One-Electron  Energy = -1008.45314927211996
 Total Coulomb Energy = 371.61547578700004
 Nuclear repulsion Energy =  86.07395252326138
    9    -595.2964882426      6.66e-08  
 HF Exchange   Energy = -44.53276728080601
 One-Electron  Energy = -1008.45314927211996
 Total Coulomb Energy = 371.61547578700004
   10    -595.2964882427      8.98e-09  Convergence criterion met
 ---------------------------------------
 HF Exchange   Energy = -44.53276728080601
 One-Electron  Energy = -1008.45314927211996
 Total Coulomb Energy = 371.61547578700004
 SCF time:   CPU 1.26s  wall 0.00s 
 HF Exchange   Energy = -44.53276728080601
 One-Electron  Energy = -1008.45314927211996
 Total Coulomb Energy = 371.61547578700004
 Nuclear repulsion Energy =  86.07395252326138
 SCF   energy in the final basis set =     -595.2964882427
 Total energy in the final basis set =     -595.2964882427

 --------------------------------------------------------------

                    Orbital Energies (a.u.)
 --------------------------------------------------------------

 Alpha MOs
 -- Occupied --
******** -25.0104 -11.0423 -10.2607  -7.6930  -7.6895  -7.6895  -0.9238
 -0.8333  -0.7222  -0.4304  -0.4304  -0.3380  -0.2524  -0.2524   0.0726
  0.0726   0.0954
 -- Virtual --
  0.4444   0.8489   0.8489   0.9101   1.2388   1.2388   1.2577   1.2577
  1.3376
 --------------------------------------------------------------

          Ground-State Mulliken Net Atomic Charges

     Atom                 Charge (a.u.)
  ----------------------------------------
      1 Cl                   -0.343850
      2 C                    -0.273673
      3 H                     0.170036
      4 H                     0.170036
      5 H                     0.170036
      6 F                    -0.892586
  ----------------------------------------
  Sum of atomic charges =    -1.000000

 -----------------------------------------------------------------
                    Cartesian Multipole Moments
 -----------------------------------------------------------------
    Charge (ESU x 10^10)
                    -4.80320440
    Dipole Moment (Debye)
         X           0.00000000      Y          -0.00000000      Z           5.52969479
       Tot           5.52969479
    Quadrupole Moments (Debye-Ang)
        XX         -25.11024115     XY          -0.00000000     YY         -25.11024115
        XZ          -0.00000000     YZ          -0.00000000     ZZ         -55.09306551
    Octopole Moments (Debye-Ang^2)
       XXX           0.82399620    XXY          -0.00000000    XYY          -0.82399619
       YYY           0.00000000    XXZ         -19.34849376    XYZ          -0.00000000
       YYZ         -19.34849376    XZZ           0.00000000    YZZ          -0.00000000
       ZZZ         -22.77264646
    Hexadecapole Moments (Debye-Ang^3)
      XXXX         -29.75327237   XXXY          -0.00000000   XXYY          -9.91775746
      XYYY          -0.00000000   YYYY         -29.75327237   XXXZ          -0.10084669
      XXYZ          -0.00000000   XYYZ           0.10084669   YYYZ          -0.00000000
      XXZZ         -94.25442850   XYZZ          -0.00000000   YYZZ         -94.25442850
      XZZZ          -0.00000000   YZZZ          -0.00000000   ZZZZ        -649.03626853
 -----------------------------------------------------------------
 Mayer SCF Bond Order, atomic valence on the diagonal:

            1           2           3           4           5           6
    1   0.9311470   0.8215550   0.0118614   0.0118614   0.0118614   0.0740078
    2   0.8215550   3.8250382   0.9584667   0.9584667   0.9584667   0.1280830
    3   0.0118614   0.9584667   0.9710877   0.0001264   0.0001264   0.0005067
    4   0.0118614   0.9584667   0.0001264   0.9710877   0.0001264   0.0005067
    5   0.0118614   0.9584667   0.0001264   0.0001264   0.9710877   0.0005067
    6   0.0740078   0.1280830   0.0005067   0.0005067   0.0005067   0.2036108


 Calculating analytic gradient of the SCF energy
 ------------------------------------------------------
 Correction for Bais Set Incompleteness Error in  HF-3c
 ------------------------------------------------------
 Gradient of SCF Energy
            1           2           3           4           5           6
    1   0.0000033  -0.0000088   0.0047875   0.0047903  -0.0095825   0.0000103
    2   0.0000033  -0.0000088   0.0082796  -0.0082987   0.0000143   0.0000103
    3  -0.0359197   0.0424512   0.0039088   0.0039196   0.0039304  -0.0182902
 Max gradient component =       4.245E-02
 RMS gradient           =       1.443E-02
 Gradient time:  CPU 0.63 s  wall 0.19 s
 Geometry Optimization Parameters
   NAtoms,    NIC,     NZ,  NCons,   NDum,   NFix, NCnnct, MaxDiis
        6      63       0       0       0       0       0       0


** GEOMETRY OPTIMIZATION IN DELOCALIZED INTERNAL COORDINATES **
   Searching for a Minimum

   Optimization Cycle:   1

                       Coordinates (Angstroms)
     ATOM                X               Y               Z
      1  Cl        0.0000000000    0.0000000000    2.1229641588
      2  C         0.0000000000    0.0000000000    0.2724658492
      3  H        -0.5131616625   -0.8888220720   -0.0553144529
      4  H        -0.5131616625    0.8888220720   -0.0553144529
      5  H         1.0263233250    0.0000000000   -0.0553144529
      6  F         0.0000000000    0.0000000000   -2.2294866494
   Point Group: c1    Number of degrees of freedom:    12


   Energy is   -595.296488243


 Attempting to generate delocalized internal coordinates
 Initial Hessian constructed with Jon Baker's OPTIMIZE code

 12 Hessian modes will be used to form the next step
  Hessian Eigenvalues:
     0.030224    0.030224    0.030454    0.070979    0.070979    0.081869
     0.137481    0.137481    0.225108    0.304016    0.304016    0.322776

 Minimum search - taking simple RFO step
 Searching for Lamda that Minimizes Along All modes
 Value Taken    Lamda =  -0.00843846
 Step Taken.  Stepsize is  0.276409

                             Maximum     Tolerance    Cnvgd?
         Gradient           0.035562      0.000300      NO
         Displacement       0.224913      0.001200      NO
         Energy change     *********      0.000001      NO


 New Cartesian Coordinates Obtained by Inverse Iteration

 Displacement from previous Coordinates is:  0.165194
 Adding empirical dispersion correction 
 ----------------------------------------------------------------
 Doing -D3(BJ) with
 s6 =   1.00000
 s8 =   0.87770
 a1 =   0.41710
 a2 =   2.91490
 -D3 energy without 3body term =     -0.0150678410 hartrees
 ----------------------------------------------------------------
 Adding gCP correction 
 ----------------------------------------------------------------
 gCP energy =      0.0319981830 hartrees
 ------------------------------------------------------
 Correction for Bais Set Incompleteness Error in  HF-3c
 ------------------------------------------------------
 SRB energy =     -0.0186039130 hartrees
 ----------------------------------------------------------------
             Standard Nuclear Orientation (Angstroms)
    I     Atom           X                Y                Z
 ----------------------------------------------------------------
    1      Cl     -0.0000316429    -0.0000248510     2.1791417812
    2      C       0.0000158113     0.0000173985     0.2472553156
    3      H      -0.5189948491    -0.8989370092    -0.0793580889
    4      H      -0.5190317803     0.8989711221    -0.0793839000
    5      H       1.0380535585    -0.0000149269    -0.0794096332
    6      F      -0.0000110976    -0.0000117334    -2.1882454748
 ----------------------------------------------------------------
 Nuclear Repulsion Energy =          84.78138457 hartrees
 There are       18 alpha and       18 beta electrons
 Applying Cartesian multipole field
    Component          Value
    ---------          -----
     (2,0,0)        1.00000E-10
     (0,2,0)        2.00000E-10
     (0,0,2)       -3.00000E-11
 Nucleus-field energy     =    -0.0000000116 hartrees
 Requested basis set is MINIX
 There are 15 shells and 27 basis functions
 A cutoff of  1.0D-11 yielded    110 shell pairs
 There are       370 function pairs (       402 Cartesian)
 Smallest overlap matrix eigenvalue = 2.35E-01
 Guess MOs from SCF MO coefficient file

 -----------------------------------------------------------------------
  General SCF calculation program by
  Eric Jon Sundstrom, Paul Horn, Yuezhi Mao, Dmitri Zuev, Alec White,
  David Stuck, Shaama M.S., Shane Yost, Joonho Lee, David Small,
  Daniel Levine, Susi Lehtola, Hugh Burton, Evgeny Epifanovsky,
  Bang C. Huynh
 -----------------------------------------------------------------------
 Hartree-Fock
 Dispersion:   Grimme D3
 using 4 threads for integral computing
 -------------------------------------------------------
 OpenMP Integral computing Module                
 Release: version 1.0, May 2013, Q-Chem Inc. Pittsburgh 
 -------------------------------------------------------
 HF Exchange   Energy = -44.49798021185886
 One-Electron  Energy = -1006.02745247002622
 Total Coulomb Energy = 370.44244976270534
 Nuclear repulsion Energy =  84.78138455398899
 A restricted SCF calculation will be
 performed using DIIS
 SCF converges when DIIS error is below 1.0e-08
 HF Exchange   Energy = -44.49798021185886
 One-Electron  Energy = -1006.02745247002622
 Total Coulomb Energy = 370.44244976270534
 ---------------------------------------
  Cycle       Energy         DIIS error
 ---------------------------------------
 HF Exchange   Energy = -44.48655708254200
 One-Electron  Energy = -1006.07862469186455
 Total Coulomb Energy = 370.48068094391050
 Nuclear repulsion Energy =  84.78138455398899
    1    -595.3015983652      4.71e-03  
 HF Exchange   Energy = -44.48655708254200
 One-Electron  Energy = -1006.07862469186455
 Total Coulomb Energy = 370.48068094391050
 HF Exchange   Energy = -44.48322060627138
 One-Electron  Energy = -1006.09405019586575
 Total Coulomb Energy = 370.49268798078322
 Nuclear repulsion Energy =  84.78138455398899
    2    -595.3031162765      6.27e-04  
 HF Exchange   Energy = -44.48322060627138
 One-Electron  Energy = -1006.09405019586575
 Total Coulomb Energy = 370.49268798078322
 HF Exchange   Energy = -44.48252664472258
 One-Electron  Energy = -1006.08788850365738
 Total Coulomb Energy = 370.48582534556539
 Nuclear repulsion Energy =  84.78138455398899
    3    -595.3031982674      2.05e-04  
 HF Exchange   Energy = -44.48252664472258
 One-Electron  Energy = -1006.08788850365738
 Total Coulomb Energy = 370.48582534556539
 HF Exchange   Energy = -44.48221488598232
 One-Electron  Energy = -1006.08908035915829
 Total Coulomb Energy = 370.48670487941854
 Nuclear repulsion Energy =  84.78138455398899
    4    -595.3032052488      5.73e-05  
 HF Exchange   Energy = -44.48221488598232
 One-Electron  Energy = -1006.08908035915829
 Total Coulomb Energy = 370.48670487941854
 HF Exchange   Energy = -44.48218762127065
 One-Electron  Energy = -1006.08875500637441
 Total Coulomb Energy = 370.48635225292753
 Nuclear repulsion Energy =  84.78138455398899
    5    -595.3032058117      7.12e-06  
 HF Exchange   Energy = -44.48218762127065
 One-Electron  Energy = -1006.08875500637441
 Total Coulomb Energy = 370.48635225292753
 HF Exchange   Energy = -44.48218199295530
 One-Electron  Energy = -1006.08873569577202
 Total Coulomb Energy = 370.48632731389864
 Nuclear repulsion Energy =  84.78138455398899
    6    -595.3032058207      6.96e-07  
 HF Exchange   Energy = -44.48218199295530
 One-Electron  Energy = -1006.08873569577202
 Total Coulomb Energy = 370.48632731389864
 HF Exchange   Energy = -44.48218102174254
 One-Electron  Energy = -1006.08872908599710
 Total Coulomb Energy = 370.48631973294715
 Nuclear repulsion Energy =  84.78138455398899
    7    -595.3032058208      1.19e-07  
 HF Exchange   Energy = -44.48218102174254
 One-Electron  Energy = -1006.08872908599710
 Total Coulomb Energy = 370.48631973294715
 HF Exchange   Energy = -44.48218091514244
 One-Electron  Energy = -1006.08872830898781
 Total Coulomb Energy = 370.48631884929335
 Nuclear repulsion Energy =  84.78138455398899
    8    -595.3032058208      1.26e-08  
 HF Exchange   Energy = -44.48218091514244
 One-Electron  Energy = -1006.08872830898781
 Total Coulomb Energy = 370.48631884929335
    9    -595.3032058208      1.56e-09  Convergence criterion met
 ---------------------------------------
 HF Exchange   Energy = -44.48218091514244
 One-Electron  Energy = -1006.08872830898781
 Total Coulomb Energy = 370.48631884929335
 SCF time:   CPU 1.13s  wall 0.00s 
 HF Exchange   Energy = -44.48218091514244
 One-Electron  Energy = -1006.08872830898781
 Total Coulomb Energy = 370.48631884929335
 Nuclear repulsion Energy =  84.78138455398899
 SCF   energy in the final basis set =     -595.3032058208
 Total energy in the final basis set =     -595.3032058208

 --------------------------------------------------------------

                    Orbital Energies (a.u.)
 --------------------------------------------------------------

 Alpha MOs
 -- Occupied --
******** -25.0632 -11.0374 -10.2307  -7.6624  -7.6593  -7.6593  -0.8920
 -0.8644  -0.7166  -0.4173  -0.4173  -0.3119  -0.2384  -0.2384   0.0395
  0.0395   0.0716
 -- Virtual --
  0.4202   0.8475   0.8475   0.8944   1.2598   1.2598   1.2705   1.2705
  1.3324
 --------------------------------------------------------------

          Ground-State Mulliken Net Atomic Charges

     Atom                 Charge (a.u.)
  ----------------------------------------
      1 Cl                   -0.396672
      2 C                    -0.254276
      3 H                     0.166915
      4 H                     0.166919
      5 H                     0.166921
      6 F                    -0.849807
  ----------------------------------------
  Sum of atomic charges =    -1.000000

 -----------------------------------------------------------------
                    Cartesian Multipole Moments
 -----------------------------------------------------------------
    Charge (ESU x 10^10)
                    -4.80320440
    Dipole Moment (Debye)
         X           0.00012227      Y           0.00010327      Z           4.25911246
       Tot           4.25911246
    Quadrupole Moments (Debye-Ang)
        XX         -25.16174379     XY          -0.00009871     YY         -25.16185483
        XZ          -0.00004375     YZ          -0.00005242     ZZ         -54.86561201
    Octopole Moments (Debye-Ang^2)
       XXX           0.84737024    XXY           0.00029843    XYY          -0.84582612
       YYY           0.00089531    XXZ         -20.32267618    XYZ           0.00002554
       YYZ         -20.32261111    XZZ           0.00071231    YZZ           0.00059355
       ZZZ         -34.15092971
    Hexadecapole Moments (Debye-Ang^3)
      XXXX         -29.97230042   XXXY           0.00003157   XXYY          -9.99077860
      XYYY           0.00002306   YYYY         -29.97227370   XXXZ          -0.13403901
      XXYZ           0.00057744   XYYZ           0.13719368   YYYZ           0.00173230
      XXZZ         -96.76363320   XYZZ           0.00002837   YYZZ         -96.76362278
      XZZZ           0.00187231   YZZZ           0.00118327   ZZZZ        -660.22375633
 -----------------------------------------------------------------
 Mayer SCF Bond Order, atomic valence on the diagonal:

            1           2           3           4           5           6
    1   0.8822593   0.7556193   0.0109403   0.0109413   0.0109416   0.0938168
    2   0.7556193   3.8184125   0.9600135   0.9600111   0.9600099   0.1827586
    3   0.0109403   0.9600135   0.9721392   0.0002998   0.0002998   0.0005858
    4   0.0109413   0.9600111   0.0002998   0.9721382   0.0003000   0.0005859
    5   0.0109416   0.9600099   0.0002998   0.0003000   0.9721375   0.0005862
    6   0.0938168   0.1827586   0.0005858   0.0005859   0.0005862   0.2783333


 Calculating analytic gradient of the SCF energy
 ------------------------------------------------------
 Correction for Bais Set Incompleteness Error in  HF-3c
 ------------------------------------------------------
 Gradient of SCF Energy
            1           2           3           4           5           6
    1  -0.0000011  -0.0000213   0.0007841   0.0007722  -0.0015470   0.0000132
    2  -0.0000002  -0.0000230   0.0013414  -0.0013442   0.0000127   0.0000133
    3  -0.0139081   0.0483980  -0.0037036  -0.0037039  -0.0036999  -0.0233824
 Max gradient component =       4.840E-02
 RMS gradient           =       1.319E-02
 Gradient time:  CPU 0.61 s  wall 0.18 s
 Geometry Optimization Parameters
   NAtoms,    NIC,     NZ,  NCons,   NDum,   NFix, NCnnct, MaxDiis
        6      63       0       0       0       0       0       0

 Cartesian Hessian Update
 Hessian updated using BFGS update


** GEOMETRY OPTIMIZATION IN DELOCALIZED INTERNAL COORDINATES **
   Searching for a Minimum

   Optimization Cycle:   2

                       Coordinates (Angstroms)
     ATOM                X               Y               Z
      1  Cl       -0.0000316429   -0.0000248510    2.1791417812
      2  C         0.0000158113    0.0000173985    0.2472553156
      3  H        -0.5189948491   -0.8989370092   -0.0793580889
      4  H        -0.5190317803    0.8989711221   -0.0793839000
      5  H         1.0380535585   -0.0000149269   -0.0794096332
      6  F        -0.0000110976   -0.0000117334   -2.1882454748
   Point Group: c1    Number of degrees of freedom:    12


   Energy is   -595.303205821

 Hessian updated using BFGS update

 11 Hessian modes will be used to form the next step
  Hessian Eigenvalues:
     0.011710    0.030224    0.067298    0.070979    0.070979    0.137481
     0.137481    0.238956    0.304016    0.304016    0.399035

 Minimum search - taking simple RFO step
 Searching for Lamda that Minimizes Along All modes
 Value Taken    Lamda =  -0.01361962
 Calculated Step too Large.  Step scaled by  0.432469
 Step Taken.  Stepsize is  0.300000

                             Maximum     Tolerance    Cnvgd?
         Gradient           0.017105      0.000300      NO
         Displacement       0.247170      0.001200      NO
         Energy change     -0.006718      0.000001      NO


 New Cartesian Coordinates Obtained by Inverse Iteration

 Displacement from previous Coordinates is:  0.141242
 Adding empirical dispersion correction 
 ----------------------------------------------------------------
 Doing -D3(BJ) with
 s6 =   1.00000
 s8 =   0.87770
 a1 =   0.41710
 a2 =   2.91490
 -D3 energy without 3body term =     -0.0150707357 hartrees
 ----------------------------------------------------------------
 Adding gCP correction 
 ----------------------------------------------------------------
 gCP energy =      0.0316706206 hartrees
 ------------------------------------------------------
 Correction for Bais Set Incompleteness Error in  HF-3c
 ------------------------------------------------------
 SRB energy =     -0.0179217686 hartrees
 ----------------------------------------------------------------
             Standard Nuclear Orientation (Angstroms)
    I     Atom           X                Y                Z
 ----------------------------------------------------------------
    1      Cl     -0.0000597903    -0.0000489389     2.2040480134
    2      C       0.0000335742     0.0000365024     0.2135554598
    3      H      -0.5228923813    -0.9056974601    -0.0945346680
    4      H      -0.5229513571     0.9057598671    -0.0945687713
    5      H       1.0458977210    -0.0000198712    -0.0946101812
    6      F      -0.0000277665    -0.0000300992    -2.1338898528
 ----------------------------------------------------------------
 Nuclear Repulsion Energy =          84.48638295 hartrees
 There are       18 alpha and       18 beta electrons
 Applying Cartesian multipole field
    Component          Value
    ---------          -----
     (2,0,0)        1.00000E-10
     (0,2,0)        2.00000E-10
     (0,0,2)       -3.00000E-11
 Nucleus-field energy     =    -0.0000000115 hartrees
 Requested basis set is MINIX
 There are 15 shells and 27 basis functions
 A cutoff of  1.0D-11 yielded    110 shell pairs
 There are       370 function pairs (       402 Cartesian)
 Smallest overlap matrix eigenvalue = 2.39E-01
 Guess MOs from SCF MO coefficient file

 -----------------------------------------------------------------------
  General SCF calculation program by
  Eric Jon Sundstrom, Paul Horn, Yuezhi Mao, Dmitri Zuev, Alec White,
  David Stuck, Shaama M.S., Shane Yost, Joonho Lee, David Small,
  Daniel Levine, Susi Lehtola, Hugh Burton, Evgeny Epifanovsky,
  Bang C. Huynh
 -----------------------------------------------------------------------
 Hartree-Fock
 Dispersion:   Grimme D3
 using 4 threads for integral computing
 -------------------------------------------------------
 OpenMP Integral computing Module                
 Release: version 1.0, May 2013, Q-Chem Inc. Pittsburgh 
 -------------------------------------------------------
 HF Exchange   Energy = -44.46500304135547
 One-Electron  Energy = -1005.61951817480247
 Total Coulomb Energy = 370.29018102034036
 Nuclear repulsion Energy =  84.48638294175147
 A restricted SCF calculation will be
 performed using DIIS
 SCF converges when DIIS error is below 1.0e-08
 HF Exchange   Energy = -44.46500304135547
 One-Electron  Energy = -1005.61951817480247
 Total Coulomb Energy = 370.29018102034036
 ---------------------------------------
  Cycle       Energy         DIIS error
 ---------------------------------------
 HF Exchange   Energy = -44.45146059111097
 One-Electron  Energy = -1005.66840965192239
 Total Coulomb Energy = 370.32429824905347
 Nuclear repulsion Energy =  84.48638294175147
    1    -595.3079572541      3.21e-03  
 HF Exchange   Energy = -44.45146059111097
 One-Electron  Energy = -1005.66840965192239
 Total Coulomb Energy = 370.32429824905347
 HF Exchange   Energy = -44.44952283485046
 One-Electron  Energy = -1005.67208991711811
 Total Coulomb Energy = 370.32598546777228
 Nuclear repulsion Energy =  84.48638294175147
    2    -595.3091890522      5.25e-04  
 HF Exchange   Energy = -44.44952283485046
 One-Electron  Energy = -1005.67208991711811
 Total Coulomb Energy = 370.32598546777228
 HF Exchange   Energy = -44.44905934252417
 One-Electron  Energy = -1005.66966137791940
 Total Coulomb Energy = 370.32308953927986
 Nuclear repulsion Energy =  84.48638294175147
    3    -595.3092443424      1.39e-04  
 HF Exchange   Energy = -44.44905934252417
 One-Electron  Energy = -1005.66966137791940
 Total Coulomb Energy = 370.32308953927986
 HF Exchange   Energy = -44.44895612265331
 One-Electron  Energy = -1005.67042764902169
 Total Coulomb Energy = 370.32375248658701
 Nuclear repulsion Energy =  84.48638294175147
    4    -595.3092482394      2.77e-05  
 HF Exchange   Energy = -44.44895612265331
 One-Electron  Energy = -1005.67042764902169
 Total Coulomb Energy = 370.32375248658701
 HF Exchange   Energy = -44.44895219702046
 One-Electron  Energy = -1005.67020252589396
 Total Coulomb Energy = 370.32352343290779
 Nuclear repulsion Energy =  84.48638294175147
    5    -595.3092483433      5.77e-06  
 HF Exchange   Energy = -44.44895219702046
 One-Electron  Energy = -1005.67020252589396
 Total Coulomb Energy = 370.32352343290779
 HF Exchange   Energy = -44.44894845809438
 One-Electron  Energy = -1005.67020527461750
 Total Coulomb Energy = 370.32352244253070
 Nuclear repulsion Energy =  84.48638294175147
    6    -595.3092483483      7.18e-07  
 HF Exchange   Energy = -44.44894845809438
 One-Electron  Energy = -1005.67020527461750
 Total Coulomb Energy = 370.32352244253070
 HF Exchange   Energy = -44.44894801938868
 One-Electron  Energy = -1005.67020223654958
 Total Coulomb Energy = 370.32351896566649
 Nuclear repulsion Energy =  84.48638294175147
    7    -595.3092483484      1.23e-07  
 HF Exchange   Energy = -44.44894801938868
 One-Electron  Energy = -1005.67020223654958
 Total Coulomb Energy = 370.32351896566649
 HF Exchange   Energy = -44.44894802067232
 One-Electron  Energy = -1005.67020248237873
 Total Coulomb Energy = 370.32351921275557
 Nuclear repulsion Energy =  84.48638294175147
    8    -595.3092483485      1.08e-08  
 HF Exchange   Energy = -44.44894802067232
 One-Electron  Energy = -1005.67020248237873
 Total Coulomb Energy = 370.32351921275557
    9    -595.3092483485      1.79e-09  Convergence criterion met
 ---------------------------------------
 HF Exchange   Energy = -44.44894802067232
 One-Electron  Energy = -1005.67020248237873
 Total Coulomb Energy = 370.32351921275557
 SCF time:   CPU 1.16s  wall 0.00s 
 HF Exchange   Energy = -44.44894802067232
 One-Electron  Energy = -1005.67020248237873
 Total Coulomb Energy = 370.32351921275557
 Nuclear repulsion Energy =  84.48638294175147
 SCF   energy in the final basis set =     -595.3092483485
 Total energy in the final basis set =     -595.3092483485

 --------------------------------------------------------------

                    Orbital Energies (a.u.)
 --------------------------------------------------------------

 Alpha MOs
 -- Occupied --
******** -25.1161 -11.0335 -10.2008  -7.6320  -7.6292  -7.6292  -0.9017
 -0.8621  -0.7110  -0.4112  -0.4112  -0.2893  -0.2228  -0.2228   0.0067
  0.0067   0.0479
 -- Virtual --
  0.4112   0.8557   0.8557   0.8846   1.2801   1.2801   1.2867   1.2867
  1.3385
 --------------------------------------------------------------

          Ground-State Mulliken Net Atomic Charges

     Atom                 Charge (a.u.)
  ----------------------------------------
      1 Cl                   -0.446474
      2 C                    -0.239057
      3 H                     0.163966
      4 H                     0.163969
      5 H                     0.163972
      6 F                    -0.806376
  ----------------------------------------
  Sum of atomic charges =    -1.000000

 -----------------------------------------------------------------
                    Cartesian Multipole Moments
 -----------------------------------------------------------------
    Charge (ESU x 10^10)
                    -4.80320440
    Dipole Moment (Debye)
         X           0.00025814      Y           0.00023150      Z           3.02470373
       Tot           3.02470375
    Quadrupole Moments (Debye-Ang)
        XX         -25.20224677     XY          -0.00015392     YY         -25.20241572
        XZ          -0.00006610     YZ          -0.00009381     ZZ         -54.36958497
    Octopole Moments (Debye-Ang^2)
       XXX           0.86008307    XXY           0.00059560    XYY          -0.85715436
       YYY           0.00178681    XXZ         -20.86726184    XYZ           0.00003886
       YYZ         -20.86716059    XZZ           0.00153562    YZZ           0.00134897
       ZZZ         -44.38996881
    Hexadecapole Moments (Debye-Ang^3)
      XXXX         -30.12131548   XXXY           0.00005332   XXYY         -10.04045742
      XYYY           0.00003815   YYYY         -30.12126770   XXXZ          -0.14721879
      XXYZ           0.00109803   XYYZ           0.15303837   YYYZ           0.00329407
      XXZZ         -97.23770131   XYZZ           0.00004694   YYZZ         -97.23768492
      XZZZ           0.00356005   YZZZ           0.00230971   ZZZZ        -658.25787869
 -----------------------------------------------------------------
 Mayer SCF Bond Order, atomic valence on the diagonal:

            1           2           3           4           5           6
    1   0.8336978   0.6933105   0.0104179   0.0104194   0.0104198   0.1091302
    2   0.6933105   3.8168967   0.9612955   0.9612927   0.9612911   0.2397069
    3   0.0104179   0.9612955   0.9731150   0.0004379   0.0004379   0.0005259
    4   0.0104194   0.9612927   0.0004379   0.9731141   0.0004384   0.0005258
    5   0.0104198   0.9612911   0.0004379   0.0004384   0.9731133   0.0005261
    6   0.1091302   0.2397069   0.0005259   0.0005258   0.0005261   0.3504148


 Calculating analytic gradient of the SCF energy
 ------------------------------------------------------
 Correction for Bais Set Incompleteness Error in  HF-3c
 ------------------------------------------------------
 Gradient of SCF Energy
            1           2           3           4           5           6
    1  -0.0000037  -0.0000208  -0.0000603  -0.0000771   0.0001470   0.0000149
    2  -0.0000025  -0.0000232  -0.0001229   0.0001228   0.0000108   0.0000149
    3  -0.0079935   0.0562061  -0.0068913  -0.0068947  -0.0068934  -0.0275332
 Max gradient component =       5.621E-02
 RMS gradient           =       1.514E-02
 Gradient time:  CPU 0.61 s  wall 0.18 s
 Geometry Optimization Parameters
   NAtoms,    NIC,     NZ,  NCons,   NDum,   NFix, NCnnct, MaxDiis
        6      63       0       0       0       0       0       0

 Cartesian Hessian Update
 Hessian updated using BFGS update
**WARNING** Hereditary positive definiteness endangered
 due to small product of step size times gradient change


** GEOMETRY OPTIMIZATION IN DELOCALIZED INTERNAL COORDINATES **
   Searching for a Minimum

   Optimization Cycle:   3

                       Coordinates (Angstroms)
     ATOM                X               Y               Z
      1  Cl       -0.0000597903   -0.0000489389    2.2040480134
      2  C         0.0000335742    0.0000365024    0.2135554598
      3  H        -0.5228923813   -0.9056974601   -0.0945346680
      4  H        -0.5229513571    0.9057598671   -0.0945687713
      5  H         1.0458977210   -0.0000198712   -0.0946101812
      6  F        -0.0000277665   -0.0000300992   -2.1338898528
   Point Group: c1    Number of degrees of freedom:    12


   Energy is   -595.309248349

 Hessian updated using BFGS update
**WARNING** Hereditary positive definiteness endangered
 due to small product of step size times gradient change

 11 Hessian modes will be used to form the next step
  Hessian Eigenvalues:
    -0.015112    0.030224    0.039640    0.070979    0.070979    0.086136
     0.137481    0.137481    0.304016    0.304016    0.325743
**WARNING** Hessian does not have the desired local structure
**WARNING** Hessian does not have the desired local structure

 Minimum search - taking simple RFO step
 Searching for Lamda that Minimizes Along All modes
 Value Taken    Lamda =  -0.03093352
 Calculated Step too Large.  Step scaled by  0.216157
 Step Taken.  Stepsize is  0.300000

                             Maximum     Tolerance    Cnvgd?
         Gradient           0.019981      0.000300      NO
         Displacement       0.211963      0.001200      NO
         Energy change     -0.006043      0.000001      NO


 New Cartesian Coordinates Obtained by Inverse Iteration

 Displacement from previous Coordinates is:  0.135165
 Adding empirical dispersion correction 
 ----------------------------------------------------------------
 Doing -D3(BJ) with
 s6 =   1.00000
 s8 =   0.87770
 a1 =   0.41710
 a2 =   2.91490
 -D3 energy without 3body term =     -0.0153455963 hartrees
 ----------------------------------------------------------------
 Adding gCP correction 
 ----------------------------------------------------------------
 gCP energy =      0.0326525183 hartrees
 ------------------------------------------------------
 Correction for Bais Set Incompleteness Error in  HF-3c
 ------------------------------------------------------
 SRB energy =     -0.0184541728 hartrees
 ----------------------------------------------------------------
             Standard Nuclear Orientation (Angstroms)
    I     Atom           X                Y                Z
 ----------------------------------------------------------------
    1      Cl     -0.0000679657    -0.0000611664     2.1823282298
    2      C       0.0000384853     0.0000416953     0.1755023251
    3      H      -0.5254906628    -0.9101941102    -0.0932143829
    4      H      -0.5255384996     0.9102681733    -0.0932305160
    5      H       1.0511045063    -0.0000043972    -0.0932610413
    6      F      -0.0000458636    -0.0000501949    -2.0781246149
 ----------------------------------------------------------------
 Nuclear Repulsion Energy =          85.35891279 hartrees
 There are       18 alpha and       18 beta electrons
 Applying Cartesian multipole field
    Component          Value
    ---------          -----
     (2,0,0)        1.00000E-10
     (0,2,0)        2.00000E-10
     (0,0,2)       -3.00000E-11
 Nucleus-field energy     =    -0.0000000111 hartrees
 Requested basis set is MINIX
 There are 15 shells and 27 basis functions
 A cutoff of  1.0D-11 yielded    110 shell pairs
 There are       370 function pairs (       402 Cartesian)
 Smallest overlap matrix eigenvalue = 2.39E-01
 Guess MOs from SCF MO coefficient file

 -----------------------------------------------------------------------
  General SCF calculation program by
  Eric Jon Sundstrom, Paul Horn, Yuezhi Mao, Dmitri Zuev, Alec White,
  David Stuck, Shaama M.S., Shane Yost, Joonho Lee, David Small,
  Daniel Levine, Susi Lehtola, Hugh Burton, Evgeny Epifanovsky,
  Bang C. Huynh
 -----------------------------------------------------------------------
 Hartree-Fock
 Dispersion:   Grimme D3
 using 4 threads for integral computing
 -------------------------------------------------------
 OpenMP Integral computing Module                
 Release: version 1.0, May 2013, Q-Chem Inc. Pittsburgh 
 -------------------------------------------------------
 HF Exchange   Energy = -44.45317211410632
 One-Electron  Energy = -1007.50614792346698
 Total Coulomb Energy = 371.28523952506782
 Nuclear repulsion Energy =  85.35891277527300
 A restricted SCF calculation will be
 performed using DIIS
 SCF converges when DIIS error is below 1.0e-08
 HF Exchange   Energy = -44.45317211410632
 One-Electron  Energy = -1007.50614792346698
 Total Coulomb Energy = 371.28523952506782
 ---------------------------------------
  Cycle       Energy         DIIS error
 ---------------------------------------
 HF Exchange   Energy = -44.44128964761524
 One-Electron  Energy = -1007.53367912446993
 Total Coulomb Energy = 371.29995131946220
 Nuclear repulsion Energy =  85.35891277527300
    1    -595.3151677372      2.10e-03  
 HF Exchange   Energy = -44.44128964761524
 One-Electron  Energy = -1007.53367912446993
 Total Coulomb Energy = 371.29995131946220
 HF Exchange   Energy = -44.44026178761705
 One-Electron  Energy = -1007.52859037520932
 Total Coulomb Energy = 371.29377863606186
 Nuclear repulsion Energy =  85.35891277527300
    2    -595.3161046773      4.91e-04  
 HF Exchange   Energy = -44.44026178761705
 One-Electron  Energy = -1007.52859037520932
 Total Coulomb Energy = 371.29377863606186
 HF Exchange   Energy = -44.43988917295525
 One-Electron  Energy = -1007.52951907171473
 Total Coulomb Energy = 371.29433240117669
 Nuclear repulsion Energy =  85.35891277527300
    3    -595.3161607515      9.72e-05  
 HF Exchange   Energy = -44.43988917295525
 One-Electron  Energy = -1007.52951907171473
 Total Coulomb Energy = 371.29433240117669
 HF Exchange   Energy = -44.43992637217924
 One-Electron  Energy = -1007.52892882892775
 Total Coulomb Energy = 371.29377932110793
 Nuclear repulsion Energy =  85.35891277527300
    4    -595.3161630682      1.62e-05  
 HF Exchange   Energy = -44.43992637217924
 One-Electron  Energy = -1007.52892882892775
 Total Coulomb Energy = 371.29377932110793
 HF Exchange   Energy = -44.43992135430947
 One-Electron  Energy = -1007.52903463606231
 Total Coulomb Energy = 371.29388010868900
 Nuclear repulsion Energy =  85.35891277527300
    5    -595.3161631047      3.58e-06  
 HF Exchange   Energy = -44.43992135430947
 One-Electron  Energy = -1007.52903463606231
 Total Coulomb Energy = 371.29388010868900
 HF Exchange   Energy = -44.43992109326733
 One-Electron  Energy = -1007.52904105911364
 Total Coulomb Energy = 371.29388627068130
 Nuclear repulsion Energy =  85.35891277527300
    6    -595.3161631064      4.35e-07  
 HF Exchange   Energy = -44.43992109326733
 One-Electron  Energy = -1007.52904105911364
 Total Coulomb Energy = 371.29388627068130
 HF Exchange   Energy = -44.43992119952367
 One-Electron  Energy = -1007.52904466759560
 Total Coulomb Energy = 371.29388998540560
 Nuclear repulsion Energy =  85.35891277527300
    7    -595.3161631064      1.09e-07  
 HF Exchange   Energy = -44.43992119952367
 One-Electron  Energy = -1007.52904466759560
 Total Coulomb Energy = 371.29388998540560
    8    -595.3161631064      8.25e-09  Convergence criterion met
 ---------------------------------------
 HF Exchange   Energy = -44.43992119952367
 One-Electron  Energy = -1007.52904466759560
 Total Coulomb Energy = 371.29388998540560
 SCF time:   CPU 1.02s  wall 0.00s 
 HF Exchange   Energy = -44.43992119952367
 One-Electron  Energy = -1007.52904466759560
 Total Coulomb Energy = 371.29388998540560
 Nuclear repulsion Energy =  85.35891277527300
 SCF   energy in the final basis set =     -595.3161631064
 Total energy in the final basis set =     -595.3161631064

 --------------------------------------------------------------

                    Orbital Energies (a.u.)
 --------------------------------------------------------------

 Alpha MOs
 -- Occupied --
******** -25.1563 -11.0311 -10.1773  -7.6082  -7.6056  -7.6056  -0.9266
 -0.8495  -0.7048  -0.4119  -0.4119  -0.2749  -0.2097  -0.2097  -0.0176
 -0.0176   0.0300
 -- Virtual --
  0.4208   0.8733   0.8733   0.8787   1.2953   1.2953   1.3006   1.3006
  1.3514
 --------------------------------------------------------------

          Ground-State Mulliken Net Atomic Charges

     Atom                 Charge (a.u.)
  ----------------------------------------
      1 Cl                   -0.481542
      2 C                    -0.228295
      3 H                     0.160881
      4 H                     0.160878
      5 H                     0.160879
      6 F                    -0.772801
  ----------------------------------------
  Sum of atomic charges =    -1.000000

 -----------------------------------------------------------------
                    Cartesian Multipole Moments
 -----------------------------------------------------------------
    Charge (ESU x 10^10)
                    -4.80320440
    Dipole Moment (Debye)
         X           0.00035175      Y           0.00034297      Z           2.16815744
       Tot           2.16815749
    Quadrupole Moments (Debye-Ang)
        XX         -25.21943019     XY          -0.00011653     YY         -25.21958413
        XZ          -0.00010354     YZ          -0.00013673     ZZ         -53.54538831
    Octopole Moments (Debye-Ang^2)
       XXX           0.86476892    XXY           0.00080662    XYY          -0.86121098
       YYY           0.00241986    XXZ         -20.70456684    XYZ           0.00002382
       YYZ         -20.70449410    XZZ           0.00205303    YZZ           0.00197390
       ZZZ         -49.98069983
    Hexadecapole Moments (Debye-Ang^3)
      XXXX         -30.19359182   XXXY           0.00005904   XXYY         -10.06456047
      XYYY           0.00001611   YYYY         -30.19353002   XXXZ          -0.13144127
      XXYZ           0.00126008   XYYZ           0.13749099   YYYZ           0.00378025
      XXZZ         -94.91626034   XYZZ           0.00004107   YYZZ         -94.91622837
      XZZZ           0.00352163   YZZZ           0.00254076   ZZZZ        -637.68579353
 -----------------------------------------------------------------
 Mayer SCF Bond Order, atomic valence on the diagonal:

            1           2           3           4           5           6
    1   0.7985339   0.6501833   0.0103135   0.0103145   0.0103149   0.1174076
    2   0.6501833   3.8225512   0.9625204   0.9625202   0.9625195   0.2848077
    3   0.0103135   0.9625204   0.9741174   0.0004450   0.0004451   0.0003934
    4   0.0103145   0.9625202   0.0004450   0.9741182   0.0004455   0.0003929
    5   0.0103149   0.9625195   0.0004451   0.0004455   0.9741179   0.0003928
    6   0.1174076   0.2848077   0.0003934   0.0003929   0.0003928   0.4033944


 Calculating analytic gradient of the SCF energy
 ------------------------------------------------------
 Correction for Bais Set Incompleteness Error in  HF-3c
 ------------------------------------------------------
 Gradient of SCF Energy
            1           2           3           4           5           6
    1  -0.0000032  -0.0000140   0.0015062   0.0014947  -0.0029968   0.0000131
    2  -0.0000024  -0.0000129   0.0025939  -0.0026016   0.0000102   0.0000128
    3  -0.0165091   0.0632137  -0.0055958  -0.0055964  -0.0055943  -0.0299180
 Max gradient component =       6.321E-02
 RMS gradient           =       1.713E-02
 Gradient time:  CPU 0.60 s  wall 0.18 s
 Geometry Optimization Parameters
   NAtoms,    NIC,     NZ,  NCons,   NDum,   NFix, NCnnct, MaxDiis
        6      63       0       0       0       0       0       0

 Cartesian Hessian Update
 Hessian updated using BFGS update
**WARNING** Hereditary positive definiteness endangered
 due to small product of step size times gradient change


** GEOMETRY OPTIMIZATION IN DELOCALIZED INTERNAL COORDINATES **
   Searching for a Minimum

   Optimization Cycle:   4

                       Coordinates (Angstroms)
     ATOM                X               Y               Z
      1  Cl       -0.0000679657   -0.0000611664    2.1823282298
      2  C         0.0000384853    0.0000416953    0.1755023251
      3  H        -0.5254906628   -0.9101941102   -0.0932143829
      4  H        -0.5255384996    0.9102681733   -0.0932305160
      5  H         1.0511045063   -0.0000043972   -0.0932610413
      6  F        -0.0000458636   -0.0000501949   -2.0781246149
   Point Group: c1    Number of degrees of freedom:    12


   Energy is   -595.316163106

 Hessian updated using BFGS update
**WARNING** Hereditary positive definiteness endangered
 due to small product of step size times gradient change

 12 Hessian modes will be used to form the next step
  Hessian Eigenvalues:
    -0.154060    0.002393    0.030224    0.030224    0.048650    0.070979
     0.070979    0.137481    0.137481    0.300760    0.304016    0.304016
**WARNING** Hessian does not have the desired local structure
**WARNING** Hessian does not have the desired local structure

 Minimum search - taking simple RFO step
 Searching for Lamda that Minimizes Along All modes
 Value Taken    Lamda =  -0.15625313
 Calculated Step too Large.  Step scaled by  0.035848
 Step Taken.  Stepsize is  0.300000

                             Maximum     Tolerance    Cnvgd?
         Gradient           0.021947      0.000300      NO
         Displacement       0.275460      0.001200      NO
         Energy change     -0.006915      0.000001      NO


 New Cartesian Coordinates Obtained by Inverse Iteration

 Displacement from previous Coordinates is:  0.272947
 Adding empirical dispersion correction 
 ----------------------------------------------------------------
 Doing -D3(BJ) with
 s6 =   1.00000
 s8 =   0.87770
 a1 =   0.41710
 a2 =   2.91490
 -D3 energy without 3body term =     -0.0145800456 hartrees
 ----------------------------------------------------------------
 Adding gCP correction 
 ----------------------------------------------------------------
 gCP energy =      0.0292742646 hartrees
 ------------------------------------------------------
 Correction for Bais Set Incompleteness Error in  HF-3c
 ------------------------------------------------------
 SRB energy =     -0.0156627320 hartrees
 ----------------------------------------------------------------
             Standard Nuclear Orientation (Angstroms)
    I     Atom           X                Y                Z
 ----------------------------------------------------------------
    1      Cl     -0.0001007558    -0.0000868596     2.3046961928
    2      C       0.0000448715     0.0000418228     0.1544787069
    3      H      -0.5389547183    -0.9335452526    -0.1261139210
    4      H      -0.5390463359     0.9336657571    -0.1261696516
    5      H       1.0781099852    -0.0000190902    -0.1262263189
    6      F      -0.0000530467    -0.0000563774    -2.0806650082
 ----------------------------------------------------------------
 Nuclear Repulsion Energy =          82.29943567 hartrees
 There are       18 alpha and       18 beta electrons
 Applying Cartesian multipole field
    Component          Value
    ---------          -----
     (2,0,0)        1.00000E-10
     (0,2,0)        2.00000E-10
     (0,0,2)       -3.00000E-11
 Nucleus-field energy     =    -0.0000000120 hartrees
 Requested basis set is MINIX
 There are 15 shells and 27 basis functions
 A cutoff of  1.0D-11 yielded    110 shell pairs
 There are       370 function pairs (       402 Cartesian)
 Smallest overlap matrix eigenvalue = 2.57E-01
 Guess MOs from SCF MO coefficient file

 -----------------------------------------------------------------------
  General SCF calculation program by
  Eric Jon Sundstrom, Paul Horn, Yuezhi Mao, Dmitri Zuev, Alec White,
  David Stuck, Shaama M.S., Shane Yost, Joonho Lee, David Small,
  Daniel Levine, Susi Lehtola, Hugh Burton, Evgeny Epifanovsky,
  Bang C. Huynh
 -----------------------------------------------------------------------
 Hartree-Fock
 Dispersion:   Grimme D3
 using 4 threads for integral computing
 -------------------------------------------------------
 OpenMP Integral computing Module                
 Release: version 1.0, May 2013, Q-Chem Inc. Pittsburgh 
 -------------------------------------------------------
 HF Exchange   Energy = -44.37962762586540
 One-Electron  Energy = -1001.53043187761500
 Total Coulomb Energy = 368.29648680939056
 Nuclear repulsion Energy =  82.29943565518023
 A restricted SCF calculation will be
 performed using DIIS
 SCF converges when DIIS error is below 1.0e-08
 HF Exchange   Energy = -44.37962762586540
 One-Electron  Energy = -1001.53043187761500
 Total Coulomb Energy = 368.29648680939056
 ---------------------------------------
  Cycle       Energy         DIIS error
 ---------------------------------------
 HF Exchange   Energy = -44.37094356028182
 One-Electron  Energy = -1001.60598186503819
 Total Coulomb Energy = 368.36115351046101
 Nuclear repulsion Energy =  82.29943565518023
    1    -595.3141370389      5.84e-03  
 HF Exchange   Energy = -44.37094356028182
 One-Electron  Energy = -1001.60598186503819
 Total Coulomb Energy = 368.36115351046101
 HF Exchange   Energy = -44.37118002989084
 One-Electron  Energy = -1001.63175563232414
 Total Coulomb Energy = 368.38707875931948
 Nuclear repulsion Energy =  82.29943565518023
    2    -595.3163362597      7.35e-04  
 HF Exchange   Energy = -44.37118002989084
 One-Electron  Energy = -1001.63175563232414
 Total Coulomb Energy = 368.38707875931948
 HF Exchange   Energy = -44.37183058047680
 One-Electron  Energy = -1001.63247039188479
 Total Coulomb Energy = 368.38843749951297
 Nuclear repulsion Energy =  82.29943565518023
    3    -595.3164212477      1.98e-04  
 HF Exchange   Energy = -44.37183058047680
 One-Electron  Energy = -1001.63247039188479
 Total Coulomb Energy = 368.38843749951297
 HF Exchange   Energy = -44.37168230041961
 One-Electron  Energy = -1001.63547081649369
 Total Coulomb Energy = 368.39128903908164
 Nuclear repulsion Energy =  82.29943565518023
    4    -595.3164278177      6.71e-05  
 HF Exchange   Energy = -44.37168230041961
 One-Electron  Energy = -1001.63547081649369
 Total Coulomb Energy = 368.39128903908164
 HF Exchange   Energy = -44.37172524968772
 One-Electron  Energy = -1001.63541044072360
 Total Coulomb Energy = 368.39127159658841
 Nuclear repulsion Energy =  82.29943565518023
    5    -595.3164284227      9.41e-06  
 HF Exchange   Energy = -44.37172524968772
 One-Electron  Energy = -1001.63541044072360
 Total Coulomb Energy = 368.39127159658841
 HF Exchange   Energy = -44.37172200126447
 One-Electron  Energy = -1001.63545818703858
 Total Coulomb Energy = 368.39131609380905
 Nuclear repulsion Energy =  82.29943565518023
    6    -595.3164284386      1.91e-06  
 HF Exchange   Energy = -44.37172200126447
 One-Electron  Energy = -1001.63545818703858
 Total Coulomb Energy = 368.39131609380905
 HF Exchange   Energy = -44.37172210155114
 One-Electron  Energy = -1001.63546009069807
 Total Coulomb Energy = 368.39131809779042
 Nuclear repulsion Energy =  82.29943565518023
    7    -595.3164284393      2.47e-07  
 HF Exchange   Energy = -44.37172210155114
 One-Electron  Energy = -1001.63546009069807
 Total Coulomb Energy = 368.39131809779042
 HF Exchange   Energy = -44.37172225310510
 One-Electron  Energy = -1001.63546172044039
 Total Coulomb Energy = 368.39131987902852
 Nuclear repulsion Energy =  82.29943565518023
    8    -595.3164284393      3.14e-08  
 HF Exchange   Energy = -44.37172225310510
 One-Electron  Energy = -1001.63546172044039
 Total Coulomb Energy = 368.39131987902852
    9    -595.3164284393      5.13e-09  Convergence criterion met
 ---------------------------------------
 HF Exchange   Energy = -44.37172225310510
 One-Electron  Energy = -1001.63546172044039
 Total Coulomb Energy = 368.39131987902852
 SCF time:   CPU 1.13s  wall 0.00s 
 HF Exchange   Energy = -44.37172225310510
 One-Electron  Energy = -1001.63546172044039
 Total Coulomb Energy = 368.39131987902852
 Nuclear repulsion Energy =  82.29943565518023
 SCF   energy in the final basis set =     -595.3164284393
 Total energy in the final basis set =     -595.3164284393

 --------------------------------------------------------------

                    Orbital Energies (a.u.)
 --------------------------------------------------------------

 Alpha MOs
 -- Occupied --
******** -25.2224 -11.0333 -10.1395  -7.5696  -7.5675  -7.5675  -0.9668
 -0.8096  -0.7012  -0.3999  -0.3999  -0.2434  -0.1895  -0.1895  -0.0594
 -0.0594   0.0002
 -- Virtual --
  0.3827   0.8342   0.8413   0.8414   1.3208   1.3208   1.3227   1.3227
  1.3526
 --------------------------------------------------------------

          Ground-State Mulliken Net Atomic Charges

     Atom                 Charge (a.u.)
  ----------------------------------------
      1 Cl                   -0.558928
      2 C                    -0.200940
      3 H                     0.160291
      4 H                     0.160296
      5 H                     0.160297
      6 F                    -0.721016
  ----------------------------------------
  Sum of atomic charges =    -1.000000

 -----------------------------------------------------------------
                    Cartesian Multipole Moments
 -----------------------------------------------------------------
    Charge (ESU x 10^10)
                    -4.80320440
    Dipole Moment (Debye)
         X           0.00050773      Y           0.00049124      Z           0.55389814
       Tot           0.55389859
    Quadrupole Moments (Debye-Ang)
        XX         -25.21749699     XY          -0.00024099     YY         -25.21768532
        XZ           0.00007182     YZ           0.00000996     ZZ         -55.46758242
    Octopole Moments (Debye-Ang^2)
       XXX           0.95374862    XXY           0.00123010    XYY          -0.94838909
       YYY           0.00369033    XXZ         -22.48454256    XYZ           0.00007407
       YYZ         -22.48439039    XZZ           0.00314425    YZZ           0.00288789
       ZZZ         -65.56105568
    Hexadecapole Moments (Debye-Ang^3)
      XXXX         -30.49240302   XXXY           0.00010656   XXYY         -10.16422027
      XYYY          -0.00001660   YYYY         -30.49241638   XXXZ          -0.19434520
      XXYZ           0.00212021   XYYZ           0.20474729   YYYZ           0.00636062
      XXZZ        -102.74470774   XYZZ           0.00007842   YYZZ        -102.74469857
      XZZZ           0.00800409   YZZZ           0.00625784   ZZZZ        -701.15344247
 -----------------------------------------------------------------
 Mayer SCF Bond Order, atomic valence on the diagonal:

            1           2           3           4           5           6
    1   0.7068030   0.5563977   0.0095548   0.0095570   0.0095568   0.1217366
    2   0.5563977   3.8009157   0.9621289   0.9621243   0.9621239   0.3581409
    3   0.0095548   0.9621289   0.9743067   0.0011376   0.0011377   0.0003476
    4   0.0095570   0.9621243   0.0011376   0.9743051   0.0011388   0.0003474
    5   0.0095568   0.9621239   0.0011377   0.0011388   0.9743050   0.0003478
    6   0.1217366   0.3581409   0.0003476   0.0003474   0.0003478   0.4809203


 Calculating analytic gradient of the SCF energy
 ------------------------------------------------------
 Correction for Bais Set Incompleteness Error in  HF-3c
 ------------------------------------------------------
 Gradient of SCF Energy
            1           2           3           4           5           6
    1  -0.0000061  -0.0001396  -0.0088427  -0.0088813   0.0178225   0.0000472
    2  -0.0000044  -0.0001656  -0.0153647   0.0154433   0.0000444   0.0000471
    3   0.0078285   0.0817178  -0.0173659  -0.0173811  -0.0173813  -0.0374181
 Max gradient component =       8.172E-02
 RMS gradient           =       2.356E-02
 Gradient time:  CPU 0.62 s  wall 0.18 s
 Geometry Optimization Parameters
   NAtoms,    NIC,     NZ,  NCons,   NDum,   NFix, NCnnct, MaxDiis
        6      63       0       0       0       0       0       0

 Cartesian Hessian Update
 Hessian updated using BFGS update


** GEOMETRY OPTIMIZATION IN DELOCALIZED INTERNAL COORDINATES **
   Searching for a Minimum

   Optimization Cycle:   5

                       Coordinates (Angstroms)
     ATOM                X               Y               Z
      1  Cl       -0.0001007558   -0.0000868596    2.3046961928
      2  C         0.0000448715    0.0000418228    0.1544787069
      3  H        -0.5389547183   -0.9335452526   -0.1261139210
      4  H        -0.5390463359    0.9336657571   -0.1261696516
      5  H         1.0781099852   -0.0000190902   -0.1262263189
      6  F        -0.0000530467   -0.0000563774   -2.0806650082
   Point Group: c1    Number of degrees of freedom:    12


   Energy is   -595.316428439

 Hessian updated using BFGS update

 12 Hessian modes will be used to form the next step
  Hessian Eigenvalues:
     0.001906    0.030224    0.030224    0.048471    0.070979    0.070979
     0.112554    0.137481    0.137482    0.304016    0.304016    0.385780

 Minimum search - taking simple RFO step
 Searching for Lamda that Minimizes Along All modes
 Value Taken    Lamda =  -0.02850657
 Calculated Step too Large.  Step scaled by  0.342256
 Step Taken.  Stepsize is  0.300000

                             Maximum     Tolerance    Cnvgd?
         Gradient           0.029908      0.000300      NO
         Displacement       0.234173      0.001200      NO
         Energy change     -0.000265      0.000001      NO


 New Cartesian Coordinates Obtained by Inverse Iteration

 Displacement from previous Coordinates is:  0.127445
 Adding empirical dispersion correction 
 ----------------------------------------------------------------
 Doing -D3(BJ) with
 s6 =   1.00000
 s8 =   0.87770
 a1 =   0.41710
 a2 =   2.91490
 -D3 energy without 3body term =     -0.0147702036 hartrees
 ----------------------------------------------------------------
 Adding gCP correction 
 ----------------------------------------------------------------
 gCP energy =      0.0301118312 hartrees
 ------------------------------------------------------
 Correction for Bais Set Incompleteness Error in  HF-3c
 ------------------------------------------------------
 SRB energy =     -0.0163270705 hartrees
 ----------------------------------------------------------------
             Standard Nuclear Orientation (Angstroms)
    I     Atom           X                Y                Z
 ----------------------------------------------------------------
    1      Cl     -0.0001106196    -0.0001008276     2.2897324505
    2      C       0.0000557466     0.0000527502     0.1129470048
    3      H      -0.5418324830    -0.9385232748    -0.1239124075
    4      H      -0.5419197915     0.9386572779    -0.1239544267
    5      H       1.0838796594    -0.0000086105    -0.1239999486
    6      F      -0.0000725119    -0.0000773152    -2.0308126726
 ----------------------------------------------------------------
 Nuclear Repulsion Energy =          83.01005631 hartrees
 There are       18 alpha and       18 beta electrons
 Applying Cartesian multipole field
    Component          Value
    ---------          -----
     (2,0,0)        1.00000E-10
     (0,2,0)        2.00000E-10
     (0,0,2)       -3.00000E-11
 Nucleus-field energy     =    -0.0000000117 hartrees
 Requested basis set is MINIX
 There are 15 shells and 27 basis functions
 A cutoff of  1.0D-11 yielded    110 shell pairs
 There are       370 function pairs (       402 Cartesian)
 Smallest overlap matrix eigenvalue = 2.57E-01
 Guess MOs from SCF MO coefficient file

 -----------------------------------------------------------------------
  General SCF calculation program by
  Eric Jon Sundstrom, Paul Horn, Yuezhi Mao, Dmitri Zuev, Alec White,
  David Stuck, Shaama M.S., Shane Yost, Joonho Lee, David Small,
  Daniel Levine, Susi Lehtola, Hugh Burton, Evgeny Epifanovsky,
  Bang C. Huynh
 -----------------------------------------------------------------------
 Hartree-Fock
 Dispersion:   Grimme D3
 using 4 threads for integral computing
 -------------------------------------------------------
 OpenMP Integral computing Module                
 Release: version 1.0, May 2013, Q-Chem Inc. Pittsburgh 
 -------------------------------------------------------
 HF Exchange   Energy = -44.37535066039682
 One-Electron  Energy = -1003.12906383150494
 Total Coulomb Energy = 369.16875474568224
 Nuclear repulsion Energy =  83.01005629385777
 A restricted SCF calculation will be
 performed using DIIS
 SCF converges when DIIS error is below 1.0e-08
 HF Exchange   Energy = -44.37535066039682
 One-Electron  Energy = -1003.12906383150494
 Total Coulomb Energy = 369.16875474568224
 ---------------------------------------
  Cycle       Energy         DIIS error
 ---------------------------------------
 HF Exchange   Energy = -44.36431730140276
 One-Electron  Energy = -1003.15643549261245
 Total Coulomb Energy = 369.18390834628053
 Nuclear repulsion Energy =  83.01005629385777
    1    -595.3256034524      2.40e-03  
 HF Exchange   Energy = -44.36431730140276
 One-Electron  Energy = -1003.15643549261245
 Total Coulomb Energy = 369.18390834628053
 HF Exchange   Energy = -44.36499587028245
 One-Electron  Energy = -1003.15631899899313
 Total Coulomb Energy = 369.18439401432067
 Nuclear repulsion Energy =  83.01005629385777
    2    -595.3267881539      5.60e-04  
 HF Exchange   Energy = -44.36499587028245
 One-Electron  Energy = -1003.15631899899313
 Total Coulomb Energy = 369.18439401432067
 HF Exchange   Energy = -44.36465968877604
 One-Electron  Energy = -1003.16052945475462
 Total Coulomb Energy = 369.18826455633456
 Nuclear repulsion Energy =  83.01005629385777
    3    -595.3268645611      1.30e-04  
 HF Exchange   Energy = -44.36465968877604
 One-Electron  Energy = -1003.16052945475462
 Total Coulomb Energy = 369.18826455633456
 HF Exchange   Energy = -44.36481339838042
 One-Electron  Energy = -1003.15970158157495
 Total Coulomb Energy = 369.18759021775656
 Nuclear repulsion Energy =  83.01005629385777
    4    -595.3268682933      3.37e-05  
 HF Exchange   Energy = -44.36481339838042
 One-Electron  Energy = -1003.15970158157495
 Total Coulomb Energy = 369.18759021775656
 HF Exchange   Energy = -44.36481989644123
 One-Electron  Energy = -1003.15991166991489
 Total Coulomb Energy = 369.18780680013072
 Nuclear repulsion Energy =  83.01005629385777
    5    -595.3268684683      5.24e-06  
 HF Exchange   Energy = -44.36481989644123
 One-Electron  Energy = -1003.15991166991489
 Total Coulomb Energy = 369.18780680013072
 HF Exchange   Energy = -44.36482236889785
 One-Electron  Energy = -1003.15995171201973
 Total Coulomb Energy = 369.18784931460044
 Nuclear repulsion Energy =  83.01005629385777
    6    -595.3268684724      8.91e-07  
 HF Exchange   Energy = -44.36482236889785
 One-Electron  Energy = -1003.15995171201973
 Total Coulomb Energy = 369.18784931460044
 HF Exchange   Energy = -44.36482326634564
 One-Electron  Energy = -1003.15996408713556
 Total Coulomb Energy = 369.18786258718598
 Nuclear repulsion Energy =  83.01005629385777
    7    -595.3268684725      1.87e-07  
 HF Exchange   Energy = -44.36482326634564
 One-Electron  Energy = -1003.15996408713556
 Total Coulomb Energy = 369.18786258718598
 HF Exchange   Energy = -44.36482338552674
 One-Electron  Energy = -1003.15996511524520
 Total Coulomb Energy = 369.18786373462626
 Nuclear repulsion Energy =  83.01005629385777
    8    -595.3268684724      1.38e-08  
 HF Exchange   Energy = -44.36482338552674
 One-Electron  Energy = -1003.15996511524520
 Total Coulomb Energy = 369.18786373462626
    9    -595.3268684723      2.66e-09  Convergence criterion met
 ---------------------------------------
 HF Exchange   Energy = -44.36482338552674
 One-Electron  Energy = -1003.15996511524520
 Total Coulomb Energy = 369.18786373462626
 SCF time:   CPU 1.17s  wall 0.00s 
 HF Exchange   Energy = -44.36482338552674
 One-Electron  Energy = -1003.15996511524520
 Total Coulomb Energy = 369.18786373462626
 Nuclear repulsion Energy =  83.01005629385777
 SCF   energy in the final basis set =     -595.3268684723
 Total energy in the final basis set =     -595.3268684723

 --------------------------------------------------------------

                    Orbital Energies (a.u.)
 --------------------------------------------------------------

 Alpha MOs
 -- Occupied --
******** -25.2681 -11.0337 -10.1132  -7.5430  -7.5411  -7.5411  -0.9961
 -0.7959  -0.6958  -0.4029  -0.4029  -0.2310  -0.1744  -0.1744  -0.0869
 -0.0869  -0.0195
 -- Virtual --
  0.3934   0.8266   0.8550   0.8550   1.3373   1.3373   1.3397   1.3397
  1.3672
 --------------------------------------------------------------

          Ground-State Mulliken Net Atomic Charges

     Atom                 Charge (a.u.)
  ----------------------------------------
      1 Cl                   -0.601295
      2 C                    -0.189192
      3 H                     0.158211
      4 H                     0.158211
      5 H                     0.158209
      6 F                    -0.684145
  ----------------------------------------
  Sum of atomic charges =    -1.000000

 -----------------------------------------------------------------
                    Cartesian Multipole Moments
 -----------------------------------------------------------------
    Charge (ESU x 10^10)
                    -4.80320440
    Dipole Moment (Debye)
         X           0.00060885      Y           0.00060949      Z          -0.38344911
       Tot           0.38345008
    Quadrupole Moments (Debye-Ang)
        XX         -25.23178419     XY          -0.00022079     YY         -25.23198776
        XZ           0.00010859     YZ           0.00005011     ZZ         -55.07268770
    Octopole Moments (Debye-Ang^2)
       XXX           0.96400328    XXY           0.00143926    XYY          -0.95802649
       YYY           0.00431780    XXZ         -22.38778513    XYZ           0.00006072
       YYZ         -22.38765725    XZZ           0.00371190    YZZ           0.00356099
       ZZZ         -71.41204893
    Hexadecapole Moments (Debye-Ang^3)
      XXXX         -30.56630193   XXXY           0.00011496   XXYY         -10.18885106
      XYYY          -0.00002571   YYYY         -30.56627186   XXXZ          -0.17769700
      XXYZ           0.00236705   XYYZ           0.18861411   YYYZ           0.00710112
      XXZZ        -100.99338301   XYZZ           0.00008050   YYZZ        -100.99334236
      XZZZ           0.00863256   YZZZ           0.00725048   ZZZZ        -688.19133977
 -----------------------------------------------------------------
 Mayer SCF Bond Order, atomic valence on the diagonal:

            1           2           3           4           5           6
    1   0.6549726   0.5051673   0.0093958   0.0093974   0.0093972   0.1216150
    2   0.5051673   3.8049243   0.9631044   0.9631023   0.9631029   0.4104473
    3   0.0093958   0.9631044   0.9749692   0.0011556   0.0011558   0.0001577
    4   0.0093974   0.9631023   0.0011556   0.9749693   0.0011568   0.0001572
    5   0.0093972   0.9631029   0.0011558   0.0011568   0.9749698   0.0001571
    6   0.1216150   0.4104473   0.0001577   0.0001572   0.0001571   0.5325342


 Calculating analytic gradient of the SCF energy
 ------------------------------------------------------
 Correction for Bais Set Incompleteness Error in  HF-3c
 ------------------------------------------------------
 Gradient of SCF Energy
            1           2           3           4           5           6
    1  -0.0000062  -0.0001192  -0.0077562  -0.0077906   0.0156284   0.0000438
    2  -0.0000049  -0.0001444  -0.0134762   0.0135424   0.0000397   0.0000434
    3   0.0007778   0.0903353  -0.0168998  -0.0169101  -0.0169094  -0.0403938
 Max gradient component =       9.034E-02
 RMS gradient           =       2.514E-02
 Gradient time:  CPU 0.62 s  wall 0.19 s
 Geometry Optimization Parameters
   NAtoms,    NIC,     NZ,  NCons,   NDum,   NFix, NCnnct, MaxDiis
        6      63       0       0       0       0       0       0

 Cartesian Hessian Update
 Hessian updated using BFGS update
**WARNING** Hereditary positive definiteness endangered
 due to small product of step size times gradient change


** GEOMETRY OPTIMIZATION IN DELOCALIZED INTERNAL COORDINATES **
   Searching for a Minimum

   Optimization Cycle:   6

                       Coordinates (Angstroms)
     ATOM                X               Y               Z
      1  Cl       -0.0001106196   -0.0001008276    2.2897324505
      2  C         0.0000557466    0.0000527502    0.1129470048
      3  H        -0.5418324830   -0.9385232748   -0.1239124075
      4  H        -0.5419197915    0.9386572779   -0.1239544267
      5  H         1.0838796594   -0.0000086105   -0.1239999486
      6  F        -0.0000725119   -0.0000773152   -2.0308126726
   Point Group: c1    Number of degrees of freedom:    12


   Energy is   -595.326868472

 Hessian updated using BFGS update
**WARNING** Hereditary positive definiteness endangered
 due to small product of step size times gradient change

 12 Hessian modes will be used to form the next step
  Hessian Eigenvalues:
    -0.051041    0.007538    0.030224    0.030224    0.047664    0.070979
     0.070979    0.137481    0.137481    0.252623    0.304016    0.304016
**WARNING** Hessian does not have the desired local structure
**WARNING** Hessian does not have the desired local structure

 Minimum search - taking simple RFO step
 Searching for Lamda that Minimizes Along All modes
 Value Taken    Lamda =  -0.05137231
 Calculated Step too Large.  Step scaled by  0.036644
 Step Taken.  Stepsize is  0.300000

                             Maximum     Tolerance    Cnvgd?
         Gradient           0.032866      0.000300      NO
         Displacement       0.209935      0.001200      NO
         Energy change     -0.010440      0.000001      NO


 New Cartesian Coordinates Obtained by Inverse Iteration

 Displacement from previous Coordinates is:  0.224488
 Adding empirical dispersion correction 
 ----------------------------------------------------------------
 Doing -D3(BJ) with
 s6 =   1.00000
 s8 =   0.87770
 a1 =   0.41710
 a2 =   2.91490
 -D3 energy without 3body term =     -0.0144171482 hartrees
 ----------------------------------------------------------------
 Adding gCP correction 
 ----------------------------------------------------------------
 gCP energy =      0.0280686634 hartrees
 ------------------------------------------------------
 Correction for Bais Set Incompleteness Error in  HF-3c
 ------------------------------------------------------
[...]
         X           0.00726741      Y           0.00657364      Z         -11.56397534
       Tot          11.56397949
    Quadrupole Moments (Debye-Ang)
        XX         -25.76579209     XY          -0.00027312     YY         -25.76614341
        XZ           0.01347387     YZ           0.01217929     ZZ         -72.13373329
    Octopole Moments (Debye-Ang^2)
       XXX           0.74907461    XXY           0.01610943    XYY          -0.67737346
       YYY           0.04832845    XXZ         -28.94431777    XYZ           0.00048617
       YYZ         -28.94318294    XZZ           0.07172298    YZZ           0.06471286
       ZZZ        -193.10438294
    Hexadecapole Moments (Debye-Ang^3)
      XXXX         -30.93417376   XXXY           0.00068163   XXYY         -10.31252075
      XYYY          -0.00078009   YYYY         -30.93427187   XXXZ           0.15808442
      XXYZ           0.03958431   XYYZ           0.01706076   YYYZ           0.11875270
      XXZZ        -146.93751283   XYZZ           0.00018968   YYZZ        -146.93699653
      XZZZ           0.26315724   YZZZ           0.23778376   ZZZZ       -1211.06921962
 -----------------------------------------------------------------
 Mayer SCF Bond Order, atomic valence on the diagonal:

            1           2           3           4           5           6
    1   0.0061553   0.0039174   0.0002036   0.0002000   0.0001982   0.0016361
    2   0.0039174   3.7465588   0.9565203   0.9565445   0.9565591   0.8730176
    3   0.0002036   0.9565203   0.9768168   0.0005693   0.0005704   0.0189532
    4   0.0002000   0.9565445   0.0005693   0.9768489   0.0005738   0.0189615
    5   0.0001982   0.9565591   0.0005704   0.0005738   0.9768653   0.0189638
    6   0.0016361   0.8730176   0.0189532   0.0189615   0.0189638   0.9315321


 Calculating analytic gradient of the SCF energy
 ------------------------------------------------------
 Correction for Bais Set Incompleteness Error in  HF-3c
 ------------------------------------------------------
 Gradient of SCF Energy
            1           2           3           4           5           6
    1  -0.0000018   0.0000748   0.0000920   0.0000662  -0.0002151  -0.0000160
    2  -0.0000017   0.0000760   0.0001592  -0.0002007  -0.0000146  -0.0000182
    3  -0.0000133   0.0000065  -0.0001036  -0.0000719  -0.0000614   0.0002437
 Max gradient component =       2.437E-04
 RMS gradient           =       1.096E-04
 Gradient time:  CPU 0.62 s  wall 0.18 s
 Geometry Optimization Parameters
   NAtoms,    NIC,     NZ,  NCons,   NDum,   NFix, NCnnct, MaxDiis
        6      63       0       0       0       0       0       0

 Cartesian Hessian Update
 Hessian updated using BFGS update


** GEOMETRY OPTIMIZATION IN DELOCALIZED INTERNAL COORDINATES **
   Searching for a Minimum

   Optimization Cycle:  26

                       Coordinates (Angstroms)
     ATOM                X               Y               Z
      1  Cl       -0.0012069772   -0.0010903153    2.9055412722
      2  C         0.0003806160    0.0003635053   -0.5400461630
      3  H        -0.5135500832   -0.8899234575   -0.1468137988
      4  H        -0.5137354540    0.8910558192   -0.1480043533
      5  H         1.0290083824    0.0004057031   -0.1485868427
      6  F        -0.0008964841   -0.0008112548   -1.9220901145
   Point Group: c1    Number of degrees of freedom:    12


   Energy is   -595.480462773

 Hessian updated using BFGS update

 12 Hessian modes will be used to form the next step
  Hessian Eigenvalues:
     0.005962    0.030224    0.030249    0.070979    0.071122    0.076164
     0.137123    0.137481    0.189466    0.304016    0.304085    0.391739

 Minimum search - taking simple RFO step
 Searching for Lamda that Minimizes Along All modes
 Value Taken    Lamda =  -0.00000043
 Step Taken.  Stepsize is  0.003391

                             Maximum     Tolerance    Cnvgd?
         Gradient           0.000221      0.000300     YES
         Displacement       0.003118      0.001200      NO
         Energy change     -0.000006      0.000001      NO


 New Cartesian Coordinates Obtained by Inverse Iteration

 Displacement from previous Coordinates is:  0.003014
 Adding empirical dispersion correction 
 ----------------------------------------------------------------
 Doing -D3(BJ) with
 s6 =   1.00000
 s8 =   0.87770
 a1 =   0.41710
 a2 =   2.91490
 -D3 energy without 3body term =     -0.0106117625 hartrees
 ----------------------------------------------------------------
 Adding gCP correction 
 ----------------------------------------------------------------
 gCP energy =      0.0331956393 hartrees
 ------------------------------------------------------
 Correction for Bais Set Incompleteness Error in  HF-3c
 ------------------------------------------------------
 SRB energy =     -0.0501462062 hartrees
 ----------------------------------------------------------------
             Standard Nuclear Orientation (Angstroms)
    I     Atom           X                Y                Z
 ----------------------------------------------------------------
    1      Cl     -0.0013016810    -0.0011808446     2.9069100238
    2      C       0.0003487406     0.0003326843    -0.5402914253
    3      H      -0.5136065931    -0.8901339793    -0.1469347792
    4      H      -0.5136950949     0.8913458264    -0.1482579244
    5      H       1.0292440924     0.0005293338    -0.1488812972
    6      F      -0.0009894641    -0.0008930207    -1.9225445978
 ----------------------------------------------------------------
 Nuclear Repulsion Energy =          77.95048703 hartrees
 There are       18 alpha and       18 beta electrons
 Applying Cartesian multipole field
    Component          Value
    ---------          -----
     (2,0,0)        1.00000E-10
     (0,2,0)        2.00000E-10
     (0,0,2)       -3.00000E-11
 Nucleus-field energy     =    -0.0000000174 hartrees
 Requested basis set is MINIX
 There are 15 shells and 27 basis functions
 A cutoff of  1.0D-11 yielded    107 shell pairs
 There are       365 function pairs (       397 Cartesian)
 Smallest overlap matrix eigenvalue = 2.33E-01
 Guess MOs from SCF MO coefficient file

 -----------------------------------------------------------------------
  General SCF calculation program by
  Eric Jon Sundstrom, Paul Horn, Yuezhi Mao, Dmitri Zuev, Alec White,
  David Stuck, Shaama M.S., Shane Yost, Joonho Lee, David Small,
  Daniel Levine, Susi Lehtola, Hugh Burton, Evgeny Epifanovsky,
  Bang C. Huynh
 -----------------------------------------------------------------------
 Hartree-Fock
 Dispersion:   Grimme D3
 using 4 threads for integral computing
 -------------------------------------------------------
 OpenMP Integral computing Module                
 Release: version 1.0, May 2013, Q-Chem Inc. Pittsburgh 
 -------------------------------------------------------
 HF Exchange   Energy = -44.37446773952777
 One-Electron  Energy = -992.23419598946873
 Total Coulomb Energy = 363.17771365684655
 Nuclear repulsion Energy =  77.95048701041425
 A restricted SCF calculation will be
 performed using DIIS
 SCF converges when DIIS error is below 1.0e-08
 HF Exchange   Energy = -44.37446773952777
 One-Electron  Energy = -992.23419598946873
 Total Coulomb Energy = 363.17771365684655
 ---------------------------------------
  Cycle       Energy         DIIS error
 ---------------------------------------
 HF Exchange   Energy = -44.37448456164495
 One-Electron  Energy = -992.23413496443072
 Total Coulomb Energy = 363.17766943824432
 Nuclear repulsion Energy =  77.95048701041425
    1    -595.4804630617      1.77e-05  
 HF Exchange   Energy = -44.37448456164495
 One-Electron  Energy = -992.23413496443072
 Total Coulomb Energy = 363.17766943824432
 HF Exchange   Energy = -44.37448495816390
 One-Electron  Energy = -992.23413287163078
 Total Coulomb Energy = 363.17766774085635
 Nuclear repulsion Energy =  77.95048701041425
    2    -595.4804630774      2.44e-06  
 HF Exchange   Energy = -44.37448495816390
 One-Electron  Energy = -992.23413287163078
 Total Coulomb Energy = 363.17766774085635
 HF Exchange   Energy = -44.37448497321225
 One-Electron  Energy = -992.23412502364135
 Total Coulomb Energy = 363.17765990784955
 Nuclear repulsion Energy =  77.95048701041425
    3    -595.4804630785      5.86e-07  
 HF Exchange   Energy = -44.37448497321225
 One-Electron  Energy = -992.23412502364135
 Total Coulomb Energy = 363.17765990784955
 HF Exchange   Energy = -44.37448485381208
 One-Electron  Energy = -992.23412532988937
 Total Coulomb Energy = 363.17766009481045
 Nuclear repulsion Energy =  77.95048701041425
    4    -595.4804630786      7.74e-08  
 HF Exchange   Energy = -44.37448485381208
 One-Electron  Energy = -992.23412532988937
 Total Coulomb Energy = 363.17766009481045
 HF Exchange   Energy = -44.37448483403505
 One-Electron  Energy = -992.23412499975814
 Total Coulomb Energy = 363.17765974493858
 Nuclear repulsion Energy =  77.95048701041425
    5    -595.4804630785      2.30e-08  
 HF Exchange   Energy = -44.37448483403505
 One-Electron  Energy = -992.23412499975814
 Total Coulomb Energy = 363.17765974493858
    6    -595.4804630784      4.89e-09  Convergence criterion met
 ---------------------------------------
 HF Exchange   Energy = -44.37448483403505
 One-Electron  Energy = -992.23412499975814
 Total Coulomb Energy = 363.17765974493858
 SCF time:   CPU 0.79s  wall 0.00s 
 HF Exchange   Energy = -44.37448483403505
 One-Electron  Energy = -992.23412499975814
 Total Coulomb Energy = 363.17765974493858
 Nuclear repulsion Energy =  77.95048701041425
 SCF   energy in the final basis set =     -595.4804630784
 Total energy in the final basis set =     -595.4804630784

 --------------------------------------------------------------

                    Orbital Energies (a.u.)
 --------------------------------------------------------------

 Alpha MOs
 -- Occupied --
******** -25.8138 -11.1064  -9.8872  -7.3139  -7.3138  -7.3138  -1.4161
 -0.7948  -0.6023  -0.5270  -0.5270  -0.4795  -0.3565  -0.3564  -0.0366
 -0.0362  -0.0362
 -- Virtual --
  0.6284   0.8015   0.8016   0.8653   1.4917   1.4917   1.4917   1.4923
  1.4923
 --------------------------------------------------------------

          Ground-State Mulliken Net Atomic Charges

     Atom                 Charge (a.u.)
  ----------------------------------------
      1 Cl                   -0.997022
      2 C                    -0.111291
      3 H                     0.152255
      4 H                     0.152130
      5 H                     0.152069
      6 F                    -0.348141
  ----------------------------------------
  Sum of atomic charges =    -1.000000

 -----------------------------------------------------------------
                    Cartesian Multipole Moments
 -----------------------------------------------------------------
    Charge (ESU x 10^10)
                    -4.80320440
    Dipole Moment (Debye)
         X           0.00791454      Y           0.00717151      Z         -11.57020382
       Tot          11.57020875
    Quadrupole Moments (Debye-Ang)
        XX         -25.76554567     XY          -0.00000923     YY         -25.76530938
        XZ           0.01451456     YZ           0.01318324     ZZ         -72.17406386
    Octopole Moments (Debye-Ang^2)
       XXX           0.75516422    XXY           0.01781082    XYY          -0.67623255
       YYY           0.05343266    XXZ         -28.95975175    XYZ           0.00051075
       YYZ         -28.95857952    XZZ           0.07786011    YZZ           0.07051619
       ZZZ        -193.30963884
    Hexadecapole Moments (Debye-Ang^3)
      XXXX         -30.93525897   XXXY           0.00067462   XXYY         -10.31321884
      XYYY          -0.00109606   YYYY         -30.93603924   XXXZ           0.16719560
      XXYZ           0.04261117   XYYZ           0.02035287   YYYZ           0.12783324
      XXZZ        -147.06016337   XYZZ           0.00008310   YYZZ        -147.05985447
      XZZZ           0.28272001   YZZZ           0.25675621   ZZZZ       -1212.45839658
 -----------------------------------------------------------------
 Mayer SCF Bond Order, atomic valence on the diagonal:

            1           2           3           4           5           6
    1   0.0061284   0.0039001   0.0002029   0.0001990   0.0001971   0.0016292
    2   0.0039001   3.7465752   0.9565217   0.9565527   0.9565692   0.8730315
    3   0.0002029   0.9565217   0.9768185   0.0005722   0.0005729   0.0189488
    4   0.0001990   0.9565527   0.0005722   0.9768565   0.0005754   0.0189572
    5   0.0001971   0.9565692   0.0005729   0.0005754   0.9768750   0.0189603
    6   0.0016292   0.8730315   0.0189488   0.0189572   0.0189603   0.9315269


 Calculating analytic gradient of the SCF energy
 ------------------------------------------------------
 Correction for Bais Set Incompleteness Error in  HF-3c
 ------------------------------------------------------
 Gradient of SCF Energy
            1           2           3           4           5           6
    1  -0.0000022   0.0000239   0.0000187   0.0000060  -0.0000356  -0.0000109
    2  -0.0000019   0.0000272   0.0000119  -0.0000328   0.0000072  -0.0000115
    3   0.0000036  -0.0000071  -0.0000440  -0.0000053   0.0000111   0.0000417
 Max gradient component =       4.398E-05
 RMS gradient           =       2.158E-05
 Gradient time:  CPU 0.63 s  wall 0.18 s
 Geometry Optimization Parameters
   NAtoms,    NIC,     NZ,  NCons,   NDum,   NFix, NCnnct, MaxDiis
        6      63       0       0       0       0       0       0

 Cartesian Hessian Update
 Hessian updated using BFGS update


** GEOMETRY OPTIMIZATION IN DELOCALIZED INTERNAL COORDINATES **
   Searching for a Minimum

   Optimization Cycle:  27

                       Coordinates (Angstroms)
     ATOM                X               Y               Z
      1  Cl       -0.0013016810   -0.0011808446    2.9069100238
      2  C         0.0003487406    0.0003326843   -0.5402914253
      3  H        -0.5136065931   -0.8901339793   -0.1469347792
      4  H        -0.5136950949    0.8913458264   -0.1482579244
      5  H         1.0292440924    0.0005293338   -0.1488812972
      6  F        -0.0009894641   -0.0008930207   -1.9225445978
   Point Group: c1    Number of degrees of freedom:    12


   Energy is   -595.480463078

 Hessian updated using BFGS update

 12 Hessian modes will be used to form the next step
  Hessian Eigenvalues:
     0.006297    0.030223    0.031509    0.065676    0.070980    0.075886
     0.133041    0.137481    0.178626    0.302512    0.304016    0.372538

 Minimum search - taking simple RFO step
 Searching for Lamda that Minimizes Along All modes
 Value Taken    Lamda =  -0.00000004
 Step Taken.  Stepsize is  0.000848

                             Maximum     Tolerance    Cnvgd?
         Gradient           0.000032      0.000300     YES
         Displacement       0.000428      0.001200     YES
         Energy change     -0.000000      0.000001     YES


                       Distance Matrix (Angstroms)
             Cl(  1)   C (  2)   H (  3)   H (  4)   H (  5)
   C (  2)  3.447202
   H (  3)  3.221593  1.100823
   H (  4)  3.223849  1.100834  1.781480
   H (  5)  3.224886  1.100830  1.781481  1.781633
   F (  6)  4.829455  1.382254  2.050931  2.051110  2.051162

 Final energy is   -595.48046307844038     


 ******************************
 **  OPTIMIZATION CONVERGED  **
 ******************************

                       Coordinates (Angstroms)
     ATOM                X               Y               Z
      1  Cl       -0.0013016810   -0.0011808446    2.9069100238
      2  C         0.0003487406    0.0003326843   -0.5402914253
      3  H        -0.5136065931   -0.8901339793   -0.1469347792
      4  H        -0.5136950949    0.8913458264   -0.1482579244
      5  H         1.0292440924    0.0005293338   -0.1488812972
      6  F        -0.0009894641   -0.0008930207   -1.9225445978

Z-matrix Print:
$molecule
-1 1
C 
H  1 1.100823
H  1 1.100830 2 108.027092
H  1 1.100834 2 108.026799 3 -116.640181 0
F  1 1.382254 2 110.864562 3 121.682820 0
Cl 2 3.221593 1 92.365352 3 58.353390 0
$end


 --------------------------------------------------------------

                    Orbital Energies (a.u.)
 --------------------------------------------------------------

 Alpha MOs
 -- Occupied --
******** -25.8138 -11.1064  -9.8872  -7.3139  -7.3138  -7.3138  -1.4161
 -0.7948  -0.6023  -0.5270  -0.5270  -0.4795  -0.3565  -0.3564  -0.0366
 -0.0362  -0.0362
 -- Virtual --
  0.6284   0.8015   0.8016   0.8653   1.4917   1.4917   1.4917   1.4923
  1.4923
 --------------------------------------------------------------

          Ground-State Mulliken Net Atomic Charges

     Atom                 Charge (a.u.)
  ----------------------------------------
      1 Cl                   -0.997022
      2 C                    -0.111291
      3 H                     0.152255
      4 H                     0.152130
      5 H                     0.152069
      6 F                    -0.348141
  ----------------------------------------
  Sum of atomic charges =    -1.000000

 -----------------------------------------------------------------
                    Cartesian Multipole Moments
 -----------------------------------------------------------------
    Charge (ESU x 10^10)
                    -4.80320440
    Dipole Moment (Debye)
         X           0.00791454      Y           0.00717151      Z         -11.57020382
       Tot          11.57020875
    Quadrupole Moments (Debye-Ang)
        XX         -25.76554567     XY          -0.00000923     YY         -25.76530938
        XZ           0.01451456     YZ           0.01318324     ZZ         -72.17406386
    Octopole Moments (Debye-Ang^2)
       XXX           0.75516422    XXY           0.01781082    XYY          -0.67623255
       YYY           0.05343266    XXZ         -28.95975175    XYZ           0.00051075
       YYZ         -28.95857952    XZZ           0.07786011    YZZ           0.07051619
       ZZZ        -193.30963884
    Hexadecapole Moments (Debye-Ang^3)
      XXXX         -30.93525897   XXXY           0.00067462   XXYY         -10.31321884
      XYYY          -0.00109606   YYYY         -30.93603924   XXXZ           0.16719560
      XXYZ           0.04261117   XYYZ           0.02035287   YYYZ           0.12783324
      XXZZ        -147.06016337   XYZZ           0.00008310   YYZZ        -147.05985447
      XZZZ           0.28272001   YZZZ           0.25675621   ZZZZ       -1212.45839658
 -----------------------------------------------------------------
 Mayer SCF Bond Order, atomic valence on the diagonal:

            1           2           3           4           5           6
    1   0.0061284   0.0039001   0.0002029   0.0001990   0.0001971   0.0016292
    2   0.0039001   3.7465752   0.9565217   0.9565527   0.9565692   0.8730315
    3   0.0002029   0.9565217   0.9768185   0.0005722   0.0005729   0.0189488
    4   0.0001990   0.9565527   0.0005722   0.9768565   0.0005754   0.0189572
    5   0.0001971   0.9565692   0.0005729   0.0005754   0.9768750   0.0189603
    6   0.0016292   0.8730315   0.0189488   0.0189572   0.0189603   0.9315269


Archival summary:
1\1\Lithium\OPT\HF\BasisUnspecified\l1113(1-,1)\pierpa\ThuOct2212:19:472020ThuOct2212:19:472020\0\\#,OPT,HF,BasisUnspecified,\\-1,1\C\H,1,1.10082\H,1,1.10083,2,108.027\H,1,1.10083,2,108.027,3,-116.64,0\F,1,1.38225,2,110.865,3,121.683,0\Cl,2,3.22159,1,92.3654,3,58.3534,0\\HF=-595.480463\\@

 Total job time:  12.00s(wall), 50.09s(cpu) 
 Thu Oct 22 12:19:47 2020

        *************************************************************
        *                                                           *
        *  Thank you very much for using Q-Chem.  Have a nice day.  *
        *                                                           *
        *************************************************************


