                  Welcome to Q-Chem
     A Quantum Leap Into The Future Of Chemistry


 Q-Chem 5.3 (devel), Q-Chem, Inc., Pleasanton, CA (2020)

 Yihan Shao,  Zhengting Gan,  E. Epifanovsky,  A. T. B. Gilbert,  M. Wormit,  
 J. Kussmann,  A. W. Lange,  A. Behn,  Jia Deng,  Xintian Feng,  D. Ghosh,  
 M. Goldey,  P. R. Horn,  L. D. Jacobson,  I. Kaliman,  T. Kus,  A. Landau,  
 Jie Liu,  E. I. Proynov,  R. M. Richard,  R. P. Steele,  E. J. Sundstrom,  
 H. L. Woodcock III,  P. M. Zimmerman,  D. Zuev,  B. Alam,  B. Albrecht,  
 A. Aldossary,  E. Alguire,  S. A. Baeppler,  D. Barton,  Z. Benda,  
 Y. A. Bernard,  E. J. Berquist,  K. B. Bravaya,  H. Burton,  K. Carter-Fenk,  
 D. Casanova,  Chun-Min Chang,  Yunqing Chen,  A. Chien,  K. D. Closser,  
 M. P. Coons,  S. Coriani,  S. Dasgupta,  A. L. Dempwolff,  M. Diedenhofen,  
 Hainam Do,  R. G. Edgar,  Po-Tung Fang,  S. Faraji,  S. Fatehi,  
 Qingguo Feng,  J. Fosso-Tande,  J. Gayvert,  Qinghui Ge,  A. Ghysels,  
 G. Gidofalvi,  J. Gomes,  J. Gonthier,  S. Gulania,  A. Gunina,  D. Hait,  
 M. W. D. Hanson-Heine,  S. Hammes-Schiffer,  P. H. P. Harbach,  
 A. W. Hauser,  M. F. Herbst,  J. E. Herr,  E. G. Hohenstein,  Z. C. Holden,  
 S. Houck,  Kerwin Hui,  B. C. Huynh,  M. Ivanov,  T.-C. Jagau,  Hyunjun Ji,  
 B. Kaduk,  K. Khistyaev,  Jaehoon Kim,  P. Klunzinger,  K. Koh,  
 D. Kosenkov,  L. Koulias,  T. Kowalczyk,  C. M. Krauter,  A. Kunitsa,  
 Ka Un Lao,  A. Laurent,  K. V. Lawler,  Joonho Lee,  D. Lefrancois,  
 S. Lehtola,  D. S. Levine,  Yi-Pei Li,  You-Sheng Lin,  Fenglai Liu,  
 Kuan-Yu Liu,  E. Livshits,  M. Loipersberger,  A. Luenser,  P. Manohar,  
 E. Mansoor,  S. F. Manzer,  Shan-Ping Mao,  Yuezhi Mao,  N. Mardirossian,  
 A. V. Marenich,  T. Markovich,  L. A. Martinez-Martinez,  S. A. Maurer,  
 N. J. Mayhall,  S. C. McKenzie,  J.-M. Mewes,  P. Morgante,  A. F. Morrison,  
 J. W. Mullinax,  K. Nanda,  T. S. Nguyen-Beck,  R. Olivares-Amaya,  
 K. J. Oosterbaan,  J. A. Parkhill,  S. K. Paul,  F. Pavosevic,  Zheng Pei,  
 T. M. Perrine,  F. Plasser,  P. Pokhilko,  S. Prager,  A. Prociuk,  
 E. Ramos,  B. Rana,  D. R. Rehn,  F. Rob,  E. Rossomme,  M. Scheurer,  
 M. Schneider,  N. Sergueev,  S. M. Sharada,  S. Sharma,  W. Skomorowski,  
 D. W. Small,  T. Stauch,  C. J. Stein,  T. Stein,  Yu-Chuan Su,  
 S. P. Veccham,  Zhen Tao,  A. J. W. Thom,  A. Tkatchenko,  T. Tsuchimochi,  
 N. M. Tubman,  L. Vogt,  M. L. Vidal,  O. Vydrov,  M. A. Watson,  J. Wenzel,  
 M. de Wergifosse,  T. A. Wesolowski,  A. White,  J. Witte,  A. Yamada,  
 Jun Yang,  K. Yao,  S. Yeganeh,  S. R. Yost,  Zhi-Qiang You,  A. Zech,  
 Igor Ying Zhang,  Xing Zhang,  Yan Zhao,  Ying Zhu,  B. R. Brooks,  
 G. K. L. Chan,  C. J. Cramer,  M. S. Gordon,  W. J. Hehre,  A. Klamt,  
 M. W. Schmidt,  C. D. Sherrill,  D. G. Truhlar,  A. Aspuru-Guzik,  R. Baer,  
 A. T. Bell,  N. A. Besley,  Jeng-Da Chai,  A. E. DePrince, III,  
 R. A. DiStasio Jr.,  A. Dreuw,  B. D. Dunietz,  T. R. Furlani,  
 Chao-Ping Hsu,  Yousung Jung,  Jing Kong,  D. S. Lambrecht,  WanZhen Liang,  
 C. Ochsenfeld,  V. A. Rassolov,  L. V. Slipchenko,  J. E. Subotnik,  
 T. Van Voorhis,  J. M. Herbert,  A. I. Krylov,  P. M. W. Gill,  M. Head-Gordon

 Contributors to earlier versions of Q-Chem not listed above: 
 R. D. Adamson,  B. Austin,  J. Baker,  G. J. O. Beran,  K. Brandhorst,  
 S. T. Brown,  E. F. C. Byrd,  A. K. Chakraborty,  C.-L. Cheng,  
 Siu Hung Chien,  D. M. Chipman,  D. L. Crittenden,  H. Dachsel,  
 R. J. Doerksen,  A. D. Dutoi,  L. Fusti-Molnar,  W. A. Goddard III,  
 A. Golubeva-Zadorozhnaya,  S. R. Gwaltney,  G. Hawkins,  A. Heyden,  
 S. Hirata,  G. Kedziora,  F. J. Keil,  C. Kelley,  Jihan Kim,  R. A. King,  
 R. Z. Khaliullin,  P. P. Korambath,  W. Kurlancheek,  A. M. Lee,  M. S. Lee,  
 S. V. Levchenko,  Ching Yeh Lin,  D. Liotard,  R. C. Lochan,  I. Lotan,  
 P. E. Maslen,  N. Nair,  D. P. O'Neill,  D. Neuhauser,  E. Neuscamman,  
 C. M. Oana,  R. Olson,  B. Peters,  R. Peverati,  P. A. Pieniazek,  
 Y. M. Rhee,  J. Ritchie,  M. A. Rohrdanz,  E. Rosta,  N. J. Russ,  
 H. F. Schaefer III,  N. E. Schultz,  N. Shenvi,  A. C. Simmonett,  A. Sodt,  
 D. Stuck,  K. S. Thanthiriwatte,  V. Vanovschi,  Tao Wang,  A. Warshel,  
 C. F. Williams,  Q. Wu,  X. Xu,  W. Zhang

 Please cite Q-Chem as follows:
 Y. Shao et al., Mol. Phys. 113, 184-215 (2015)
 DOI: 10.1080/00268976.2014.952696

 Q-Chem 5.3.1 for Intel X86 EM64T Linux

 Parts of Q-Chem use Armadillo 9.800.1 (Horizon Scraper).
 http://arma.sourceforge.net/

 Q-Chem begins on Fri Oct 30 10:20:31 2020  

Host: 
0

     Scratch files written to /data/scratch/MN_39_fch3fts_BH76_HF_3c//
Processing $rem in /home/pierpa/qchem53/config/preferences:
Processing $rem in /home/pierpa/.qchemrc:

Checking the input file for inconsistencies... 	...done.

--------------------------------------------------------------
User input:
--------------------------------------------------------------
$Comment
Geometry optimizations for CLB18.
$End

$Rem
SYMMETRY              False
SYM_IGNORE            True
JOBTYPE               TS
METHOD                HF-3c
BASIS                 MINIX
GEOM_OPT_MAX_CYCLES   150
GEOM_OPT_DMAX         10
MAX_SCF_CYCLES        50
SCF_ALGORITHM         DIIS
SCF_PRINT             1
SCF_FINAL_PRINT       1
XC_GRID               000099000590
MEM_TOTAL             20000
MEM_STATIC            4000
BLAS3_DFT             True
New_DFT               True
$End

$Molecule
-1 1
F 1.8236505039 0.0002219999 0.0000770000
C 0.0002360003 -0.0003870000 -0.0002140003
H 0.0001559999 -0.3051860227 1.0250374244
H 0.0003789999 1.0398808452 -0.2489641191
H -0.0000030000 -0.7365564679 -0.7762077163
F -1.8238674665 0.0002430003 0.0000810001
$End

--------------------------------------------------------------
 Adding empirical dispersion correction 
 ----------------------------------------------------------------
 Doing -D3(BJ) with
 s6  =   1.00000
 s8  =   0.87770
 a1  =   0.41710
 a2  =   2.91490
 -D3 energy without 3body term =     -0.0119313365 hartrees
 ----------------------------------------------------------------
 Adding gCP correction 
 ----------------------------------------------------------------
 gCP energy =      0.0379899437 hartrees
 ------------------------------------------------------
 Correction for Bais Set Incompleteness Error in  HF-3c
 ------------------------------------------------------
 SRB energy =     -0.0284016021 hartrees
 ----------------------------------------------------------------
             Standard Nuclear Orientation (Angstroms)
    I     Atom           X                Y                Z
 ----------------------------------------------------------------
    1      F       1.8236505039     0.0002219999     0.0000770000
    2      C       0.0002360003    -0.0003870000    -0.0002140003
    3      H       0.0001559999    -0.3051860227     1.0250374244
    4      H       0.0003789999     1.0398808452    -0.2489641191
    5      H      -0.0000030000    -0.7365564679    -0.7762077163
    6      F      -1.8238674665     0.0002430003     0.0000810001
 ----------------------------------------------------------------
 Nuclear Repulsion Energy =          66.36378831 hartrees
 There are       14 alpha and       14 beta electrons
 Requested basis set is MINIX
 There are 12 shells and 18 basis functions

 Total QAlloc Memory Limit  20000 MB
 Mega-Array Size      3911 MB
 MEM_STATIC part      4000 MB
 A cutoff of  1.0D-11 yielded     75 shell pairs
 There are       177 function pairs
 Smallest overlap matrix eigenvalue = 2.40E-01

 Scale SEOQF with 1.000000e-01/1.000000e+00/1.000000e+00

 Standard Electronic Orientation quadrupole field applied
 Nucleus-field energy     =     0.0000000015 hartrees
 Guess from superposition of atomic densities
 Warning:  Energy on first SCF cycle will be non-variational
 SAD guess density has 27.000000 electrons

 -----------------------------------------------------------------------
  General SCF calculation program by
  Eric Jon Sundstrom, Paul Horn, Yuezhi Mao, Dmitri Zuev, Alec White,
  David Stuck, Shaama M.S., Shane Yost, Joonho Lee, David Small,
  Daniel Levine, Susi Lehtola, Hugh Burton, Evgeny Epifanovsky,
  Bang C. Huynh
 -----------------------------------------------------------------------
 Hartree-Fock
 Dispersion:   Grimme D3
 using 8 threads for integral computing
 -------------------------------------------------------
 OpenMP Integral computing Module                
 Release: version 1.0, May 2013, Q-Chem Inc. Pittsburgh 
 -------------------------------------------------------
 HF Exchange   Energy = -25.71552613447346
 One-Electron  Energy = -462.38308618808099
 Total Coulomb Energy = 185.78813827747450
 Nuclear repulsion Energy =  66.36378830754268
 A restricted SCF calculation will be
 performed using DIIS
 SCF converges when DIIS error is below 1.0e-08
 HF Exchange   Energy = -25.71552613447346
 One-Electron  Energy = -462.38308618808099
 Total Coulomb Energy = 185.78813827747450
 ---------------------------------------
  Cycle       Energy         DIIS error
 ---------------------------------------
 HF Exchange   Energy = -27.35380208728657
 One-Electron  Energy = -475.31418824716758
 Total Coulomb Energy = 199.61466751885152
 Nuclear repulsion Energy =  66.36378830754268
    1    -235.9466857375      1.70e-01  
 HF Exchange   Energy = -27.35380208728657
 One-Electron  Energy = -475.31418824716758
 Total Coulomb Energy = 199.61466751885152
 HF Exchange   Energy = -27.10473691867864
 One-Electron  Energy = -474.91680489759506
 Total Coulomb Energy = 198.87293409616066
 Nuclear repulsion Energy =  66.36378830754268
    2    -236.6895345081      3.03e-02  
 HF Exchange   Energy = -27.10473691867864
 One-Electron  Energy = -474.91680489759506
 Total Coulomb Energy = 198.87293409616066
 HF Exchange   Energy = -27.07641340261846
 One-Electron  Energy = -474.56149861974961
 Total Coulomb Energy = 198.48453655385291
 Nuclear repulsion Energy =  66.36378830754268
    3    -236.7848194126      9.08e-03  
 HF Exchange   Energy = -27.07641340261846
 One-Electron  Energy = -474.56149861974961
 Total Coulomb Energy = 198.48453655385291
 HF Exchange   Energy = -27.05707240374310
 One-Electron  Energy = -474.44941044420636
 Total Coulomb Energy = 198.35270838600215
 Nuclear repulsion Energy =  66.36378830754268
    4    -236.7895871610      1.91e-03  
 HF Exchange   Energy = -27.05707240374310
 One-Electron  Energy = -474.44941044420636
 Total Coulomb Energy = 198.35270838600215
 HF Exchange   Energy = -27.05702140519713
 One-Electron  Energy = -474.44839008244742
 Total Coulomb Energy = 198.35163583449526
 Nuclear repulsion Energy =  66.36378830754268
    5    -236.7899861544      1.20e-04  
 HF Exchange   Energy = -27.05702140519713
 One-Electron  Energy = -474.44839008244742
 Total Coulomb Energy = 198.35163583449526
 HF Exchange   Energy = -27.05690069702091
 One-Electron  Energy = -474.44777325715916
 Total Coulomb Energy = 198.35089826865331
 Nuclear repulsion Energy =  66.36378830754268
    6    -236.7899873456      1.67e-05  
 HF Exchange   Energy = -27.05690069702091
 One-Electron  Energy = -474.44777325715916
 Total Coulomb Energy = 198.35089826865331
 HF Exchange   Energy = -27.05690706120499
 One-Electron  Energy = -474.44778746295100
 Total Coulomb Energy = 198.35091883830992
 Nuclear repulsion Energy =  66.36378830754268
    7    -236.7899873780      2.05e-06  
 HF Exchange   Energy = -27.05690706120499
 One-Electron  Energy = -474.44778746295100
 Total Coulomb Energy = 198.35091883830992
 HF Exchange   Energy = -27.05690478092183
 One-Electron  Energy = -474.44777805152756
 Total Coulomb Energy = 198.35090714662135
 Nuclear repulsion Energy =  66.36378830754268
    8    -236.7899873783      2.41e-07  
 HF Exchange   Energy = -27.05690478092183
 One-Electron  Energy = -474.44777805152756
 Total Coulomb Energy = 198.35090714662135
 HF Exchange   Energy = -27.05690479222481
 One-Electron  Energy = -474.44777797796382
 Total Coulomb Energy = 198.35090708436113
 Nuclear repulsion Energy =  66.36378830754268
    9    -236.7899873783      1.31e-08  
 HF Exchange   Energy = -27.05690479222481
 One-Electron  Energy = -474.44777797796382
 Total Coulomb Energy = 198.35090708436113
   10    -236.7899873783      7.93e-10  Convergence criterion met
 ---------------------------------------
 HF Exchange   Energy = -27.05690479222481
 One-Electron  Energy = -474.44777797796382
 Total Coulomb Energy = 198.35090708436113
 SCF time:   CPU 0.29s  wall 1.00s 
 HF Exchange   Energy = -27.05690479222481
 One-Electron  Energy = -474.44777797796382
 Total Coulomb Energy = 198.35090708436113
 Nuclear repulsion Energy =  66.36378830754268
 SCF   energy in the final basis set =     -236.7899873783
 Total energy in the final basis set =     -236.7899873783

 --------------------------------------------------------------

                    Orbital Energies (a.u.)
 --------------------------------------------------------------

 Alpha MOs
 -- Occupied --
-25.3401 -25.3393 -10.9989  -1.0507  -1.0422  -0.6823  -0.3850  -0.3848
 -0.2016  -0.1305  -0.1305  -0.1143  -0.1143  -0.0157
 -- Virtual --
  0.5706   0.9035   0.9684   0.9690
 --------------------------------------------------------------

          Ground-State Mulliken Net Atomic Charges

     Atom                 Charge (a.u.)
  ----------------------------------------
      1 F                    -0.618628
      2 C                    -0.112589
      3 H                     0.116734
      4 H                     0.116780
      5 H                     0.116712
      6 F                    -0.619008
  ----------------------------------------
  Sum of atomic charges =    -1.000000

 -----------------------------------------------------------------
                    Cartesian Multipole Moments
 -----------------------------------------------------------------
    Charge (ESU x 10^10)
                -4.8032
    Dipole Moment (Debye)
         X       0.0047      Y      -0.0021      Z      -0.0006
       Tot       0.0051
    Quadrupole Moments (Debye-Ang)
        XX     -37.3321     XY       0.0004     YY     -16.7341
        XZ       0.0001     YZ      -0.0000     ZZ     -16.7361
    Octopole Moments (Debye-Ang^2)
       XXX       0.0162    XXY      -0.0028    XYY       0.0000
       YYY       0.5153    XXZ      -0.0008    XYZ      -0.0001
       YYZ      -0.4350    XZZ      -0.0002    YZZ      -0.5109
       ZZZ       0.4370
    Hexadecapole Moments (Debye-Ang^3)
      XXXX    -262.5776   XXXY       0.0005   XXYY     -36.4831
      XYYY       0.0003   YYYY     -18.2361   XXXZ       0.0001
      XXYZ      -0.0000   XYYZ      -0.0001   YYYZ       0.0010
      XXZZ     -36.4819   XYZZ      -0.0000   YYZZ      -6.0770
      XZZZ       0.0001   YZZZ      -0.0004   ZZZZ     -18.2315
 -----------------------------------------------------------------
 Mayer SCF Bond Order, atomic valence on the diagonal:

            1           2           3           4           5           6
    1   0.6185319   0.4797781   0.0100515   0.0100633   0.0100595   0.1085795
    2   0.4797781   3.8573540   0.9661134   0.9660672   0.9661102   0.4792851
    3   0.0100515   0.9661134   0.9863732   0.0000756   0.0000766   0.0100561
    4   0.0100633   0.9660672   0.0000756   0.9863625   0.0000765   0.0100799
    5   0.0100595   0.9661102   0.0000766   0.0000765   0.9863784   0.0100555
    6   0.1085795   0.4792851   0.0100561   0.0100799   0.0100555   0.6180561


 Calculating analytic gradient of the SCF energy
 ------------------------------------------------------
 Correction for Bais Set Incompleteness Error in  HF-3c
 ------------------------------------------------------
 Gradient of SCF Energy
            1           2           3           4           5           6
    1   0.0268767  -0.0000519   0.0000306   0.0000571   0.0000117  -0.0269242
    2   0.0000622  -0.0000056   0.0053831  -0.0184956   0.0130196   0.0000363
    3   0.0000289  -0.0000986  -0.0182598   0.0044624   0.0138433   0.0000239
 Max gradient component =       2.692E-02
 RMS gradient           =       1.186E-02
 Gradient time:  CPU 0.06 s  wall 0.03 s
 Geometry Optimization Parameters
   NAtoms,    NIC,     NZ,  NCons,   NDum,   NFix, NCnnct, MaxDiis
        6      27       0       0       0       0       0       0


** GEOMETRY OPTIMIZATION IN DELOCALIZED INTERNAL COORDINATES **
   Searching for a Transition State

   Optimization Cycle:   1

                       Coordinates (Angstroms)
     ATOM                X               Y               Z
      1  F         1.8236505039    0.0002219999    0.0000770000
      2  C         0.0002360003   -0.0003870000   -0.0002140003
      3  H         0.0001559999   -0.3051860227    1.0250374244
      4  H         0.0003789999    1.0398808452   -0.2489641191
      5  H        -0.0000030000   -0.7365564679   -0.7762077163
      6  F        -1.8238674665    0.0002430003    0.0000810001
   Point Group: c1    Number of degrees of freedom:    12


   Energy is   -236.789987378


 Attempting to generate delocalized internal coordinates

  ***ERROR*** Angle     6    2    1   is near-linear
              But No atom available to define colinear bend
**WARNING** Problems with Internal Coordinates
  Switching to Cartesian Coordinates

 Translations and Rotations Projected Out of Hessian

 12 Hessian modes will be used to form the next step
  Hessian Eigenvalues:
     1.000000    1.000000    1.000000    1.000000    1.000000    1.000000
     1.000000    1.000000    1.000000    1.000000    1.000000    1.000000
**WARNING** Hessian does not have the desired local structure
**WARNING** Hessian does not have the desired local structure

 Transition state search - taking P-RFO step
 Searching for Lamda that Maximizes Along the Lowest mode
 Value Taken    Lamda =   1.00034136
 Searching for Lamda that Minimizes Along All other modes
 Value Taken    Lamda =  -0.00218658
 Calculated Step too Large.  Step scaled by  0.000185
 Step Taken.  Stepsize is  0.010000

                             Maximum     Tolerance    Cnvgd?
         Gradient           0.026924      0.000300      NO
         Displacement       0.006750      0.001200      NO
         Energy change     *********      0.000001      NO

 Adding empirical dispersion correction 
 ----------------------------------------------------------------
 Doing -D3(BJ) with
 s6  =   1.00000
 s8  =   0.87770
 a1  =   0.41710
 a2  =   2.91490
 -D3 energy without 3body term =     -0.0119359534 hartrees
 ----------------------------------------------------------------
 Adding gCP correction 
 ----------------------------------------------------------------
 gCP energy =      0.0380177860 hartrees
 ------------------------------------------------------
 Correction for Bais Set Incompleteness Error in  HF-3c
 ------------------------------------------------------
 SRB energy =     -0.0284296578 hartrees
 ----------------------------------------------------------------
             Standard Nuclear Orientation (Angstroms)
    I     Atom           X                Y                Z
 ----------------------------------------------------------------
    1      F       1.8254173020     0.0004647758     0.0008482720
    2      C      -0.0006485762    -0.0008910782     0.0010560409
    3      H       0.0007869061    -0.3055119274     1.0214654741
    4      H      -0.0014409387     1.0402732226    -0.2487352289
    5      H       0.0000596625    -0.7377724561    -0.7751005278
    6      F      -1.8236233182     0.0016538180     0.0002755585
 ----------------------------------------------------------------
 Nuclear Repulsion Energy =          66.35389350 hartrees
 There are       14 alpha and       14 beta electrons
 Applying Cartesian multipole field
    Component          Value
    ---------          -----
     (2,0,0)        1.00000E-11
     (0,2,0)        2.00000E-10
     (0,0,2)       -3.00000E-10
 Nucleus-field energy     =     0.0000000015 hartrees
 Requested basis set is MINIX
 There are 12 shells and 18 basis functions
 A cutoff of  1.0D-11 yielded     75 shell pairs
 There are       177 function pairs
 Smallest overlap matrix eigenvalue = 2.39E-01
 Guess MOs from SCF MO coefficient file

 -----------------------------------------------------------------------
  General SCF calculation program by
  Eric Jon Sundstrom, Paul Horn, Yuezhi Mao, Dmitri Zuev, Alec White,
  David Stuck, Shaama M.S., Shane Yost, Joonho Lee, David Small,
  Daniel Levine, Susi Lehtola, Hugh Burton, Evgeny Epifanovsky,
  Bang C. Huynh
 -----------------------------------------------------------------------
 Hartree-Fock
 Dispersion:   Grimme D3
 using 8 threads for integral computing
 -------------------------------------------------------
 OpenMP Integral computing Module                
 Release: version 1.0, May 2013, Q-Chem Inc. Pittsburgh 
 -------------------------------------------------------
 HF Exchange   Energy = -27.05738235760798
 One-Electron  Energy = -474.42299607676290
 Total Coulomb Energy = 198.33670716832100
 Nuclear repulsion Energy =  66.35389350415144
 A restricted SCF calculation will be
 performed using DIIS
 SCF converges when DIIS error is below 1.0e-08
 HF Exchange   Energy = -27.05738235760798
 One-Electron  Energy = -474.42299607676290
 Total Coulomb Energy = 198.33670716832100
 ---------------------------------------
  Cycle       Energy         DIIS error
 ---------------------------------------
 HF Exchange   Energy = -27.05725351581486
 One-Electron  Energy = -474.42403553765615
 Total Coulomb Energy = 198.33761609121279
 Nuclear repulsion Energy =  66.35389350415144
    1    -236.7897777619      2.00e-04  
 HF Exchange   Energy = -27.05725351581486
 One-Electron  Energy = -474.42403553765615
 Total Coulomb Energy = 198.33761609121279
 HF Exchange   Energy = -27.05727417499502
 One-Electron  Energy = -474.42388495267636
 Total Coulomb Energy = 198.33748603994283
 Nuclear repulsion Energy =  66.35389350415144
    2    -236.7897794581      3.45e-05  
 HF Exchange   Energy = -27.05727417499502
 One-Electron  Energy = -474.42388495267636
 Total Coulomb Energy = 198.33748603994283
 HF Exchange   Energy = -27.05726005588480
 One-Electron  Energy = -474.42394750556076
 Total Coulomb Energy = 198.33753445480545
 Nuclear repulsion Energy =  66.35389350415144
    3    -236.7897795836      1.07e-05  
 HF Exchange   Energy = -27.05726005588480
 One-Electron  Energy = -474.42394750556076
 Total Coulomb Energy = 198.33753445480545
 HF Exchange   Energy = -27.05726211421437
 One-Electron  Energy = -474.42391826684661
 Total Coulomb Energy = 198.33750727119028
 Nuclear repulsion Energy =  66.35389350415144
    4    -236.7897796025      4.02e-06  
 HF Exchange   Energy = -27.05726211421437
 One-Electron  Energy = -474.42391826684661
 Total Coulomb Energy = 198.33750727119028
 HF Exchange   Energy = -27.05726153723168
 One-Electron  Energy = -474.42392075257402
 Total Coulomb Energy = 198.33750917961098
 Nuclear repulsion Energy =  66.35389350415144
    5    -236.7897796057      1.17e-06  
 HF Exchange   Energy = -27.05726153723168
 One-Electron  Energy = -474.42392075257402
 Total Coulomb Energy = 198.33750917961098
 HF Exchange   Energy = -27.05726171644515
 One-Electron  Energy = -474.42392129904817
 Total Coulomb Energy = 198.33750990532113
 Nuclear repulsion Energy =  66.35389350415144
    6    -236.7897796060      8.72e-08  
 HF Exchange   Energy = -27.05726171644515
 One-Electron  Energy = -474.42392129904817
 Total Coulomb Energy = 198.33750990532113
 HF Exchange   Energy = -27.05726175867570
 One-Electron  Energy = -474.42392161626833
 Total Coulomb Energy = 198.33751026481445
 Nuclear repulsion Energy =  66.35389350415144
    7    -236.7897796060      1.79e-08  
 HF Exchange   Energy = -27.05726175867570
 One-Electron  Energy = -474.42392161626833
 Total Coulomb Energy = 198.33751026481445
    8    -236.7897796060      4.50e-09  Convergence criterion met
 ---------------------------------------
 HF Exchange   Energy = -27.05726175867570
 One-Electron  Energy = -474.42392161626833
 Total Coulomb Energy = 198.33751026481445
 SCF time:   CPU 0.22s  wall 0.00s 
 HF Exchange   Energy = -27.05726175867570
 One-Electron  Energy = -474.42392161626833
 Total Coulomb Energy = 198.33751026481445
 Nuclear repulsion Energy =  66.35389350415144
 SCF   energy in the final basis set =     -236.7897796060
 Total energy in the final basis set =     -236.7897796060

 --------------------------------------------------------------

                    Orbital Energies (a.u.)
 --------------------------------------------------------------

 Alpha MOs
 -- Occupied --
-25.3409 -25.3385 -10.9991  -1.0507  -1.0421  -0.6829  -0.3859  -0.3847
 -0.2015  -0.1305  -0.1305  -0.1143  -0.1143  -0.0157
 -- Virtual --
  0.5699   0.9045   0.9673   0.9723
 --------------------------------------------------------------

          Ground-State Mulliken Net Atomic Charges

     Atom                 Charge (a.u.)
  ----------------------------------------
      1 F                    -0.619677
      2 C                    -0.113343
      3 H                     0.116909
      4 H                     0.117099
      5 H                     0.116892
      6 F                    -0.617879
  ----------------------------------------
  Sum of atomic charges =    -1.000000

 -----------------------------------------------------------------
                    Cartesian Multipole Moments
 -----------------------------------------------------------------
    Charge (ESU x 10^10)
                -4.8032
    Dipole Moment (Debye)
         X      -0.0233      Y      -0.0070      Z      -0.0050
       Tot       0.0248
    Quadrupole Moments (Debye-Ang)
        XX     -37.3470     XY       0.0046     YY     -16.7289
        XZ      -0.0020     YZ       0.0010     ZZ     -16.7434
    Octopole Moments (Debye-Ang^2)
       XXX      -0.1233    XXY      -0.0231    XYY      -0.0078
       YYY       0.5053    XXZ      -0.0198    XYZ       0.0002
       YYZ      -0.4475    XZZ      -0.0056    YZZ      -0.5125
       ZZZ       0.3953
    Hexadecapole Moments (Debye-Ang^3)
      XXXX    -262.8291   XXXY       0.0527   XXYY     -36.5113
      XYYY       0.0322   YYYY     -18.2372   XXXZ      -0.0258
      XXYZ      -0.0009   XYYZ      -0.0052   YYYZ      -0.0013
      XXZZ     -36.5020   XYZZ       0.0108   YYZZ      -6.0713
      XZZZ      -0.0159   YZZZ       0.0017   ZZZZ     -18.2133
 -----------------------------------------------------------------
 Mayer SCF Bond Order, atomic valence on the diagonal:

            1           2           3           4           5           6
    1   0.6172049   0.4783793   0.0098583   0.0101482   0.0100209   0.1087981
    2   0.4783793   3.8575520   0.9664134   0.9659473   0.9661373   0.4806747
    3   0.0098583   0.9664134   0.9863322   0.0000718   0.0000738   0.0099149
    4   0.0101482   0.9659473   0.0000718   0.9862878   0.0000747   0.0100458
    5   0.0100209   0.9661373   0.0000738   0.0000747   0.9863364   0.0100297
    6   0.1087981   0.4806747   0.0099149   0.0100458   0.0100297   0.6194631


 Calculating analytic gradient of the SCF energy
 ------------------------------------------------------
 Correction for Bais Set Incompleteness Error in  HF-3c
 ------------------------------------------------------
 Gradient of SCF Energy
            1           2           3           4           5           6
    1   0.0271258   0.0002298   0.0000284  -0.0003298  -0.0000743  -0.0269799
    2   0.0000604  -0.0019920   0.0065431  -0.0174085   0.0125381   0.0002587
    3   0.0000028   0.0052062  -0.0226873   0.0041310   0.0134600  -0.0001128
 Max gradient component =       2.713E-02
 RMS gradient           =       1.227E-02
 Gradient time:  CPU 0.06 s  wall 0.03 s
 Geometry Optimization Parameters
   NAtoms,    NIC,     NZ,  NCons,   NDum,   NFix, NCnnct, MaxDiis
        6      27       0       0       0       0       0       0

 Cartesian Hessian Update
 Hessian updated using Powell/Murtagh-Sargent update
  Mixing factors:     0.539895 Powell                      0.460105 Murtagh-Sargent


** GEOMETRY OPTIMIZATION IN CARTESIAN COORDINATES **
   Searching for a Transition State

   Optimization Cycle:   2

                       Coordinates (Angstroms)
     ATOM                X               Y               Z
      1  F         1.8254173020    0.0004647758    0.0008482720
      2  C        -0.0006485762   -0.0008910782    0.0010560409
      3  H         0.0007869061   -0.3055119274    1.0214654741
      4  H        -0.0014409387    1.0402732226   -0.2487352289
      5  H         0.0000596625   -0.7377724561   -0.7751005278
      6  F        -1.8236233182    0.0016538180    0.0002755585
   Point Group: c1    Number of degrees of freedom:    12


   Energy is   -236.789779606


 Translations and Rotations Projected Out of Hessian

 12 Hessian modes will be used to form the next step
  Hessian Eigenvalues:
     0.003499    1.000000    1.000000    1.000000    1.000000    1.000000
     1.000000    1.000000    1.000000    1.000000    1.000000    1.179121
**WARNING** Hessian does not have the desired local structure
**WARNING** Hessian does not have the desired local structure

 Transition state search - taking P-RFO step
 Searching for Lamda that Maximizes Along the Lowest mode
 Value Taken    Lamda =   0.01892378
 Searching for Lamda that Minimizes Along All other modes
 Value Taken    Lamda =  -0.00237637
 Calculated Step too Large.  Step scaled by  0.009020
 Step Taken.  Stepsize is  0.010000

                             Maximum     Tolerance    Cnvgd?
         Gradient           0.027126      0.000300      NO
         Displacement       0.004061      0.001200      NO
         Energy change      0.000208      0.000001      NO

 Adding empirical dispersion correction 
 ----------------------------------------------------------------
 Doing -D3(BJ) with
 s6  =   1.00000
 s8  =   0.87770
 a1  =   0.41710
 a2  =   2.91490
 -D3 energy without 3body term =     -0.0119393804 hartrees
 ----------------------------------------------------------------
 Adding gCP correction 
 ----------------------------------------------------------------
 gCP energy =      0.0380255993 hartrees
 ------------------------------------------------------
 Correction for Bais Set Incompleteness Error in  HF-3c
 ------------------------------------------------------
 SRB energy =     -0.0284334667 hartrees
 ----------------------------------------------------------------
             Standard Nuclear Orientation (Angstroms)
    I     Atom           X                Y                Z
 ----------------------------------------------------------------
    1      F       1.8274553628     0.0007744962     0.0018776952
    2      C      -0.0019729564    -0.0003774084    -0.0004148841
    3      H       0.0016102101    -0.3066496664     1.0194916360
    4      H      -0.0035897315     1.0402327264    -0.2482610114
    5      H       0.0001907125    -0.7391420575    -0.7734903935
    6      F      -1.8231425600     0.0033782645     0.0006065466
 ----------------------------------------------------------------
 Nuclear Repulsion Energy =          66.33927853 hartrees
 There are       14 alpha and       14 beta electrons
 Applying Cartesian multipole field
    Component          Value
    ---------          -----
     (2,0,0)        1.00000E-11
     (0,2,0)        2.00000E-10
     (0,0,2)       -3.00000E-10
 Nucleus-field energy     =     0.0000000016 hartrees
 Requested basis set is MINIX
 There are 12 shells and 18 basis functions
 A cutoff of  1.0D-11 yielded     75 shell pairs
 There are       177 function pairs
 Smallest overlap matrix eigenvalue = 2.39E-01
 Guess MOs from SCF MO coefficient file

 -----------------------------------------------------------------------
  General SCF calculation program by
  Eric Jon Sundstrom, Paul Horn, Yuezhi Mao, Dmitri Zuev, Alec White,
  David Stuck, Shaama M.S., Shane Yost, Joonho Lee, David Small,
  Daniel Levine, Susi Lehtola, Hugh Burton, Evgeny Epifanovsky,
  Bang C. Huynh
 -----------------------------------------------------------------------
 Hartree-Fock
 Dispersion:   Grimme D3
 using 8 threads for integral computing
 -------------------------------------------------------
 OpenMP Integral computing Module                
 Release: version 1.0, May 2013, Q-Chem Inc. Pittsburgh 
 -------------------------------------------------------
 HF Exchange   Energy = -27.05746472338653
 One-Electron  Energy = -474.39123327850081
 Total Coulomb Energy = 198.31979775592814
 Nuclear repulsion Energy =  66.33927853347990
 A restricted SCF calculation will be
 performed using DIIS
 SCF converges when DIIS error is below 1.0e-08
 HF Exchange   Energy = -27.05746472338653
 One-Electron  Energy = -474.39123327850081
 Total Coulomb Energy = 198.31979775592814
 ---------------------------------------
  Cycle       Energy         DIIS error
 ---------------------------------------
 HF Exchange   Energy = -27.05739014940377
 One-Electron  Energy = -474.39213246100212
 Total Coulomb Energy = 198.32061979906254
 Nuclear repulsion Energy =  66.33927853347990
    1    -236.7896217125      1.99e-04  
 HF Exchange   Energy = -27.05739014940377
 One-Electron  Energy = -474.39213246100212
 Total Coulomb Energy = 198.32061979906254
 HF Exchange   Energy = -27.05740942680015
 One-Electron  Energy = -474.39204506202123
 Total Coulomb Energy = 198.32055146481022
 Nuclear repulsion Energy =  66.33927853347990
    2    -236.7896242779      4.13e-05  
 HF Exchange   Energy = -27.05740942680015
 One-Electron  Energy = -474.39204506202123
 Total Coulomb Energy = 198.32055146481022
 HF Exchange   Energy = -27.05739764747931
 One-Electron  Energy = -474.39210072617624
 Total Coulomb Energy = 198.32059531208247
 Nuclear repulsion Energy =  66.33927853347990
    3    -236.7896244905      1.42e-05  
 HF Exchange   Energy = -27.05739764747931
 One-Electron  Energy = -474.39210072617624
 Total Coulomb Energy = 198.32059531208247
 HF Exchange   Energy = -27.05740063971483
 One-Electron  Energy = -474.39206813596701
 Total Coulomb Energy = 198.32056570965784
 Nuclear repulsion Energy =  66.33927853347990
    4    -236.7896245281      4.60e-06  
 HF Exchange   Energy = -27.05740063971483
 One-Electron  Energy = -474.39206813596701
 Total Coulomb Energy = 198.32056570965784
 HF Exchange   Energy = -27.05739962748160
 One-Electron  Energy = -474.39207415799257
 Total Coulomb Energy = 198.32057071915455
 Nuclear repulsion Energy =  66.33927853347990
    5    -236.7896245325      1.23e-06  
 HF Exchange   Energy = -27.05739962748160
 One-Electron  Energy = -474.39207415799257
 Total Coulomb Energy = 198.32057071915455
 HF Exchange   Energy = -27.05739982345042
 One-Electron  Energy = -474.39207461533181
 Total Coulomb Energy = 198.32057137239747
 Nuclear repulsion Energy =  66.33927853347990
    6    -236.7896245328      8.38e-08  
 HF Exchange   Energy = -27.05739982345042
 One-Electron  Energy = -474.39207461533181
 Total Coulomb Energy = 198.32057137239747
 HF Exchange   Energy = -27.05739986314198
 One-Electron  Energy = -474.39207491974969
 Total Coulomb Energy = 198.32057171654830
 Nuclear repulsion Energy =  66.33927853347990
    7    -236.7896245329      2.19e-08  
 HF Exchange   Energy = -27.05739986314198
 One-Electron  Energy = -474.39207491974969
 Total Coulomb Energy = 198.32057171654830
    8    -236.7896245329      5.88e-09  Convergence criterion met
 ---------------------------------------
 HF Exchange   Energy = -27.05739986314198
 One-Electron  Energy = -474.39207491974969
 Total Coulomb Energy = 198.32057171654830
 SCF time:   CPU 0.25s  wall 0.00s 
 HF Exchange   Energy = -27.05739986314198
 One-Electron  Energy = -474.39207491974969
 Total Coulomb Energy = 198.32057171654830
 Nuclear repulsion Energy =  66.33927853347990
 SCF   energy in the final basis set =     -236.7896245329
 Total energy in the final basis set =     -236.7896245329

 --------------------------------------------------------------

                    Orbital Energies (a.u.)
 --------------------------------------------------------------

 Alpha MOs
 -- Occupied --
-25.3430 -25.3364 -10.9992  -1.0512  -1.0416  -0.6833  -0.3861  -0.3853
 -0.2014  -0.1307  -0.1307  -0.1142  -0.1142  -0.0157
 -- Virtual --
  0.5693   0.9052   0.9689   0.9721
 --------------------------------------------------------------

          Ground-State Mulliken Net Atomic Charges

     Atom                 Charge (a.u.)
  ----------------------------------------
      1 F                    -0.621208
      2 C                    -0.113923
      3 H                     0.117097
      4 H                     0.117362
      5 H                     0.116989
      6 F                    -0.616317
  ----------------------------------------
  Sum of atomic charges =    -1.000000

 -----------------------------------------------------------------
                    Cartesian Multipole Moments
 -----------------------------------------------------------------
    Charge (ESU x 10^10)
                -4.8032
    Dipole Moment (Debye)
         X      -0.0614      Y      -0.0139      Z      -0.0090
       Tot       0.0636
    Quadrupole Moments (Debye-Ang)
        XX     -37.3632     XY       0.0095     YY     -16.7240
        XZ      -0.0046     YZ       0.0008     ZZ     -16.7489
    Octopole Moments (Debye-Ang^2)
       XXX      -0.3068    XXY      -0.0535    XYY      -0.0166
       YYY       0.4718    XXZ      -0.0303    XYZ       0.0006
       YYZ      -0.4446    XZZ      -0.0114    YZZ      -0.5228
       ZZZ       0.4015
    Hexadecapole Moments (Debye-Ang^3)
      XXXX    -263.0916   XXXY       0.1156   XXYY     -36.5400
      XYYY       0.0709   YYYY     -18.2403   XXXZ      -0.0575
      XXYZ      -0.0008   XYYZ      -0.0116   YYYZ       0.0016
      XXZZ     -36.5247   XYZZ       0.0238   YYZZ      -6.0680
      XZZZ      -0.0353   YZZZ      -0.0005   ZZZZ     -18.1964
 -----------------------------------------------------------------
 Mayer SCF Bond Order, atomic valence on the diagonal:

            1           2           3           4           5           6
    1   0.6152692   0.4764069   0.0097553   0.0102047   0.0099424   0.1089599
    2   0.4764069   3.8576747   0.9665042   0.9659057   0.9662428   0.4826151
    3   0.0097553   0.9665042   0.9862883   0.0000687   0.0000719   0.0098881
    4   0.0102047   0.9659057   0.0000687   0.9862261   0.0000756   0.0099714
    5   0.0099424   0.9662428   0.0000719   0.0000756   0.9863136   0.0099808
    6   0.1089599   0.4826151   0.0098881   0.0099714   0.0099808   0.6214154


 Calculating analytic gradient of the SCF energy
 ------------------------------------------------------
 Correction for Bais Set Incompleteness Error in  HF-3c
 ------------------------------------------------------
 Gradient of SCF Energy
            1           2           3           4           5           6
    1   0.0273791   0.0006054   0.0000304  -0.0007909  -0.0001716  -0.0270523
    2  -0.0000455  -0.0013158   0.0063412  -0.0182216   0.0128177   0.0004241
    3   0.0002621   0.0034909  -0.0227540   0.0045701   0.0144161   0.0000148
 Max gradient component =       2.738E-02
 RMS gradient           =       1.243E-02
 Gradient time:  CPU 0.05 s  wall 0.03 s
 Geometry Optimization Parameters
   NAtoms,    NIC,     NZ,  NCons,   NDum,   NFix, NCnnct, MaxDiis
        6      27       0       0       0       0       0       0

 Cartesian Hessian Update
 Hessian updated using Powell/Murtagh-Sargent update
  Mixing factors:     0.800452 Powell                      0.199548 Murtagh-Sargent


** GEOMETRY OPTIMIZATION IN CARTESIAN COORDINATES **
   Searching for a Transition State

   Optimization Cycle:   3

                       Coordinates (Angstroms)
     ATOM                X               Y               Z
      1  F         1.8274553628    0.0007744962    0.0018776952
      2  C        -0.0019729564   -0.0003774084   -0.0004148841
      3  H         0.0016102101   -0.3066496664    1.0194916360
      4  H        -0.0035897315    1.0402327264   -0.2482610114
      5  H         0.0001907125   -0.7391420575   -0.7734903935
      6  F        -1.8231425600    0.0033782645    0.0006065466
   Point Group: c1    Number of degrees of freedom:    12


   Energy is   -236.789624533


 Translations and Rotations Projected Out of Hessian

 12 Hessian modes will be used to form the next step
  Hessian Eigenvalues:
     0.075420    0.999696    1.000000    1.000000    1.000000    1.000000
     1.000000    1.000000    1.000000    1.000000    1.050290    1.256852
**WARNING** Hessian does not have the desired local structure
**WARNING** Hessian does not have the desired local structure

 Transition state search - taking P-RFO step
 Searching for Lamda that Maximizes Along the Lowest mode
 Value Taken    Lamda =   0.07786637
 Searching for Lamda that Minimizes Along All other modes
 Value Taken    Lamda =  -0.00251788
 Calculated Step too Large.  Step scaled by  0.001773
 Step Taken.  Stepsize is  0.010000

                             Maximum     Tolerance    Cnvgd?
         Gradient           0.027379      0.000300      NO
         Displacement       0.003976      0.001200      NO
         Energy change      0.000155      0.000001      NO

 Adding empirical dispersion correction 
 ----------------------------------------------------------------
 Doing -D3(BJ) with
 s6  =   1.00000
 s8  =   0.87770
 a1  =   0.41710
 a2  =   2.91490
 -D3 energy without 3body term =     -0.0119418748 hartrees
 ----------------------------------------------------------------
 Adding gCP correction 
 ----------------------------------------------------------------
 gCP energy =      0.0380193103 hartrees
 ------------------------------------------------------
 Correction for Bais Set Incompleteness Error in  HF-3c
 ------------------------------------------------------
 SRB energy =     -0.0284219895 hartrees
 ----------------------------------------------------------------
             Standard Nuclear Orientation (Angstroms)
    I     Atom           X                Y                Z
 ----------------------------------------------------------------
    1      F       1.8295399438     0.0011594884     0.0028784668
    2      C      -0.0036263735    -0.0001299465    -0.0012314630
    3      H       0.0025074254    -0.3078155173     1.0174511686
    4      H      -0.0056938040     1.0406019503    -0.2479669397
    5      H       0.0003851704    -0.7407895568    -0.7722215156
    6      F      -1.8225613246     0.0051899366     0.0008998716
 ----------------------------------------------------------------
 Nuclear Repulsion Energy =          66.32218080 hartrees
 There are       14 alpha and       14 beta electrons
 Applying Cartesian multipole field
    Component          Value
    ---------          -----
     (2,0,0)        1.00000E-11
     (0,2,0)        2.00000E-10
     (0,0,2)       -3.00000E-10
 Nucleus-field energy     =     0.0000000016 hartrees
 Requested basis set is MINIX
 There are 12 shells and 18 basis functions
 A cutoff of  1.0D-11 yielded     75 shell pairs
 There are       177 function pairs
 Smallest overlap matrix eigenvalue = 2.39E-01
 Guess MOs from SCF MO coefficient file

 -----------------------------------------------------------------------
  General SCF calculation program by
  Eric Jon Sundstrom, Paul Horn, Yuezhi Mao, Dmitri Zuev, Alec White,
  David Stuck, Shaama M.S., Shane Yost, Joonho Lee, David Small,
  Daniel Levine, Susi Lehtola, Hugh Burton, Evgeny Epifanovsky,
  Bang C. Huynh
 -----------------------------------------------------------------------
 Hartree-Fock
 Dispersion:   Grimme D3
 using 8 threads for integral computing
 -------------------------------------------------------
 OpenMP Integral computing Module                
 Release: version 1.0, May 2013, Q-Chem Inc. Pittsburgh 
 -------------------------------------------------------
 HF Exchange   Energy = -27.05740288836684
 One-Electron  Energy = -474.35558859224858
 Total Coulomb Energy = 198.30132631698029
 Nuclear repulsion Energy =  66.32218080272079
 A restricted SCF calculation will be
 performed using DIIS
 SCF converges when DIIS error is below 1.0e-08
 HF Exchange   Energy = -27.05740288836684
 One-Electron  Energy = -474.35558859224858
 Total Coulomb Energy = 198.30132631698029
 ---------------------------------------
  Cycle       Energy         DIIS error
 ---------------------------------------
 HF Exchange   Energy = -27.05737216034965
 One-Electron  Energy = -474.35634143484879
 Total Coulomb Energy = 198.30204543019903
 Nuclear repulsion Energy =  66.32218080272079
    1    -236.7894843609      2.21e-04  
 HF Exchange   Energy = -27.05737216034965
 One-Electron  Energy = -474.35634143484879
 Total Coulomb Energy = 198.30204543019903
 HF Exchange   Energy = -27.05739009478292
 One-Electron  Energy = -474.35631127899933
 Total Coulomb Energy = 198.30203302064911
 Nuclear repulsion Energy =  66.32218080272079
    2    -236.7894873623      4.04e-05  
 HF Exchange   Energy = -27.05739009478292
 One-Electron  Energy = -474.35631127899933
 Total Coulomb Energy = 198.30203302064911
 HF Exchange   Energy = -27.05738237751874
 One-Electron  Energy = -474.35635520770160
 Total Coulomb Energy = 198.30206920293745
 Nuclear repulsion Energy =  66.32218080272079
    3    -236.7894875504      1.29e-05  
 HF Exchange   Energy = -27.05738237751874
 One-Electron  Energy = -474.35635520770160
 Total Coulomb Energy = 198.30206920293745
 HF Exchange   Energy = -27.05738469545944
 One-Electron  Energy = -474.35632906142388
 Total Coulomb Energy = 198.30204537120076
 Nuclear repulsion Energy =  66.32218080272079
    4    -236.7894875796      3.98e-06  
 HF Exchange   Energy = -27.05738469545944
 One-Electron  Energy = -474.35632906142388
 Total Coulomb Energy = 198.30204537120076
 HF Exchange   Energy = -27.05738354879431
 One-Electron  Energy = -474.35633528868817
 Total Coulomb Energy = 198.30205045156774
 Nuclear repulsion Energy =  66.32218080272079
    5    -236.7894875830      1.17e-06  
 HF Exchange   Energy = -27.05738354879431
 One-Electron  Energy = -474.35633528868817
 Total Coulomb Energy = 198.30205045156774
 HF Exchange   Energy = -27.05738374792296
 One-Electron  Energy = -474.35633535810956
 Total Coulomb Energy = 198.30205072006157
 Nuclear repulsion Energy =  66.32218080272079
    6    -236.7894875832      8.84e-08  
 HF Exchange   Energy = -27.05738374792296
 One-Electron  Energy = -474.35633535810956
 Total Coulomb Energy = 198.30205072006157
 HF Exchange   Energy = -27.05738378366716
 One-Electron  Energy = -474.35633563880691
 Total Coulomb Energy = 198.30205103648049
 Nuclear repulsion Energy =  66.32218080272079
    7    -236.7894875833      2.08e-08  
 HF Exchange   Energy = -27.05738378366716
 One-Electron  Energy = -474.35633563880691
 Total Coulomb Energy = 198.30205103648049
    8    -236.7894875833      5.38e-09  Convergence criterion met
 ---------------------------------------
 HF Exchange   Energy = -27.05738378366716
 One-Electron  Energy = -474.35633563880691
 Total Coulomb Energy = 198.30205103648049
 SCF time:   CPU 0.23s  wall 0.00s 
 HF Exchange   Energy = -27.05738378366716
 One-Electron  Energy = -474.35633563880691
 Total Coulomb Energy = 198.30205103648049
 Nuclear repulsion Energy =  66.32218080272079
 SCF   energy in the final basis set =     -236.7894875833
 Total energy in the final basis set =     -236.7894875833

 --------------------------------------------------------------

                    Orbital Energies (a.u.)
 --------------------------------------------------------------

 Alpha MOs
 -- Occupied --
-25.3454 -25.3340 -10.9993  -1.0521  -1.0405  -0.6836  -0.3865  -0.3852
 -0.2013  -0.1312  -0.1311  -0.1138  -0.1137  -0.0157
 -- Virtual --
  0.5687   0.9053   0.9685   0.9733
 --------------------------------------------------------------

          Ground-State Mulliken Net Atomic Charges

     Atom                 Charge (a.u.)
  ----------------------------------------
      1 F                    -0.623061
      2 C                    -0.114350
      3 H                     0.117233
      4 H                     0.117597
      5 H                     0.117052
      6 F                    -0.614471
  ----------------------------------------
  Sum of atomic charges =    -1.000000

 -----------------------------------------------------------------
                    Cartesian Multipole Moments
 -----------------------------------------------------------------
    Charge (ESU x 10^10)
                -4.8032
    Dipole Moment (Debye)
         X      -0.1055      Y      -0.0211      Z      -0.0133
       Tot       0.1084
    Quadrupole Moments (Debye-Ang)
        XX     -37.3796     XY       0.0144     YY     -16.7183
        XZ      -0.0073     YZ       0.0007     ZZ     -16.7542
    Octopole Moments (Debye-Ang^2)
       XXX      -0.5114    XXY      -0.0847    XYY      -0.0247
       YYY       0.4416    XXZ      -0.0434    XYZ       0.0009
       YYZ      -0.4461    XZZ      -0.0165    YZZ      -0.5325
       ZZZ       0.3964
    Hexadecapole Moments (Debye-Ang^3)
      XXXX    -263.3501   XXXY       0.1785   XXYY     -36.5691
      XYYY       0.1099   YYYY     -18.2467   XXXZ      -0.0901
      XXYZ      -0.0010   XYYZ      -0.0182   YYYZ       0.0034
      XXZZ     -36.5471   XYZZ       0.0367   YYZZ      -6.0652
      XZZZ      -0.0549   YZZZ      -0.0016   ZZZZ     -18.1824
 -----------------------------------------------------------------
 Mayer SCF Bond Order, atomic valence on the diagonal:

            1           2           3           4           5           6
    1   0.6129221   0.4740678   0.0096337   0.0102776   0.0098752   0.1090677
    2   0.4740678   3.8577351   0.9666252   0.9658213   0.9663146   0.4849063
    3   0.0096337   0.9666252   0.9862565   0.0000668   0.0000712   0.0098595
    4   0.0102776   0.9658213   0.0000668   0.9861708   0.0000773   0.0099278
    5   0.0098752   0.9663146   0.0000712   0.0000773   0.9862989   0.0099607
    6   0.1090677   0.4849063   0.0098595   0.0099278   0.0099607   0.6237220


 Calculating analytic gradient of the SCF energy
 ------------------------------------------------------
 Correction for Bais Set Incompleteness Error in  HF-3c
 ------------------------------------------------------
 Gradient of SCF Energy
            1           2           3           4           5           6
    1   0.0276003   0.0010322   0.0000334  -0.0012507  -0.0002620  -0.0271533
    2  -0.0001191  -0.0012702   0.0063562  -0.0182619   0.0126704   0.0006246
    3   0.0004549   0.0034582  -0.0235375   0.0047424   0.0148056   0.0000764
 Max gradient component =       2.760E-02
 RMS gradient           =       1.257E-02
 Gradient time:  CPU 0.07 s  wall 0.04 s
 Geometry Optimization Parameters
   NAtoms,    NIC,     NZ,  NCons,   NDum,   NFix, NCnnct, MaxDiis
        6      27       0       0       0       0       0       0

 Cartesian Hessian Update
 Hessian updated using Powell/Murtagh-Sargent update
  Mixing factors:     0.994059 Powell                      0.005941 Murtagh-Sargent


** GEOMETRY OPTIMIZATION IN CARTESIAN COORDINATES **
   Searching for a Transition State

   Optimization Cycle:   4

                       Coordinates (Angstroms)
     ATOM                X               Y               Z
      1  F         1.8295399438    0.0011594884    0.0028784668
      2  C        -0.0036263735   -0.0001299465   -0.0012314630
      3  H         0.0025074254   -0.3078155173    1.0174511686
      4  H        -0.0056938040    1.0406019503   -0.2479669397
      5  H         0.0003851704   -0.7407895568   -0.7722215156
      6  F        -1.8225613246    0.0051899366    0.0008998716
   Point Group: c1    Number of degrees of freedom:    12


   Energy is   -236.789487583


 Translations and Rotations Projected Out of Hessian

 12 Hessian modes will be used to form the next step
  Hessian Eigenvalues:
     0.058481    0.999737    1.000000    1.000000    1.000000    1.000000
     1.000000    1.000000    1.000000    1.000606    1.051215    1.256859
**WARNING** Hessian does not have the desired local structure
**WARNING** Hessian does not have the desired local structure

 Transition state search - taking P-RFO step
 Searching for Lamda that Maximizes Along the Lowest mode
 Value Taken    Lamda =   0.06067486
 Searching for Lamda that Minimizes Along All other modes
 Value Taken    Lamda =  -0.00263435
 Calculated Step too Large.  Step scaled by  0.001901
 Step Taken.  Stepsize is  0.010000

                             Maximum     Tolerance    Cnvgd?
         Gradient           0.027600      0.000300      NO
         Displacement       0.003926      0.001200      NO
         Energy change      0.000137      0.000001      NO

 Adding empirical dispersion correction 
 ----------------------------------------------------------------
 Doing -D3(BJ) with
 s6  =   1.00000
 s8  =   0.87770
 a1  =   0.41710
 a2  =   2.91490
 -D3 energy without 3body term =     -0.0119438173 hartrees
 ----------------------------------------------------------------
 Adding gCP correction 
 ----------------------------------------------------------------
 gCP energy =      0.0380056837 hartrees
 ------------------------------------------------------
 Correction for Bais Set Incompleteness Error in  HF-3c
 ------------------------------------------------------
 SRB energy =     -0.0284039893 hartrees
 ----------------------------------------------------------------
             Standard Nuclear Orientation (Angstroms)
    I     Atom           X                Y                Z
 ----------------------------------------------------------------
    1      F       1.8316176428     0.0016003624     0.0038460789
    2      C      -0.0056271896     0.0001066931    -0.0020789562
    3      H       0.0034580301    -0.3090692622     1.0157145248
    4      H      -0.0076788179     1.0410323683    -0.2477528429
    5      H       0.0006407563    -0.7424767340    -0.7710918358
    6      F      -1.8218593841     0.0070229271     0.0011726200
 ----------------------------------------------------------------
 Nuclear Repulsion Energy =          66.30493362 hartrees
 There are       14 alpha and       14 beta electrons
 Applying Cartesian multipole field
    Component          Value
    ---------          -----
     (2,0,0)        1.00000E-11
     (0,2,0)        2.00000E-10
     (0,0,2)       -3.00000E-10
 Nucleus-field energy     =     0.0000000016 hartrees
 Requested basis set is MINIX
 There are 12 shells and 18 basis functions
 A cutoff of  1.0D-11 yielded     75 shell pairs
 There are       177 function pairs
 Smallest overlap matrix eigenvalue = 2.39E-01
 Guess MOs from SCF MO coefficient file

 -----------------------------------------------------------------------
  General SCF calculation program by
  Eric Jon Sundstrom, Paul Horn, Yuezhi Mao, Dmitri Zuev, Alec White,
  David Stuck, Shaama M.S., Shane Yost, Joonho Lee, David Small,
  Daniel Levine, Susi Lehtola, Hugh Burton, Evgeny Epifanovsky,
  Bang C. Huynh
 -----------------------------------------------------------------------
 Hartree-Fock
 Dispersion:   Grimme D3
 using 8 threads for integral computing
 -------------------------------------------------------
 OpenMP Integral computing Module                
 Release: version 1.0, May 2013, Q-Chem Inc. Pittsburgh 
 -------------------------------------------------------
 HF Exchange   Energy = -27.05728112815940
 One-Electron  Energy = -474.32033833135432
 Total Coulomb Energy = 198.28331514343444
 Nuclear repulsion Energy =  66.30493362640885
 A restricted SCF calculation will be
 performed using DIIS
 SCF converges when DIIS error is below 1.0e-08
 HF Exchange   Energy = -27.05728112815940
 One-Electron  Energy = -474.32033833135432
 Total Coulomb Energy = 198.28331514343444
 ---------------------------------------
  Cycle       Energy         DIIS error
 ---------------------------------------
 HF Exchange   Energy = -27.05728426425361
 One-Electron  Energy = -474.32096845579304
 Total Coulomb Energy = 198.28394460055870
 Nuclear repulsion Energy =  66.30493362640885
    1    -236.7893706897      2.45e-04  
 HF Exchange   Energy = -27.05728426425361
 One-Electron  Energy = -474.32096845579304
 Total Coulomb Energy = 198.28394460055870
 HF Exchange   Energy = -27.05730219391891
 One-Electron  Energy = -474.32098993032486
 Total Coulomb Energy = 198.28398379207411
 Nuclear repulsion Energy =  66.30493362640885
    2    -236.7893744931      4.36e-05  
 HF Exchange   Energy = -27.05730219391891
 One-Electron  Energy = -474.32098993032486
 Total Coulomb Energy = 198.28398379207411
 HF Exchange   Energy = -27.05729782766126
 One-Electron  Energy = -474.32102815978482
 Total Coulomb Energy = 198.28401762516907
 Nuclear repulsion Energy =  66.30493362640885
    3    -236.7893747058      1.32e-05  
 HF Exchange   Energy = -27.05729782766126
 One-Electron  Energy = -474.32102815978482
 Total Coulomb Energy = 198.28401762516907
 HF Exchange   Energy = -27.05729957676590
 One-Electron  Energy = -474.32100685855784
 Total Coulomb Energy = 198.28399806965035
 Nuclear repulsion Energy =  66.30493362640885
    4    -236.7893747359      3.93e-06  
 HF Exchange   Energy = -27.05729957676590
 One-Electron  Energy = -474.32100685855784
 Total Coulomb Energy = 198.28399806965035
 HF Exchange   Energy = -27.05729843404953
 One-Electron  Energy = -474.32101351894795
 Total Coulomb Energy = 198.28400358716553
 Nuclear repulsion Energy =  66.30493362640885
    5    -236.7893747393      1.02e-06  
 HF Exchange   Energy = -27.05729843404953
 One-Electron  Energy = -474.32101351894795
 Total Coulomb Energy = 198.28400358716553
 HF Exchange   Energy = -27.05729864327312
 One-Electron  Energy = -474.32101316203597
 Total Coulomb Energy = 198.28400343943500
 Nuclear repulsion Energy =  66.30493362640885
    6    -236.7893747394      9.24e-08  
 HF Exchange   Energy = -27.05729864327312
 One-Electron  Energy = -474.32101316203597
 Total Coulomb Energy = 198.28400343943500
 HF Exchange   Energy = -27.05729867125376
 One-Electron  Energy = -474.32101340001378
 Total Coulomb Energy = 198.28400370540677
 Nuclear repulsion Energy =  66.30493362640885
    7    -236.7893747395      2.06e-08  
 HF Exchange   Energy = -27.05729867125376
 One-Electron  Energy = -474.32101340001378
 Total Coulomb Energy = 198.28400370540677
    8    -236.7893747395      5.45e-09  Convergence criterion met
 ---------------------------------------
 HF Exchange   Energy = -27.05729867125376
 One-Electron  Energy = -474.32101340001378
 Total Coulomb Energy = 198.28400370540677
 SCF time:   CPU 0.24s  wall 0.00s 
 HF Exchange   Energy = -27.05729867125376
 One-Electron  Energy = -474.32101340001378
 Total Coulomb Energy = 198.28400370540677
 Nuclear repulsion Energy =  66.30493362640885
 SCF   energy in the final basis set =     -236.7893747395
 Total energy in the final basis set =     -236.7893747395

 --------------------------------------------------------------

                    Orbital Energies (a.u.)
 --------------------------------------------------------------

 Alpha MOs
 -- Occupied --
-25.3483 -25.3311 -10.9994  -1.0535  -1.0389  -0.6838  -0.3870  -0.3850
 -0.2013  -0.1319  -0.1319  -0.1130  -0.1129  -0.0156
 -- Virtual --
  0.5682   0.9052   0.9677   0.9746
 --------------------------------------------------------------

          Ground-State Mulliken Net Atomic Charges

     Atom                 Charge (a.u.)
  ----------------------------------------
      1 F                    -0.625243
      2 C                    -0.114659
      3 H                     0.117345
      4 H                     0.117803
      5 H                     0.117086
      6 F                    -0.612331
  ----------------------------------------
  Sum of atomic charges =    -1.000000

 -----------------------------------------------------------------
                    Cartesian Multipole Moments
 -----------------------------------------------------------------
    Charge (ESU x 10^10)
                -4.8032
    Dipole Moment (Debye)
         X      -0.1554      Y      -0.0286      Z      -0.0173
       Tot       0.1590
    Quadrupole Moments (Debye-Ang)
        XX     -37.3954     XY       0.0190     YY     -16.7127
        XZ      -0.0099     YZ       0.0005     ZZ     -16.7590
    Octopole Moments (Debye-Ang^2)
       XXX      -0.7362    XXY      -0.1168    XYY      -0.0317
       YYY       0.4108    XXZ      -0.0557    XYZ       0.0013
       YYZ      -0.4472    XZZ      -0.0207    YZZ      -0.5427
       ZZZ       0.3932
    Hexadecapole Moments (Debye-Ang^3)
      XXXX    -263.5924   XXXY       0.2394   XXYY     -36.5963
      XYYY       0.1481   YYYY     -18.2545   XXXZ      -0.1225
      XXYZ      -0.0010   XYYZ      -0.0249   YYYZ       0.0054
      XXZZ     -36.5680   XYZZ       0.0491   YYZZ      -6.0630
      XZZZ      -0.0742   YZZZ      -0.0028   ZZZZ     -18.1706
 -----------------------------------------------------------------
 Mayer SCF Bond Order, atomic valence on the diagonal:

            1           2           3           4           5           6
    1   0.6101499   0.4713535   0.0095178   0.0103451   0.0098046   0.1091288
    2   0.4713535   3.8577464   0.9667226   0.9657331   0.9663796   0.4875576
    3   0.0095178   0.9667226   0.9862302   0.0000655   0.0000713   0.0098530
    4   0.0103451   0.9657331   0.0000655   0.9861225   0.0000794   0.0098994
    5   0.0098046   0.9663796   0.0000713   0.0000794   0.9862909   0.0099560
    6   0.1091288   0.4875576   0.0098530   0.0098994   0.0099560   0.6263947


 Calculating analytic gradient of the SCF energy
 ------------------------------------------------------
 Correction for Bais Set Incompleteness Error in  HF-3c
 ------------------------------------------------------
 Gradient of SCF Energy
            1           2           3           4           5           6
    1   0.0277723   0.0015056   0.0000387  -0.0016960  -0.0003435  -0.0272772
    2  -0.0001834  -0.0011467   0.0062743  -0.0182332   0.0124603   0.0008287
    3   0.0006442   0.0031953  -0.0239888   0.0048919   0.0151174   0.0001400
 Max gradient component =       2.777E-02
 RMS gradient           =       1.267E-02
 Gradient time:  CPU 0.06 s  wall 0.03 s
 Geometry Optimization Parameters
   NAtoms,    NIC,     NZ,  NCons,   NDum,   NFix, NCnnct, MaxDiis
        6      27       0       0       0       0       0       0

 Cartesian Hessian Update
 Hessian updated using Powell/Murtagh-Sargent update
  Mixing factors:     0.990540 Powell                      0.009460 Murtagh-Sargent


** GEOMETRY OPTIMIZATION IN CARTESIAN COORDINATES **
   Searching for a Transition State

   Optimization Cycle:   5

                       Coordinates (Angstroms)
     ATOM                X               Y               Z
      1  F         1.8316176428    0.0016003624    0.0038460789
      2  C        -0.0056271896    0.0001066931   -0.0020789562
      3  H         0.0034580301   -0.3090692622    1.0157145248
      4  H        -0.0076788179    1.0410323683   -0.2477528429
      5  H         0.0006407563   -0.7424767340   -0.7710918358
      6  F        -1.8218593841    0.0070229271    0.0011726200
   Point Group: c1    Number of degrees of freedom:    12


   Energy is   -236.789374739


 Translations and Rotations Projected Out of Hessian

 12 Hessian modes will be used to form the next step
  Hessian Eigenvalues:
     0.041813    0.999561    1.000000    1.000000    1.000000    1.000000
     1.000000    1.000000    1.000000    1.001007    1.049965    1.256786
**WARNING** Hessian does not have the desired local structure
**WARNING** Hessian does not have the desired local structure

 Transition state search - taking P-RFO step
 Searching for Lamda that Maximizes Along the Lowest mode
 Value Taken    Lamda =   0.04405900
 Searching for Lamda that Minimizes Along All other modes
 Value Taken    Lamda =  -0.00270733
 Calculated Step too Large.  Step scaled by  0.002258
 Step Taken.  Stepsize is  0.010000

                             Maximum     Tolerance    Cnvgd?
         Gradient           0.027772      0.000300      NO
         Displacement       0.004454      0.001200      NO
         Energy change      0.000113      0.000001      NO

 Adding empirical dispersion correction 
 ----------------------------------------------------------------
 Doing -D3(BJ) with
 s6  =   1.00000
 s8  =   0.87770
 a1  =   0.41710
 a2  =   2.91490
 -D3 energy without 3body term =     -0.0119455297 hartrees
 ----------------------------------------------------------------
 Adding gCP correction 
 ----------------------------------------------------------------
 gCP energy =      0.0379896078 hartrees
 ------------------------------------------------------
 Correction for Bais Set Incompleteness Error in  HF-3c
 ------------------------------------------------------
 SRB energy =     -0.0283862387 hartrees
 ----------------------------------------------------------------
             Standard Nuclear Orientation (Angstroms)
    I     Atom           X                Y                Z
 ----------------------------------------------------------------
    1      F       1.8336727924     0.0020869242     0.0047642173
    2      C      -0.0079841908     0.0002946189    -0.0028428110
    3      H       0.0044465635    -0.3103455209     1.0141660883
    4      H      -0.0095106350     1.0414777398    -0.2476124070
    5      H       0.0009514594    -0.7441401987    -0.7700840663
    6      F      -1.8210249521     0.0088427915     0.0014185675
 ----------------------------------------------------------------
 Nuclear Repulsion Energy =          66.28896714 hartrees
 There are       14 alpha and       14 beta electrons
 Applying Cartesian multipole field
    Component          Value
    ---------          -----
     (2,0,0)        1.00000E-11
     (0,2,0)        2.00000E-10
     (0,0,2)       -3.00000E-10
 Nucleus-field energy     =     0.0000000016 hartrees
 Requested basis set is MINIX
 There are 12 shells and 18 basis functions
 A cutoff of  1.0D-11 yielded     75 shell pairs
 There are       177 function pairs
 Smallest overlap matrix eigenvalue = 2.38E-01
 Guess MOs from SCF MO coefficient file

 -----------------------------------------------------------------------
  General SCF calculation program by
  Eric Jon Sundstrom, Paul Horn, Yuezhi Mao, Dmitri Zuev, Alec White,
  David Stuck, Shaama M.S., Shane Yost, Joonho Lee, David Small,
  Daniel Levine, Susi Lehtola, Hugh Burton, Evgeny Epifanovsky,
  Bang C. Huynh
 -----------------------------------------------------------------------
 Hartree-Fock
 Dispersion:   Grimme D3
 using 8 threads for integral computing
 -------------------------------------------------------
 OpenMP Integral computing Module                
 Release: version 1.0, May 2013, Q-Chem Inc. Pittsburgh 
 -------------------------------------------------------
 HF Exchange   Energy = -27.05715943977475
 One-Electron  Energy = -474.28801840607139
 Total Coulomb Energy = 198.26693601803277
 Nuclear repulsion Energy =  66.28896713917928
 A restricted SCF calculation will be
 performed using DIIS
 SCF converges when DIIS error is below 1.0e-08
 HF Exchange   Energy = -27.05715943977475
 One-Electron  Energy = -474.28801840607139
 Total Coulomb Energy = 198.26693601803277
 ---------------------------------------
  Cycle       Energy         DIIS error
 ---------------------------------------
 HF Exchange   Energy = -27.05718883924317
 One-Electron  Energy = -474.28855209447073
 Total Coulomb Energy = 198.26749435356800
 Nuclear repulsion Energy =  66.28896713917928
    1    -236.7892746886      2.73e-04  
 HF Exchange   Energy = -27.05718883924317
 One-Electron  Energy = -474.28855209447073
 Total Coulomb Energy = 198.26749435356800
 HF Exchange   Energy = -27.05720809262663
 One-Electron  Energy = -474.28862304646560
 Total Coulomb Energy = 198.26758432239714
 Nuclear repulsion Energy =  66.28896713917928
    2    -236.7892794410      4.71e-05  
 HF Exchange   Energy = -27.05720809262663
 One-Electron  Energy = -474.28862304646560
 Total Coulomb Energy = 198.26758432239714
 HF Exchange   Energy = -27.05720674519857
 One-Electron  Energy = -474.28865986693944
 Total Coulomb Energy = 198.26761976605735
 Nuclear repulsion Energy =  66.28896713917928
    3    -236.7892796775      1.34e-05  
 HF Exchange   Energy = -27.05720674519857
 One-Electron  Energy = -474.28865986693944
 Total Coulomb Energy = 198.26761976605735
 HF Exchange   Energy = -27.05720790408384
 One-Electron  Energy = -474.28864416385989
 Total Coulomb Energy = 198.26760521856698
 Nuclear repulsion Energy =  66.28896713917928
    4    -236.7892797069      3.84e-06  
 HF Exchange   Energy = -27.05720790408384
 One-Electron  Energy = -474.28864416385989
 Total Coulomb Energy = 198.26760521856698
 HF Exchange   Energy = -27.05720693863724
 One-Electron  Energy = -474.28864989142238
 Total Coulomb Energy = 198.26760998050270
 Nuclear repulsion Energy =  66.28896713917928
    5    -236.7892797102      8.86e-07  
 HF Exchange   Energy = -27.05720693863724
 One-Electron  Energy = -474.28864989142238
 Total Coulomb Energy = 198.26760998050270
 HF Exchange   Energy = -27.05720715388776
 One-Electron  Energy = -474.28864913392448
 Total Coulomb Energy = 198.26760943823231
 Nuclear repulsion Energy =  66.28896713917928
    6    -236.7892797104      9.42e-08  
 HF Exchange   Energy = -27.05720715388776
 One-Electron  Energy = -474.28864913392448
 Total Coulomb Energy = 198.26760943823231
 HF Exchange   Energy = -27.05720717293844
 One-Electron  Energy = -474.28864932662623
 Total Coulomb Energy = 198.26760965000756
 Nuclear repulsion Energy =  66.28896713917928
    7    -236.7892797104      1.99e-08  
 HF Exchange   Energy = -27.05720717293844
 One-Electron  Energy = -474.28864932662623
 Total Coulomb Energy = 198.26760965000756
    8    -236.7892797104      5.36e-09  Convergence criterion met
 ---------------------------------------
 HF Exchange   Energy = -27.05720717293844
 One-Electron  Energy = -474.28864932662623
 Total Coulomb Energy = 198.26760965000756
 SCF time:   CPU 0.23s  wall 0.00s 
 HF Exchange   Energy = -27.05720717293844
 One-Electron  Energy = -474.28864932662623
 Total Coulomb Energy = 198.26760965000756
 Nuclear repulsion Energy =  66.28896713917928
 SCF   energy in the final basis set =     -236.7892797104
 Total energy in the final basis set =     -236.7892797104

 --------------------------------------------------------------

                    Orbital Energies (a.u.)
 --------------------------------------------------------------

 Alpha MOs
 -- Occupied --
-25.3515 -25.3278 -10.9995  -1.0554  -1.0370  -0.6840  -0.3874  -0.3848
 -0.2014  -0.1331  -0.1331  -0.1119  -0.1117  -0.0155
 -- Virtual --
  0.5678   0.9049   0.9667   0.9758
 --------------------------------------------------------------

          Ground-State Mulliken Net Atomic Charges

     Atom                 Charge (a.u.)
  ----------------------------------------
      1 F                    -0.627760
      2 C                    -0.114883
      3 H                     0.117441
      4 H                     0.117986
      5 H                     0.117104
      6 F                    -0.609889
  ----------------------------------------
  Sum of atomic charges =    -1.000000

 -----------------------------------------------------------------
                    Cartesian Multipole Moments
 -----------------------------------------------------------------
    Charge (ESU x 10^10)
                -4.8032
    Dipole Moment (Debye)
         X      -0.2114      Y      -0.0361      Z      -0.0211
       Tot       0.2155
    Quadrupole Moments (Debye-Ang)
        XX     -37.4104     XY       0.0233     YY     -16.7072
        XZ      -0.0126     YZ       0.0002     ZZ     -16.7632
    Octopole Moments (Debye-Ang^2)
       XXX      -0.9811    XXY      -0.1489    XYY      -0.0375
       YYY       0.3803    XXZ      -0.0675    XYZ       0.0017
       YYZ      -0.4486    XZZ      -0.0238    YZZ      -0.5531
       ZZZ       0.3899
    Hexadecapole Moments (Debye-Ang^3)
      XXXX    -263.8146   XXXY       0.2969   XXYY     -36.6211
      XYYY       0.1847   YYYY     -18.2630   XXXZ      -0.1543
      XXYZ      -0.0011   XYYZ      -0.0316   YYYZ       0.0075
      XXZZ     -36.5867   XYZZ       0.0608   YYZZ      -6.0612
      XZZZ      -0.0929   YZZZ      -0.0038   ZZZZ     -18.1604
 -----------------------------------------------------------------
 Mayer SCF Bond Order, atomic valence on the diagonal:

            1           2           3           4           5           6
    1   0.6069415   0.4682563   0.0094020   0.0104047   0.0097300   0.1091486
    2   0.4682563   3.8577188   0.9668070   0.9656422   0.9664368   0.4905765
    3   0.0094020   0.9668070   0.9862076   0.0000645   0.0000718   0.0098624
    4   0.0104047   0.9656422   0.0000645   0.9860792   0.0000817   0.0098862
    5   0.0097300   0.9664368   0.0000718   0.0000817   0.9862866   0.0099663
    6   0.1091486   0.4905765   0.0098624   0.0098862   0.0099663   0.6294399


 Calculating analytic gradient of the SCF energy
 ------------------------------------------------------
 Correction for Bais Set Incompleteness Error in  HF-3c
 ------------------------------------------------------
 Gradient of SCF Energy
            1           2           3           4           5           6
    1   0.0278889   0.0020253   0.0000439  -0.0021219  -0.0004163  -0.0274199
    2  -0.0002344  -0.0010457   0.0061687  -0.0181219   0.0121968   0.0010364
    3   0.0008173   0.0029868  -0.0243390   0.0050022   0.0153378   0.0001949
 Max gradient component =       2.789E-02
 RMS gradient           =       1.273E-02
 Gradient time:  CPU 0.06 s  wall 0.03 s
 Geometry Optimization Parameters
   NAtoms,    NIC,     NZ,  NCons,   NDum,   NFix, NCnnct, MaxDiis
        6      27       0       0       0       0       0       0

 Cartesian Hessian Update
 Hessian updated using Powell/Murtagh-Sargent update
  Mixing factors:     0.991370 Powell                      0.008630 Murtagh-Sargent


** GEOMETRY OPTIMIZATION IN CARTESIAN COORDINATES **
   Searching for a Transition State

   Optimization Cycle:   6

                       Coordinates (Angstroms)
     ATOM                X               Y               Z
      1  F         1.8336727924    0.0020869242    0.0047642173
      2  C        -0.0079841908    0.0002946189   -0.0028428110
      3  H         0.0044465635   -0.3103455209    1.0141660883
      4  H        -0.0095106350    1.0414777398   -0.2476124070
      5  H         0.0009514594   -0.7441401987   -0.7700840663
      6  F        -1.8210249521    0.0088427915    0.0014185675
   Point Group: c1    Number of degrees of freedom:    12


   Energy is   -236.789279710


 Translations and Rotations Projected Out of Hessian

 12 Hessian modes will be used to form the next step
  Hessian Eigenvalues:
     0.025378    0.999233    1.000000    1.000000    1.000000    1.000000
     1.000000    1.000000    1.000002    1.001755    1.048888    1.256756
**WARNING** Hessian does not have the desired local structure
**WARNING** Hessian does not have the desired local structure

 Transition state search - taking P-RFO step
 Searching for Lamda that Maximizes Along the Lowest mode
 Value Taken    Lamda =   0.02794839
 Searching for Lamda that Minimizes Along All other modes
 Value Taken    Lamda =  -0.00276221
 Calculated Step too Large.  Step scaled by  0.003033
 Step Taken.  Stepsize is  0.010000

                             Maximum     Tolerance    Cnvgd?
         Gradient           0.027889      0.000300      NO
         Displacement       0.005130      0.001200      NO
         Energy change      0.000095      0.000001      NO

 Adding empirical dispersion correction 
 ----------------------------------------------------------------
 Doing -D3(BJ) with
 s6  =   1.00000
 s8  =   0.87770
 a1  =   0.41710
 a2  =   2.91490
 -D3 energy without 3body term =     -0.0119471876 hartrees
 ----------------------------------------------------------------
 Adding gCP correction 
 ----------------------------------------------------------------
 gCP energy =      0.0379737973 hartrees
 ------------------------------------------------------
 Correction for Bais Set Incompleteness Error in  HF-3c
 ------------------------------------------------------
 SRB energy =     -0.0283728908 hartrees
 ----------------------------------------------------------------
             Standard Nuclear Orientation (Angstroms)
    I     Atom           X                Y                Z
 ----------------------------------------------------------------
    1      F       1.8356886528     0.0026063183     0.0056241748
    2      C      -0.0106987018     0.0004398640    -0.0035336937
    3      H       0.0054585066    -0.3116134756     1.0127922919
    4      H      -0.0111632448     1.0418964941    -0.2475325332
    5      H       0.0013098912    -0.7457293404    -0.7691778954
    6      F      -1.8200440666     0.0106164944     0.0016372443
 ----------------------------------------------------------------
 Nuclear Repulsion Energy =          66.27527317 hartrees
 There are       14 alpha and       14 beta electrons
 Applying Cartesian multipole field
    Component          Value
    ---------          -----
     (2,0,0)        1.00000E-11
     (0,2,0)        2.00000E-10
     (0,0,2)       -3.00000E-10
 Nucleus-field energy     =     0.0000000016 hartrees
 Requested basis set is MINIX
 There are 12 shells and 18 basis functions
 A cutoff of  1.0D-11 yielded     75 shell pairs
 There are       177 function pairs
 Smallest overlap matrix eigenvalue = 2.38E-01
 Guess MOs from SCF MO coefficient file

 -----------------------------------------------------------------------
  General SCF calculation program by
  Eric Jon Sundstrom, Paul Horn, Yuezhi Mao, Dmitri Zuev, Alec White,
  David Stuck, Shaama M.S., Shane Yost, Joonho Lee, David Small,
  Daniel Levine, Susi Lehtola, Hugh Burton, Evgeny Epifanovsky,
  Bang C. Huynh
 -----------------------------------------------------------------------
 Hartree-Fock
 Dispersion:   Grimme D3
 using 8 threads for integral computing
 -------------------------------------------------------
 OpenMP Integral computing Module                
 Release: version 1.0, May 2013, Q-Chem Inc. Pittsburgh 
 -------------------------------------------------------
 HF Exchange   Energy = -27.05707025467048
 One-Electron  Energy = -474.26047040565464
 Total Coulomb Energy = 198.25307115281055
 Nuclear repulsion Energy =  66.27527317115623
 A restricted SCF calculation will be
 performed using DIIS
 SCF converges when DIIS error is below 1.0e-08
 HF Exchange   Energy = -27.05707025467048
 One-Electron  Energy = -474.26047040565464
 Total Coulomb Energy = 198.25307115281055
 ---------------------------------------
  Cycle       Energy         DIIS error
 ---------------------------------------
 HF Exchange   Energy = -27.05712446316849
 One-Electron  Energy = -474.26091670510749
 Total Coulomb Energy = 198.25356580225531
 Nuclear repulsion Energy =  66.27527317115623
    1    -236.7891963364      3.01e-04  
 HF Exchange   Energy = -27.05712446316849
 One-Electron  Energy = -474.26091670510749
 Total Coulomb Energy = 198.25356580225531
 HF Exchange   Energy = -27.05714617794174
 One-Electron  Energy = -474.26104256979409
 Total Coulomb Energy = 198.25371311581483
 Nuclear repulsion Energy =  66.27527317115623
    2    -236.7892021949      5.10e-05  
 HF Exchange   Energy = -27.05714617794174
 One-Electron  Energy = -474.26104256979409
 Total Coulomb Energy = 198.25371311581483
[...]
 SRB energy =     -0.0381224960 hartrees
 ----------------------------------------------------------------
             Standard Nuclear Orientation (Angstroms)
    I     Atom           X                Y                Z
 ----------------------------------------------------------------
    1      F       1.7037753500     0.0243061376     0.0057736495
    2      C       0.1773679710    -0.0047294925    -0.0041654300
    3      H      -0.0085218142    -0.3404431426     1.0205556949
    4      H      -0.0446137416     1.0397712276    -0.2550748156
    5      H      -0.0080760112    -0.7692001690    -0.7687963955
    6      F      -1.8193807165     0.0485117937     0.0015168855
 ----------------------------------------------------------------
 Nuclear Repulsion Energy =          68.55597730 hartrees
 There are       14 alpha and       14 beta electrons
 old dipole drv.
            1           2           3           4           5           6
    1  -1.6249821  -0.0138501  -0.0080829   2.6302675   0.0019675   0.0032275
    2   0.0009690  -0.4898898   0.0006885  -0.0074914   0.0225201   0.0041136
    3  -0.0000395   0.0006495  -0.4865883  -0.0011277   0.0038930   0.0355292
            7           8           9          10          11          12
    1  -0.1126299   0.0097753  -0.0379723  -0.1059839  -0.0489631   0.0112753
    2   0.0285009   0.0712007   0.0011374  -0.0930810   0.0879321  -0.0028178
    3  -0.0784448   0.0001053   0.0729345   0.0227170  -0.0030407   0.0759705
           13          14          15          16          17          18
    1  -0.1100971   0.0246331   0.0275047  -1.6765725   0.0264362   0.0040488
    2   0.0605558   0.0704862  -0.0007579   0.0105459  -0.7622539  -0.0023634
    3   0.0574593   0.0006906   0.0721186  -0.0005624  -0.0022974  -0.7699647
 New transposed dipole drv.
            1           2           3
    1  -1.6249821   0.0009690  -0.0000395
    2  -0.0138501  -0.4898898   0.0006495
    3  -0.0080829   0.0006885  -0.4865883
    4   2.6302675  -0.0074914  -0.0011277
    5   0.0019675   0.0225201   0.0038930
    6   0.0032275   0.0041136   0.0355292
    7  -0.1126299   0.0285009  -0.0784448
    8   0.0097753   0.0712007   0.0001053
    9  -0.0379723   0.0011374   0.0729345
   10  -0.1059839  -0.0930810   0.0227170
   11  -0.0489631   0.0879321  -0.0030407
   12   0.0112753  -0.0028178   0.0759705
   13  -0.1100971   0.0605558   0.0574593
   14   0.0246331   0.0704862   0.0006906
   15   0.0275047  -0.0007579   0.0721186
   16  -1.6765725   0.0105459  -0.0005624
   17   0.0264362  -0.7622539  -0.0022974
   18   0.0040488  -0.0023634  -0.7699647
FINAL TENSOR RESULT:
Order 2, Length 18
    Atom      X          Y          Z
     1 Order 1, Length 18
    Atom      X          Y          Z
     1    2.397048263142775e-01   3.776651823733802e-03  -7.680881710328394e-04
     2   -8.566899651537491e-02  -1.202097574856533e-03   6.770513066749092e-04
     3   -3.765665901077938e-02  -2.776496633587444e-03   4.402192691726269e-03
     4   -3.710025712053903e-02   3.525089078283306e-03  -1.304619538221907e-03
     5   -3.515949988470100e-02  -4.065742986601154e-03  -2.988662648564381e-03
     6   -4.411955050903872e-02   7.426203227551671e-04  -1.768427476039461e-05

Order 1, Length 18
    Atom      X          Y          Z
     1    3.776651823733802e-03   5.041458907478433e-02  -6.356604156534391e-04
     2   -2.782783945111091e-04  -7.312884661173299e-02   5.387158419617732e-04
     3   -1.092399995031972e-02   4.634387716495632e-03   4.532403611345458e-04
     4    3.049407701898884e-02   3.610370538211036e-03   6.089520281484545e-04
     5   -2.396978228531602e-02   3.398472128922133e-03  -6.688451487900686e-04
     6    9.022150386529236e-04   1.107167790438969e-02  -2.959247183209045e-04

Order 1, Length 18
    Atom      X          Y          Z
     1   -7.680881710328394e-04  -6.356604156534391e-04   4.948803363142209e-02
     2    3.287766306567920e-04   5.447216657070245e-04  -7.187062402766137e-02
     3    3.248612156877786e-02   1.431638637174312e-03   3.282486173768473e-03
     4   -7.714161020067216e-03   3.803875276926418e-04   4.861177940055930e-03
     5   -2.422011332962520e-02  -1.431218396842045e-03   3.794517527588780e-03
     6   -1.128628409932802e-04  -2.900926255396179e-04   1.044536684335384e-02


     2 Order 1, Length 18
    Atom      X          Y          Z
     1   -8.566899651537491e-02  -2.782783945111091e-04   3.287766306567920e-04
     2    9.816429556261642e-02  -4.179019947582933e-03   7.166572727991601e-04
     3   -2.385723686778775e-02  -2.251033764995879e-02   6.870205366380655e-02
     4   -1.956973611076181e-02   8.360640559912433e-02  -2.020746960087301e-02
     5   -2.713170922501605e-02  -4.949148208902976e-02  -4.959448627430223e-02
     6    5.806403045330907e-02  -7.147039269611728e-03   5.456228378172321e-05

Order 1, Length 18
    Atom      X          Y          Z
     1   -1.202097574856533e-03  -7.312884661173299e-02   5.447216657070245e-04
     2   -4.179019947582933e-03   8.702784876100654e-01  -9.323607868081351e-03
     3   -1.810679751169415e-02  -1.078001046081871e-01   1.048513652512561e-01
     4    6.622231096973619e-02  -4.077306015352042e-01   7.988433855926108e-02
     5   -3.980648023687851e-02  -2.506672518628554e-01  -1.765088943943598e-01
     6   -2.928884449210884e-03  -3.095244055125490e-02   5.518621137179393e-04

Order 1, Length 18
    Atom      X          Y          Z
     1    6.770513066749092e-04   5.387158419617732e-04  -7.187062402766137e-02
     2    7.166572727991601e-04  -9.323607868081351e-03   8.490713269665016e-01
     3    5.478641372657414e-02   1.071312133987880e-01  -4.010334358879126e-01
     4   -1.615528954106980e-02   7.978670797106022e-02  -9.336469150657054e-02
     5   -3.984676579358890e-02  -1.786988684891684e-01  -2.527823580222087e-01
     6   -1.776299454478495e-04   5.661242072190896e-04  -3.002082806925398e-02


     3 Order 1, Length 18
    Atom      X          Y          Z
     1   -3.765665901077938e-02  -1.092399995031972e-02   3.248612156877786e-02
     2   -2.385723686778775e-02  -1.810679751169415e-02   5.478641372657414e-02
     3    8.856546339723172e-02   2.273762128959982e-02  -6.834668821616482e-02
     4    1.531178039905040e-03  -6.001881796532979e-04  -3.627110440383339e-03
     5    2.258329503651698e-03   2.177411047343370e-03  -2.957534467758229e-03
     6   -3.084098241160649e-02   4.715824817240814e-03  -1.234098287143832e-02

Order 1, Length 18
    Atom      X          Y          Z
     1   -2.776496633587444e-03   4.634387716495632e-03   1.431638637174312e-03
     2   -2.251033764995879e-02  -1.078001046081871e-01   1.071312133987880e-01
     3    2.273762128959982e-02   8.731677863177061e-02  -1.116556567610586e-01
     4   -3.035113801490017e-03   2.606861360873236e-03   2.435325954786052e-02
     5    3.387382763244744e-03   1.286572524469757e-02  -2.127228193350551e-02
     6    2.196951905769342e-03   3.765518089604221e-04   1.163688043279583e-05

Order 1, Length 18
    Atom      X          Y          Z
     1    4.402192691726269e-03   4.532403611345458e-04   3.282486173768473e-03
     2    6.870205366380655e-02   1.048513652512561e-01  -4.010334358879126e-01
     3   -6.834668821616482e-02  -1.116556567610586e-01   4.018355173537059e-01
     4   -8.705356756945658e-04  -3.486140996195786e-03   4.341512188291052e-03
     5    1.675848118418188e-03   9.941811839458258e-03  -9.262635317063804e-03
     6   -5.562910453540302e-03  -1.046379109133315e-04   8.368005650779022e-04


     4 Order 1, Length 18
    Atom      X          Y          Z
     1   -3.710025712053903e-02   3.049407701898884e-02  -7.714161020067216e-03
     2   -1.956973611076181e-02   6.622231096973619e-02  -1.615528954106980e-02
     3    1.531178039905040e-03  -3.035113801490017e-03  -8.705356756945658e-04
     4    8.993308832004214e-02  -8.041712559870795e-02   1.962076394633654e-02
     5    1.609548446514552e-03  -2.354183571282943e-03   2.111124286516977e-03
     6   -3.640381449103260e-02  -1.090990328896000e-02   3.008009130809536e-03

Order 1, Length 18
    Atom      X          Y          Z
     1    3.525089078283306e-03   3.610370538211036e-03   3.803875276926418e-04
     2    8.360640559912433e-02  -4.077306015352042e-01   7.978670797106022e-02
     3   -6.001881796532979e-04   2.606861360873236e-03  -3.486140996195786e-03
     4   -8.041712559870795e-02   4.057233012719701e-01  -8.515003510928007e-02
     5    1.160686486073513e-03  -5.710567936569990e-03   8.529414576256417e-03
     6   -7.274875562049660e-03   1.500713659054824e-03  -5.991874719351582e-05

Order 1, Length 18
    Atom      X          Y          Z
     1   -1.304619538221907e-03   6.089520281484545e-04   4.861177940055930e-03
     2   -2.020746960087301e-02   7.988433855926108e-02  -9.336469150657054e-02
     3   -3.627110440383339e-03   2.435325954786052e-02   4.341512188291052e-03
     4    1.962076394633654e-02  -8.515003510928007e-02   7.086137126828304e-02
     5    3.577975332567773e-03  -1.964950647163671e-02   1.230592014608699e-02
     6    1.940580687510764e-03  -4.712444044761674e-05   9.950050362202169e-04


     5 Order 1, Length 18
    Atom      X          Y          Z
     1   -3.515949988470100e-02  -2.396978228531602e-02  -2.422011332962520e-02
     2   -2.713170922501605e-02  -3.980648023687851e-02  -3.984676579358890e-02
     3    2.258329503651698e-03   3.387382763244744e-03   1.675848118418188e-03
     4    1.609548446514552e-03   1.160686486073513e-03   3.577975332567773e-03
     5    8.763746866057420e-02   4.948521435331221e-02   4.945937113381589e-02
     6   -2.921467499687486e-02   9.742842662273564e-03   9.353241899634756e-03

Order 1, Length 18
    Atom      X          Y          Z
     1   -4.065742986601154e-03   3.398472128922133e-03  -1.431218396842045e-03
     2   -4.949148208902976e-02  -2.506672518628554e-01  -1.786988684891684e-01
     3    2.177411047343370e-03   1.286572524469757e-02   9.941811839458258e-03
     4   -2.354183571282943e-03  -5.710567936569990e-03  -1.964950647163671e-02
     5    4.948521435331221e-02   2.397256776259595e-01   1.897507429991802e-01
     6    4.248845056247764e-03   3.880524433662865e-04   8.676909668327300e-05

Order 1, Length 18
    Atom      X          Y          Z
     1   -2.988662648564381e-03  -6.688451487900686e-04   3.794517527588780e-03
     2   -4.959448627430223e-02  -1.765088943943598e-01  -2.527823580222087e-01
     3   -2.957534467758229e-03  -2.127228193350551e-02  -9.262635317063804e-03
     4    2.111124286516977e-03   8.529414576256417e-03   1.230592014608699e-02
     5    4.945937113381589e-02   1.897507429991802e-01   2.454952271619440e-01
     6    3.970184935942072e-03   1.700059067225430e-04   4.489591610275120e-04


     6 Order 1, Length 18
    Atom      X          Y          Z
     1   -4.411955050903872e-02   9.022150386529236e-04  -1.128628409932802e-04
     2    5.806403045330907e-02  -2.928884449210884e-03  -1.776299454478495e-04
     3   -3.084098241160649e-02   2.196951905769342e-03  -5.562910453540302e-03
     4   -3.640381449103260e-02  -7.274875562049660e-03   1.940580687510764e-03
     5   -2.921467499687486e-02   4.248845056247764e-03   3.970184935942072e-03
     6    8.251491913664386e-02   2.855678768040669e-03  -5.733351282536436e-05

Order 1, Length 18
    Atom      X          Y          Z
     1    7.426203227551671e-04   1.107167790438969e-02  -2.900926255396179e-04
     2   -7.147039269611728e-03  -3.095244055125490e-02   5.661242072190896e-04
     3    4.715824817240814e-03   3.765518089604221e-04  -1.046379109133315e-04
     4   -1.090990328896000e-02   1.500713659054824e-03  -4.712444044761674e-05
     5    9.742842662273564e-03   3.880524433662865e-04   1.700059067225430e-04
     6    2.855678768040669e-03   1.761516639516545e-02  -2.944939781176773e-04

Order 1, Length 18
    Atom      X          Y          Z
     1   -1.768427476039461e-05  -2.959247183209045e-04   1.044536684335384e-02
     2    5.456228378172321e-05   5.518621137179393e-04  -3.002082806925398e-02
     3   -1.234098287143832e-02   1.163688043279583e-05   8.368005650779022e-04
     4    3.008009130809536e-03  -5.991874719351582e-05   9.950050362202169e-04
     5    9.353241899634756e-03   8.676909668327300e-05   4.489591610275120e-04
     6   -5.733351282536436e-05  -2.944939781176773e-04   1.729417811292628e-02




 # Finishing finite difference calculation for IDERIV #
 ######################################################
 ######################################################
 Requested basis set is MINIX
 There are 12 shells and 18 basis functions
 **********************************************************************
 **                                                                  **
 **                       VIBRATIONAL ANALYSIS                       **
 **                       --------------------                       **
 **                                                                  **
 **        VIBRATIONAL FREQUENCIES (CM**-1) AND NORMAL MODES         **
 **     FORCE CONSTANTS (mDYN/ANGSTROM) AND REDUCED MASSES (AMU)     **
 **                  INFRARED INTENSITIES (KM/MOL)                   **
 **                                                                  **
 **********************************************************************


 Mode:                 1                      2                      3
 Frequency:      -101.25                 420.03                 434.30
 Force Cnst:      0.0747                 0.3913                 0.4335
 Red. Mass:      12.3751                 3.7647                 3.9004
 IR Active:          YES                    YES                    YES
 IR Intens:      556.756                 23.647                 24.554
 Raman Active:       YES                    YES                    YES
               X      Y      Z        X      Y      Z        X      Y      Z
 F          0.114  0.030 -0.001    0.009 -0.056 -0.169    0.030 -0.171  0.057
 C          0.711 -0.089  0.000    0.010  0.126  0.380    0.030  0.385 -0.130
 H         -0.048 -0.058 -0.133    0.171  0.108  0.413   -0.125  0.516 -0.125
 H         -0.230 -0.285  0.049    0.014  0.173  0.567    0.205  0.421 -0.188
 H          0.009 -0.005  0.091   -0.187  0.176  0.393   -0.088  0.440 -0.147
 F         -0.549  0.044  0.000   -0.016 -0.048 -0.145   -0.049 -0.145  0.049
 TransDip   0.755 -0.020 -0.000    0.019  0.049  0.147    0.054  0.141 -0.048

 Mode:                 4                      5                      6
 Frequency:       664.20                1385.50                1395.72
 Force Cnst:      3.8617                 1.2211                 1.2465
 Red. Mass:      14.8569                 1.0797                 1.0861
 IR Active:          YES                    YES                    YES
 IR Intens:      293.452                  9.291                  6.077
 Raman Active:       YES                    YES                    YES
               X      Y      Z        X      Y      Z        X      Y      Z
 F          0.674  0.027  0.002   -0.011  0.033 -0.006   -0.001 -0.006 -0.034
 C         -0.577 -0.059  0.000    0.008 -0.062  0.012   -0.003  0.013  0.070
 H          0.133 -0.105  0.103   -0.240  0.084  0.013   -0.678 -0.059 -0.085
 H          0.149  0.075 -0.030    0.892  0.130 -0.027    0.072 -0.025 -0.162
 H          0.091 -0.137 -0.068   -0.329  0.078 -0.044    0.692  0.013 -0.111
 F         -0.330  0.019 -0.002   -0.012 -0.009  0.002   -0.002  0.002  0.009
 TransDip  -0.549 -0.011 -0.000    0.021 -0.094  0.017   -0.011  0.013  0.077

 Mode:                 7                      8                      9
 Frequency:      1461.60                1502.51                1543.20
 Force Cnst:      1.3536                 1.4616                 1.5357
 Red. Mass:       1.0755                 1.0988                 1.0945
 IR Active:          YES                    YES                    YES
 IR Intens:        8.185                  7.377                  7.088
 Raman Active:       YES                    YES                    YES
               X      Y      Z        X      Y      Z        X      Y      Z
 F         -0.043 -0.008  0.003   -0.004  0.000  0.001   -0.007  0.001 -0.000
 C         -0.012  0.028 -0.002   -0.002 -0.026 -0.087   -0.005 -0.084  0.026
 H          0.651 -0.193  0.068   -0.118  0.436  0.033    0.195  0.580  0.282
 H          0.408  0.115 -0.086    0.038  0.183  0.746   -0.072 -0.120 -0.031
 H          0.568 -0.145  0.006    0.242 -0.338  0.149    0.162  0.444 -0.542
 F         -0.036  0.002 -0.001   -0.003  0.002  0.004   -0.005  0.004 -0.001
 TransDip  -0.091  0.004 -0.011   -0.013  0.025  0.082   -0.029  0.076 -0.025

 Mode:                10                     11                     12
 Frequency:      3417.98                3632.90                3647.96
 Force Cnst:      6.9921                 8.7325                 8.8138
 Red. Mass:       1.0158                 1.1230                 1.1241
 IR Active:          YES                    YES                    YES
 IR Intens:        1.349                 10.060                 11.009
 Raman Active:       YES                    YES                    YES
               X      Y      Z        X      Y      Z        X      Y      Z
 F          0.002  0.000 -0.000    0.000  0.000  0.000    0.000 -0.000  0.000
 C          0.026 -0.002  0.004    0.001 -0.081 -0.063    0.000  0.065 -0.080
 H         -0.106 -0.156  0.497   -0.057 -0.090  0.287   -0.146 -0.239  0.737
 H         -0.141  0.579 -0.139   -0.109  0.479 -0.109    0.129 -0.569  0.141
 H         -0.115 -0.402 -0.410    0.146  0.556  0.559    0.015  0.053  0.057
 F          0.000 -0.000 -0.000    0.000  0.001  0.000   -0.000 -0.001  0.001
 TransDip   0.033  0.015 -0.007   -0.002  0.085  0.056    0.003 -0.072  0.078

 STANDARD THERMODYNAMIC QUANTITIES AT   298.15 K  AND     1.00 ATM

   This Molecule has  1 Imaginary Frequencies
   Zero point vibrational energy:       27.885 kcal/mol

   Atom    1 Element F  Has Mass   18.99840
   Atom    2 Element C  Has Mass   12.00000
   Atom    3 Element H  Has Mass    1.00783
   Atom    4 Element H  Has Mass    1.00783
   Atom    5 Element H  Has Mass    1.00783
   Atom    6 Element F  Has Mass   18.99840
   Molecular Mass:    53.020290 amu
   Principal axes and moments of inertia in amu*Bohr^2:
                             1           2           3
    Eigenvalues --       12.61720   429.00135   429.41530
          X               0.99997     0.00810     0.00013
          Y              -0.00802     0.98738     0.15819
          Z               0.00116    -0.15819     0.98741
   Rotational Symmetry Number is   1
   The Molecule is an Asymmetric Top
   Translational Enthalpy:        0.889 kcal/mol
   Rotational Enthalpy:           0.889 kcal/mol
   Vibrational Enthalpy:         28.341 kcal/mol
   gas constant (RT):             0.592 kcal/mol
   Translational Entropy:        37.827  cal/mol.K
   Rotational Entropy:           22.368  cal/mol.K
   Vibrational Entropy:           2.161  cal/mol.K

   Total Enthalpy:               30.711 kcal/mol
   Total Entropy:                62.355  cal/mol.K
Archival summary:
1\1\C-node1\FREQ\HF\BasisUnspecified\213(1-,1)\pierpa\FriOct3010:21:022020FriOct3010:21:022020\0\\#,FREQ,HF,BasisUnspecified,\\-1,1\C\H,1,1.09422\H,1,1.09691,2,118.163\H,1,1.09703,2,114.218,3,-145.616,0\F,1,1.52672,2,99.7639,3,107.81,0\F,1,1.99747,2,80.5429,3,-69.498,0\\HF=-236.795924\\@

 Total job time:  5.98s(wall), 13.31s(cpu) 
 Fri Oct 30 10:21:02 2020

        *************************************************************
        *                                                           *
        *  Thank you very much for using Q-Chem.  Have a nice day.  *
        *                                                           *
        *************************************************************


