                  Welcome to Q-Chem
     A Quantum Leap Into The Future Of Chemistry


 Q-Chem 5.3 (devel), Q-Chem, Inc., Pleasanton, CA (2020)

 Yihan Shao,  Zhengting Gan,  E. Epifanovsky,  A. T. B. Gilbert,  M. Wormit,  
 J. Kussmann,  A. W. Lange,  A. Behn,  Jia Deng,  Xintian Feng,  D. Ghosh,  
 M. Goldey,  P. R. Horn,  L. D. Jacobson,  I. Kaliman,  T. Kus,  A. Landau,  
 Jie Liu,  E. I. Proynov,  R. M. Richard,  R. P. Steele,  E. J. Sundstrom,  
 H. L. Woodcock III,  P. M. Zimmerman,  D. Zuev,  B. Alam,  B. Albrecht,  
 A. Aldossary,  E. Alguire,  S. A. Baeppler,  D. Barton,  Z. Benda,  
 Y. A. Bernard,  E. J. Berquist,  K. B. Bravaya,  H. Burton,  K. Carter-Fenk,  
 D. Casanova,  Chun-Min Chang,  Yunqing Chen,  A. Chien,  K. D. Closser,  
 M. P. Coons,  S. Coriani,  S. Dasgupta,  A. L. Dempwolff,  M. Diedenhofen,  
 Hainam Do,  R. G. Edgar,  Po-Tung Fang,  S. Faraji,  S. Fatehi,  
 Qingguo Feng,  J. Fosso-Tande,  J. Gayvert,  Qinghui Ge,  A. Ghysels,  
 G. Gidofalvi,  J. Gomes,  J. Gonthier,  S. Gulania,  A. Gunina,  D. Hait,  
 M. W. D. Hanson-Heine,  S. Hammes-Schiffer,  P. H. P. Harbach,  
 A. W. Hauser,  M. F. Herbst,  J. E. Herr,  E. G. Hohenstein,  Z. C. Holden,  
 S. Houck,  Kerwin Hui,  B. C. Huynh,  M. Ivanov,  T.-C. Jagau,  Hyunjun Ji,  
 B. Kaduk,  K. Khistyaev,  Jaehoon Kim,  P. Klunzinger,  K. Koh,  
 D. Kosenkov,  L. Koulias,  T. Kowalczyk,  C. M. Krauter,  A. Kunitsa,  
 Ka Un Lao,  A. Laurent,  K. V. Lawler,  Joonho Lee,  D. Lefrancois,  
 S. Lehtola,  D. S. Levine,  Yi-Pei Li,  You-Sheng Lin,  Fenglai Liu,  
 Kuan-Yu Liu,  E. Livshits,  M. Loipersberger,  A. Luenser,  P. Manohar,  
 E. Mansoor,  S. F. Manzer,  Shan-Ping Mao,  Yuezhi Mao,  N. Mardirossian,  
 A. V. Marenich,  T. Markovich,  L. A. Martinez-Martinez,  S. A. Maurer,  
 N. J. Mayhall,  S. C. McKenzie,  J.-M. Mewes,  P. Morgante,  A. F. Morrison,  
 J. W. Mullinax,  K. Nanda,  T. S. Nguyen-Beck,  R. Olivares-Amaya,  
 K. J. Oosterbaan,  J. A. Parkhill,  S. K. Paul,  F. Pavosevic,  Zheng Pei,  
 T. M. Perrine,  F. Plasser,  P. Pokhilko,  S. Prager,  A. Prociuk,  
 E. Ramos,  B. Rana,  D. R. Rehn,  F. Rob,  E. Rossomme,  M. Scheurer,  
 M. Schneider,  N. Sergueev,  S. M. Sharada,  S. Sharma,  W. Skomorowski,  
 D. W. Small,  T. Stauch,  C. J. Stein,  T. Stein,  Yu-Chuan Su,  
 S. P. Veccham,  Zhen Tao,  A. J. W. Thom,  A. Tkatchenko,  T. Tsuchimochi,  
 N. M. Tubman,  L. Vogt,  M. L. Vidal,  O. Vydrov,  M. A. Watson,  J. Wenzel,  
 M. de Wergifosse,  T. A. Wesolowski,  A. White,  J. Witte,  A. Yamada,  
 Jun Yang,  K. Yao,  S. Yeganeh,  S. R. Yost,  Zhi-Qiang You,  A. Zech,  
 Igor Ying Zhang,  Xing Zhang,  Yan Zhao,  Ying Zhu,  B. R. Brooks,  
 G. K. L. Chan,  C. J. Cramer,  M. S. Gordon,  W. J. Hehre,  A. Klamt,  
 M. W. Schmidt,  C. D. Sherrill,  D. G. Truhlar,  A. Aspuru-Guzik,  R. Baer,  
 A. T. Bell,  N. A. Besley,  Jeng-Da Chai,  A. E. DePrince, III,  
 R. A. DiStasio Jr.,  A. Dreuw,  B. D. Dunietz,  T. R. Furlani,  
 Chao-Ping Hsu,  Yousung Jung,  Jing Kong,  D. S. Lambrecht,  WanZhen Liang,  
 C. Ochsenfeld,  V. A. Rassolov,  L. V. Slipchenko,  J. E. Subotnik,  
 T. Van Voorhis,  J. M. Herbert,  A. I. Krylov,  P. M. W. Gill,  M. Head-Gordon

 Contributors to earlier versions of Q-Chem not listed above: 
 R. D. Adamson,  B. Austin,  J. Baker,  G. J. O. Beran,  K. Brandhorst,  
 S. T. Brown,  E. F. C. Byrd,  A. K. Chakraborty,  C.-L. Cheng,  
 Siu Hung Chien,  D. M. Chipman,  D. L. Crittenden,  H. Dachsel,  
 R. J. Doerksen,  A. D. Dutoi,  L. Fusti-Molnar,  W. A. Goddard III,  
 A. Golubeva-Zadorozhnaya,  S. R. Gwaltney,  G. Hawkins,  A. Heyden,  
 S. Hirata,  G. Kedziora,  F. J. Keil,  C. Kelley,  Jihan Kim,  R. A. King,  
 R. Z. Khaliullin,  P. P. Korambath,  W. Kurlancheek,  A. M. Lee,  M. S. Lee,  
 S. V. Levchenko,  Ching Yeh Lin,  D. Liotard,  R. C. Lochan,  I. Lotan,  
 P. E. Maslen,  N. Nair,  D. P. O'Neill,  D. Neuhauser,  E. Neuscamman,  
 C. M. Oana,  R. Olson,  B. Peters,  R. Peverati,  P. A. Pieniazek,  
 Y. M. Rhee,  J. Ritchie,  M. A. Rohrdanz,  E. Rosta,  N. J. Russ,  
 H. F. Schaefer III,  N. E. Schultz,  N. Shenvi,  A. C. Simmonett,  A. Sodt,  
 D. Stuck,  K. S. Thanthiriwatte,  V. Vanovschi,  Tao Wang,  A. Warshel,  
 C. F. Williams,  Q. Wu,  X. Xu,  W. Zhang

 Please cite Q-Chem as follows:
 Y. Shao et al., Mol. Phys. 113, 184-215 (2015)
 DOI: 10.1080/00268976.2014.952696

 Q-Chem 5.3.0 for Intel X86 EM64T Linux

 Parts of Q-Chem use Armadillo 9.800.1 (Horizon Scraper).
 http://arma.sourceforge.net/

 Q-Chem begins on Thu Oct 22 12:19:41 2020  

Host: 
0

     Scratch files written to /home/pierpa/qchem_scratch/qchem11549//
Processing $rem in /home/pierpa/qchem53_dev/config/preferences:
Processing $rem in /home/pierpa/.qchemrc:

Checking the input file for inconsistencies... 	...done.

--------------------------------------------------------------
User input:
--------------------------------------------------------------
$Comment
Geometry optimizations for CLB18.
$End

$Rem
SYMMETRY              False
SYM_IGNORE            True
JOBTYPE               Opt
METHOD                HF-3c
BASIS                 MINIX
MAX_SCF_CYCLES        50
SCF_ALGORITHM         DIIS
SCF_PRINT             1
SCF_FINAL_PRINT       1
XC_GRID               000099000590
MEM_TOTAL             20000
MEM_STATIC            4000
BLAS3_DFT             True
New_DFT               True
$End

$Molecule
0 2
N -0.0624418525 0.6594923907 0.0000000000
N -0.0624418525 -0.5187090272 0.0000000000
H 0.8741954605 -0.9854761361 0.0000000000
$End


--------------------------------------------------------------
 Adding empirical dispersion correction 
 ----------------------------------------------------------------
 Doing -D3(BJ) with
 s6 =   1.00000
 s8 =   0.87770
 a1 =   0.41710
 a2 =   2.91490
 -D3 energy without 3body term =     -0.0053942647 hartrees
 ----------------------------------------------------------------
 Adding gCP correction 
 ----------------------------------------------------------------
 gCP energy =      0.0172381684 hartrees
 ------------------------------------------------------
 Correction for Bais Set Incompleteness Error in  HF-3c
 ------------------------------------------------------
 SRB energy =     -0.0662225742 hartrees
 ----------------------------------------------------------------
             Standard Nuclear Orientation (Angstroms)
    I     Atom           X                Y                Z
 ----------------------------------------------------------------
    1      N      -0.0624418525     0.6594923907     0.0000000000
    2      N      -0.0624418525    -0.5187090272     0.0000000000
    3      H       0.8741954605    -0.9854761361     0.0000000000
 ----------------------------------------------------------------
 Nuclear Repulsion Energy =          27.44999758 hartrees
 There are        8 alpha and        7 beta electrons
 Requested basis set is MINIX
 There are 7 shells and 11 basis functions

 Total QAlloc Memory Limit  20000 MB
 Mega-Array Size      3911 MB
 MEM_STATIC part      4000 MB
 A cutoff of  1.0D-11 yielded     28 shell pairs
 There are        72 function pairs
 Smallest overlap matrix eigenvalue = 2.11E-01

 Scale SEOQF with 1.000000e+00/1.000000e+00/1.000000e+00

 Standard Electronic Orientation quadrupole field applied
 Nucleus-field energy     =     0.0000000045 hartrees
 Guess from superposition of atomic densities
 Warning:  Energy on first SCF cycle will be non-variational
 SAD guess density has 15.000000 electrons

 -----------------------------------------------------------------------
  General SCF calculation program by
  Eric Jon Sundstrom, Paul Horn, Yuezhi Mao, Dmitri Zuev, Alec White,
  David Stuck, Shaama M.S., Shane Yost, Joonho Lee, David Small,
  Daniel Levine, Susi Lehtola, Hugh Burton, Evgeny Epifanovsky,
  Bang C. Huynh
 -----------------------------------------------------------------------
 Hartree-Fock
 Dispersion:   Grimme D3
 using 4 threads for integral computing
 -------------------------------------------------------
 OpenMP Integral computing Module                
 Release: version 1.0, May 2013, Q-Chem Inc. Pittsburgh 
 -------------------------------------------------------
 A unrestricted SCF calculation will be
 performed using DIIS
 SCF converges when DIIS error is below 1.0e-08
 Alpha HF Exchange    Energy =  -6.70137052336006
 Beta HF Exchange     Energy =  -6.70137052336006
 One-Electron (alpha) Energy = -101.55611759531092
 One-Electron (beta)  Energy = -101.55611759531092
 Total Coulomb        Energy =  80.30976843794396
 ---------------------------------------
  Cycle       Energy         DIIS error
 ---------------------------------------
    1    -108.7552102136      2.06e-01  
 Alpha HF Exchange    Energy =  -7.04565387585042
 Beta HF Exchange     Energy =  -6.40660735661863
 One-Electron (alpha) Energy = -104.80959448488252
 One-Electron (beta)  Energy = -97.11751016520769
 Total Coulomb        Energy =  79.26832629598839
    2    -108.6610420008      1.56e-02  
 Alpha HF Exchange    Energy =  -7.04873720970945
 Beta HF Exchange     Energy =  -6.42742774547230
 One-Electron (alpha) Energy = -104.84176192561686
 One-Electron (beta)  Energy = -97.16374797153082
 Total Coulomb        Energy =  79.35664500028497
    3    -108.6750322662      1.14e-02  
 Alpha HF Exchange    Energy =  -7.04574207728885
 Beta HF Exchange     Energy =  -6.41926776174982
 One-Electron (alpha) Energy = -104.80195230082226
 One-Electron (beta)  Energy = -97.12845491785180
 Total Coulomb        Energy =  79.26253220065648
    4    -108.6828872712      2.41e-03  
 Alpha HF Exchange    Energy =  -7.04569464213362
 Beta HF Exchange     Energy =  -6.42429897285642
 One-Electron (alpha) Energy = -104.79152854732624
 One-Electron (beta)  Energy = -97.12715401164972
 Total Coulomb        Energy =  79.25438397469543
    5    -108.6842946135      1.20e-03  
 Alpha HF Exchange    Energy =  -7.04537838491771
 Beta HF Exchange     Energy =  -6.42803383078431
 One-Electron (alpha) Energy = -104.78587025192412
 One-Electron (beta)  Energy = -97.12790997951691
 Total Coulomb        Energy =  79.25230558301025
    6    -108.6848892783      9.20e-04  
 Alpha HF Exchange    Energy =  -7.04510665796430
 Beta HF Exchange     Energy =  -6.43262434630363
 One-Electron (alpha) Energy = -104.77846260932377
 One-Electron (beta)  Energy = -97.13094016536193
 Total Coulomb        Energy =  79.25158405329329
    7    -108.6855521398      8.07e-04  
 Alpha HF Exchange    Energy =  -7.04538404375197
 Beta HF Exchange     Energy =  -6.43659961887875
 One-Electron (alpha) Energy = -104.76999319424958
 One-Electron (beta)  Energy = -97.13738099041559
 Total Coulomb        Energy =  79.25321539955893
    8    -108.6861448619      7.53e-04  
 Alpha HF Exchange    Energy =  -7.05241564742673
 Beta HF Exchange     Energy =  -6.45572656929935
 One-Electron (alpha) Energy = -104.72987874415685
 One-Electron (beta)  Energy = -97.17265986590087
 Total Coulomb        Energy =  79.27278605681848
    9    -108.6878971842      2.53e-04  
 Alpha HF Exchange    Energy =  -7.05396693447216
 Beta HF Exchange     Energy =  -6.45909658416898
 One-Electron (alpha) Energy = -104.72302175644352
 One-Electron (beta)  Energy = -97.17708689707732
 Total Coulomb        Energy =  79.27522120943804
   10    -108.6879533769      7.88e-05  
 Alpha HF Exchange    Energy =  -7.05411682950557
 Beta HF Exchange     Energy =  -6.45944308247043
 One-Electron (alpha) Energy = -104.72170154995342
 One-Electron (beta)  Energy = -97.17793887958533
 Total Coulomb        Energy =  79.27524623639333
   11    -108.6879565193      3.38e-05  
 Alpha HF Exchange    Energy =  -7.05474903490935
 Beta HF Exchange     Energy =  -6.46052663012752
 One-Electron (alpha) Energy = -104.71961964015463
 One-Electron (beta)  Energy = -97.17947680410934
 Total Coulomb        Energy =  79.27641879607413
   12    -108.6879557274      3.69e-05  
 Alpha HF Exchange    Energy =  -7.05386936933901
 Beta HF Exchange     Energy =  -6.45900345967598
 One-Electron (alpha) Energy = -104.72246418041766
 One-Electron (beta)  Energy = -97.17726596760390
 Total Coulomb        Energy =  79.27465064503117
   13    -108.6879547462      4.41e-05  
 Alpha HF Exchange    Energy =  -7.05431125902628
 Beta HF Exchange     Energy =  -6.45976675799725
 One-Electron (alpha) Energy = -104.72106214704129
 One-Electron (beta)  Energy = -97.17835834840183
 Total Coulomb        Energy =  79.27554355898897
   14    -108.6879573677      4.60e-06  
 Alpha HF Exchange    Energy =  -7.05430671216070
 Beta HF Exchange     Energy =  -6.45975038732408
 One-Electron (alpha) Energy = -104.72113854499904
 One-Electron (beta)  Energy = -97.17828023353658
 Total Coulomb        Energy =  79.27552093473533
   15    -108.6879573575      5.18e-06  
 Alpha HF Exchange    Energy =  -7.05436003810038
 Beta HF Exchange     Energy =  -6.45983778390993
 One-Electron (alpha) Energy = -104.72099139983125
 One-Electron (beta)  Energy = -97.17840259992319
 Total Coulomb        Energy =  79.27563684332085
   16    -108.6879573926      5.19e-07  
 Alpha HF Exchange    Energy =  -7.05436282045511
 Beta HF Exchange     Energy =  -6.45984205870991
 One-Electron (alpha) Energy = -104.72099071535663
 One-Electron (beta)  Energy = -97.17839718091396
 Total Coulomb        Energy =  79.27563779685215
   17    -108.6879573928      2.54e-07  
 Alpha HF Exchange    Energy =  -7.05436544358510
 Beta HF Exchange     Energy =  -6.45984622603376
 One-Electron (alpha) Energy = -104.72098307003348
 One-Electron (beta)  Energy = -97.17840474267629
 Total Coulomb        Energy =  79.27564450370281
   18    -108.6879573928      8.87e-08  
 Alpha HF Exchange    Energy =  -7.05436442714985
 Beta HF Exchange     Energy =  -6.45984447759393
 One-Electron (alpha) Energy = -104.72098622420557
 One-Electron (beta)  Energy = -97.17840240245420
 Total Coulomb        Energy =  79.27564255276771
   19    -108.6879573928      3.99e-09  Convergence criterion met
 ---------------------------------------
 Alpha HF Exchange    Energy =  -7.05436442714985
 Beta HF Exchange     Energy =  -6.45984447759393
 One-Electron (alpha) Energy = -104.72098622420557
 One-Electron (beta)  Energy = -97.17840240245420
 Total Coulomb        Energy =  79.27564255276771
 SCF time:   CPU 1.00s  wall 0.00s 
<S^2> =          0.903261461
 Alpha HF Exchange    Energy =  -7.05436442714985
 Beta HF Exchange     Energy =  -6.45984447759393
 One-Electron (alpha) Energy = -104.72098622420557
 One-Electron (beta)  Energy = -97.17840240245420
 Total Coulomb        Energy =  79.27564255276771
 Nuclear repulsion Energy =  27.44999758581497
 SCF   energy in the final basis set =     -108.6879573928
 Total energy in the final basis set =     -108.6879573928

 --------------------------------------------------------------

                    Orbital Energies (a.u.)
 --------------------------------------------------------------

 Alpha MOs
 -- Occupied --
-15.5135 -15.5040  -1.4174  -0.8914  -0.6932  -0.5834  -0.5592  -0.3672
 -- Virtual --
  0.2102   0.5831   0.9431

 Beta MOs
 -- Occupied --
-15.5156 -15.4720  -1.3784  -0.8340  -0.5796  -0.5604  -0.5072
 -- Virtual --
  0.2206   0.2478   0.6160   0.9812
 --------------------------------------------------------------

          Ground-State Mulliken Net Atomic Charges

     Atom                 Charge (a.u.)    Spin (a.u.)
  --------------------------------------------------------
      1 N                    -0.012991       1.277378
      2 N                    -0.246307      -0.435664
      3 H                     0.259298       0.158287
  --------------------------------------------------------
  Sum of atomic charges =     0.000000
  Sum of spin   charges =     1.000000

 -----------------------------------------------------------------
                    Cartesian Multipole Moments
 -----------------------------------------------------------------
    Charge (ESU x 10^10)
                     0.00000000
    Dipole Moment (Debye)
         X           1.73041037      Y          -1.00921611      Z           0.00000000
       Tot           2.00320673
    Quadrupole Moments (Debye-Ang)
        XX         -10.21359712     XY          -1.56203212     YY         -12.51953590
        XZ          -0.00000000     YZ           0.00000000     ZZ         -10.64446343
    Octopole Moments (Debye-Ang^2)
       XXX           1.68051049    XXY          -0.90745502    XYY           1.87714342
       YYY          -2.31342266    XXZ           0.00000000    XYZ          -0.00000000
       YYZ           0.00000000    XZZ           0.16819125    YZZ           0.08021986
       ZZZ           0.00000000
    Hexadecapole Moments (Debye-Ang^3)
      XXXX          -9.94413399   XXXY           0.36036903   XXYY          -6.77430006
      XYYY           0.19333802   YYYY         -36.59923166   XXXZ          -0.00000000
      XXYZ           0.00000000   XYYZ          -0.00000000   YYYZ           0.00000000
      XXZZ          -3.09754025   XYZZ           0.49837420   YYZZ          -6.89150186
      XZZZ          -0.00000000   YZZZ           0.00000000   ZZZZ          -7.51645189
 -----------------------------------------------------------------
 Mayer SCF Bond Order, atomic valence on the diagonal:

            1           2           3
    1   2.1449180   2.0950749   0.0498431
    2   2.0950749   2.9529418   0.8578669
    3   0.0498431   0.8578669   0.9077100


 Calculating analytic gradient of the SCF energy
 ------------------------------------------------------
 Correction for Bais Set Incompleteness Error in  HF-3c
 ------------------------------------------------------
 Gradient of SCF Energy
            1           2           3
    1   0.0022870   0.0036260  -0.0059131
    2  -0.0699102   0.0641000   0.0058102
    3   0.0000000  -0.0000000   0.0000000
 Max gradient component =       6.991E-02
 RMS gradient           =       3.177E-02
 Gradient time:  CPU 0.13 s  wall 0.04 s
 Geometry Optimization Parameters
   NAtoms,    NIC,     NZ,  NCons,   NDum,   NFix, NCnnct, MaxDiis
        3       9       0       0       0       0       0       0


** GEOMETRY OPTIMIZATION IN DELOCALIZED INTERNAL COORDINATES **
   Searching for a Minimum

   Optimization Cycle:   1

                       Coordinates (Angstroms)
     ATOM                X               Y               Z
      1  N        -0.0624418525    0.6594923907    0.0000000000
      2  N        -0.0624418525   -0.5187090272    0.0000000000
      3  H         0.8741954605   -0.9854761361    0.0000000000
   Point Group: c1    Number of degrees of freedom:     3


   Energy is   -108.687957393


 Attempting to generate delocalized internal coordinates
 Initial Hessian constructed with Jon Baker's OPTIMIZE code

  3 Hessian modes will be used to form the next step
  Hessian Eigenvalues:
     0.160000    0.403655    1.165860

 Minimum search - taking simple RFO step
 Searching for Lamda that Minimizes Along All modes
 Value Taken    Lamda =  -0.00448532
 Step Taken.  Stepsize is  0.069963

                             Maximum     Tolerance    Cnvgd?
         Gradient           0.045060      0.000300      NO
         Displacement       0.057850      0.001200      NO
         Energy change     *********      0.000001      NO


 New Cartesian Coordinates Obtained by Inverse Iteration

 Displacement from previous Coordinates is:  0.074554
 Adding empirical dispersion correction 
 ----------------------------------------------------------------
 Doing -D3(BJ) with
 s6 =   1.00000
 s8 =   0.87770
 a1 =   0.41710
 a2 =   2.91490
 -D3 energy without 3body term =     -0.0053543212 hartrees
 ----------------------------------------------------------------
 Adding gCP correction 
 ----------------------------------------------------------------
 gCP energy =      0.0164609221 hartrees
 ------------------------------------------------------
 Correction for Bais Set Incompleteness Error in  HF-3c
 ------------------------------------------------------
 SRB energy =     -0.0583178415 hartrees
 ----------------------------------------------------------------
             Standard Nuclear Orientation (Angstroms)
    I     Atom           X                Y                Z
 ----------------------------------------------------------------
    1      N      -0.0768513334     0.6863761530     0.0000000000
    2      N      -0.0564593893    -0.5232644768     0.0000000000
    3      H       0.8826224781    -1.0078044488     0.0000000000
 ----------------------------------------------------------------
 Nuclear Repulsion Energy =          26.79354934 hartrees
 There are        8 alpha and        7 beta electrons
 Applying Cartesian multipole field
    Component          Value
    ---------          -----
     (2,0,0)        1.00000E-10
     (0,2,0)        2.00000E-10
     (0,0,2)       -3.00000E-10
 Nucleus-field energy     =     0.0000000048 hartrees
 Requested basis set is MINIX
 There are 7 shells and 11 basis functions
 A cutoff of  1.0D-11 yielded     28 shell pairs
 There are        72 function pairs
 Smallest overlap matrix eigenvalue = 2.29E-01
 Guess MOs from SCF MO coefficient file

 -----------------------------------------------------------------------
  General SCF calculation program by
  Eric Jon Sundstrom, Paul Horn, Yuezhi Mao, Dmitri Zuev, Alec White,
  David Stuck, Shaama M.S., Shane Yost, Joonho Lee, David Small,
  Daniel Levine, Susi Lehtola, Hugh Burton, Evgeny Epifanovsky,
  Bang C. Huynh
 -----------------------------------------------------------------------
 Hartree-Fock
 Dispersion:   Grimme D3
 using 4 threads for integral computing
 -------------------------------------------------------
 OpenMP Integral computing Module                
 Release: version 1.0, May 2013, Q-Chem Inc. Pittsburgh 
 -------------------------------------------------------
 A unrestricted SCF calculation will be
 performed using DIIS
 SCF converges when DIIS error is below 1.0e-08
 Alpha HF Exchange    Energy =  -7.04033903174566
 Beta HF Exchange     Energy =  -6.44855906582312
 One-Electron (alpha) Energy = -104.12056924538426
 One-Electron (beta)  Energy = -96.64054478377855
 Total Coulomb        Energy =  78.76673890775528
 ---------------------------------------
  Cycle       Energy         DIIS error
 ---------------------------------------
    1    -108.6897238748      2.80e-03  
 Alpha HF Exchange    Energy =  -7.04277237565211
 Beta HF Exchange     Energy =  -6.45087251242607
 One-Electron (alpha) Energy = -104.12377943505733
 One-Electron (beta)  Energy = -96.63941436466044
 Total Coulomb        Energy =  78.77308183613576
    2    -108.6902075074      8.95e-04  
 Alpha HF Exchange    Energy =  -7.04432263218456
 Beta HF Exchange     Energy =  -6.45257811142180
 One-Electron (alpha) Energy = -104.12423207461289
 One-Electron (beta)  Energy = -96.63786103980189
 Total Coulomb        Energy =  78.77502642145251
    3    -108.6904180924      6.52e-04  
 Alpha HF Exchange    Energy =  -7.04660331059239
 Beta HF Exchange     Energy =  -6.45536172849471
 One-Electron (alpha) Energy = -104.12348334160805
 One-Electron (beta)  Energy = -96.63715784873810
 Total Coulomb        Energy =  78.77840877276077
    4    -108.6906481125      4.82e-04  
 Alpha HF Exchange    Energy =  -7.05106953210507
 Beta HF Exchange     Energy =  -6.46099815108601
 One-Electron (alpha) Energy = -104.11863492139082
 One-Electron (beta)  Energy = -96.63991673776853
 Total Coulomb        Energy =  78.78617262466742
    5    -108.6908973735      2.03e-04  
 Alpha HF Exchange    Energy =  -7.05215191350937
 Beta HF Exchange     Energy =  -6.46283753504185
 One-Electron (alpha) Energy = -104.11448629965865
 One-Electron (beta)  Energy = -96.64418970544125
 Total Coulomb        Energy =  78.78918985477621
    6    -108.6909262547      8.68e-05  
 Alpha HF Exchange    Energy =  -7.05253953122461
 Beta HF Exchange     Energy =  -6.46339346911329
 One-Electron (alpha) Energy = -104.11245923630528
 One-Electron (beta)  Energy = -96.64564664538968
 Total Coulomb        Energy =  78.78955951762347
    7    -108.6909300202      4.28e-05  
 Alpha HF Exchange    Energy =  -7.05282921631962
 Beta HF Exchange     Energy =  -6.46399219292733
 One-Electron (alpha) Energy = -104.11069544609316
 One-Electron (beta)  Energy = -96.64728902876112
 Total Coulomb        Energy =  78.79032581996942
    8    -108.6909307199      1.65e-05  
 Alpha HF Exchange    Energy =  -7.05259735595291
 Beta HF Exchange     Energy =  -6.46371037313741
 One-Electron (alpha) Energy = -104.11095794370596
 One-Electron (beta)  Energy = -96.64708179820651
 Total Coulomb        Energy =  78.78986726480606
    9    -108.6909308620      8.05e-06  
 Alpha HF Exchange    Energy =  -7.05272077278541
 Beta HF Exchange     Energy =  -6.46389046238202
 One-Electron (alpha) Energy = -104.11064532245439
 One-Electron (beta)  Energy = -96.64733438535839
 Total Coulomb        Energy =  78.79011069432570
   10    -108.6909309044      4.16e-06  
 Alpha HF Exchange    Energy =  -7.05265953696789
 Beta HF Exchange     Energy =  -6.46380492827493
 One-Electron (alpha) Energy = -104.11079298187644
 One-Electron (beta)  Energy = -96.64720190020971
 Total Coulomb        Energy =  78.78997908719445
   11    -108.6909309159      1.92e-06  
 Alpha HF Exchange    Energy =  -7.05268668311808
 Beta HF Exchange     Energy =  -6.46384122443996
 One-Electron (alpha) Energy = -104.11074010694192
 One-Electron (beta)  Energy = -96.64724704254688
 Total Coulomb        Energy =  78.79003479347725
   12    -108.6909309194      4.57e-07  
 Alpha HF Exchange    Energy =  -7.05268004368270
 Beta HF Exchange     Energy =  -6.46383138354573
 One-Electron (alpha) Energy = -104.11076024900241
 One-Electron (beta)  Energy = -96.64723060493500
 Total Coulomb        Energy =  78.79002201743860
   13    -108.6909309195      1.84e-07  
 Alpha HF Exchange    Energy =  -7.05268164572301
 Beta HF Exchange     Energy =  -6.46383337983537
 One-Electron (alpha) Energy = -104.11075799337128
 One-Electron (beta)  Energy = -96.64723253931385
 Total Coulomb        Energy =  78.79002529448513
   14    -108.6909309195      4.71e-08  
 Alpha HF Exchange    Energy =  -7.05268211009689
 Beta HF Exchange     Energy =  -6.46383399045175
 One-Electron (alpha) Energy = -104.11075729162276
 One-Electron (beta)  Energy = -96.64723318273847
 Total Coulomb        Energy =  78.79002631114895
   15    -108.6909309195      7.34e-09  Convergence criterion met
 ---------------------------------------
 Alpha HF Exchange    Energy =  -7.05268211009689
 Beta HF Exchange     Energy =  -6.46383399045175
 One-Electron (alpha) Energy = -104.11075729162276
 One-Electron (beta)  Energy = -96.64723318273847
 Total Coulomb        Energy =  78.79002631114895
 SCF time:   CPU 0.72s  wall 0.00s 
<S^2> =          1.006713927
 Alpha HF Exchange    Energy =  -7.05268211009689
 Beta HF Exchange     Energy =  -6.46383399045175
 One-Electron (alpha) Energy = -104.11075729162276
 One-Electron (beta)  Energy = -96.64723318273847
 Total Coulomb        Energy =  78.79002631114895
 Nuclear repulsion Energy =  26.79354934421104
 SCF   energy in the final basis set =     -108.6909309195
 Total energy in the final basis set =     -108.6909309195

 --------------------------------------------------------------

                    Orbital Energies (a.u.)
 --------------------------------------------------------------

 Alpha MOs
 -- Occupied --
-15.5046 -15.4878  -1.3888  -0.8882  -0.6798  -0.5761  -0.5503  -0.3685
 -- Virtual --
  0.2101   0.5722   0.8828

 Beta MOs
 -- Occupied --
-15.5044 -15.4587  -1.3506  -0.8306  -0.5705  -0.5542  -0.4980
 -- Virtual --
  0.2241   0.2496   0.5975   0.9210
 --------------------------------------------------------------

          Ground-State Mulliken Net Atomic Charges

     Atom                 Charge (a.u.)    Spin (a.u.)
  --------------------------------------------------------
      1 N                    -0.013385       1.433932
      2 N                    -0.241798      -0.590264
      3 H                     0.255183       0.156332
  --------------------------------------------------------
  Sum of atomic charges =     0.000000
  Sum of spin   charges =     1.000000

 -----------------------------------------------------------------
                    Cartesian Multipole Moments
 -----------------------------------------------------------------
    Charge (ESU x 10^10)
                    -0.00000000
    Dipole Moment (Debye)
         X           1.76051216      Y          -1.01597758      Z          -0.00000000
       Tot           2.03263708
    Quadrupole Moments (Debye-Ang)
        XX         -10.21160037     XY          -1.58131264     YY         -12.47667866
        XZ          -0.00000000     YZ          -0.00000000     ZZ         -10.64021578
    Octopole Moments (Debye-Ang^2)
       XXX           1.80549579    XXY          -1.03485687    XYY           2.05202790
       YYY          -2.76709473    XXZ           0.00000000    XYZ           0.00000000
       YYZ           0.00000000    XZZ           0.20291625    YZZ          -0.04236612
       ZZZ          -0.00000000
    Hexadecapole Moments (Debye-Ang^3)
      XXXX         -10.02532659   XXXY           0.58138630   XXYY          -6.94656535
      XYYY           0.38973359   YYYY         -37.93440452   XXXZ          -0.00000000
      XXYZ          -0.00000000   XYYZ          -0.00000000   YYYZ          -0.00000000
      XXZZ          -3.11438377   XYZZ           0.58831394   YYZZ          -7.13083289
      XZZZ          -0.00000000   YZZZ          -0.00000000   ZZZZ          -7.50287591
 -----------------------------------------------------------------
 Mayer SCF Bond Order, atomic valence on the diagonal:

            1           2           3
    1   2.0051297   1.9578221   0.0473076
    2   1.9578221   2.8209565   0.8631344
    3   0.0473076   0.8631344   0.9104420


 Calculating analytic gradient of the SCF energy
 ------------------------------------------------------
 Correction for Bais Set Incompleteness Error in  HF-3c
 ------------------------------------------------------
 Gradient of SCF Energy
            1           2           3
    1  -0.0029710   0.0013468   0.0016242
    2  -0.0321242   0.0374993  -0.0053751
    3  -0.0000000   0.0000000  -0.0000000
 Max gradient component =       3.750E-02
 RMS gradient           =       1.660E-02
 Gradient time:  CPU 0.12 s  wall 0.03 s
 Geometry Optimization Parameters
   NAtoms,    NIC,     NZ,  NCons,   NDum,   NFix, NCnnct, MaxDiis
        3       9       0       0       0       0       0       0

 Cartesian Hessian Update
 Hessian updated using BFGS update


** GEOMETRY OPTIMIZATION IN DELOCALIZED INTERNAL COORDINATES **
   Searching for a Minimum

   Optimization Cycle:   2

                       Coordinates (Angstroms)
     ATOM                X               Y               Z
      1  N        -0.0768513334    0.6863761530    0.0000000000
      2  N        -0.0564593893   -0.5232644768    0.0000000000
      3  H         0.8826224781   -1.0078044488    0.0000000000
   Point Group: c1    Number of degrees of freedom:     3


   Energy is   -108.690930920

 Hessian updated using BFGS update

  3 Hessian modes will be used to form the next step
  Hessian Eigenvalues:
     0.185582    0.432490    0.608131

 Minimum search - taking simple RFO step
 Searching for Lamda that Minimizes Along All modes
 Value Taken    Lamda =  -0.00268447
 Step Taken.  Stepsize is  0.093114

                             Maximum     Tolerance    Cnvgd?
         Gradient           0.026249      0.000300      NO
         Displacement       0.069145      0.001200      NO
         Energy change     -0.002974      0.000001      NO


 New Cartesian Coordinates Obtained by Inverse Iteration

 Displacement from previous Coordinates is:  0.070398
 Adding empirical dispersion correction 
 ----------------------------------------------------------------
 Doing -D3(BJ) with
 s6 =   1.00000
 s8 =   0.87770
 a1 =   0.41710
 a2 =   2.91490
 -D3 energy without 3body term =     -0.0053583541 hartrees
 ----------------------------------------------------------------
 Adding gCP correction 
 ----------------------------------------------------------------
 gCP energy =      0.0161009662 hartrees
 ------------------------------------------------------
 Correction for Bais Set Incompleteness Error in  HF-3c
 ------------------------------------------------------
 SRB energy =     -0.0511897670 hartrees
 ----------------------------------------------------------------
             Standard Nuclear Orientation (Angstroms)
    I     Atom           X                Y                Z
 ----------------------------------------------------------------
    1      N      -0.0639685228     0.6960963850     0.0000000000
    2      N      -0.0709677657    -0.5489448318     0.0000000000
    3      H       0.8842480439    -0.9918443258     0.0000000000
 ----------------------------------------------------------------
 Nuclear Repulsion Energy =          26.21702829 hartrees
 There are        8 alpha and        7 beta electrons
 Applying Cartesian multipole field
    Component          Value
    ---------          -----
     (2,0,0)        1.00000E-10
     (0,2,0)        2.00000E-10
     (0,0,2)       -3.00000E-10
 Nucleus-field energy     =     0.0000000049 hartrees
 Requested basis set is MINIX
 There are 7 shells and 11 basis functions
 A cutoff of  1.0D-11 yielded     28 shell pairs
 There are        72 function pairs
 Smallest overlap matrix eigenvalue = 2.47E-01
 Guess MOs from SCF MO coefficient file

 -----------------------------------------------------------------------
  General SCF calculation program by
  Eric Jon Sundstrom, Paul Horn, Yuezhi Mao, Dmitri Zuev, Alec White,
  David Stuck, Shaama M.S., Shane Yost, Joonho Lee, David Small,
  Daniel Levine, Susi Lehtola, Hugh Burton, Evgeny Epifanovsky,
  Bang C. Huynh
 -----------------------------------------------------------------------
 Hartree-Fock
 Dispersion:   Grimme D3
 using 4 threads for integral computing
 -------------------------------------------------------
 OpenMP Integral computing Module                
 Release: version 1.0, May 2013, Q-Chem Inc. Pittsburgh 
 -------------------------------------------------------
 A unrestricted SCF calculation will be
 performed using DIIS
 SCF converges when DIIS error is below 1.0e-08
 Alpha HF Exchange    Energy =  -7.04148747511636
 Beta HF Exchange     Energy =  -6.45462585410706
 One-Electron (alpha) Energy = -103.57286893076997
 One-Electron (beta)  Energy = -96.15390812216151
 Total Coulomb        Energy =  78.31524002264666
 ---------------------------------------
  Cycle       Energy         DIIS error
 ---------------------------------------
    1    -108.6906220666      3.36e-03  
 Alpha HF Exchange    Energy =  -7.04452022182520
 Beta HF Exchange     Energy =  -6.45820011294139
 One-Electron (alpha) Energy = -103.57330909986617
 One-Electron (beta)  Energy = -96.14734762356701
 Total Coulomb        Energy =  78.31460665865112
    2    -108.6917421067      1.25e-03  
 Alpha HF Exchange    Energy =  -7.04717651991395
 Beta HF Exchange     Energy =  -6.46159953752112
 One-Electron (alpha) Energy = -103.57521337030381
 One-Electron (beta)  Energy = -96.14423796128638
 Total Coulomb        Energy =  78.31902989283989
    3    -108.6921692033      7.79e-04  
 Alpha HF Exchange    Energy =  -7.05054593470843
 Beta HF Exchange     Energy =  -6.46522298179415
 One-Electron (alpha) Energy = -103.57534506620459
 One-Electron (beta)  Energy = -96.14212305694598
 Total Coulomb        Energy =  78.32374126387748
    4    -108.6924674829      5.08e-04  
 Alpha HF Exchange    Energy =  -7.05391289408090
 Beta HF Exchange     Energy =  -6.46931802569890
 One-Electron (alpha) Energy = -103.57425344295167
 One-Electron (beta)  Energy = -96.14375768814295
 Total Coulomb        Energy =  78.33157891276517
    5    -108.6926348452      2.39e-04  
 Alpha HF Exchange    Energy =  -7.05572551840756
 Beta HF Exchange     Energy =  -6.47104861095549
 One-Electron (alpha) Energy = -103.57129144593830
 One-Electron (beta)  Energy = -96.14519837436234
 Total Coulomb        Energy =  78.33356903105997
    6    -108.6926666257      1.04e-04  
 Alpha HF Exchange    Energy =  -7.05584304783723
 Beta HF Exchange     Energy =  -6.47141175181708
 One-Electron (alpha) Energy = -103.56873724272126
 One-Electron (beta)  Energy = -96.14796823470596
 Total Coulomb        Energy =  78.33426163882764
    7    -108.6926703454      3.30e-05  
 Alpha HF Exchange    Energy =  -7.05611594621293
 Beta HF Exchange     Energy =  -6.47188240296555
 One-Electron (alpha) Energy = -103.56737962627953
 One-Electron (beta)  Energy = -96.14921635438384
 Total Coulomb        Energy =  78.33489526228894
    8    -108.6926707747      1.46e-05  
 Alpha HF Exchange    Energy =  -7.05591021106113
 Beta HF Exchange     Energy =  -6.47166291312092
 One-Electron (alpha) Energy = -103.56746299646034
 One-Electron (beta)  Energy = -96.14907151730961
 Total Coulomb        Energy =  78.33440849627513
    9    -108.6926708488      8.01e-06  
 Alpha HF Exchange    Energy =  -7.05598857790002
 Beta HF Exchange     Energy =  -6.47176882257905
 One-Electron (alpha) Energy = -103.56728785618222
 One-Electron (beta)  Energy = -96.14922175030368
 Total Coulomb        Energy =  78.33456782275672
   10    -108.6926708913      1.26e-06  
 Alpha HF Exchange    Energy =  -7.05597146634552
 Beta HF Exchange     Energy =  -6.47174461780399
 One-Electron (alpha) Energy = -103.56733487161500
 One-Electron (beta)  Energy = -96.14918024376678
 Total Coulomb        Energy =  78.33453201591972
   11    -108.6926708907      1.44e-06  
 Alpha HF Exchange    Energy =  -7.05598354339841
 Beta HF Exchange     Energy =  -6.47175872716624
 One-Electron (alpha) Energy = -103.56731573344921
 One-Electron (beta)  Energy = -96.14919555744252
 Total Coulomb        Energy =  78.33455437645247
   12    -108.6926708921      2.52e-07  
 Alpha HF Exchange    Energy =  -7.05598532268769
 Beta HF Exchange     Energy =  -6.47176044603576
 One-Electron (alpha) Energy = -103.56731737464442
 One-Electron (beta)  Energy = -96.14919471905135
 Total Coulomb        Energy =  78.33455867738083
   13    -108.6926708922      6.51e-08  
 Alpha HF Exchange    Energy =  -7.05598552741636
 Beta HF Exchange     Energy =  -6.47176056101956
 One-Electron (alpha) Energy = -103.56731760353550
 One-Electron (beta)  Energy = -96.14919454240085
 Total Coulomb        Energy =  78.33455904933101
   14    -108.6926708922      3.91e-08  
 Alpha HF Exchange    Energy =  -7.05598589822960
 Beta HF Exchange     Energy =  -6.47176101391520
 One-Electron (alpha) Energy = -103.56731720614292
 One-Electron (beta)  Energy = -96.14919487951764
 Total Coulomb        Energy =  78.33455981276335
   15    -108.6926708922      1.80e-09  Convergence criterion met
 ---------------------------------------
 Alpha HF Exchange    Energy =  -7.05598589822960
 Beta HF Exchange     Energy =  -6.47176101391520
 One-Electron (alpha) Energy = -103.56731720614292
 One-Electron (beta)  Energy = -96.14919487951764
 Total Coulomb        Energy =  78.33455981276335
 SCF time:   CPU 0.68s  wall 1.00s 
<S^2> =          1.117794317
 Alpha HF Exchange    Energy =  -7.05598589822960
 Beta HF Exchange     Energy =  -6.47176101391520
 One-Electron (alpha) Energy = -103.56731720614292
 One-Electron (beta)  Energy = -96.14919487951764
 Total Coulomb        Energy =  78.33455981276335
 Nuclear repulsion Energy =  26.21702829288496
 SCF   energy in the final basis set =     -108.6926708922
 Total energy in the final basis set =     -108.6926708922

 --------------------------------------------------------------

                    Orbital Energies (a.u.)
 --------------------------------------------------------------

 Alpha MOs
 -- Occupied --
-15.4972 -15.4761  -1.3670  -0.8881  -0.6715  -0.5660  -0.5472  -0.3778
 -- Virtual --
  0.2101   0.5818   0.8100

 Beta MOs
 -- Occupied --
-15.4974 -15.4471  -1.3300  -0.8255  -0.5698  -0.5514  -0.4908
 -- Virtual --
  0.2275   0.2496   0.5974   0.8471
 --------------------------------------------------------------

          Ground-State Mulliken Net Atomic Charges

     Atom                 Charge (a.u.)    Spin (a.u.)
  --------------------------------------------------------
      1 N                    -0.011091       1.584383
      2 N                    -0.236208      -0.733407
      3 H                     0.247299       0.149025
  --------------------------------------------------------
  Sum of atomic charges =    -0.000000
  Sum of spin   charges =     1.000000

 -----------------------------------------------------------------
                    Cartesian Multipole Moments
 -----------------------------------------------------------------
    Charge (ESU x 10^10)
                    -0.00000000
    Dipole Moment (Debye)
         X           1.73855944      Y          -0.90468759      Z          -0.00000000
       Tot           1.95985932
    Quadrupole Moments (Debye-Ang)
        XX         -10.23213279     XY          -1.61493447     YY         -12.62639127
        XZ           0.00000000     YZ           0.00000000     ZZ         -10.63227523
    Octopole Moments (Debye-Ang^2)
       XXX           1.80753125    XXY          -0.82936789    XYY           1.97708541
       YYY          -2.28807828    XXZ          -0.00000000    XYZ           0.00000000
       YYZ          -0.00000000    XZZ           0.20789934    YZZ           0.01390179
       ZZZ          -0.00000000
    Hexadecapole Moments (Debye-Ang^3)
      XXXX         -10.06065141   XXXY           0.29463151   XXYY          -7.25350225
      XYYY           0.10693536   YYYY         -39.37497169   XXXZ           0.00000000
      XXYZ          -0.00000000   XYYZ           0.00000000   YYYZ           0.00000000
      XXZZ          -3.11611755   XYZZ           0.49136126   YYZZ          -7.34514895
      XZZZ           0.00000000   YZZZ           0.00000000   ZZZZ          -7.48393091
 -----------------------------------------------------------------
 Mayer SCF Bond Order, atomic valence on the diagonal:

            1           2           3
    1   1.8380893   1.7946522   0.0434370
    2   1.7946522   2.6678500   0.8731978
    3   0.0434370   0.8731978   0.9166348


 Calculating analytic gradient of the SCF energy
 ------------------------------------------------------
 Correction for Bais Set Incompleteness Error in  HF-3c
 ------------------------------------------------------
 Gradient of SCF Energy
            1           2           3
    1  -0.0010786   0.0016034  -0.0005248
    2  -0.0103154   0.0114139  -0.0010985
    3  -0.0000000   0.0000000  -0.0000000
 Max gradient component =       1.141E-02
 RMS gradient           =       5.184E-03
 Gradient time:  CPU 0.11 s  wall 0.03 s
 Geometry Optimization Parameters
   NAtoms,    NIC,     NZ,  NCons,   NDum,   NFix, NCnnct, MaxDiis
        3       9       0       0       0       0       0       0

 Cartesian Hessian Update
 Hessian updated using BFGS update


** GEOMETRY OPTIMIZATION IN DELOCALIZED INTERNAL COORDINATES **
   Searching for a Minimum

   Optimization Cycle:   3

                       Coordinates (Angstroms)
     ATOM                X               Y               Z
      1  N        -0.0639685228    0.6960963850    0.0000000000
      2  N        -0.0709677657   -0.5489448318    0.0000000000
      3  H         0.8842480439   -0.9918443258    0.0000000000
   Point Group: c1    Number of degrees of freedom:     3


   Energy is   -108.692670892

 Hessian updated using BFGS update

  3 Hessian modes will be used to form the next step
  Hessian Eigenvalues:
     0.153731    0.416595    0.527217

 Minimum search - taking simple RFO step
 Searching for Lamda that Minimizes Along All modes
 Value Taken    Lamda =  -0.00039339
 Step Taken.  Stepsize is  0.043217

                             Maximum     Tolerance    Cnvgd?
         Gradient           0.007568      0.000300      NO
         Displacement       0.034711      0.001200      NO
         Energy change     -0.001740      0.000001      NO


 New Cartesian Coordinates Obtained by Inverse Iteration

 Displacement from previous Coordinates is:  0.032570
 Adding empirical dispersion correction 
 ----------------------------------------------------------------
 Doing -D3(BJ) with
 s6 =   1.00000
 s8 =   0.87770
 a1 =   0.41710
 a2 =   2.91490
 -D3 energy without 3body term =     -0.0053593187 hartrees
 ----------------------------------------------------------------
 Adding gCP correction 
 ----------------------------------------------------------------
 gCP energy =      0.0159026944 hartrees
 ------------------------------------------------------
 Correction for Bais Set Incompleteness Error in  HF-3c
 ------------------------------------------------------
 SRB energy =     -0.0481595058 hartrees
 ----------------------------------------------------------------
             Standard Nuclear Orientation (Angstroms)
    I     Atom           X                Y                Z
 ----------------------------------------------------------------
    1      N      -0.0580741997     0.7007717053     0.0000000000
    2      N      -0.0783461389    -0.5605799090     0.0000000000
    3      H       0.8857320941    -0.9848845689     0.0000000000
 ----------------------------------------------------------------
 Nuclear Repulsion Energy =          25.95093848 hartrees
 There are        8 alpha and        7 beta electrons
 Applying Cartesian multipole field
    Component          Value
    ---------          -----
     (2,0,0)        1.00000E-10
     (0,2,0)        2.00000E-10
     (0,0,2)       -3.00000E-10
 Nucleus-field energy     =     0.0000000050 hartrees
 Requested basis set is MINIX
 There are 7 shells and 11 basis functions
 A cutoff of  1.0D-11 yielded     28 shell pairs
 There are        72 function pairs
 Smallest overlap matrix eigenvalue = 2.55E-01
 Guess MOs from SCF MO coefficient file

 -----------------------------------------------------------------------
  General SCF calculation program by
  Eric Jon Sundstrom, Paul Horn, Yuezhi Mao, Dmitri Zuev, Alec White,
  David Stuck, Shaama M.S., Shane Yost, Joonho Lee, David Small,
  Daniel Levine, Susi Lehtola, Hugh Burton, Evgeny Epifanovsky,
  Bang C. Huynh
 -----------------------------------------------------------------------
 Hartree-Fock
 Dispersion:   Grimme D3
 using 4 threads for integral computing
 -------------------------------------------------------
 OpenMP Integral computing Module                
 Release: version 1.0, May 2013, Q-Chem Inc. Pittsburgh 
 -------------------------------------------------------
 A unrestricted SCF calculation will be
 performed using DIIS
 SCF converges when DIIS error is below 1.0e-08
 Alpha HF Exchange    Energy =  -7.05089816445760
 Beta HF Exchange     Energy =  -6.46765156910654
 One-Electron (alpha) Energy = -103.31834738395339
 One-Electron (beta)  Energy = -95.92164436480437
 Total Coulomb        Energy =  78.11511988898940
 ---------------------------------------
  Cycle       Energy         DIIS error
 ---------------------------------------
    1    -108.6924831107      1.52e-03  
 Alpha HF Exchange    Energy =  -7.05249649645267
 Beta HF Exchange     Energy =  -6.46933582428441
 One-Electron (alpha) Energy = -103.31811323998478
 One-Electron (beta)  Energy = -95.91897339490120
 Total Coulomb        Energy =  78.11525602368235
    2    -108.6927244493      5.76e-04  
 Alpha HF Exchange    Energy =  -7.05380514307932
 Beta HF Exchange     Energy =  -6.47100213640925
 One-Electron (alpha) Energy = -103.31889862019376
 One-Electron (beta)  Energy = -95.91804400222522
 Total Coulomb        Energy =  78.11799881162810
    3    -108.6928126076      3.31e-04  
 Alpha HF Exchange    Energy =  -7.05530680802503
 Beta HF Exchange     Energy =  -6.47245823553496
 One-Electron (alpha) Energy = -103.31860894472582
 One-Electron (beta)  Energy = -95.91722515420739
 Total Coulomb        Energy =  78.11979916720136
    4    -108.6928614926      1.92e-04  
 Alpha HF Exchange    Energy =  -7.05628892170989
 Beta HF Exchange     Energy =  -6.47367997404309
 One-Electron (alpha) Energy = -103.31846848593955
 One-Electron (beta)  Energy = -95.91783744553425
 Total Coulomb        Energy =  78.12245693673445
    5    -108.6928794078      9.40e-05  
 Alpha HF Exchange    Energy =  -7.05702022751101
 Beta HF Exchange     Energy =  -6.47436805253747
 One-Electron (alpha) Energy = -103.31742527607307
 One-Electron (beta)  Energy = -95.91840105530642
 Total Coulomb        Energy =  78.12339204278348
    6    -108.6928840860      2.97e-05  
 Alpha HF Exchange    Energy =  -7.05707115274952
 Beta HF Exchange     Energy =  -6.47448206368659
 One-Electron (alpha) Energy = -103.31669180747227
 One-Electron (beta)  Energy = -95.91919439304858
 Total Coulomb        Energy =  78.12361656784118
    7    -108.6928843664      8.38e-06  
 Alpha HF Exchange    Energy =  -7.05708611183983
 Beta HF Exchange     Energy =  -6.47454460587250
 One-Electron (alpha) Energy = -103.31634261932697
 One-Electron (beta)  Energy = -95.91952337064900
 Total Coulomb        Energy =  78.12367383537011
    8    -108.6928843896      2.26e-06  
 Alpha HF Exchange    Energy =  -7.05707015667056
 Beta HF Exchange     Energy =  -6.47453740785823
 One-Electron (alpha) Energy = -103.31628182010674
 One-Electron (beta)  Energy = -95.91955878093134
 Total Coulomb        Energy =  78.12362529191128
    9    -108.6928843910      7.63e-07  
 Alpha HF Exchange    Energy =  -7.05707553129772
 Beta HF Exchange     Energy =  -6.47454651411479
 One-Electron (alpha) Energy = -103.31626114316073
 One-Electron (beta)  Energy = -95.91957742531039
 Total Coulomb        Energy =  78.12363773998850
   10    -108.6928843912      2.56e-07  
 Alpha HF Exchange    Energy =  -7.05707357817974
 Beta HF Exchange     Energy =  -6.47454369726976
 One-Electron (alpha) Energy = -103.31626482359820
 One-Electron (beta)  Energy = -95.91957315312000
 Total Coulomb        Energy =  78.12363237824727
   11    -108.6928843912      1.39e-07  
 Alpha HF Exchange    Energy =  -7.05707490189976
 Beta HF Exchange     Energy =  -6.47454514679786
 One-Electron (alpha) Energy = -103.31626352302374
 One-Electron (beta)  Energy = -95.91957429948114
 Total Coulomb        Energy =  78.12363499727761
   12    -108.6928843913      3.49e-08  
 Alpha HF Exchange    Energy =  -7.05707452534158
 Beta HF Exchange     Energy =  -6.47454457970968
 One-Electron (alpha) Energy = -103.31626484282748
 One-Electron (beta)  Energy = -95.91957321665016
 Total Coulomb        Energy =  78.12363429060363
   13    -108.6928843913      2.22e-08  
 Alpha HF Exchange    Energy =  -7.05707471749795
 Beta HF Exchange     Energy =  -6.47454480132441
 One-Electron (alpha) Energy = -103.31626464685273
 One-Electron (beta)  Energy = -95.91957339653716
 Total Coulomb        Energy =  78.12363468828694
   14    -108.6928843913      2.10e-09  Convergence criterion met
 ---------------------------------------
 Alpha HF Exchange    Energy =  -7.05707471749795
 Beta HF Exchange     Energy =  -6.47454480132441
 One-Electron (alpha) Energy = -103.31626464685273
 One-Electron (beta)  Energy = -95.91957339653716
 Total Coulomb        Energy =  78.12363468828694
 SCF time:   CPU 0.61s  wall 0.00s 
<S^2> =          1.165029051
 Alpha HF Exchange    Energy =  -7.05707471749795
 Beta HF Exchange     Energy =  -6.47454480132441
 One-Electron (alpha) Energy = -103.31626464685273
 One-Electron (beta)  Energy = -95.91957339653716
 Total Coulomb        Energy =  78.12363468828694
 Nuclear repulsion Energy =  25.95093848267226
 SCF   energy in the final basis set =     -108.6928843913
 Total energy in the final basis set =     -108.6928843913

 --------------------------------------------------------------

                    Orbital Energies (a.u.)
 --------------------------------------------------------------

 Alpha MOs
 -- Occupied --
-15.4938 -15.4711  -1.3569  -0.8876  -0.6675  -0.5610  -0.5460  -0.3816
 -- Virtual --
  0.2106   0.5835   0.7783

 Beta MOs
 -- Occupied --
-15.4943 -15.4421  -1.3207  -0.8223  -0.5695  -0.5500  -0.4875
 -- Virtual --
  0.2292   0.2496   0.5952   0.8149
 --------------------------------------------------------------

          Ground-State Mulliken Net Atomic Charges

     Atom                 Charge (a.u.)    Spin (a.u.)
  --------------------------------------------------------
      1 N                    -0.010317       1.641512
      2 N                    -0.233133      -0.787654
      3 H                     0.243450       0.146141
  --------------------------------------------------------
  Sum of atomic charges =    -0.000000
  Sum of spin   charges =     1.000000

 -----------------------------------------------------------------
                    Cartesian Multipole Moments
 -----------------------------------------------------------------
    Charge (ESU x 10^10)
                    -0.00000000
    Dipole Moment (Debye)
         X           1.72536596      Y          -0.85704341      Z           0.00000000
       Tot           1.92650230
    Quadrupole Moments (Debye-Ang)
        XX         -10.24213940     XY          -1.63083567     YY         -12.68726783
        XZ           0.00000000     YZ          -0.00000000     ZZ         -10.62955523
    Octopole Moments (Debye-Ang^2)
       XXX           1.82074840    XXY          -0.74178299    XYY           1.94493787
       YYY          -2.07729452    XXZ           0.00000000    XYZ          -0.00000000
       YYZ           0.00000000    XZZ           0.21225168    YZZ           0.04050886
       ZZZ           0.00000000
    Hexadecapole Moments (Debye-Ang^3)
      XXXX         -10.09258149   XXXY           0.15183124   XXYY          -7.39852229
      XYYY          -0.03687863   YYYY         -40.04450510   XXXZ           0.00000000
      XXYZ          -0.00000000   XYYZ           0.00000000   YYYZ          -0.00000000
      XXZZ          -3.12002729   XYZZ           0.44389363   YYZZ          -7.44582395
      XZZZ           0.00000000   YZZZ          -0.00000000   ZZZZ          -7.47630188
 -----------------------------------------------------------------
 Mayer SCF Bond Order, atomic valence on the diagonal:

            1           2           3
    1   1.7688699   1.7271405   0.0417294
    2   1.7271405   2.6047858   0.8776453
    3   0.0417294   0.8776453   0.9193748


 Calculating analytic gradient of the SCF energy
 ------------------------------------------------------
 Correction for Bais Set Incompleteness Error in  HF-3c
 ------------------------------------------------------
 Gradient of SCF Energy
            1           2           3
    1   0.0002244  -0.0003109   0.0000865
    2  -0.0017719   0.0014905   0.0002814
    3   0.0000000  -0.0000000   0.0000000
 Max gradient component =       1.772E-03
 RMS gradient           =       7.885E-04
 Gradient time:  CPU 0.12 s  wall 0.04 s
 Geometry Optimization Parameters
   NAtoms,    NIC,     NZ,  NCons,   NDum,   NFix, NCnnct, MaxDiis
        3       9       0       0       0       0       0       0

 Cartesian Hessian Update
 Hessian updated using BFGS update


** GEOMETRY OPTIMIZATION IN DELOCALIZED INTERNAL COORDINATES **
   Searching for a Minimum

   Optimization Cycle:   4

                       Coordinates (Angstroms)
     ATOM                X               Y               Z
      1  N        -0.0580741997    0.7007717053    0.0000000000
      2  N        -0.0783461389   -0.5605799090    0.0000000000
      3  H         0.8857320941   -0.9848845689    0.0000000000
   Point Group: c1    Number of degrees of freedom:     3


   Energy is   -108.692884391

 Hessian updated using BFGS update

  3 Hessian modes will be used to form the next step
  Hessian Eigenvalues:
     0.158548    0.393120    0.491244

 Minimum search - taking simple RFO step
 Searching for Lamda that Minimizes Along All modes
 Value Taken    Lamda =  -0.00000823
 Step Taken.  Stepsize is  0.004543

                             Maximum     Tolerance    Cnvgd?
         Gradient           0.001238      0.000300      NO
         Displacement       0.003461      0.001200      NO
         Energy change     -0.000213      0.000001      NO


 New Cartesian Coordinates Obtained by Inverse Iteration

 Displacement from previous Coordinates is:  0.003693
 Adding empirical dispersion correction 
 ----------------------------------------------------------------
 Doing -D3(BJ) with
 s6 =   1.00000
 s8 =   0.87770
 a1 =   0.41710
 a2 =   2.91490
 -D3 energy without 3body term =     -0.0053574649 hartrees
 ----------------------------------------------------------------
 Adding gCP correction 
 ----------------------------------------------------------------
 gCP energy =      0.0158704167 hartrees
 ------------------------------------------------------
 Correction for Bais Set Incompleteness Error in  HF-3c
 ------------------------------------------------------
 SRB energy =     -0.0477419170 hartrees
 ----------------------------------------------------------------
             Standard Nuclear Orientation (Angstroms)
    I     Atom           X                Y                Z
 ----------------------------------------------------------------
    1      N      -0.0585009007     0.7023042600     0.0000000000
    2      N      -0.0780903569    -0.5614467395     0.0000000000
    3      H       0.8859030131    -0.9855502932     0.0000000000
 ----------------------------------------------------------------
 Nuclear Repulsion Energy =          25.91082412 hartrees
 There are        8 alpha and        7 beta electrons
 Applying Cartesian multipole field
    Component          Value
    ---------          -----
     (2,0,0)        1.00000E-10
     (0,2,0)        2.00000E-10
     (0,0,2)       -3.00000E-10
 Nucleus-field energy     =     0.0000000050 hartrees
 Requested basis set is MINIX
 There are 7 shells and 11 basis functions
 A cutoff of  1.0D-11 yielded     28 shell pairs
 There are        72 function pairs
 Smallest overlap matrix eigenvalue = 2.56E-01
 Guess MOs from SCF MO coefficient file

 -----------------------------------------------------------------------
  General SCF calculation program by
  Eric Jon Sundstrom, Paul Horn, Yuezhi Mao, Dmitri Zuev, Alec White,
  David Stuck, Shaama M.S., Shane Yost, Joonho Lee, David Small,
  Daniel Levine, Susi Lehtola, Hugh Burton, Evgeny Epifanovsky,
  Bang C. Huynh
 -----------------------------------------------------------------------
 Hartree-Fock
 Dispersion:   Grimme D3
 using 4 threads for integral computing
 -------------------------------------------------------
 OpenMP Integral computing Module                
 Release: version 1.0, May 2013, Q-Chem Inc. Pittsburgh 
 -------------------------------------------------------
 A unrestricted SCF calculation will be
 performed using DIIS
 SCF converges when DIIS error is below 1.0e-08
 Alpha HF Exchange    Energy =  -7.05634121034085
 Beta HF Exchange     Energy =  -6.47396686939971
 One-Electron (alpha) Energy = -103.27850022978019
 One-Electron (beta)  Energy = -95.88572149157739
 Total Coulomb        Energy =  78.09082205035784
 ---------------------------------------
  Cycle       Energy         DIIS error
 ---------------------------------------
    1    -108.6928836303      1.86e-04  
 Alpha HF Exchange    Energy =  -7.05658976064239
 Beta HF Exchange     Energy =  -6.47421064126641
 One-Electron (alpha) Energy = -103.27885191197225
 One-Electron (beta)  Energy = -95.88558903019492
 Total Coulomb        Energy =  78.09153074462247
    2    -108.6928864790      6.81e-05  
 Alpha HF Exchange    Energy =  -7.05678312958858
 Beta HF Exchange     Energy =  -6.47436890169864
 One-Electron (alpha) Energy = -103.27895867890270
 One-Electron (beta)  Energy = -95.88539777955248
 Total Coulomb        Energy =  78.09179664202432
    3    -108.6928877273      4.40e-05  
 Alpha HF Exchange    Energy =  -7.05703853115512
 Beta HF Exchange     Energy =  -6.47461964257560
 One-Electron (alpha) Energy = -103.27908299202764
 One-Electron (beta)  Energy = -95.88528096931412
 Total Coulomb        Energy =  78.09230932737120
    4    -108.6928886872      1.97e-05  
 Alpha HF Exchange    Energy =  -7.05717746752646
 Beta HF Exchange     Energy =  -6.47473320506021
 One-Electron (alpha) Energy = -103.27899181132896
 One-Electron (beta)  Energy = -95.88526352079062
 Total Coulomb        Energy =  78.09245299413075
    5    -108.6928888901      8.62e-06  
 Alpha HF Exchange    Energy =  -7.05721846986085
 Beta HF Exchange     Energy =  -6.47478945400738
 One-Electron (alpha) Energy = -103.27892951556088
 One-Electron (beta)  Energy = -95.88535840833119
 Total Coulomb        Energy =  78.09258281121384
    6    -108.6928889161      3.10e-06  
 Alpha HF Exchange    Energy =  -7.05722198437023
 Beta HF Exchange     Energy =  -6.47480331885209
 One-Electron (alpha) Energy = -103.27882318918546
 One-Electron (beta)  Energy = -95.88545948288422
 Total Coulomb        Energy =  78.09259493536247
    7    -108.6928889195      8.19e-07  
 Alpha HF Exchange    Energy =  -7.05722151527627
 Beta HF Exchange     Energy =  -6.47480802174900
 One-Electron (alpha) Energy = -103.27878752543832
 One-Electron (beta)  Energy = -95.88549066833257
 Total Coulomb        Energy =  78.09259469065320
    8    -108.6928889197      2.06e-07  
 Alpha HF Exchange    Energy =  -7.05722120838093
 Beta HF Exchange     Energy =  -6.47480872269577
 One-Electron (alpha) Energy = -103.27878192218061
 One-Electron (beta)  Energy = -95.88549561553761
 Total Coulomb        Energy =  78.09259442863771
    9    -108.6928889197      7.45e-08  
 Alpha HF Exchange    Energy =  -7.05722119774229
 Beta HF Exchange     Energy =  -6.47480883385547
 One-Electron (alpha) Energy = -103.27878136746996
 One-Electron (beta)  Energy = -95.88549594102615
 Total Coulomb        Energy =  78.09259429993445
   10    -108.6928889197      2.91e-08  
 Alpha HF Exchange    Energy =  -7.05722123843946
 Beta HF Exchange     Energy =  -6.47480883876942
 One-Electron (alpha) Energy = -103.27878160895416
 One-Electron (beta)  Energy = -95.88549571961158
 Total Coulomb        Energy =  78.09259436561194
   11    -108.6928889197      7.72e-09  Convergence criterion met
 ---------------------------------------
 Alpha HF Exchange    Energy =  -7.05722123843946
 Beta HF Exchange     Energy =  -6.47480883876942
 One-Electron (alpha) Energy = -103.27878160895416
 One-Electron (beta)  Energy = -95.88549571961158
 Total Coulomb        Energy =  78.09259436561194
 SCF time:   CPU 0.49s  wall 0.00s 
<S^2> =          1.171664707
 Alpha HF Exchange    Energy =  -7.05722123843946
 Beta HF Exchange     Energy =  -6.47480883876942
 One-Electron (alpha) Energy = -103.27878160895416
 One-Electron (beta)  Energy = -95.88549571961158
 Total Coulomb        Energy =  78.09259436561194
 Nuclear repulsion Energy =  25.91082412045765
 SCF   energy in the final basis set =     -108.6928889197
 Total energy in the final basis set =     -108.6928889197

 --------------------------------------------------------------

                    Orbital Energies (a.u.)
 --------------------------------------------------------------

 Alpha MOs
 -- Occupied --
-15.4933 -15.4702  -1.3552  -0.8877  -0.6667  -0.5605  -0.5457  -0.3819
 -- Virtual --
  0.2108   0.5838   0.7744

 Beta MOs
 -- Occupied --
-15.4936 -15.4414  -1.3190  -0.8222  -0.5691  -0.5497  -0.4870
 -- Virtual --
  0.2295   0.2497   0.5950   0.8110
 --------------------------------------------------------------

          Ground-State Mulliken Net Atomic Charges

     Atom                 Charge (a.u.)    Spin (a.u.)
  --------------------------------------------------------
      1 N                    -0.010147       1.648907
      2 N                    -0.232972      -0.794416
      3 H                     0.243119       0.145509
  --------------------------------------------------------
  Sum of atomic charges =    -0.000000
  Sum of spin   charges =     1.000000

 -----------------------------------------------------------------
                    Cartesian Multipole Moments
 -----------------------------------------------------------------
    Charge (ESU x 10^10)
                    -0.00000000
    Dipole Moment (Debye)
         X           1.72553092      Y          -0.85433741      Z           0.00000000
       Tot           1.92544784
    Quadrupole Moments (Debye-Ang)
        XX         -10.24306520     XY          -1.63116607     YY         -12.68713510
        XZ          -0.00000000     YZ          -0.00000000     ZZ         -10.62904920
    Octopole Moments (Debye-Ang^2)
       XXX           1.82155558    XXY          -0.74287065    XYY           1.94936906
       YYY          -2.08667132    XXZ           0.00000000    XYZ           0.00000000
       YYZ           0.00000000    XZZ           0.21280585    YZZ           0.03673301
       ZZZ           0.00000000
    Hexadecapole Moments (Debye-Ang^3)
      XXXX         -10.09540209   XXXY           0.16006036   XXYY          -7.41490590
      XYYY          -0.03019607   YYYY         -40.14549139   XXXZ          -0.00000000
      XXYZ          -0.00000000   XYYZ           0.00000000   YYYZ          -0.00000000
      XXZZ          -3.12030386   XYZZ           0.44675190   YYZZ          -7.46285356
      XZZZ          -0.00000000   YZZZ          -0.00000000   ZZZZ          -7.47513849
 -----------------------------------------------------------------
 Mayer SCF Bond Order, atomic valence on the diagonal:

            1           2           3
    1   1.7597942   1.7183140   0.0414803
    2   1.7183140   2.5965539   0.8782400
    3   0.0414803   0.8782400   0.9197203


 Calculating analytic gradient of the SCF energy
 ------------------------------------------------------
 Correction for Bais Set Incompleteness Error in  HF-3c
 ------------------------------------------------------
 Gradient of SCF Energy
            1           2           3
    1   0.0000425  -0.0000037  -0.0000388
    2  -0.0001666   0.0001017   0.0000649
    3  -0.0000000   0.0000000  -0.0000000
 Max gradient component =       1.666E-04
 RMS gradient           =       7.120E-05
 Gradient time:  CPU 0.12 s  wall 0.03 s
 Geometry Optimization Parameters
   NAtoms,    NIC,     NZ,  NCons,   NDum,   NFix, NCnnct, MaxDiis
        3       9       0       0       0       0       0       0

 Cartesian Hessian Update
 Hessian updated using BFGS update


** GEOMETRY OPTIMIZATION IN DELOCALIZED INTERNAL COORDINATES **
   Searching for a Minimum

   Optimization Cycle:   5

                       Coordinates (Angstroms)
     ATOM                X               Y               Z
      1  N        -0.0585009007    0.7023042600    0.0000000000
      2  N        -0.0780903569   -0.5614467395    0.0000000000
      3  H         0.8859030131   -0.9855502932    0.0000000000
   Point Group: c1    Number of degrees of freedom:     3


   Energy is   -108.692888920

 Hessian updated using BFGS update

  3 Hessian modes will be used to form the next step
  Hessian Eigenvalues:
     0.159773    0.375386    0.462185

 Minimum search - taking simple RFO step
 Searching for Lamda that Minimizes Along All modes
 Value Taken    Lamda =  -0.00000010
 Step Taken.  Stepsize is  0.000492

                             Maximum     Tolerance    Cnvgd?
         Gradient           0.000172      0.000300     YES
         Displacement       0.000420      0.001200     YES
         Energy change     -0.000005      0.000001      NO


                       Distance Matrix (Angstroms)
             N (  1)   N (  2)
   N (  2)  1.263903
   H (  3)  1.934102  1.053161

 Final energy is   -108.69288891970504     


 ******************************
 **  OPTIMIZATION CONVERGED  **
 ******************************

                       Coordinates (Angstroms)
     ATOM                X               Y               Z
      1  N        -0.0585009007    0.7023042600    0.0000000000
      2  N        -0.0780903569   -0.5614467395    0.0000000000
      3  H         0.8859030131   -0.9855502932    0.0000000000

Z-matrix Print:
$molecule
0 2
N 
H  1 1.053161
N  1 1.263903 2 112.858756
$end


 --------------------------------------------------------------

                    Orbital Energies (a.u.)
 --------------------------------------------------------------

 Alpha MOs
 -- Occupied --
-15.4933 -15.4702  -1.3552  -0.8877  -0.6667  -0.5605  -0.5457  -0.3819
 -- Virtual --
  0.2108   0.5838   0.7744

 Beta MOs
 -- Occupied --
-15.4936 -15.4414  -1.3190  -0.8222  -0.5691  -0.5497  -0.4870
 -- Virtual --
  0.2295   0.2497   0.5950   0.8110
 --------------------------------------------------------------

          Ground-State Mulliken Net Atomic Charges

     Atom                 Charge (a.u.)    Spin (a.u.)
  --------------------------------------------------------
      1 N                    -0.010147       1.648907
      2 N                    -0.232972      -0.794416
      3 H                     0.243119       0.145509
  --------------------------------------------------------
  Sum of atomic charges =    -0.000000
  Sum of spin   charges =     1.000000

 -----------------------------------------------------------------
                    Cartesian Multipole Moments
 -----------------------------------------------------------------
    Charge (ESU x 10^10)
                    -0.00000000
    Dipole Moment (Debye)
         X           1.72553092      Y          -0.85433741      Z           0.00000000
       Tot           1.92544784
    Quadrupole Moments (Debye-Ang)
        XX         -10.24306520     XY          -1.63116607     YY         -12.68713510
        XZ          -0.00000000     YZ          -0.00000000     ZZ         -10.62904920
    Octopole Moments (Debye-Ang^2)
       XXX           1.82155558    XXY          -0.74287065    XYY           1.94936906
       YYY          -2.08667132    XXZ           0.00000000    XYZ           0.00000000
       YYZ           0.00000000    XZZ           0.21280585    YZZ           0.03673301
       ZZZ           0.00000000
    Hexadecapole Moments (Debye-Ang^3)
      XXXX         -10.09540209   XXXY           0.16006036   XXYY          -7.41490590
      XYYY          -0.03019607   YYYY         -40.14549139   XXXZ          -0.00000000
      XXYZ          -0.00000000   XYYZ           0.00000000   YYYZ          -0.00000000
      XXZZ          -3.12030386   XYZZ           0.44675190   YYZZ          -7.46285356
      XZZZ          -0.00000000   YZZZ          -0.00000000   ZZZZ          -7.47513849
 -----------------------------------------------------------------
 Mayer SCF Bond Order, atomic valence on the diagonal:

            1           2           3
    1   1.7597942   1.7183140   0.0414803
    2   1.7183140   2.5965539   0.8782400
    3   0.0414803   0.8782400   0.9197203


Archival summary:
1\1\Lithium\OPT\HF\BasisUnspecified\21(2)\pierpa\ThuOct2212:19:422020ThuOct2212:19:422020\0\\#,OPT,HF,BasisUnspecified,\\0,2\N\H,1,1.05316\N,1,1.2639,2,112.859\\HF=-108.692889\\@

 Total job time:  1.25s(wall), 4.79s(cpu) 
 Thu Oct 22 12:19:42 2020

        *************************************************************
        *                                                           *
        *  Thank you very much for using Q-Chem.  Have a nice day.  *
        *                                                           *
        *************************************************************


