                  Welcome to Q-Chem
     A Quantum Leap Into The Future Of Chemistry


 Q-Chem 5.3 (devel), Q-Chem, Inc., Pleasanton, CA (2020)

 Yihan Shao,  Zhengting Gan,  E. Epifanovsky,  A. T. B. Gilbert,  M. Wormit,  
 J. Kussmann,  A. W. Lange,  A. Behn,  Jia Deng,  Xintian Feng,  D. Ghosh,  
 M. Goldey,  P. R. Horn,  L. D. Jacobson,  I. Kaliman,  T. Kus,  A. Landau,  
 Jie Liu,  E. I. Proynov,  R. M. Richard,  R. P. Steele,  E. J. Sundstrom,  
 H. L. Woodcock III,  P. M. Zimmerman,  D. Zuev,  B. Alam,  B. Albrecht,  
 A. Aldossary,  E. Alguire,  S. A. Baeppler,  D. Barton,  Z. Benda,  
 Y. A. Bernard,  E. J. Berquist,  K. B. Bravaya,  H. Burton,  K. Carter-Fenk,  
 D. Casanova,  Chun-Min Chang,  Yunqing Chen,  A. Chien,  K. D. Closser,  
 M. P. Coons,  S. Coriani,  S. Dasgupta,  A. L. Dempwolff,  M. Diedenhofen,  
 Hainam Do,  R. G. Edgar,  Po-Tung Fang,  S. Faraji,  S. Fatehi,  
 Qingguo Feng,  J. Fosso-Tande,  J. Gayvert,  Qinghui Ge,  A. Ghysels,  
 G. Gidofalvi,  J. Gomes,  J. Gonthier,  S. Gulania,  A. Gunina,  D. Hait,  
 M. W. D. Hanson-Heine,  S. Hammes-Schiffer,  P. H. P. Harbach,  
 A. W. Hauser,  M. F. Herbst,  J. E. Herr,  E. G. Hohenstein,  Z. C. Holden,  
 S. Houck,  Kerwin Hui,  B. C. Huynh,  M. Ivanov,  T.-C. Jagau,  Hyunjun Ji,  
 B. Kaduk,  K. Khistyaev,  Jaehoon Kim,  P. Klunzinger,  K. Koh,  
 D. Kosenkov,  L. Koulias,  T. Kowalczyk,  C. M. Krauter,  A. Kunitsa,  
 Ka Un Lao,  A. Laurent,  K. V. Lawler,  Joonho Lee,  D. Lefrancois,  
 S. Lehtola,  D. S. Levine,  Yi-Pei Li,  You-Sheng Lin,  Fenglai Liu,  
 Kuan-Yu Liu,  E. Livshits,  M. Loipersberger,  A. Luenser,  P. Manohar,  
 E. Mansoor,  S. F. Manzer,  Shan-Ping Mao,  Yuezhi Mao,  N. Mardirossian,  
 A. V. Marenich,  T. Markovich,  L. A. Martinez-Martinez,  S. A. Maurer,  
 N. J. Mayhall,  S. C. McKenzie,  J.-M. Mewes,  P. Morgante,  A. F. Morrison,  
 J. W. Mullinax,  K. Nanda,  T. S. Nguyen-Beck,  R. Olivares-Amaya,  
 K. J. Oosterbaan,  J. A. Parkhill,  S. K. Paul,  F. Pavosevic,  Zheng Pei,  
 T. M. Perrine,  F. Plasser,  P. Pokhilko,  S. Prager,  A. Prociuk,  
 E. Ramos,  B. Rana,  D. R. Rehn,  F. Rob,  E. Rossomme,  M. Scheurer,  
 M. Schneider,  N. Sergueev,  S. M. Sharada,  S. Sharma,  W. Skomorowski,  
 D. W. Small,  T. Stauch,  C. J. Stein,  T. Stein,  Yu-Chuan Su,  
 S. P. Veccham,  Zhen Tao,  A. J. W. Thom,  A. Tkatchenko,  T. Tsuchimochi,  
 N. M. Tubman,  L. Vogt,  M. L. Vidal,  O. Vydrov,  M. A. Watson,  J. Wenzel,  
 M. de Wergifosse,  T. A. Wesolowski,  A. White,  J. Witte,  A. Yamada,  
 Jun Yang,  K. Yao,  S. Yeganeh,  S. R. Yost,  Zhi-Qiang You,  A. Zech,  
 Igor Ying Zhang,  Xing Zhang,  Yan Zhao,  Ying Zhu,  B. R. Brooks,  
 G. K. L. Chan,  C. J. Cramer,  M. S. Gordon,  W. J. Hehre,  A. Klamt,  
 M. W. Schmidt,  C. D. Sherrill,  D. G. Truhlar,  A. Aspuru-Guzik,  R. Baer,  
 A. T. Bell,  N. A. Besley,  Jeng-Da Chai,  A. E. DePrince, III,  
 R. A. DiStasio Jr.,  A. Dreuw,  B. D. Dunietz,  T. R. Furlani,  
 Chao-Ping Hsu,  Yousung Jung,  Jing Kong,  D. S. Lambrecht,  WanZhen Liang,  
 C. Ochsenfeld,  V. A. Rassolov,  L. V. Slipchenko,  J. E. Subotnik,  
 T. Van Voorhis,  J. M. Herbert,  A. I. Krylov,  P. M. W. Gill,  M. Head-Gordon

 Contributors to earlier versions of Q-Chem not listed above: 
 R. D. Adamson,  B. Austin,  J. Baker,  G. J. O. Beran,  K. Brandhorst,  
 S. T. Brown,  E. F. C. Byrd,  A. K. Chakraborty,  C.-L. Cheng,  
 Siu Hung Chien,  D. M. Chipman,  D. L. Crittenden,  H. Dachsel,  
 R. J. Doerksen,  A. D. Dutoi,  L. Fusti-Molnar,  W. A. Goddard III,  
 A. Golubeva-Zadorozhnaya,  S. R. Gwaltney,  G. Hawkins,  A. Heyden,  
 S. Hirata,  G. Kedziora,  F. J. Keil,  C. Kelley,  Jihan Kim,  R. A. King,  
 R. Z. Khaliullin,  P. P. Korambath,  W. Kurlancheek,  A. M. Lee,  M. S. Lee,  
 S. V. Levchenko,  Ching Yeh Lin,  D. Liotard,  R. C. Lochan,  I. Lotan,  
 P. E. Maslen,  N. Nair,  D. P. O'Neill,  D. Neuhauser,  E. Neuscamman,  
 C. M. Oana,  R. Olson,  B. Peters,  R. Peverati,  P. A. Pieniazek,  
 Y. M. Rhee,  J. Ritchie,  M. A. Rohrdanz,  E. Rosta,  N. J. Russ,  
 H. F. Schaefer III,  N. E. Schultz,  N. Shenvi,  A. C. Simmonett,  A. Sodt,  
 D. Stuck,  K. S. Thanthiriwatte,  V. Vanovschi,  Tao Wang,  A. Warshel,  
 C. F. Williams,  Q. Wu,  X. Xu,  W. Zhang

 Please cite Q-Chem as follows:
 Y. Shao et al., Mol. Phys. 113, 184-215 (2015)
 DOI: 10.1080/00268976.2014.952696

 Q-Chem 5.3.1 for Intel X86 EM64T Linux

 Parts of Q-Chem use Armadillo 9.800.1 (Horizon Scraper).
 http://arma.sourceforge.net/

 Q-Chem begins on Fri Oct 30 10:22:02 2020  

Host: 
0

     Scratch files written to /data/scratch/MN_54_hfhts_BH76_HF_3c//
Processing $rem in /home/pierpa/qchem53/config/preferences:
Processing $rem in /home/pierpa/.qchemrc:

Checking the input file for inconsistencies... 	...done.

--------------------------------------------------------------
User input:
--------------------------------------------------------------
$Comment
Geometry optimizations for CLB18.
$End

$Rem
SYMMETRY              False
SYM_IGNORE            True
JOBTYPE               TS
METHOD                HF-3c
BASIS                 MINIX
GEOM_OPT_MAX_CYCLES   150
GEOM_OPT_DMAX         10
GEOM_OPT_DMAX         10
MAX_SCF_CYCLES        50
GEOM_OPT_MAX_CYCLES   150
SCF_ALGORITHM         DIIS
SCF_PRINT             1
SCF_FINAL_PRINT       1
XC_GRID               000099000590
MEM_TOTAL             20000
MEM_STATIC            4000
BLAS3_DFT             True
New_DFT               True
$End

$Molecule
0 2
H 0.0000000000 0.0000000000 1.1372177013
F 0.0000000000 0.0000000000 0.0000000000
H 0.0000000000 0.0000000000 -1.1372177013
$End

--------------------------------------------------------------
 Adding empirical dispersion correction 
 ----------------------------------------------------------------
 Doing -D3(BJ) with
 s6  =   1.00000
 s8  =   0.87770
 a1  =   0.41710
 a2  =   2.91490
 -D3 energy without 3body term =     -0.0020726699 hartrees
 ----------------------------------------------------------------
 Adding gCP correction 
 ----------------------------------------------------------------
 gCP energy =      0.0289805500 hartrees
 ------------------------------------------------------
 Correction for Bais Set Incompleteness Error in  HF-3c
 ------------------------------------------------------
 SRB energy =     -0.0248864146 hartrees
 ----------------------------------------------------------------
             Standard Nuclear Orientation (Angstroms)
    I     Atom           X                Y                Z
 ----------------------------------------------------------------
    1      H       0.0000000000     0.0000000000     1.1372177013
    2      F       0.0000000000     0.0000000000     0.0000000000
    3      H       0.0000000000     0.0000000000    -1.1372177013
 ----------------------------------------------------------------
 Nuclear Repulsion Energy =           8.61055648 hartrees
 There are        6 alpha and        5 beta electrons
 Requested basis set is MINIX
 There are 5 shells and 7 basis functions

 Total QAlloc Memory Limit  20000 MB
 Mega-Array Size      3911 MB
 MEM_STATIC part      4000 MB
 A cutoff of  1.0D-11 yielded     15 shell pairs
 There are        31 function pairs
 Smallest overlap matrix eigenvalue = 5.17E-01

 Scale SEOQF with 1.000000e+00/1.000000e+00/1.000000e+00

 Standard Electronic Orientation quadrupole field applied
 Nucleus-field energy     =    -0.0000000028 hartrees
 Guess from superposition of atomic densities
 Warning:  Energy on first SCF cycle will be non-variational
 SAD guess density has 11.000000 electrons

 -----------------------------------------------------------------------
  General SCF calculation program by
  Eric Jon Sundstrom, Paul Horn, Yuezhi Mao, Dmitri Zuev, Alec White,
  David Stuck, Shaama M.S., Shane Yost, Joonho Lee, David Small,
  Daniel Levine, Susi Lehtola, Hugh Burton, Evgeny Epifanovsky,
  Bang C. Huynh
 -----------------------------------------------------------------------
 Hartree-Fock
 Dispersion:   Grimme D3
 using 8 threads for integral computing
 -------------------------------------------------------
 OpenMP Integral computing Module                
 Release: version 1.0, May 2013, Q-Chem Inc. Pittsburgh 
 -------------------------------------------------------
 A unrestricted SCF calculation will be
 performed using DIIS
 SCF converges when DIIS error is below 1.0e-08
 Alpha HF Exchange    Energy =  -5.22982522810693
 Beta HF Exchange     Energy =  -5.22982522810693
 One-Electron (alpha) Energy = -78.47290581489692
 One-Electron (beta)  Energy = -78.47290581489692
 Total Coulomb        Energy =  59.31729477996571
 ---------------------------------------
  Cycle       Energy         DIIS error
 ---------------------------------------
    1     -99.4776108297      1.79e-01  
 Alpha HF Exchange    Energy =  -5.66553376870991
 Beta HF Exchange     Energy =  -5.22576575216326
 One-Electron (alpha) Energy = -81.69698020778769
 One-Electron (beta)  Energy = -76.90700276781611
 Total Coulomb        Energy =  61.17425125612362
    2     -99.7104747640      2.41e-02  
 Alpha HF Exchange    Energy =  -5.61416927026593
 Beta HF Exchange     Energy =  -5.20364394797166
 One-Electron (alpha) Energy = -81.00921242240966
 One-Electron (beta)  Energy = -76.74181493783487
 Total Coulomb        Energy =  60.21648096771637
    3     -99.7418031344      9.11e-03  
 Alpha HF Exchange    Energy =  -5.59862816571410
 Beta HF Exchange     Energy =  -5.22741821920570
 One-Electron (alpha) Energy = -80.75424470872341
 One-Electron (beta)  Energy = -76.90702874605502
 Total Coulomb        Energy =  60.12918490072207
    4     -99.7475784626      5.07e-03  
 Alpha HF Exchange    Energy =  -5.58428370087955
 Beta HF Exchange     Energy =  -5.25866168800358
 One-Electron (alpha) Energy = -80.48773644502813
 One-Electron (beta)  Energy = -77.12244292400069
 Total Coulomb        Energy =  60.09233221996224
    5     -99.7502360616      7.24e-04  
 Alpha HF Exchange    Energy =  -5.58293624886406
 Beta HF Exchange     Energy =  -5.26250327016669
 One-Electron (alpha) Energy = -80.46073757921035
 One-Electron (beta)  Energy = -77.14978266619066
 Total Coulomb        Energy =  60.09512394671675
    6     -99.7502793413      4.46e-05  
 Alpha HF Exchange    Energy =  -5.58279911513735
 Beta HF Exchange     Energy =  -5.26270794187513
 One-Electron (alpha) Energy = -80.45796807000575
 One-Electron (beta)  Energy = -77.15119759809535
 Total Coulomb        Energy =  60.09383672681736
    7     -99.7502795219      1.64e-06  
 Alpha HF Exchange    Energy =  -5.58280367438547
 Beta HF Exchange     Energy =  -5.26269672451479
 One-Electron (alpha) Energy = -80.45806021269244
 One-Electron (beta)  Energy = -77.15112231051609
 Total Coulomb        Energy =  60.09384692354865
    8     -99.7502795222      2.46e-08  
 Alpha HF Exchange    Energy =  -5.58280360678430
 Beta HF Exchange     Energy =  -5.26269681352191
 One-Electron (alpha) Energy = -80.45805884650173
 One-Electron (beta)  Energy = -77.15112294010912
 Total Coulomb        Energy =  60.09384620835692
    9     -99.7502795222      4.45e-10  Convergence criterion met
 ---------------------------------------
 Alpha HF Exchange    Energy =  -5.58280360678430
 Beta HF Exchange     Energy =  -5.26269681352191
 One-Electron (alpha) Energy = -80.45805884650173
 One-Electron (beta)  Energy = -77.15112294010912
 Total Coulomb        Energy =  60.09384620835692
 SCF time:   CPU 0.19s  wall 0.00s 
<S^2> =          0.830929092
 Alpha HF Exchange    Energy =  -5.58280360678430
 Beta HF Exchange     Energy =  -5.26269681352191
 One-Electron (alpha) Energy = -80.45805884650173
 One-Electron (beta)  Energy = -77.15112294010912
 Total Coulomb        Energy =  60.09384620835692
 Nuclear repulsion Energy =   8.61055647638764
 SCF   energy in the final basis set =      -99.7502795222
 Total energy in the final basis set =      -99.7502795222

 --------------------------------------------------------------

                    Orbital Energies (a.u.)
 --------------------------------------------------------------

 Alpha MOs
 -- Occupied --
-25.9965  -1.5346  -0.7249  -0.5988  -0.5988  -0.2296
 -- Virtual --
  0.4391

 Beta MOs
 -- Occupied --
-25.9958  -1.5339  -0.7059  -0.5969  -0.5969
 -- Virtual --
  0.3536   0.5743
 --------------------------------------------------------------

          Ground-State Mulliken Net Atomic Charges

     Atom                 Charge (a.u.)    Spin (a.u.)
  --------------------------------------------------------
      1 H                     0.135284       0.632926
      2 F                    -0.270569      -0.265851
      3 H                     0.135284       0.632926
  --------------------------------------------------------
  Sum of atomic charges =    -0.000000
  Sum of spin   charges =     1.000000

 -----------------------------------------------------------------
                    Cartesian Multipole Moments
 -----------------------------------------------------------------
    Charge (ESU x 10^10)
                -0.0000
    Dipole Moment (Debye)
         X      -0.0000      Y      -0.0000      Z       0.0000
       Tot       0.0000
    Quadrupole Moments (Debye-Ang)
        XX      -6.0395     XY       0.0000     YY      -6.0395
        XZ      -0.0000     YZ      -0.0000     ZZ      -4.0201
    Octopole Moments (Debye-Ang^2)
       XXX      -0.0000    XXY      -0.0000    XYY      -0.0000
       YYY      -0.0000    XXZ       0.0000    XYZ       0.0000
       YYZ       0.0000    XZZ      -0.0000    YZZ      -0.0000
       ZZZ       0.0000
    Hexadecapole Moments (Debye-Ang^3)
      XXXX      -3.1297   XXXY       0.0000   XXYY      -1.0432
      XYYY       0.0000   YYYY      -3.1297   XXXZ      -0.0000
      XXYZ       0.0000   XYYZ      -0.0000   YYYZ       0.0000
      XXZZ      -2.8610   XYZZ       0.0000   YYZZ      -2.8610
      XZZZ      -0.0000   YZZZ       0.0000   ZZZZ     -11.5791
 -----------------------------------------------------------------
 Mayer SCF Bond Order, atomic valence on the diagonal:

            1           2           3
    1   0.5811032   0.4440730   0.1370302
    2   0.4440730   0.8881460   0.4440730
    3   0.1370302   0.4440730   0.5811032


 Calculating analytic gradient of the SCF energy
 ------------------------------------------------------
 Correction for Bais Set Incompleteness Error in  HF-3c
 ------------------------------------------------------
 Gradient of SCF Energy
            1           2           3
    1  -0.0000000   0.0000000  -0.0000000
    2   0.0000000   0.0000000  -0.0000000
    3  -0.0476450  -0.0000000   0.0476450
 Max gradient component =       4.764E-02
 RMS gradient           =       2.246E-02
 Gradient time:  CPU 0.04 s  wall 0.03 s
 Geometry Optimization Parameters
   NAtoms,    NIC,     NZ,  NCons,   NDum,   NFix, NCnnct, MaxDiis
        3       9       0       0       0       0       0       0


** GEOMETRY OPTIMIZATION IN DELOCALIZED INTERNAL COORDINATES **
   Searching for a Transition State

   Optimization Cycle:   1

                       Coordinates (Angstroms)
     ATOM                X               Y               Z
      1  H         0.0000000000    0.0000000000    1.1372177013
      2  F         0.0000000000    0.0000000000    0.0000000000
      3  H         0.0000000000    0.0000000000   -1.1372177013
   Point Group: c1    Number of degrees of freedom:     3


   Energy is    -99.750279522


 Attempting to generate delocalized internal coordinates

  ***ERROR*** Angle     3    2    1   is near-linear
              But No atom available to define colinear bend
**WARNING** Problems with Internal Coordinates
  Switching to Cartesian Coordinates

 Translations and Rotations Projected Out of Hessian

  4 Hessian modes will be used to form the next step
  Hessian Eigenvalues:
     1.000000    1.000000    1.000000    1.000000
**WARNING** Hessian does not have the desired local structure
**WARNING** Hessian does not have the desired local structure

 Transition state search - taking P-RFO step
 Searching for Lamda that Maximizes Along the Lowest mode
 Value Taken    Lamda =   1.00057453
 Searching for Lamda that Minimizes Along All other modes
 Value Taken    Lamda =  -0.00394963
 Calculated Step too Large.  Step scaled by  0.000240
 Step Taken.  Stepsize is  0.010000

                             Maximum     Tolerance    Cnvgd?
         Gradient           0.047645      0.000300      NO
         Displacement       0.005739      0.001200      NO
         Energy change     *********      0.000001      NO

 Adding empirical dispersion correction 
 ----------------------------------------------------------------
 Doing -D3(BJ) with
 s6  =   1.00000
 s8  =   0.87770
 a1  =   0.41710
 a2  =   2.91490
 -D3 energy without 3body term =     -0.0020734853 hartrees
 ----------------------------------------------------------------
 Adding gCP correction 
 ----------------------------------------------------------------
 gCP energy =      0.0290565305 hartrees
 ------------------------------------------------------
 Correction for Bais Set Incompleteness Error in  HF-3c
 ------------------------------------------------------
 SRB energy =     -0.0250097903 hartrees
 ----------------------------------------------------------------
             Standard Nuclear Orientation (Angstroms)
    I     Atom           X                Y                Z
 ----------------------------------------------------------------
    1      H       0.0015185494     0.0000000000     1.1345592403
    2      F      -0.0030370988     0.0000000000     0.0026644788
    3      H       0.0015185494     0.0000000000    -1.1372237191
 ----------------------------------------------------------------
 Nuclear Repulsion Energy =           8.62059562 hartrees
 There are        6 alpha and        5 beta electrons
 Applying Cartesian multipole field
    Component          Value
    ---------          -----
     (2,0,0)        1.00000E-10
     (0,2,0)        2.00000E-10
     (0,0,2)       -3.00000E-10
 Nucleus-field energy     =    -0.0000000028 hartrees
 Requested basis set is MINIX
 There are 5 shells and 7 basis functions
 A cutoff of  1.0D-11 yielded     15 shell pairs
 There are        31 function pairs
 Smallest overlap matrix eigenvalue = 5.15E-01
 Guess MOs from SCF MO coefficient file

 -----------------------------------------------------------------------
  General SCF calculation program by
  Eric Jon Sundstrom, Paul Horn, Yuezhi Mao, Dmitri Zuev, Alec White,
  David Stuck, Shaama M.S., Shane Yost, Joonho Lee, David Small,
  Daniel Levine, Susi Lehtola, Hugh Burton, Evgeny Epifanovsky,
  Bang C. Huynh
 -----------------------------------------------------------------------
 Hartree-Fock
 Dispersion:   Grimme D3
 using 8 threads for integral computing
 -------------------------------------------------------
 OpenMP Integral computing Module                
 Release: version 1.0, May 2013, Q-Chem Inc. Pittsburgh 
 -------------------------------------------------------
 A unrestricted SCF calculation will be
 performed using DIIS
 SCF converges when DIIS error is below 1.0e-08
 Alpha HF Exchange    Energy =  -5.58325765952755
 Beta HF Exchange     Energy =  -5.26271985552575
 One-Electron (alpha) Energy = -80.46820233217093
 One-Electron (beta)  Energy = -77.15643516795296
 Total Coulomb        Energy =  60.09999481793665
 ---------------------------------------
  Cycle       Energy         DIIS error
 ---------------------------------------
    1     -99.7500245771      6.58e-04  
 Alpha HF Exchange    Energy =  -5.58334290741981
 Beta HF Exchange     Energy =  -5.26263028911601
 One-Electron (alpha) Energy = -80.46971895887347
 One-Electron (beta)  Energy = -77.15593951092730
 Total Coulomb        Energy =  60.10098849299816
    2     -99.7500475532      3.01e-04  
 Alpha HF Exchange    Energy =  -5.58340301474738
 Beta HF Exchange     Energy =  -5.26253583078469
 One-Electron (alpha) Energy = -80.47065471842701
 One-Electron (beta)  Energy = -77.15531245714872
 Total Coulomb        Energy =  60.10125180828042
    3     -99.7500585927      1.79e-04  
 Alpha HF Exchange    Energy =  -5.58348855973211
 Beta HF Exchange     Energy =  -5.26240235968535
 One-Electron (alpha) Energy = -80.47185675530586
 One-Electron (beta)  Energy = -77.15438135150784
 Total Coulomb        Energy =  60.10146895517190
    4     -99.7500644510      2.30e-05  
 Alpha HF Exchange    Energy =  -5.58349105876232
 Beta HF Exchange     Energy =  -5.26239781429865
 One-Electron (alpha) Energy = -80.47189101029137
 One-Electron (beta)  Energy = -77.15433826515137
 Total Coulomb        Energy =  60.10145803117996
    5     -99.7500644972      4.21e-06  
 Alpha HF Exchange    Energy =  -5.58349188475547
 Beta HF Exchange     Energy =  -5.26239692527117
 One-Electron (alpha) Energy = -80.47190208999737
 One-Electron (beta)  Energy = -77.15433233166945
 Total Coulomb        Energy =  60.10146311276307
    6     -99.7500644988      4.69e-07  
 Alpha HF Exchange    Energy =  -5.58349199406064
 Beta HF Exchange     Energy =  -5.26239672622416
 One-Electron (alpha) Energy = -80.47190347656445
 One-Electron (beta)  Energy = -77.15433115119021
 Total Coulomb        Energy =  60.10146322908796
    7     -99.7500644989      8.61e-08  
 Alpha HF Exchange    Energy =  -5.58349199916627
 Beta HF Exchange     Energy =  -5.26239673204019
 One-Electron (alpha) Energy = -80.47190355247574
 One-Electron (beta)  Energy = -77.15433120053872
 Total Coulomb        Energy =  60.10146336526896
    8     -99.7500644989      1.64e-08  
 Alpha HF Exchange    Energy =  -5.58349200001329
 Beta HF Exchange     Energy =  -5.26239673019432
 One-Electron (alpha) Energy = -80.47190355857248
 One-Electron (beta)  Energy = -77.15433118403107
 Total Coulomb        Energy =  60.10146335385917
    9     -99.7500644989      5.61e-09  Convergence criterion met
 ---------------------------------------
 Alpha HF Exchange    Energy =  -5.58349200001329
 Beta HF Exchange     Energy =  -5.26239673019432
 One-Electron (alpha) Energy = -80.47190355857248
 One-Electron (beta)  Energy = -77.15433118403107
 Total Coulomb        Energy =  60.10146335385917
 SCF time:   CPU 0.15s  wall 0.00s 
<S^2> =          0.830162735
 Alpha HF Exchange    Energy =  -5.58349200001329
 Beta HF Exchange     Energy =  -5.26239673019432
 One-Electron (alpha) Energy = -80.47190355857248
 One-Electron (beta)  Energy = -77.15433118403107
 Total Coulomb        Energy =  60.10146335385917
 Nuclear repulsion Energy =   8.62059562009888
 SCF   energy in the final basis set =      -99.7500644989
 Total energy in the final basis set =      -99.7500644989

 --------------------------------------------------------------

                    Orbital Energies (a.u.)
 --------------------------------------------------------------

 Alpha MOs
 -- Occupied --
-25.9967  -1.5352  -0.7258  -0.5990  -0.5990  -0.2289
 -- Virtual --
  0.4402

 Beta MOs
 -- Occupied --
-25.9958  -1.5341  -0.7064  -0.5970  -0.5970
 -- Virtual --
  0.3542   0.5755
 --------------------------------------------------------------

          Ground-State Mulliken Net Atomic Charges

     Atom                 Charge (a.u.)    Spin (a.u.)
  --------------------------------------------------------
      1 H                     0.141595       0.620366
      2 F                    -0.270831      -0.264311
      3 H                     0.129236       0.643945
  --------------------------------------------------------
  Sum of atomic charges =     0.000000
  Sum of spin   charges =     1.000000

 -----------------------------------------------------------------
                    Cartesian Multipole Moments
 -----------------------------------------------------------------
    Charge (ESU x 10^10)
                 0.0000
    Dipole Moment (Debye)
         X       0.0067      Y       0.0000      Z       0.0721
       Tot       0.0725
    Quadrupole Moments (Debye-Ang)
        XX      -6.0392     XY      -0.0000     YY      -6.0392
        XZ       0.0002     YZ       0.0000     ZZ      -4.0251
    Octopole Moments (Debye-Ang^2)
       XXX       0.0358    XXY       0.0000    XYY       0.0119
       YYY       0.0000    XXZ       0.0033    XYZ      -0.0000
       YYZ       0.0033    XZZ       0.0142    YZZ       0.0000
       ZZZ       0.1248
    Hexadecapole Moments (Debye-Ang^3)
      XXXX      -3.1298   XXXY      -0.0000   XXYY      -1.0432
      XYYY      -0.0000   YYYY      -3.1295   XXXZ       0.0002
      XXYZ      -0.0000   XYYZ       0.0001   YYYZ      -0.0000
      XXZZ      -2.8569   XYZZ      -0.0000   YYZZ      -2.8569
      XZZZ       0.0004   YZZZ      -0.0000   ZZZZ     -11.5681
 -----------------------------------------------------------------
 Mayer SCF Bond Order, atomic valence on the diagonal:

            1           2           3
    1   0.5950969   0.4577550   0.1373419
    2   0.4577550   0.8890458   0.4312908
    3   0.1373419   0.4312908   0.5686327


 Calculating analytic gradient of the SCF energy
 ------------------------------------------------------
 Correction for Bais Set Incompleteness Error in  HF-3c
 ------------------------------------------------------
 Gradient of SCF Energy
            1           2           3
    1   0.0001247  -0.0002202   0.0000955
    2  -0.0000000   0.0000000   0.0000000
    3  -0.0448997  -0.0070885   0.0519883
 Max gradient component =       5.199E-02
 RMS gradient           =       2.302E-02
 Gradient time:  CPU 0.04 s  wall 0.03 s
 Geometry Optimization Parameters
   NAtoms,    NIC,     NZ,  NCons,   NDum,   NFix, NCnnct, MaxDiis
        3       9       0       0       0       0       0       0

 Cartesian Hessian Update
 Hessian updated using Powell/Murtagh-Sargent update
  Mixing factors:     0.198638 Powell                      0.801362 Murtagh-Sargent


** GEOMETRY OPTIMIZATION IN CARTESIAN COORDINATES **
   Searching for a Transition State

   Optimization Cycle:   2

                       Coordinates (Angstroms)
     ATOM                X               Y               Z
      1  H         0.0015185494    0.0000000000    1.1345592403
      2  F        -0.0030370988    0.0000000000    0.0026644788
      3  H         0.0015185494    0.0000000000   -1.1372237191
   Point Group: c1    Number of degrees of freedom:     3


   Energy is    -99.750064499


 Translations and Rotations Projected Out of Hessian

  3 Hessian modes will be used to form the next step
  Hessian Eigenvalues:
    -0.828329    1.000000    1.058699

 Transition state search - taking P-RFO step
 Searching for Lamda that Maximizes Along the Lowest mode
 Value Taken    Lamda =   0.00001023
 Searching for Lamda that Minimizes Along All other modes
 Value Taken    Lamda =  -0.00465841
 Calculated Step too Large.  Step scaled by  0.147864
 Step Taken.  Stepsize is  0.010000

                             Maximum     Tolerance    Cnvgd?
         Gradient           0.051988      0.000300      NO
         Displacement       0.007729      0.001200      NO
         Energy change      0.000215      0.000001      NO

 Adding empirical dispersion correction 
 ----------------------------------------------------------------
 Doing -D3(BJ) with
 s6  =   1.00000
 s8  =   0.87770
 a1  =   0.41710
 a2  =   2.91490
 -D3 energy without 3body term =     -0.0020716492 hartrees
 ----------------------------------------------------------------
 Adding gCP correction 
 ----------------------------------------------------------------
 gCP energy =      0.0288488166 hartrees
 ------------------------------------------------------
 Correction for Bais Set Incompleteness Error in  HF-3c
 ------------------------------------------------------
 SRB energy =     -0.0246776438 hartrees
 ----------------------------------------------------------------
             Standard Nuclear Orientation (Angstroms)
    I     Atom           X                Y                Z
 ----------------------------------------------------------------
    1      H       0.0016451072     0.0000000000     1.1377899672
    2      F      -0.0032927614     0.0000000000     0.0035238284
    3      H       0.0016476542     0.0000000000    -1.1413137956
 ----------------------------------------------------------------
 Nuclear Repulsion Energy =           8.59310272 hartrees
 There are        6 alpha and        5 beta electrons
 Applying Cartesian multipole field
    Component          Value
    ---------          -----
     (2,0,0)        1.00000E-10
     (0,2,0)        2.00000E-10
     (0,0,2)       -3.00000E-10
 Nucleus-field energy     =    -0.0000000028 hartrees
 Requested basis set is MINIX
 There are 5 shells and 7 basis functions
 A cutoff of  1.0D-11 yielded     15 shell pairs
 There are        31 function pairs
 Smallest overlap matrix eigenvalue = 5.18E-01
 Guess MOs from SCF MO coefficient file

 -----------------------------------------------------------------------
  General SCF calculation program by
  Eric Jon Sundstrom, Paul Horn, Yuezhi Mao, Dmitri Zuev, Alec White,
  David Stuck, Shaama M.S., Shane Yost, Joonho Lee, David Small,
  Daniel Levine, Susi Lehtola, Hugh Burton, Evgeny Epifanovsky,
  Bang C. Huynh
 -----------------------------------------------------------------------
 Hartree-Fock
 Dispersion:   Grimme D3
 using 8 threads for integral computing
 -------------------------------------------------------
 OpenMP Integral computing Module                
 Release: version 1.0, May 2013, Q-Chem Inc. Pittsburgh 
 -------------------------------------------------------
 A unrestricted SCF calculation will be
 performed using DIIS
 SCF converges when DIIS error is below 1.0e-08
 Alpha HF Exchange    Energy =  -5.58225191232314
 Beta HF Exchange     Energy =  -5.26234519252141
 One-Electron (alpha) Energy = -80.44394907199256
 One-Electron (beta)  Energy = -77.13983403933514
 Total Coulomb        Energy =  60.08454452659377
 ---------------------------------------
  Cycle       Energy         DIIS error
 ---------------------------------------
    1     -99.7507329685      3.57e-04  
 Alpha HF Exchange    Energy =  -5.58206083968628
 Beta HF Exchange     Energy =  -5.26259399999917
 One-Electron (alpha) Energy = -80.43986126395500
 One-Electron (beta)  Energy = -77.14120419434386
 Total Coulomb        Energy =  60.08188084691349
    2     -99.7507367300      1.24e-04  
 Alpha HF Exchange    Energy =  -5.58196387655150
 Beta HF Exchange     Energy =  -5.26281813738048
 One-Electron (alpha) Energy = -80.43773619965674
 One-Electron (beta)  Energy = -77.14265388547851
 Total Coulomb        Energy =  60.08133120614094
    3     -99.7507381719      7.27e-05  
 Alpha HF Exchange    Energy =  -5.58185591531482
 Beta HF Exchange     Energy =  -5.26310143669006
 One-Electron (alpha) Energy = -80.43532215747197
 One-Electron (beta)  Energy = -77.14453251240541
 Total Coulomb        Energy =  60.08097033090808
    4     -99.7507389699      1.23e-05  
 Alpha HF Exchange    Energy =  -5.58185625281333
 Beta HF Exchange     Energy =  -5.26310898439896
 One-Electron (alpha) Energy = -80.43529863979714
 One-Electron (beta)  Energy = -77.14459493405045
 Total Coulomb        Energy =  60.08101710187200
    5     -99.7507389881      3.98e-06  
 Alpha HF Exchange    Energy =  -5.58186283434111
 Beta HF Exchange     Energy =  -5.26309400915576
 One-Electron (alpha) Energy = -80.43542097217802
 One-Electron (beta)  Energy = -77.14449202395154
 Total Coulomb        Energy =  60.08102812825905
    6     -99.7507389903      8.72e-07  
 Alpha HF Exchange    Energy =  -5.58186479049924
 Beta HF Exchange     Energy =  -5.26308986411697
 One-Electron (alpha) Energy = -80.43545844913693
 One-Electron (beta)  Energy = -77.14446338964640
 Total Coulomb        Energy =  60.08103478193704
    7     -99.7507389904      1.37e-07  
 Alpha HF Exchange    Energy =  -5.58186489619949
 Beta HF Exchange     Energy =  -5.26308959709568
 One-Electron (alpha) Energy = -80.43546032773511
 One-Electron (beta)  Energy = -77.14446158468954
 Total Coulomb        Energy =  60.08103469425600
    8     -99.7507389904      1.33e-08  
 Alpha HF Exchange    Energy =  -5.58186490978482
 Beta HF Exchange     Energy =  -5.26308956931925
 One-Electron (alpha) Energy = -80.43546058899898
 One-Electron (beta)  Energy = -77.14446140216316
 Total Coulomb        Energy =  60.08103475880230
    9     -99.7507389904      2.22e-09  Convergence criterion met
 ---------------------------------------
 Alpha HF Exchange    Energy =  -5.58186490978482
 Beta HF Exchange     Energy =  -5.26308956931925
 One-Electron (alpha) Energy = -80.43546058899898
 One-Electron (beta)  Energy = -77.14446140216316
 Total Coulomb        Energy =  60.08103475880230
 SCF time:   CPU 0.15s  wall 0.00s 
<S^2> =          0.831873120
 Alpha HF Exchange    Energy =  -5.58186490978482
 Beta HF Exchange     Energy =  -5.26308956931925
 One-Electron (alpha) Energy = -80.43546058899898
 One-Electron (beta)  Energy = -77.14446140216316
 Total Coulomb        Energy =  60.08103475880230
 Nuclear repulsion Energy =   8.59310272107004
 SCF   energy in the final basis set =      -99.7507389904
 Total energy in the final basis set =      -99.7507389904

 --------------------------------------------------------------

                    Orbital Energies (a.u.)
 --------------------------------------------------------------

 Alpha MOs
 -- Occupied --
-25.9961  -1.5336  -0.7234  -0.5983  -0.5983  -0.2310
 -- Virtual --
  0.4373

 Beta MOs
 -- Occupied --
-25.9955  -1.5335  -0.7049  -0.5966  -0.5966
 -- Virtual --
  0.3527   0.5723
 --------------------------------------------------------------

          Ground-State Mulliken Net Atomic Charges

     Atom                 Charge (a.u.)    Spin (a.u.)
  --------------------------------------------------------
      1 H                     0.143252       0.618415
      2 F                    -0.270294      -0.267795
      3 H                     0.127042       0.649380
  --------------------------------------------------------
  Sum of atomic charges =    -0.000000
  Sum of spin   charges =     1.000000

 -----------------------------------------------------------------
                    Cartesian Multipole Moments
 -----------------------------------------------------------------
    Charge (ESU x 10^10)
                -0.0000
    Dipole Moment (Debye)
         X       0.0072      Y      -0.0000      Z       0.0949
       Tot       0.0951
    Quadrupole Moments (Debye-Ang)
        XX      -6.0399     XY       0.0000     YY      -6.0398
        XZ       0.0003     YZ       0.0000     ZZ      -4.0107
    Octopole Moments (Debye-Ang^2)
       XXX       0.0389    XXY      -0.0000    XYY       0.0130
       YYY      -0.0000    XXZ       0.0043    XYZ      -0.0000
       YYZ       0.0043    XZZ       0.0154    YZZ      -0.0000
       ZZZ       0.1647
    Hexadecapole Moments (Debye-Ang^3)
      XXXX      -3.1303   XXXY       0.0000   XXYY      -1.0434
      XYYY       0.0000   YYYY      -3.1299   XXXZ       0.0003
      XXYZ       0.0000   XYYZ       0.0001   YYYZ       0.0000
      XXZZ      -2.8684   XYZZ       0.0000   YYZZ      -2.8684
      XZZZ       0.0006   YZZZ      -0.0000   ZZZZ     -11.5988
 -----------------------------------------------------------------
 Mayer SCF Bond Order, atomic valence on the diagonal:

            1           2           3
    1   0.5970422   0.4608809   0.1361613
    2   0.4608809   0.8868857   0.4260048
    3   0.1361613   0.4260048   0.5621661


 Calculating analytic gradient of the SCF energy
 ------------------------------------------------------
 Correction for Bais Set Incompleteness Error in  HF-3c
 ------------------------------------------------------
 Gradient of SCF Energy
            1           2           3
    1   0.0001472  -0.0002526   0.0001055
    2  -0.0000000  -0.0000000   0.0000000
    3  -0.0415467  -0.0093233   0.0508700
 Max gradient component =       5.087E-02
 RMS gradient           =       2.211E-02
 Gradient time:  CPU 0.04 s  wall 0.03 s
 Geometry Optimization Parameters
   NAtoms,    NIC,     NZ,  NCons,   NDum,   NFix, NCnnct, MaxDiis
        3       9       0       0       0       0       0       0

 Cartesian Hessian Update
 Hessian updated using Powell/Murtagh-Sargent update
  Mixing factors:     0.106240 Powell                      0.893760 Murtagh-Sargent


** GEOMETRY OPTIMIZATION IN CARTESIAN COORDINATES **
   Searching for a Transition State

   Optimization Cycle:   3

                       Coordinates (Angstroms)
     ATOM                X               Y               Z
      1  H         0.0016451072    0.0000000000    1.1377899672
      2  F        -0.0032927614    0.0000000000    0.0035238284
      3  H         0.0016476542    0.0000000000   -1.1413137956
   Point Group: c1    Number of degrees of freedom:     3


   Energy is    -99.750738990


 Translations and Rotations Projected Out of Hessian

  3 Hessian modes will be used to form the next step
  Hessian Eigenvalues:
    -0.954953    0.313435    1.034978

 Transition state search - taking P-RFO step
 Searching for Lamda that Maximizes Along the Lowest mode
 Value Taken    Lamda =   0.00018242
 Searching for Lamda that Minimizes Along All other modes
 Value Taken    Lamda =  -0.01282245
 Calculated Step too Large.  Step scaled by  0.050401
 Step Taken.  Stepsize is  0.010000

                             Maximum     Tolerance    Cnvgd?
         Gradient           0.050870      0.000300      NO
         Displacement       0.007115      0.001200      NO
         Energy change     -0.000674      0.000001      NO

 Adding empirical dispersion correction 
 ----------------------------------------------------------------
 Doing -D3(BJ) with
 s6  =   1.00000
 s8  =   0.87770
 a1  =   0.41710
 a2  =   2.91490
 -D3 energy without 3body term =     -0.0020698816 hartrees
 ----------------------------------------------------------------
 Adding gCP correction 
 ----------------------------------------------------------------
 gCP energy =      0.0286414435 hartrees
 ------------------------------------------------------
 Correction for Bais Set Incompleteness Error in  HF-3c
 ------------------------------------------------------
 SRB energy =     -0.0243469498 hartrees
 ----------------------------------------------------------------
             Standard Nuclear Orientation (Angstroms)
    I     Atom           X                Y                Z
 ----------------------------------------------------------------
    1      H       0.0012400551     0.0000000000     1.1415548157
    2      F      -0.0024856088     0.0000000000     0.0033391201
    3      H       0.0012455537     0.0000000000    -1.1448939357
 ----------------------------------------------------------------
 Nuclear Repulsion Energy =           8.56564469 hartrees
 There are        6 alpha and        5 beta electrons
 Applying Cartesian multipole field
    Component          Value
    ---------          -----
     (2,0,0)        1.00000E-10
     (0,2,0)        2.00000E-10
     (0,0,2)       -3.00000E-10
 Nucleus-field energy     =    -0.0000000028 hartrees
 Requested basis set is MINIX
 There are 5 shells and 7 basis functions
 A cutoff of  1.0D-11 yielded     15 shell pairs
 There are        31 function pairs
 Smallest overlap matrix eigenvalue = 5.20E-01
 Guess MOs from SCF MO coefficient file

 -----------------------------------------------------------------------
  General SCF calculation program by
  Eric Jon Sundstrom, Paul Horn, Yuezhi Mao, Dmitri Zuev, Alec White,
  David Stuck, Shaama M.S., Shane Yost, Joonho Lee, David Small,
  Daniel Levine, Susi Lehtola, Hugh Burton, Evgeny Epifanovsky,
  Bang C. Huynh
 -----------------------------------------------------------------------
 Hartree-Fock
 Dispersion:   Grimme D3
 using 8 threads for integral computing
 -------------------------------------------------------
 OpenMP Integral computing Module                
 Release: version 1.0, May 2013, Q-Chem Inc. Pittsburgh 
 -------------------------------------------------------
 A unrestricted SCF calculation will be
 performed using DIIS
 SCF converges when DIIS error is below 1.0e-08
 Alpha HF Exchange    Energy =  -5.58062066188017
 Beta HF Exchange     Energy =  -5.26303789254914
 One-Electron (alpha) Energy = -80.40753397867076
 One-Electron (beta)  Energy = -77.12997546717993
 Total Coulomb        Energy =  60.06416494911152
 ---------------------------------------
  Cycle       Energy         DIIS error
 ---------------------------------------
    1     -99.7513583599      3.04e-04  
 Alpha HF Exchange    Energy =  -5.58041093525326
 Beta HF Exchange     Energy =  -5.26328908529115
 One-Electron (alpha) Energy = -80.40333157883971
 One-Electron (beta)  Energy = -77.13137079927149
 Total Coulomb        Energy =  60.06139754916201
    2     -99.7513601582      8.82e-05  
 Alpha HF Exchange    Energy =  -5.58030239711225
 Beta HF Exchange     Energy =  -5.26351633862929
 One-Electron (alpha) Energy = -80.40116116543633
 One-Electron (beta)  Energy = -77.13285359013210
 Total Coulomb        Energy =  60.06082810666432
    3     -99.7513606933      4.88e-05  
 Alpha HF Exchange    Energy =  -5.58018207000958
 Beta HF Exchange     Energy =  -5.26379399422383
 One-Electron (alpha) Energy = -80.39875817986902
 One-Electron (beta)  Energy = -77.13471352359288
 Total Coulomb        Energy =  60.06044212590867
    4     -99.7513609505      8.46e-06  
 Alpha HF Exchange    Energy =  -5.58016601961253
 Beta HF Exchange     Energy =  -5.26383397239507
 One-Electron (alpha) Energy = -80.39844352736026
 One-Electron (beta)  Energy = -77.13499654014099
 Total Coulomb        Energy =  60.06043440998270
    5     -99.7513609582      1.93e-06  
 Alpha HF Exchange    Energy =  -5.58016547578841
 Beta HF Exchange     Energy =  -5.26383393305489
 One-Electron (alpha) Energy = -80.39843781862460
 One-Electron (beta)  Energy = -77.13499638963401
 Total Coulomb        Energy =  60.06042796701953
    6     -99.7513609588      5.92e-07  
 Alpha HF Exchange    Energy =  -5.58016580994165
 Beta HF Exchange     Energy =  -5.26383314100921
 One-Electron (alpha) Energy = -80.39844651783105
 One-Electron (beta)  Energy = -77.13499107265224
 Total Coulomb        Energy =  60.06043089129626
    7     -99.7513609588      1.83e-07  
 Alpha HF Exchange    Energy =  -5.58016587780198
 Beta HF Exchange     Energy =  -5.26383286463150
 One-Electron (alpha) Energy = -80.39844848047895
 One-Electron (beta)  Energy = -77.13498927620032
 Total Coulomb        Energy =  60.06043084897026
    8     -99.7513609588      6.91e-09  Convergence criterion met
 ---------------------------------------
 Alpha HF Exchange    Energy =  -5.58016587780198
 Beta HF Exchange     Energy =  -5.26383286463150
 One-Electron (alpha) Energy = -80.39844848047895
 One-Electron (beta)  Energy = -77.13498927620032
 Total Coulomb        Energy =  60.06043084897026
 SCF time:   CPU 0.14s  wall 0.00s 
<S^2> =          0.833736165
 Alpha HF Exchange    Energy =  -5.58016587780198
 Beta HF Exchange     Energy =  -5.26383286463150
 One-Electron (alpha) Energy = -80.39844848047895
 One-Electron (beta)  Energy = -77.13498927620032
 Total Coulomb        Energy =  60.06043084897026
 Nuclear repulsion Energy =   8.56564469131433
 SCF   energy in the final basis set =      -99.7513609588
 Total energy in the final basis set =      -99.7513609588

 --------------------------------------------------------------

                    Orbital Energies (a.u.)
 --------------------------------------------------------------

 Alpha MOs
 -- Occupied --
-25.9955  -1.5320  -0.7211  -0.5975  -0.5975  -0.2331
 -- Virtual --
  0.4343

 Beta MOs
 -- Occupied --
-25.9952  -1.5328  -0.7035  -0.5962  -0.5962
 -- Virtual --
  0.3512   0.5691
 --------------------------------------------------------------

          Ground-State Mulliken Net Atomic Charges

     Atom                 Charge (a.u.)    Spin (a.u.)
  --------------------------------------------------------
      1 H                     0.142466       0.621190
      2 F                    -0.269697      -0.271517
      3 H                     0.127230       0.650326
  --------------------------------------------------------
  Sum of atomic charges =     0.000000
  Sum of spin   charges =     1.000000

 -----------------------------------------------------------------
                    Cartesian Multipole Moments
 -----------------------------------------------------------------
    Charge (ESU x 10^10)
                 0.0000
    Dipole Moment (Debye)
         X       0.0054      Y       0.0000      Z       0.0894
       Tot       0.0896
    Quadrupole Moments (Debye-Ang)
        XX      -6.0405     XY       0.0000     YY      -6.0405
        XZ       0.0002     YZ       0.0000     ZZ      -3.9964
    Octopole Moments (Debye-Ang^2)
       XXX       0.0293    XXY       0.0000    XYY       0.0098
       YYY       0.0000    XXZ       0.0039    XYZ      -0.0000
       YYZ       0.0039    XZZ       0.0116    YZZ       0.0000
       ZZZ       0.1558
    Hexadecapole Moments (Debye-Ang^3)
      XXXX      -3.1306   XXXY       0.0000   XXYY      -1.0435
      XYYY       0.0000   YYYY      -3.1304   XXXZ       0.0002
      XXYZ       0.0000   XYYZ       0.0001   YYYZ       0.0000
      XXZZ      -2.8800   XYZZ       0.0000   YYZZ      -2.8800
      XZZZ       0.0005   YZZZ      -0.0000   ZZZZ     -11.6298
 -----------------------------------------------------------------
 Mayer SCF Bond Order, atomic valence on the diagonal:

            1           2           3
    1   0.5938258   0.4587699   0.1350559
    2   0.4587699   0.8846023   0.4258324
    3   0.1350559   0.4258324   0.5608883


 Calculating analytic gradient of the SCF energy
 ------------------------------------------------------
 Correction for Bais Set Incompleteness Error in  HF-3c
 ------------------------------------------------------
 Gradient of SCF Energy
            1           2           3
    1   0.0001154  -0.0002010   0.0000856
    2  -0.0000000  -0.0000000   0.0000000
    3  -0.0396348  -0.0087883   0.0484231
 Max gradient component =       4.842E-02
 RMS gradient           =       2.106E-02
 Gradient time:  CPU 0.04 s  wall 0.03 s
 Geometry Optimization Parameters
   NAtoms,    NIC,     NZ,  NCons,   NDum,   NFix, NCnnct, MaxDiis
        3       9       0       0       0       0       0       0

 Cartesian Hessian Update
 Hessian updated using Powell/Murtagh-Sargent update
  Mixing factors:     0.704869 Powell                      0.295131 Murtagh-Sargent


** GEOMETRY OPTIMIZATION IN CARTESIAN COORDINATES **
   Searching for a Transition State

   Optimization Cycle:   4

                       Coordinates (Angstroms)
     ATOM                X               Y               Z
      1  H         0.0012400551    0.0000000000    1.1415548157
      2  F        -0.0024856088    0.0000000000    0.0033391201
      3  H         0.0012455537    0.0000000000   -1.1448939357
   Point Group: c1    Number of degrees of freedom:     3


   Energy is    -99.751360959


 Translations and Rotations Projected Out of Hessian

  3 Hessian modes will be used to form the next step
  Hessian Eigenvalues:
    -0.956238    0.307261    1.029767

 Transition state search - taking P-RFO step
 Searching for Lamda that Maximizes Along the Lowest mode
 Value Taken    Lamda =   0.00015721
 Searching for Lamda that Minimizes Along All other modes
 Value Taken    Lamda =  -0.01193932
 Calculated Step too Large.  Step scaled by  0.051658
 Step Taken.  Stepsize is  0.010000

                             Maximum     Tolerance    Cnvgd?
         Gradient           0.048423      0.000300      NO
         Displacement       0.007120      0.001200      NO
         Energy change     -0.000622      0.000001      NO

 Adding empirical dispersion correction 
 ----------------------------------------------------------------
 Doing -D3(BJ) with
 s6  =   1.00000
 s8  =   0.87770
 a1  =   0.41710
 a2  =   2.91490
 -D3 energy without 3body term =     -0.0020682951 hartrees
 ----------------------------------------------------------------
 Adding gCP correction 
 ----------------------------------------------------------------
 gCP energy =      0.0284350022 hartrees
 ------------------------------------------------------
 Correction for Bais Set Incompleteness Error in  HF-3c
 ------------------------------------------------------
 SRB energy =     -0.0240198545 hartrees
 ----------------------------------------------------------------
             Standard Nuclear Orientation (Angstroms)
    I     Atom           X                Y                Z
 ----------------------------------------------------------------
    1      H       0.0008606296     0.0000000000     1.1453227777
    2      F      -0.0017295210     0.0000000000     0.0031652616
    3      H       0.0008688914     0.0000000000    -1.1484880393
 ----------------------------------------------------------------
 Nuclear Repulsion Energy =           8.53828818 hartrees
 There are        6 alpha and        5 beta electrons
 Applying Cartesian multipole field
    Component          Value
    ---------          -----
     (2,0,0)        1.00000E-10
     (0,2,0)        2.00000E-10
     (0,0,2)       -3.00000E-10
 Nucleus-field energy     =    -0.0000000028 hartrees
 Requested basis set is MINIX
 There are 5 shells and 7 basis functions
 A cutoff of  1.0D-11 yielded     15 shell pairs
 There are        31 function pairs
 Smallest overlap matrix eigenvalue = 5.22E-01
 Guess MOs from SCF MO coefficient file

 -----------------------------------------------------------------------
  General SCF calculation program by
  Eric Jon Sundstrom, Paul Horn, Yuezhi Mao, Dmitri Zuev, Alec White,
  David Stuck, Shaama M.S., Shane Yost, Joonho Lee, David Small,
  Daniel Levine, Susi Lehtola, Hugh Burton, Evgeny Epifanovsky,
  Bang C. Huynh
 -----------------------------------------------------------------------
 Hartree-Fock
 Dispersion:   Grimme D3
 using 8 threads for integral computing
 -------------------------------------------------------
 OpenMP Integral computing Module                
 Release: version 1.0, May 2013, Q-Chem Inc. Pittsburgh 
 -------------------------------------------------------
 A unrestricted SCF calculation will be
 performed using DIIS
 SCF converges when DIIS error is below 1.0e-08
 Alpha HF Exchange    Energy =  -5.57892492412881
 Beta HF Exchange     Energy =  -5.26378580393802
 One-Electron (alpha) Energy = -80.37054602081827
 One-Electron (beta)  Energy = -77.12057330170330
 Total Coulomb        Energy =  60.04358969608130
 ---------------------------------------
  Cycle       Energy         DIIS error
 ---------------------------------------
    1     -99.7519521813      3.02e-04  
 Alpha HF Exchange    Energy =  -5.57871563775999
 Beta HF Exchange     Energy =  -5.26403885309107
 One-Electron (alpha) Energy = -80.36631660900461
 One-Electron (beta)  Energy = -77.12198230047260
 Total Coulomb        Energy =  60.04081126022864
    2     -99.7519539669      8.81e-05  
 Alpha HF Exchange    Energy =  -5.57860700751920
 Beta HF Exchange     Energy =  -5.26426795298563
 One-Electron (alpha) Energy = -80.36412470536582
 One-Electron (beta)  Energy = -77.12347607798061
 Total Coulomb        Energy =  60.04023306982131
    3     -99.7519545009      4.88e-05  
 Alpha HF Exchange    Energy =  -5.57848590024287
 Beta HF Exchange     Energy =  -5.26454951121654
 One-Electron (alpha) Energy = -80.36168340790657
 One-Electron (beta)  Energy = -77.12535973330117
 Total Coulomb        Energy =  60.03983562132220
    4     -99.7519547582      8.26e-06  
 Alpha HF Exchange    Energy =  -5.57847005450445
 Beta HF Exchange     Energy =  -5.26458944675525
 One-Electron (alpha) Energy = -80.36136914424451
 One-Electron (beta)  Energy = -77.12564182205813
 Total Coulomb        Energy =  60.03982752895561
    5     -99.7519547654      1.81e-06  
 Alpha HF Exchange    Energy =  -5.57846953304639
 Beta HF Exchange     Energy =  -5.26458946815515
 One-Electron (alpha) Energy = -80.36136316023206
 One-Electron (beta)  Energy = -77.12564207760578
 Total Coulomb        Energy =  60.03982129994296
    6     -99.7519547659      5.72e-07  
 Alpha HF Exchange    Energy =  -5.57846984267846
 Beta HF Exchange     Energy =  -5.26458874157555
 One-Electron (alpha) Energy = -80.36137127421711
 One-Electron (beta)  Energy = -77.12563720409622
 Total Coulomb        Energy =  60.03982412341853
    7     -99.7519547660      1.75e-07  
 Alpha HF Exchange    Energy =  -5.57846990133773
 Beta HF Exchange     Energy =  -5.26458849656481
 One-Electron (alpha) Energy = -80.36137300641280
 One-Electron (beta)  Energy = -77.12563561474259
 Total Coulomb        Energy =  60.03982407990491
    8     -99.7519547660      6.42e-09  Convergence criterion met
 ---------------------------------------
 Alpha HF Exchange    Energy =  -5.57846990133773
 Beta HF Exchange     Energy =  -5.26458849656481
 One-Electron (alpha) Energy = -80.36137300641280
 One-Electron (beta)  Energy = -77.12563561474259
 Total Coulomb        Energy =  60.03982407990491
 SCF time:   CPU 0.16s  wall 0.00s 
<S^2> =          0.835639500
 Alpha HF Exchange    Energy =  -5.57846990133773
 Beta HF Exchange     Energy =  -5.26458849656481
 One-Electron (alpha) Energy = -80.36137300641280
 One-Electron (beta)  Energy = -77.12563561474259
 Total Coulomb        Energy =  60.03982407990491
 Nuclear repulsion Energy =   8.53828817316337
 SCF   energy in the final basis set =      -99.7519547660
 Total energy in the final basis set =      -99.7519547660

 --------------------------------------------------------------

                    Orbital Energies (a.u.)
 --------------------------------------------------------------

 Alpha MOs
 -- Occupied --
-25.9949  -1.5304  -0.7188  -0.5968  -0.5968  -0.2352
 -- Virtual --
  0.4314

 Beta MOs
 -- Occupied --
-25.9949  -1.5322  -0.7021  -0.5957  -0.5957
 -- Virtual --
  0.3497   0.5659
 --------------------------------------------------------------

          Ground-State Mulliken Net Atomic Charges

     Atom                 Charge (a.u.)    Spin (a.u.)
  --------------------------------------------------------
      1 H                     0.141708       0.623922
      2 F                    -0.269091      -0.275265
      3 H                     0.127383       0.651343
  --------------------------------------------------------
  Sum of atomic charges =     0.000000
  Sum of spin   charges =     1.000000

 -----------------------------------------------------------------
                    Cartesian Multipole Moments
 -----------------------------------------------------------------
    Charge (ESU x 10^10)
                 0.0000
    Dipole Moment (Debye)
         X       0.0038      Y       0.0000      Z       0.0843
       Tot       0.0844
    Quadrupole Moments (Debye-Ang)
        XX      -6.0412     XY       0.0000     YY      -6.0412
        XZ       0.0001     YZ       0.0000     ZZ      -3.9822
    Octopole Moments (Debye-Ang^2)
       XXX       0.0204    XXY       0.0000    XYY       0.0068
       YYY       0.0000    XXZ       0.0036    XYZ      -0.0000
       YYZ       0.0036    XZZ       0.0081    YZZ       0.0000
       ZZZ       0.1475
    Hexadecapole Moments (Debye-Ang^3)
      XXXX      -3.1310   XXXY       0.0000   XXYY      -1.0436
      XYYY       0.0000   YYYY      -3.1309   XXXZ       0.0002
      XXYZ      -0.0000   XYYZ       0.0001   YYYZ      -0.0000
      XXZZ      -2.8917   XYZZ       0.0000   YYZZ      -2.8917
      XZZZ       0.0003   YZZZ      -0.0000   ZZZZ     -11.6611
 -----------------------------------------------------------------
 Mayer SCF Bond Order, atomic valence on the diagonal:

            1           2           3
    1   0.5906400   0.4567000   0.1339399
    2   0.4567000   0.8822862   0.4255862
    3   0.1339399   0.4255862   0.5595261


 Calculating analytic gradient of the SCF energy
 ------------------------------------------------------
 Correction for Bais Set Incompleteness Error in  HF-3c
 ------------------------------------------------------
 Gradient of SCF Energy
            1           2           3
    1   0.0000832  -0.0001468   0.0000636
    2  -0.0000000  -0.0000000   0.0000000
    3  -0.0377521  -0.0082855   0.0460376
 Max gradient component =       4.604E-02
 RMS gradient           =       2.004E-02
 Gradient time:  CPU 0.05 s  wall 0.03 s
 Geometry Optimization Parameters
   NAtoms,    NIC,     NZ,  NCons,   NDum,   NFix, NCnnct, MaxDiis
        3       9       0       0       0       0       0       0

 Cartesian Hessian Update
 Hessian updated using Powell/Murtagh-Sargent update
  Mixing factors:     0.689342 Powell                      0.310658 Murtagh-Sargent


** GEOMETRY OPTIMIZATION IN CARTESIAN COORDINATES **
   Searching for a Transition State

   Optimization Cycle:   5

                       Coordinates (Angstroms)
     ATOM                X               Y               Z
      1  H         0.0008606296    0.0000000000    1.1453227777
      2  F        -0.0017295210    0.0000000000    0.0031652616
      3  H         0.0008688914    0.0000000000   -1.1484880393
   Point Group: c1    Number of degrees of freedom:     3


   Energy is    -99.751954766


 Translations and Rotations Projected Out of Hessian

  3 Hessian modes will be used to form the next step
  Hessian Eigenvalues:
    -0.956782    0.301177    1.024665

 Transition state search - taking P-RFO step
 Searching for Lamda that Maximizes Along the Lowest mode
 Value Taken    Lamda =   0.00013763
 Searching for Lamda that Minimizes Along All other modes
 Value Taken    Lamda =  -0.01107732
 Calculated Step too Large.  Step scaled by  0.053038
 Step Taken.  Stepsize is  0.010000

                             Maximum     Tolerance    Cnvgd?
         Gradient           0.046038      0.000300      NO
         Displacement       0.007131      0.001200      NO
         Energy change     -0.000594      0.000001      NO

 Adding empirical dispersion correction 
 ----------------------------------------------------------------
 Doing -D3(BJ) with
 s6  =   1.00000
 s8  =   0.87770
 a1  =   0.41710
 a2  =   2.91490
 -D3 energy without 3body term =     -0.0020669071 hartrees
 ----------------------------------------------------------------
 Adding gCP correction 
 ----------------------------------------------------------------
 gCP energy =      0.0282295908 hartrees
 ------------------------------------------------------
 Correction for Bais Set Incompleteness Error in  HF-3c
 ------------------------------------------------------
 SRB energy =     -0.0236964740 hartrees
 ----------------------------------------------------------------
             Standard Nuclear Orientation (Angstroms)
    I     Atom           X                Y                Z
 ----------------------------------------------------------------
    1      H       0.0005041253     0.0000000000     1.1490963614
    2      F      -0.0010190925     0.0000000000     0.0029939703
    3      H       0.0005149672     0.0000000000    -1.1520903318
 ----------------------------------------------------------------
 Nuclear Repulsion Energy =           8.51104584 hartrees
 There are        6 alpha and        5 beta electrons
 Applying Cartesian multipole field
    Component          Value
    ---------          -----
     (2,0,0)        1.00000E-10
     (0,2,0)        2.00000E-10
     (0,0,2)       -3.00000E-10
 Nucleus-field energy     =    -0.0000000028 hartrees
 Requested basis set is MINIX
 There are 5 shells and 7 basis functions
 A cutoff of  1.0D-11 yielded     15 shell pairs
 There are        31 function pairs
 Smallest overlap matrix eigenvalue = 5.25E-01
 Guess MOs from SCF MO coefficient file

 -----------------------------------------------------------------------
  General SCF calculation program by
  Eric Jon Sundstrom, Paul Horn, Yuezhi Mao, Dmitri Zuev, Alec White,
  David Stuck, Shaama M.S., Shane Yost, Joonho Lee, David Small,
  Daniel Levine, Susi Lehtola, Hugh Burton, Evgeny Epifanovsky,
  Bang C. Huynh
 -----------------------------------------------------------------------
 Hartree-Fock
 Dispersion:   Grimme D3
 using 8 threads for integral computing
 -------------------------------------------------------
 OpenMP Integral computing Module                
 Release: version 1.0, May 2013, Q-Chem Inc. Pittsburgh 
 -------------------------------------------------------
 A unrestricted SCF calculation will be
 performed using DIIS
 SCF converges when DIIS error is below 1.0e-08
 Alpha HF Exchange    Energy =  -5.57723282227581
 Beta HF Exchange     Energy =  -5.26454604627441
 One-Electron (alpha) Energy = -80.33350854222344
 One-Electron (beta)  Energy = -77.11129630674724
 Total Coulomb        Energy =  60.02302003159737
 ---------------------------------------
  Cycle       Energy         DIIS error
 ---------------------------------------
    1     -99.7525178511      3.01e-04  
 Alpha HF Exchange    Energy =  -5.57702390885937
 Beta HF Exchange     Energy =  -5.26480086955124
 One-Electron (alpha) Energy = -80.32925312066823
 One-Electron (beta)  Energy = -77.11271860240356
 Total Coulomb        Energy =  60.02023103232008
    2     -99.7525196343      8.83e-05  
 Alpha HF Exchange    Energy =  -5.57691509315125
 Beta HF Exchange     Energy =  -5.26503184930524
 One-Electron (alpha) Energy = -80.32703928382932
 One-Electron (beta)  Energy = -77.11422366827529
 Total Coulomb        Energy =  60.01964388781331
    3     -99.7525201719      4.90e-05  
 Alpha HF Exchange    Energy =  -5.57679296568316
 Beta HF Exchange     Energy =  -5.26531765432649
 One-Electron (alpha) Energy = -80.32455635547815
 One-Electron (beta)  Energy = -77.11613344446533
 Total Coulomb        Energy =  60.01923415247302
    4     -99.7525204326      8.14e-06  
 Alpha HF Exchange    Energy =  -5.57677731682863
 Beta HF Exchange     Energy =  -5.26535750218664
 One-Electron (alpha) Energy = -80.32424284486382
 One-Electron (beta)  Energy = -77.11641438805044
 Total Coulomb        Energy =  60.01922577745854
    5     -99.7525204396      1.74e-06  
 Alpha HF Exchange    Energy =  -5.57677684226882
 Beta HF Exchange     Energy =  -5.26535749151297
 One-Electron (alpha) Energy = -80.32423728649647
 One-Electron (beta)  Energy = -77.11641442338920
 Total Coulomb        Energy =  60.01921976874654
    6     -99.7525204401      5.60e-07  
 Alpha HF Exchange    Energy =  -5.57677714696678
 Beta HF Exchange     Energy =  -5.26535678315661
 One-Electron (alpha) Energy = -80.32424523705231
 One-Electron (beta)  Energy = -77.11640967287342
 Total Coulomb        Energy =  60.01922256507741
    7     -99.7525204401      1.67e-07  
 Alpha HF Exchange    Energy =  -5.57677720058324
 Beta HF Exchange     Energy =  -5.26535655904569
 One-Electron (alpha) Energy = -80.32424682121386
 One-Electron (beta)  Energy = -77.11640821994571
 Total Coulomb        Energy =  60.01922252581292
    8     -99.7525204401      6.19e-09  Convergence criterion met
 ---------------------------------------
 Alpha HF Exchange    Energy =  -5.57677720058324
 Beta HF Exchange     Energy =  -5.26535655904569
 One-Electron (alpha) Energy = -80.32424682121386
 One-Electron (beta)  Energy = -77.11640821994571
 Total Coulomb        Energy =  60.01922252581292
 SCF time:   CPU 0.17s  wall 0.00s 
<S^2> =          0.837584012
 Alpha HF Exchange    Energy =  -5.57677720058324
 Beta HF Exchange     Energy =  -5.26535655904569
 One-Electron (alpha) Energy = -80.32424682121386
 One-Electron (beta)  Energy = -77.11640821994571
 Total Coulomb        Energy =  60.01922252581292
 Nuclear repulsion Energy =   8.51104583483390
 SCF   energy in the final basis set =      -99.7525204401
 Total energy in the final basis set =      -99.7525204401

 --------------------------------------------------------------

                    Orbital Energies (a.u.)
 --------------------------------------------------------------

 Alpha MOs
 -- Occupied --
-25.9943  -1.5288  -0.7164  -0.5961  -0.5961  -0.2373
 -- Virtual --
  0.4285

 Beta MOs
 -- Occupied --
-25.9946  -1.5316  -0.7007  -0.5953  -0.5953
 -- Virtual --
  0.3483   0.5627
 --------------------------------------------------------------

          Ground-State Mulliken Net Atomic Charges

     Atom                 Charge (a.u.)    Spin (a.u.)
  --------------------------------------------------------
      1 H                     0.140957       0.626647
      2 F                    -0.268477      -0.279040
      3 H                     0.127520       0.652394
  --------------------------------------------------------
  Sum of atomic charges =     0.000000
  Sum of spin   charges =     1.000000

 -----------------------------------------------------------------
                    Cartesian Multipole Moments
 -----------------------------------------------------------------
    Charge (ESU x 10^10)
                 0.0000
    Dipole Moment (Debye)
         X       0.0022      Y       0.0000      Z       0.0793
       Tot       0.0793
    Quadrupole Moments (Debye-Ang)
        XX      -6.0420     XY       0.0000     YY      -6.0420
        XZ       0.0001     YZ      -0.0000     ZZ      -3.9681
    Octopole Moments (Debye-Ang^2)
       XXX       0.0120    XXY       0.0000    XYY       0.0040
       YYY       0.0000    XXZ       0.0034    XYZ       0.0000
       YYZ       0.0034    XZZ       0.0048    YZZ      -0.0000
       ZZZ       0.1393
    Hexadecapole Moments (Debye-Ang^3)
      XXXX      -3.1314   XXXY       0.0000   XXYY      -1.0438
      XYYY       0.0000   YYYY      -3.1313   XXXZ       0.0001
      XXYZ      -0.0000   XYYZ       0.0000   YYYZ      -0.0000
      XXZZ      -2.9035   XYZZ       0.0000   YYZZ      -2.9035
      XZZZ       0.0002   YZZZ       0.0000   ZZZZ     -11.6928
 -----------------------------------------------------------------
 Mayer SCF Bond Order, atomic valence on the diagonal:

            1           2           3
    1   0.5874451   0.4546303   0.1328148
    2   0.4546303   0.8799369   0.4253066
    3   0.1328148   0.4253066   0.5581214


 Calculating analytic gradient of the SCF energy
 ------------------------------------------------------
 Correction for Bais Set Incompleteness Error in  HF-3c
 ------------------------------------------------------
 Gradient of SCF Energy
            1           2           3
    1   0.0000508  -0.0000904   0.0000397
    2   0.0000000   0.0000000  -0.0000000
    3  -0.0359103  -0.0077932   0.0437035
 Max gradient component =       4.370E-02
 RMS gradient           =       1.903E-02
 Gradient time:  CPU 0.05 s  wall 0.03 s
 Geometry Optimization Parameters
   NAtoms,    NIC,     NZ,  NCons,   NDum,   NFix, NCnnct, MaxDiis
        3       9       0       0       0       0       0       0

 Cartesian Hessian Update
 Hessian updated using Powell/Murtagh-Sargent update
  Mixing factors:     0.709247 Powell                      0.290753 Murtagh-Sargent


** GEOMETRY OPTIMIZATION IN CARTESIAN COORDINATES **
   Searching for a Transition State

   Optimization Cycle:   6

                       Coordinates (Angstroms)
     ATOM                X               Y               Z
      1  H         0.0005041253    0.0000000000    1.1490963614
      2  F        -0.0010190925    0.0000000000    0.0029939703
      3  H         0.0005149672    0.0000000000   -1.1520903318
   Point Group: c1    Number of degrees of freedom:     3


   Energy is    -99.752520440


 Translations and Rotations Projected Out of Hessian

  3 Hessian modes will be used to form the next step
  Hessian Eigenvalues:
    -0.957407    0.295062    1.019561

 Transition state search - taking P-RFO step
 Searching for Lamda that Maximizes Along the Lowest mode
 Value Taken    Lamda =   0.00011965
 Searching for Lamda that Minimizes Along All other modes
 Value Taken    Lamda =  -0.01025202
 Calculated Step too Large.  Step scaled by  0.054511
 Step Taken.  Stepsize is  0.010000

                             Maximum     Tolerance    Cnvgd?
         Gradient           0.043703      0.000300      NO
         Displacement       0.007141      0.001200      NO
         Energy change     -0.000566      0.000001      NO

 Adding empirical dispersion correction 
 ----------------------------------------------------------------
 Doing -D3(BJ) with
 s6  =   1.00000
 s8  =   0.87770
 a1  =   0.41710
 a2  =   2.91490
 -D3 energy without 3body term =     -0.0020657360 hartrees
 ----------------------------------------------------------------
 Adding gCP correction 
 ----------------------------------------------------------------
 gCP energy =      0.0280252215 hartrees
 ------------------------------------------------------
 Correction for Bais Set Incompleteness Error in  HF-3c
 ------------------------------------------------------
 SRB energy =     -0.0233767978 hartrees
 ----------------------------------------------------------------
             Standard Nuclear Orientation (Angstroms)
    I     Atom           X                Y                Z
 ----------------------------------------------------------------
    1      H       0.0001719476     0.0000000000     1.1528753757
    2      F      -0.0003571318     0.0000000000     0.0028255295
    3      H       0.0001851842     0.0000000000    -1.1557009052
 ----------------------------------------------------------------
 Nuclear Repulsion Energy =           8.48391889 hartrees
 There are        6 alpha and        5 beta electrons
 Applying Cartesian multipole field
    Component          Value
    ---------          -----
     (2,0,0)        1.00000E-10
     (0,2,0)        2.00000E-10
     (0,0,2)       -3.00000E-10
 Nucleus-field energy     =    -0.0000000029 hartrees
 Requested basis set is MINIX
 There are 5 shells and 7 basis functions
 A cutoff of  1.0D-11 yielded     15 shell pairs
 There are        31 function pairs
 Smallest overlap matrix eigenvalue = 5.27E-01
 Guess MOs from SCF MO coefficient file

 -----------------------------------------------------------------------
  General SCF calculation program by
  Eric Jon Sundstrom, Paul Horn, Yuezhi Mao, Dmitri Zuev, Alec White,
  David Stuck, Shaama M.S., Shane Yost, Joonho Lee, David Small,
  Daniel Levine, Susi Lehtola, Hugh Burton, Evgeny Epifanovsky,
  Bang C. Huynh
 -----------------------------------------------------------------------
 Hartree-Fock
 Dispersion:   Grimme D3
 using 8 threads for integral computing
 -------------------------------------------------------
 OpenMP Integral computing Module                
 Release: version 1.0, May 2013, Q-Chem Inc. Pittsburgh 
 -------------------------------------------------------
 A unrestricted SCF calculation will be
 performed using DIIS
 SCF converges when DIIS error is below 1.0e-08
 Alpha HF Exchange    Energy =  -5.57554410834148
 Beta HF Exchange     Energy =  -5.26531872324205
 One-Electron (alpha) Energy = -80.29642199012963
 One-Electron (beta)  Energy = -77.10214638526938
 Total Coulomb        Energy =  60.00245640269063
 ---------------------------------------
  Cycle       Energy         DIIS error
 ---------------------------------------
    1     -99.7530559163      3.00e-04  
 Alpha HF Exchange    Energy =  -5.57533559273912
 Beta HF Exchange     Energy =  -5.26557534123355
 One-Electron (alpha) Energy = -80.29214063972357
 One-Electron (beta)  Energy = -77.10358208611473
 Total Coulomb        Energy =  59.99965707439286
    2     -99.7530576975      8.84e-05  
 Alpha HF Exchange    Energy =  -5.57522659997579
 Beta HF Exchange     Energy =  -5.26580821052168
 One-Electron (alpha) Energy = -80.28990471760297
 One-Electron (beta)  Energy = -77.10509846121131
 Total Coulomb        Energy =  59.99906086254568
    3     -99.7530582388      4.93e-05  
 Alpha HF Exchange    Energy =  -5.57510345761615
 Beta HF Exchange     Energy =  -5.26609829975412
 One-Electron (alpha) Energy = -80.28737964757435
 One-Electron (beta)  Energy = -77.10703452143569
 Total Coulomb        Energy =  59.99863853542126
    4     -99.7530585030      8.01e-06  
 Alpha HF Exchange    Energy =  -5.57508801044360
 Beta HF Exchange     Energy =  -5.26613803922869
 One-Electron (alpha) Energy = -80.28706704778338
 One-Electron (beta)  Energy = -77.10731418110456
 Total Coulomb        Energy =  59.99862988088181
    5     -99.7530585097      1.66e-06  
 Alpha HF Exchange    Energy =  -5.57508757955154
 Beta HF Exchange     Energy =  -5.26613800042193
 One-Electron (alpha) Energy = -80.28706188214898
 One-Electron (beta)  Energy = -77.10731402502554
 Total Coulomb        Energy =  59.99862408905908
    6     -99.7530585101      5.47e-07  
 Alpha HF Exchange    Energy =  -5.57508787883437
 Beta HF Exchange     Energy =  -5.26613731011301
 One-Electron (alpha) Energy = -80.28706966268741
 One-Electron (beta)  Energy = -77.10730939682109
 Total Coulomb        Energy =  59.99862685031806
    7     -99.7530585102      1.58e-07  
 Alpha HF Exchange    Energy =  -5.57508792707828
 Beta HF Exchange     Energy =  -5.26613710799365
 One-Electron (alpha) Energy = -80.28707109038206
 One-Electron (beta)  Energy = -77.10730808730159
 Total Coulomb        Energy =  59.99862681461430
    8     -99.7530585102      5.96e-09  Convergence criterion met
 ---------------------------------------
 Alpha HF Exchange    Energy =  -5.57508792707828
 Beta HF Exchange     Energy =  -5.26613710799365
 One-Electron (alpha) Energy = -80.28707109038206
 One-Electron (beta)  Energy = -77.10730808730159
 Total Coulomb        Energy =  59.99862681461430
 SCF time:   CPU 0.20s  wall 0.00s 
<S^2> =          0.839570361
 Alpha HF Exchange    Energy =  -5.57508792707828
 Beta HF Exchange     Energy =  -5.26613710799365
 One-Electron (alpha) Energy = -80.28707109038206
 One-Electron (beta)  Energy = -77.10730808730159
 Total Coulomb        Energy =  59.99862681461430
 Nuclear repulsion Energy =   8.48391888796728
 SCF   energy in the final basis set =      -99.7530585102
 Total energy in the final basis set =      -99.7530585102

 --------------------------------------------------------------

                    Orbital Energies (a.u.)
 --------------------------------------------------------------

 Alpha MOs
 -- Occupied --
-25.9937  -1.5272  -0.7141  -0.5953  -0.5953  -0.2393
 -- Virtual --
  0.4256

 Beta MOs
 -- Occupied --
-25.9943  -1.5310  -0.6994  -0.5949  -0.5949
 -- Virtual --
  0.3469   0.5596
 --------------------------------------------------------------

          Ground-State Mulliken Net Atomic Charges

     Atom                 Charge (a.u.)    Spin (a.u.)
  --------------------------------------------------------
      1 H                     0.140214       0.629363
      2 F                    -0.267853      -0.282842
      3 H                     0.127639       0.653480
  --------------------------------------------------------
  Sum of atomic charges =    -0.000000
  Sum of spin   charges =     1.000000

 -----------------------------------------------------------------
                    Cartesian Multipole Moments
 -----------------------------------------------------------------
    Charge (ESU x 10^10)
                 0.0000
    Dipole Moment (Debye)
         X       0.0008      Y       0.0000      Z       0.0744
       Tot       0.0744
    Quadrupole Moments (Debye-Ang)
        XX      -6.0427     XY      -0.0000     YY      -6.0427
        XZ       0.0000     YZ       0.0000     ZZ      -3.9540
    Octopole Moments (Debye-Ang^2)
       XXX       0.0042    XXY       0.0000    XYY       0.0014
       YYY       0.0000    XXZ       0.0031    XYZ      -0.0000
       YYZ       0.0031    XZZ       0.0017    YZZ       0.0000
       ZZZ       0.1312
    Hexadecapole Moments (Debye-Ang^3)
      XXXX      -3.1318   XXXY      -0.0000   XXYY      -1.0439
      XYYY      -0.0000   YYYY      -3.1318   XXXZ       0.0001
      XXYZ      -0.0000   XYYZ       0.0000   YYYZ      -0.0000
      XXZZ      -2.9154   XYZZ      -0.0000   YYZZ      -2.9154
      XZZZ       0.0001   YZZZ      -0.0000   ZZZZ     -11.7248
 -----------------------------------------------------------------
 Mayer SCF Bond Order, atomic valence on the diagonal:

            1           2           3
    1   0.5842427   0.4525619   0.1316808
    2   0.4525619   0.8775538   0.4249919
    3   0.1316808   0.4249919   0.5566727


 Calculating analytic gradient of the SCF energy
 ------------------------------------------------------
 Correction for Bais Set Incompleteness Error in  HF-3c
 ------------------------------------------------------
 Gradient of SCF Energy
            1           2           3
    1   0.0000185  -0.0000330   0.0000145
    2  -0.0000000  -0.0000000   0.0000000
    3  -0.0341087  -0.0073122   0.0414209
 Max gradient component =       4.142E-02
 RMS gradient           =       1.805E-02
 Gradient time:  CPU 0.06 s  wall 0.04 s
 Geometry Optimization Parameters
   NAtoms,    NIC,     NZ,  NCons,   NDum,   NFix, NCnnct, MaxDiis
        3       9       0       0       0       0       0       0

 Cartesian Hessian Update
 Hessian updated using Powell/Murtagh-Sargent update
  Mixing factors:     0.723568 Powell                      0.276432 Murtagh-Sargent


** GEOMETRY OPTIMIZATION IN CARTESIAN COORDINATES **
   Searching for a Transition State

   Optimization Cycle:   7

                       Coordinates (Angstroms)
     ATOM                X               Y               Z
      1  H         0.0001719476    0.0000000000    1.1528753757
      2  F        -0.0003571318    0.0000000000    0.0028255295
      3  H         0.0001851842    0.0000000000   -1.1557009052
   Point Group: c1    Number of degrees of freedom:     3


   Energy is    -99.753058510


 Translations and Rotations Projected Out of Hessian

  3 Hessian modes will be used to form the next step
  Hessian Eigenvalues:
    -0.958098    0.288903    1.014501

 Transition state search - taking P-RFO step
 Searching for Lamda that Maximizes Along the Lowest mode
 Value Taken    Lamda =   0.00010330
 Searching for Lamda that Minimizes Along All other modes
 Value Taken    Lamda =  -0.00946282
 Calculated Step too Large.  Step scaled by  0.056086
 Step Taken.  Stepsize is  0.010000

                             Maximum     Tolerance    Cnvgd?
         Gradient           0.041421      0.000300      NO
         Displacement       0.007151      0.001200      NO
         Energy change     -0.000538      0.000001      NO

 Adding empirical dispersion correction 
 ----------------------------------------------------------------
 Doing -D3(BJ) with
 s6  =   1.00000
 s8  =   0.87770
 a1  =   0.41710
 a2  =   2.91490
 -D3 energy without 3body term =     -0.0020648022 hartrees
 ----------------------------------------------------------------
 Adding gCP correction 
 ----------------------------------------------------------------
 gCP energy =      0.0278219139 hartrees
 ------------------------------------------------------
 Correction for Bais Set Incompleteness Error in  HF-3c
 ------------------------------------------------------
 SRB energy =     -0.0230608267 hartrees
 ----------------------------------------------------------------
             Standard Nuclear Orientation (Angstroms)
    I     Atom           X                Y                Z
 ----------------------------------------------------------------
    1      H      -0.0001347625     0.0000000000     1.1566594849
    2      F       0.0002540784     0.0000000000     0.0026602144
    3      H      -0.0001193159     0.0000000000    -1.1593196993
 ----------------------------------------------------------------
 Nuclear Repulsion Energy =           8.45690957 hartrees
 There are        6 alpha and        5 beta electrons
[...]
       YYY      -0.0000    XXZ      -0.0021    XYZ       0.0000
       YYZ      -0.0021    XZZ      -0.0013    YZZ      -0.0000
       ZZZ      -0.0188
    Hexadecapole Moments (Debye-Ang^3)
      XXXX      -3.1469   XXXY      -0.0000   XXYY      -1.0490
      XYYY      -0.0000   YYYY      -3.1469   XXXZ       0.0001
      XXYZ       0.0000   XYYZ       0.0000   YYYZ       0.0000
      XXZZ      -3.2503   XYZZ      -0.0000   YYZZ      -3.2503
      XZZZ       0.0000   YZZZ      -0.0000   ZZZZ     -12.6924
 -----------------------------------------------------------------
 Mayer SCF Bond Order, atomic valence on the diagonal:

            1           2           3
    1   0.5011791   0.4005216   0.1006575
    2   0.4005216   0.8040405   0.4035190
    3   0.1006575   0.4035190   0.5041765


 Calculating analytic gradient of the SCF energy
 ------------------------------------------------------
 Correction for Bais Set Incompleteness Error in  HF-3c
 ------------------------------------------------------
 Gradient of SCF Energy
            1           2           3
    1  -0.0000191   0.0000384  -0.0000193
    2  -0.0000000   0.0000000   0.0000000
    3  -0.0005213   0.0007417  -0.0002204
 Max gradient component =       7.417E-04
 RMS gradient           =       3.114E-04
 Gradient time:  CPU 0.05 s  wall 0.05 s
 Adding empirical dispersion correction 
 ----------------------------------------------------------------
 Doing -D3(BJ) with
 s6  =   1.00000
 s8  =   0.87770
 a1  =   0.41710
 a2  =   2.91490
 -D3 energy without 3body term =     -0.0022029560 hartrees
 ----------------------------------------------------------------
 Adding gCP correction 
 ----------------------------------------------------------------
 gCP energy =      0.0231537982 hartrees
 ------------------------------------------------------
 Correction for Bais Set Incompleteness Error in  HF-3c
 ------------------------------------------------------
 SRB energy =     -0.0163697259 hartrees
 ----------------------------------------------------------------
             Standard Nuclear Orientation (Angstroms)
    I     Atom           X                Y                Z
 ----------------------------------------------------------------
    1      H      -0.0001467137     0.0000000000     1.2507801290
    2      F       0.0002602229     0.0000000000    -0.0000217977
    3      H      -0.0001135092     0.0000000000    -1.2517583313
 ----------------------------------------------------------------
 Nuclear Repulsion Energy =           7.82846029 hartrees
 There are        6 alpha and        5 beta electrons

                       Distance Matrix (Angstroms)
             H (  1)   F (  2)
   F (  2)  1.250802
   H (  3)  2.502538  1.251737

 Requested basis set is MINIX
 There are 5 shells and 7 basis functions
 A cutoff of  1.0D-11 yielded     15 shell pairs
 There are        31 function pairs
 Smallest overlap matrix eigenvalue = 5.87E-01
 Guess MOs from SCF MO coefficient file

 -----------------------------------------------------------------------
  General SCF calculation program by
  Eric Jon Sundstrom, Paul Horn, Yuezhi Mao, Dmitri Zuev, Alec White,
  David Stuck, Shaama M.S., Shane Yost, Joonho Lee, David Small,
  Daniel Levine, Susi Lehtola, Hugh Burton, Evgeny Epifanovsky,
  Bang C. Huynh
 -----------------------------------------------------------------------
 Hartree-Fock
 Dispersion:   Grimme D3
 using 8 threads for integral computing
 -------------------------------------------------------
 OpenMP Integral computing Module                
 Release: version 1.0, May 2013, Q-Chem Inc. Pittsburgh 
 -------------------------------------------------------
 A unrestricted SCF calculation will be
 performed using DIIS
 SCF converges when DIIS error is below 1.0e-08
 Alpha HF Exchange    Energy =  -5.53343715173846
 Beta HF Exchange     Energy =  -5.29011824697342
 One-Electron (alpha) Energy = -79.32085691646101
 One-Electron (beta)  Energy = -76.91580988257299
 Total Coulomb        Energy =  59.47269070055961
 ---------------------------------------
  Cycle       Energy         DIIS error
 ---------------------------------------
    1     -99.7590712121      1.48e-04  
 Alpha HF Exchange    Energy =  -5.53338734566767
 Beta HF Exchange     Energy =  -5.29019694046838
 One-Electron (alpha) Energy = -79.31956446431992
 One-Electron (beta)  Energy = -76.91626805475218
 Total Coulomb        Energy =  59.47188422583928
    2     -99.7590722943      6.44e-05  
 Alpha HF Exchange    Energy =  -5.53335641560436
 Beta HF Exchange     Energy =  -5.29027674072397
 One-Electron (alpha) Energy = -79.31875539579620
 One-Electron (beta)  Energy = -76.91677548716613
 Total Coulomb        Energy =  59.47163096561977
    3     -99.7590727886      3.75e-05  
 Alpha HF Exchange    Energy =  -5.53331873450392
 Beta HF Exchange     Energy =  -5.29038505302263
 One-Electron (alpha) Energy = -79.31776126809788
 One-Electron (beta)  Energy = -76.91747375939225
 Total Coulomb        Energy =  59.47140549442255
    4     -99.7590730355      2.88e-06  
 Alpha HF Exchange    Energy =  -5.53331918953662
 Beta HF Exchange     Energy =  -5.29038514018923
 One-Electron (alpha) Energy = -79.31777306091672
 One-Electron (beta)  Energy = -76.91747675631690
 Total Coulomb        Energy =  59.47142082578273
    5     -99.7590730361      5.67e-07  
 Alpha HF Exchange    Energy =  -5.53331970428241
 Beta HF Exchange     Energy =  -5.29038354815731
 One-Electron (alpha) Energy = -79.31778648456589
 One-Electron (beta)  Energy = -76.91746645376064
 Total Coulomb        Energy =  59.47142286956569
    6     -99.7590730361      1.92e-07  
 Alpha HF Exchange    Energy =  -5.53332001466940
 Beta HF Exchange     Energy =  -5.29038268386745
 One-Electron (alpha) Energy = -79.31779457233569
 One-Electron (beta)  Energy = -76.91746081900912
 Total Coulomb        Energy =  59.47142476867685
    7     -99.7590730361      6.94e-08  
 Alpha HF Exchange    Energy =  -5.53332016055972
 Beta HF Exchange     Energy =  -5.29038226194123
 One-Electron (alpha) Energy = -79.31779837219831
 One-Electron (beta)  Energy = -76.91745808865134
 Total Coulomb        Energy =  59.47142556214514
    8     -99.7590730361      7.51e-09  Convergence criterion met
 ---------------------------------------
 Alpha HF Exchange    Energy =  -5.53332016055972
 Beta HF Exchange     Energy =  -5.29038226194123
 One-Electron (alpha) Energy = -79.31779837219831
 One-Electron (beta)  Energy = -76.91745808865134
 Total Coulomb        Energy =  59.47142556214514
 SCF time:   CPU 0.19s  wall 0.00s 
<S^2> =          0.906965963
 Alpha HF Exchange    Energy =  -5.53332016055972
 Beta HF Exchange     Energy =  -5.29038226194123
 One-Electron (alpha) Energy = -79.31779837219831
 One-Electron (beta)  Energy = -76.91745808865134
 Total Coulomb        Energy =  59.47142556214514
 Nuclear repulsion Energy =   7.82846028509182
 SCF   energy in the final basis set =      -99.7590730361
 Total energy in the final basis set =      -99.7590730361

 --------------------------------------------------------------

                    Orbital Energies (a.u.)
 --------------------------------------------------------------

 Alpha MOs
 -- Occupied --
-25.9821  -1.4899  -0.6578  -0.5799  -0.5799  -0.2898
 -- Virtual --
  0.3600

 Beta MOs
 -- Occupied --
-25.9903  -1.5213  -0.6732  -0.5879  -0.5879
 -- Virtual --
  0.3178   0.4861
 --------------------------------------------------------------

          Ground-State Mulliken Net Atomic Charges

     Atom                 Charge (a.u.)    Spin (a.u.)
  --------------------------------------------------------
      1 H                     0.124639       0.693724
      2 F                    -0.248191      -0.389531
      3 H                     0.123552       0.695807
  --------------------------------------------------------
  Sum of atomic charges =     0.000000
  Sum of spin   charges =     1.000000

 -----------------------------------------------------------------
                    Cartesian Multipole Moments
 -----------------------------------------------------------------
    Charge (ESU x 10^10)
                 0.0000
    Dipole Moment (Debye)
         X      -0.0005      Y      -0.0000      Z       0.0069
       Tot       0.0069
    Quadrupole Moments (Debye-Ang)
        XX      -6.0614     XY      -0.0000     YY      -6.0614
        XZ      -0.0000     YZ       0.0000     ZZ      -3.6271
    Octopole Moments (Debye-Ang^2)
       XXX      -0.0031    XXY      -0.0000    XYY      -0.0010
       YYY      -0.0000    XXZ       0.0021    XYZ       0.0000
       YYZ       0.0021    XZZ      -0.0013    YZZ      -0.0000
       ZZZ       0.0169
    Hexadecapole Moments (Debye-Ang^3)
      XXXX      -3.1471   XXXY      -0.0000   XXYY      -1.0490
      XYYY      -0.0000   YYYY      -3.1471   XXXZ       0.0001
      XXYZ       0.0000   XYYZ       0.0000   YYYZ       0.0000
      XXZZ      -3.2540   XYZZ      -0.0000   YYZZ      -3.2540
      XZZZ       0.0000   YZZZ      -0.0000   ZZZZ     -12.7043
 -----------------------------------------------------------------
 Mayer SCF Bond Order, atomic valence on the diagonal:

            1           2           3
    1   0.5032122   0.4028854   0.1003267
    2   0.4028854   0.8031468   0.4002613
    3   0.1003267   0.4002613   0.5005881


 Calculating analytic gradient of the SCF energy
 ------------------------------------------------------
 Correction for Bais Set Incompleteness Error in  HF-3c
 ------------------------------------------------------
 Gradient of SCF Energy
            1           2           3
    1  -0.0000193   0.0000385  -0.0000191
    2  -0.0000000   0.0000000   0.0000000
    3   0.0004331  -0.0006485   0.0002154
 Max gradient component =       6.485E-04
 RMS gradient           =       2.701E-04
 Gradient time:  CPU 0.04 s  wall 0.03 s
Dipole drv :
gprntSymmMtrx error report: 
 Final Hessian.
            1           2           3           4           5           6
    1   0.0130120   0.0000000   0.0000571  -0.0260428   0.0000001  -0.0001315
    2   0.0000000   0.0130120   0.0000006   0.0000000  -0.0260426  -0.0000014
    3   0.0000571   0.0000006  -0.1152359   0.0000123   0.0000008   0.3677521
    4  -0.0260428   0.0000000   0.0000123   0.0521074   0.0000000   0.0000096
    5   0.0000001  -0.0260426   0.0000008   0.0000000   0.0521072  -0.0000000
    6  -0.0001315  -0.0000014   0.3677521   0.0000096  -0.0000000  -0.7355807
    7   0.0130311   0.0000000  -0.0000675  -0.0260643   0.0000000   0.0001212
    8  -0.0000000   0.0130310  -0.0000007   0.0000000  -0.0260643   0.0000011
    9   0.0000744   0.0000006  -0.2525183  -0.0000218  -0.0000005   0.3678320
            7           8           9
    1   0.0130311  -0.0000000   0.0000744
    2   0.0000000   0.0130310   0.0000006
    3  -0.0000675  -0.0000007  -0.2525183
    4  -0.0260643   0.0000000  -0.0000218
    5   0.0000000  -0.0260643  -0.0000005
    6   0.0001212   0.0000011   0.3678320
    7   0.0130326   0.0000000  -0.0000537
    8   0.0000000   0.0130326  -0.0000005
    9  -0.0000537  -0.0000005  -0.1153149
 Adding empirical dispersion correction 
 ----------------------------------------------------------------
 Doing -D3(BJ) with
 s6  =   1.00000
 s8  =   0.87770
 a1  =   0.41710
 a2  =   2.91490
 -D3 energy without 3body term =     -0.0022009842 hartrees
 ----------------------------------------------------------------
 Adding gCP correction 
 ----------------------------------------------------------------
 gCP energy =      0.0231766244 hartrees
 ------------------------------------------------------
 Correction for Bais Set Incompleteness Error in  HF-3c
 ------------------------------------------------------
 SRB energy =     -0.0163997898 hartrees
 ----------------------------------------------------------------
             Standard Nuclear Orientation (Angstroms)
    I     Atom           X                Y                Z
 ----------------------------------------------------------------
    1      H      -0.0001467137     0.0000000000     1.2507801290
    2      F       0.0002602229     0.0000000000    -0.0000217977
    3      H      -0.0001135092     0.0000000000    -1.2507583313
 ----------------------------------------------------------------
 Nuclear Repulsion Energy =           7.83158159 hartrees
 There are        6 alpha and        5 beta electrons
 old dipole drv.
            1           2           3           4           5           6
    1   0.1406838  -0.0000000   0.0000723  -0.2814554  -0.0000000  -0.0000442
    2  -0.0000000   0.1406838  -0.0000000   0.0000000  -0.2814554  -0.0000001
    3   0.0005544   0.0000003  -1.5293975  -0.0000444   0.0000012   3.0589897
            7           8           9
    1   0.1407711  -0.0000000  -0.0000281
    2   0.0000000   0.1407712  -0.0000000
    3  -0.0005092  -0.0000001  -1.5296099
 New transposed dipole drv.
            1           2           3
    1   0.1406838  -0.0000000   0.0005544
    2  -0.0000000   0.1406838   0.0000003
    3   0.0000723  -0.0000000  -1.5293975
    4  -0.2814554   0.0000000  -0.0000444
    5  -0.0000000  -0.2814554   0.0000012
    6  -0.0000442  -0.0000001   3.0589897
    7   0.1407711   0.0000000  -0.0005092
    8  -0.0000000   0.1407712  -0.0000001
    9  -0.0000281  -0.0000000  -1.5296099
FINAL TENSOR RESULT:
Order 2, Length 9
    Atom      X          Y          Z
     1 Order 1, Length 9
    Atom      X          Y          Z
     1    1.301201920912363e-02   0.000000000000000e+00   5.706009897610241e-05
     2   -2.604279470520526e-02   7.956817631302329e-08  -1.315344036947429e-04
     3    1.303106573423766e-02  -3.123186409005838e-08   7.444657213190096e-05

Order 1, Length 9
    Atom      X          Y          Z
     1    0.000000000000000e+00   1.301204016241577e-02   6.415234144992517e-07
     2    0.000000000000000e+00  -2.604261052824566e-02  -1.360413121332354e-06
     3    0.000000000000000e+00   1.303096125983176e-02   5.721847127581572e-07

Order 1, Length 9
    Atom      X          Y          Z
     1    5.706009897610241e-05   6.415234144992517e-07  -1.152359293923876e-01
     2    1.225732981830755e-05   8.268512874287610e-07   3.677520830721044e-01
     3   -6.748411257310197e-05  -7.362442637254073e-07  -2.525183109005740e-01


     2 Order 1, Length 9
    Atom      X          Y          Z
     1   -2.604279470520526e-02   0.000000000000000e+00   1.225732981830755e-05
     2    5.210735802397275e-02   0.000000000000000e+00   9.589596463121681e-06
     3   -2.606427059007085e-02   3.180225897493720e-08  -2.184755706660450e-05

Order 1, Length 9
    Atom      X          Y          Z
     1    7.956817631302329e-08  -2.604261052824566e-02   8.268512874287610e-07
     2    0.000000000000000e+00   5.210720506811995e-02  -2.587334132892352e-08
     3    0.000000000000000e+00  -2.606429084412067e-02  -5.044554868860641e-07

Order 1, Length 9
    Atom      X          Y          Z
     1   -1.315344036947429e-04  -1.360413121332354e-06   3.677520830721044e-01
     2    9.589596463121681e-06  -2.587334132892352e-08  -7.355806901742249e-01
     3    1.212067374677375e-04   1.103542838242081e-06   3.678320005918757e-01


     3 Order 1, Length 9
    Atom      X          Y          Z
     1    1.303106573423766e-02   0.000000000000000e+00  -6.748411257310197e-05
     2   -2.606427059007085e-02   0.000000000000000e+00   1.212067374677375e-04
     3    1.303262188800924e-02   0.000000000000000e+00  -5.369426280924277e-05

Order 1, Length 9
    Atom      X          Y          Z
     1   -3.123186409005838e-08   1.303096125983176e-02  -7.362442637254073e-07
     2    3.180225897493720e-08  -2.606429084412067e-02   1.103542838242081e-06
     3    0.000000000000000e+00   1.303263499356225e-02  -5.171162301929227e-07

Order 1, Length 9
    Atom      X          Y          Z
     1    7.444657213190096e-05   5.721847127581572e-07  -2.525183109005740e-01
     2   -2.184755706660450e-05  -5.044554868860641e-07   3.678320005918757e-01
     3   -5.369426280924277e-05  -5.171162301929227e-07  -1.153149259577861e-01




 # Finishing finite difference calculation for IDERIV #
 ######################################################
 ######################################################
 Requested basis set is MINIX
 There are 5 shells and 7 basis functions
 **********************************************************************
 **                                                                  **
 **                       VIBRATIONAL ANALYSIS                       **
 **                       --------------------                       **
 **                                                                  **
 **        VIBRATIONAL FREQUENCIES (CM**-1) AND NORMAL MODES         **
 **     FORCE CONSTANTS (mDYN/ANGSTROM) AND REDUCED MASSES (AMU)     **
 **                  INFRARED INTENSITIES (KM/MOL)                   **
 **                                                                  **
 **********************************************************************


 Mode:                 1                      2                      3
 Frequency:     -3265.96                 869.24                1896.95
 Force Cnst:      6.9665                 0.4935                 2.1367
 Red. Mass:       1.1085                 1.1085                 1.0078
 IR Active:          YES                    YES                    YES
 IR Intens:     5005.962                 42.378                  0.000
 Raman Active:       YES                    YES                    YES
               X      Y      Z        X      Y      Z        X      Y      Z
 H         -0.000 -0.000  0.705    0.705 -0.000  0.000   -0.000 -0.000  0.707
 F          0.000 -0.000 -0.075   -0.075 -0.000 -0.000    0.000  0.000 -0.000
 H          0.000  0.000  0.705    0.705  0.000 -0.000   -0.000 -0.000 -0.707
 TransDip   0.000 -0.000 -2.266    0.208 -0.000  0.000    0.000 -0.000 -0.000

 STANDARD THERMODYNAMIC QUANTITIES AT   298.15 K  AND     1.00 ATM

   This Molecule has  1 Imaginary Frequencies
   Zero point vibrational energy:        3.954 kcal/mol


 Q-Chem warning in module /home/pierpa/qchem53/vibman/thermodyn.F, line  389:

  SYM_IGNORE is turned on for a linear molecule

    We detect a C*h symmetry
   Atom    1 Element H  Has Mass    1.00783
   Atom    2 Element F  Has Mass   18.99840
   Atom    3 Element H  Has Mass    1.00783
   Molecular Mass:    21.014060 amu
   Principal axes and moments of inertia in amu*Bohr^2:
                             1           2           3
    Eigenvalues --        0.00000    11.26080    11.26080
          X              -0.00001     1.00000    -0.00000
          Y              -0.00000     0.00000     1.00000
          Z               1.00000     0.00001    -0.00000
   Rotational Symmetry Number is   1
   The Molecule is a Symmetric Top
   Translational Enthalpy:        0.889 kcal/mol
   Rotational Enthalpy:           0.889 kcal/mol
   Vibrational Enthalpy:          3.993 kcal/mol
   gas constant (RT):             0.592 kcal/mol
   Translational Entropy:        35.068  cal/mol.K
   Rotational Entropy:            9.255  cal/mol.K
   Vibrational Entropy:           0.160  cal/mol.K

   Total Enthalpy:                6.363 kcal/mol
   Total Entropy:                44.483  cal/mol.K
Archival summary:
1\1\C-node1\FREQ\HF\BasisUnspecified\12(2)\pierpa\FriOct3010:22:092020FriOct3010:22:092020\0\\#,FREQ,HF,BasisUnspecified,\\0,2\F\H,1,1.25074\H,1,1.2508,2,179.964\\HF=-99.759073\\@

 Total job time:  2.36s(wall), 4.07s(cpu) 
 Fri Oct 30 10:22:09 2020

        *************************************************************
        *                                                           *
        *  Thank you very much for using Q-Chem.  Have a nice day.  *
        *                                                           *
        *************************************************************


