                  Welcome to Q-Chem
     A Quantum Leap Into The Future Of Chemistry


 Q-Chem 5.3 (devel), Q-Chem, Inc., Pleasanton, CA (2020)

 Yihan Shao,  Zhengting Gan,  E. Epifanovsky,  A. T. B. Gilbert,  M. Wormit,  
 J. Kussmann,  A. W. Lange,  A. Behn,  Jia Deng,  Xintian Feng,  D. Ghosh,  
 M. Goldey,  P. R. Horn,  L. D. Jacobson,  I. Kaliman,  T. Kus,  A. Landau,  
 Jie Liu,  E. I. Proynov,  R. M. Richard,  R. P. Steele,  E. J. Sundstrom,  
 H. L. Woodcock III,  P. M. Zimmerman,  D. Zuev,  B. Alam,  B. Albrecht,  
 A. Aldossary,  E. Alguire,  S. A. Baeppler,  D. Barton,  Z. Benda,  
 Y. A. Bernard,  E. J. Berquist,  K. B. Bravaya,  H. Burton,  K. Carter-Fenk,  
 D. Casanova,  Chun-Min Chang,  Yunqing Chen,  A. Chien,  K. D. Closser,  
 M. P. Coons,  S. Coriani,  S. Dasgupta,  A. L. Dempwolff,  M. Diedenhofen,  
 Hainam Do,  R. G. Edgar,  Po-Tung Fang,  S. Faraji,  S. Fatehi,  
 Qingguo Feng,  J. Fosso-Tande,  J. Gayvert,  Qinghui Ge,  A. Ghysels,  
 G. Gidofalvi,  J. Gomes,  J. Gonthier,  S. Gulania,  A. Gunina,  D. Hait,  
 M. W. D. Hanson-Heine,  S. Hammes-Schiffer,  P. H. P. Harbach,  
 A. W. Hauser,  M. F. Herbst,  J. E. Herr,  E. G. Hohenstein,  Z. C. Holden,  
 S. Houck,  Kerwin Hui,  B. C. Huynh,  M. Ivanov,  T.-C. Jagau,  Hyunjun Ji,  
 B. Kaduk,  K. Khistyaev,  Jaehoon Kim,  P. Klunzinger,  K. Koh,  
 D. Kosenkov,  L. Koulias,  T. Kowalczyk,  C. M. Krauter,  A. Kunitsa,  
 Ka Un Lao,  A. Laurent,  K. V. Lawler,  Joonho Lee,  D. Lefrancois,  
 S. Lehtola,  D. S. Levine,  Yi-Pei Li,  You-Sheng Lin,  Fenglai Liu,  
 Kuan-Yu Liu,  E. Livshits,  M. Loipersberger,  A. Luenser,  P. Manohar,  
 E. Mansoor,  S. F. Manzer,  Shan-Ping Mao,  Yuezhi Mao,  N. Mardirossian,  
 A. V. Marenich,  T. Markovich,  L. A. Martinez-Martinez,  S. A. Maurer,  
 N. J. Mayhall,  S. C. McKenzie,  J.-M. Mewes,  P. Morgante,  A. F. Morrison,  
 J. W. Mullinax,  K. Nanda,  T. S. Nguyen-Beck,  R. Olivares-Amaya,  
 K. J. Oosterbaan,  J. A. Parkhill,  S. K. Paul,  F. Pavosevic,  Zheng Pei,  
 T. M. Perrine,  F. Plasser,  P. Pokhilko,  S. Prager,  A. Prociuk,  
 E. Ramos,  B. Rana,  D. R. Rehn,  F. Rob,  E. Rossomme,  M. Scheurer,  
 M. Schneider,  N. Sergueev,  S. M. Sharada,  S. Sharma,  W. Skomorowski,  
 D. W. Small,  T. Stauch,  C. J. Stein,  T. Stein,  Yu-Chuan Su,  
 S. P. Veccham,  Zhen Tao,  A. J. W. Thom,  A. Tkatchenko,  T. Tsuchimochi,  
 N. M. Tubman,  L. Vogt,  M. L. Vidal,  O. Vydrov,  M. A. Watson,  J. Wenzel,  
 M. de Wergifosse,  T. A. Wesolowski,  A. White,  J. Witte,  A. Yamada,  
 Jun Yang,  K. Yao,  S. Yeganeh,  S. R. Yost,  Zhi-Qiang You,  A. Zech,  
 Igor Ying Zhang,  Xing Zhang,  Yan Zhao,  Ying Zhu,  B. R. Brooks,  
 G. K. L. Chan,  C. J. Cramer,  M. S. Gordon,  W. J. Hehre,  A. Klamt,  
 M. W. Schmidt,  C. D. Sherrill,  D. G. Truhlar,  A. Aspuru-Guzik,  R. Baer,  
 A. T. Bell,  N. A. Besley,  Jeng-Da Chai,  A. E. DePrince, III,  
 R. A. DiStasio Jr.,  A. Dreuw,  B. D. Dunietz,  T. R. Furlani,  
 Chao-Ping Hsu,  Yousung Jung,  Jing Kong,  D. S. Lambrecht,  WanZhen Liang,  
 C. Ochsenfeld,  V. A. Rassolov,  L. V. Slipchenko,  J. E. Subotnik,  
 T. Van Voorhis,  J. M. Herbert,  A. I. Krylov,  P. M. W. Gill,  M. Head-Gordon

 Contributors to earlier versions of Q-Chem not listed above: 
 R. D. Adamson,  B. Austin,  J. Baker,  G. J. O. Beran,  K. Brandhorst,  
 S. T. Brown,  E. F. C. Byrd,  A. K. Chakraborty,  C.-L. Cheng,  
 Siu Hung Chien,  D. M. Chipman,  D. L. Crittenden,  H. Dachsel,  
 R. J. Doerksen,  A. D. Dutoi,  L. Fusti-Molnar,  W. A. Goddard III,  
 A. Golubeva-Zadorozhnaya,  S. R. Gwaltney,  G. Hawkins,  A. Heyden,  
 S. Hirata,  G. Kedziora,  F. J. Keil,  C. Kelley,  Jihan Kim,  R. A. King,  
 R. Z. Khaliullin,  P. P. Korambath,  W. Kurlancheek,  A. M. Lee,  M. S. Lee,  
 S. V. Levchenko,  Ching Yeh Lin,  D. Liotard,  R. C. Lochan,  I. Lotan,  
 P. E. Maslen,  N. Nair,  D. P. O'Neill,  D. Neuhauser,  E. Neuscamman,  
 C. M. Oana,  R. Olson,  B. Peters,  R. Peverati,  P. A. Pieniazek,  
 Y. M. Rhee,  J. Ritchie,  M. A. Rohrdanz,  E. Rosta,  N. J. Russ,  
 H. F. Schaefer III,  N. E. Schultz,  N. Shenvi,  A. C. Simmonett,  A. Sodt,  
 D. Stuck,  K. S. Thanthiriwatte,  V. Vanovschi,  Tao Wang,  A. Warshel,  
 C. F. Williams,  Q. Wu,  X. Xu,  W. Zhang

 Please cite Q-Chem as follows:
 Y. Shao et al., Mol. Phys. 113, 184-215 (2015)
 DOI: 10.1080/00268976.2014.952696

 Q-Chem 5.3.1 for Intel X86 EM64T Linux

 Parts of Q-Chem use Armadillo 9.800.1 (Horizon Scraper).
 http://arma.sourceforge.net/

 Q-Chem begins on Fri Oct 30 10:24:51 2020  

Host: 
0

     Scratch files written to /data/scratch/MN_79_RKT02_BH76_HF_3c//
Processing $rem in /home/pierpa/qchem53/config/preferences:
Processing $rem in /home/pierpa/.qchemrc:

Checking the input file for inconsistencies... 	...done.

--------------------------------------------------------------
User input:
--------------------------------------------------------------
$Comment
Geometry optimizations for CLB18.
$End

$Rem
SYMMETRY              False
SYM_IGNORE            True
JOBTYPE               TS
METHOD                HF-3c
BASIS                 MINIX
GEOM_OPT_MAX_CYCLES   150
GEOM_OPT_DMAX         10
GEOM_OPT_DMAX         10
MAX_SCF_CYCLES        50
GEOM_OPT_MAX_CYCLES   150
SCF_ALGORITHM         DIIS
SCF_PRINT             1
SCF_FINAL_PRINT       1
XC_GRID               000099000590
MEM_TOTAL             20000
MEM_STATIC            4000
BLAS3_DFT             True
New_DFT               True
$End

$Molecule
0 2
O -0.3010642614 -0.1080489904 -0.0000080000
H -0.4279440228 0.8515678429 0.0000160000
H 1.0154857758 -0.1003669249 0.0001189998
H 1.8209675754 0.1131873011 -0.0000730000
$End

--------------------------------------------------------------
 Adding empirical dispersion correction 
 ----------------------------------------------------------------
 Doing -D3(BJ) with
 s6  =   1.00000
 s8  =   0.87770
 a1  =   0.41710
 a2  =   2.91490
 -D3 energy without 3body term =     -0.0047912359 hartrees
 ----------------------------------------------------------------
 Adding gCP correction 
 ----------------------------------------------------------------
 gCP energy =      0.0253639167 hartrees
 ------------------------------------------------------
 Correction for Bais Set Incompleteness Error in  HF-3c
 ------------------------------------------------------
 SRB energy =     -0.0227198463 hartrees
 ----------------------------------------------------------------
             Standard Nuclear Orientation (Angstroms)
    I     Atom           X                Y                Z
 ----------------------------------------------------------------
    1      O      -0.3010642614    -0.1080489904    -0.0000080000
    2      H      -0.4279440228     0.8515678429     0.0000160000
    3      H       1.0154857758    -0.1003669249     0.0001189998
    4      H       1.8209675754     0.1131873011    -0.0000730000
 ----------------------------------------------------------------
 Nuclear Repulsion Energy =          10.73571340 hartrees
 There are        6 alpha and        5 beta electrons
 Requested basis set is MINIX
 There are 6 shells and 8 basis functions

 Total QAlloc Memory Limit  20000 MB
 Mega-Array Size      3911 MB
 MEM_STATIC part      4000 MB
 A cutoff of  1.0D-11 yielded     21 shell pairs
 There are        39 function pairs
 Smallest overlap matrix eigenvalue = 3.15E-01

 Scale SEOQF with 1.000000e-01/1.000000e+00/1.000000e+00

 Standard Electronic Orientation quadrupole field applied
 Nucleus-field energy     =     0.0000000008 hartrees
 Guess from superposition of atomic densities
 Warning:  Energy on first SCF cycle will be non-variational
 SAD guess density has 11.000000 electrons

 -----------------------------------------------------------------------
  General SCF calculation program by
  Eric Jon Sundstrom, Paul Horn, Yuezhi Mao, Dmitri Zuev, Alec White,
  David Stuck, Shaama M.S., Shane Yost, Joonho Lee, David Small,
  Daniel Levine, Susi Lehtola, Hugh Burton, Evgeny Epifanovsky,
  Bang C. Huynh
 -----------------------------------------------------------------------
 Hartree-Fock
 Dispersion:   Grimme D3
 using 8 threads for integral computing
 -------------------------------------------------------
 OpenMP Integral computing Module                
 Release: version 1.0, May 2013, Q-Chem Inc. Pittsburgh 
 -------------------------------------------------------
 A unrestricted SCF calculation will be
 performed using DIIS
 SCF converges when DIIS error is below 1.0e-08
 Alpha HF Exchange    Energy =  -4.42346424324721
 Beta HF Exchange     Energy =  -4.42346424324721
 One-Electron (alpha) Energy = -62.84685620760149
 One-Electron (beta)  Energy = -62.84685620760149
 Total Coulomb        Energy =  48.43370012949970
 ---------------------------------------
  Cycle       Energy         DIIS error
 ---------------------------------------
    1     -75.3712273747      1.58e-01  
 Alpha HF Exchange    Energy =  -4.99730948816355
 Beta HF Exchange     Energy =  -4.38457674527525
 One-Electron (alpha) Energy = -66.68626511427064
 One-Electron (beta)  Energy = -61.14216187643173
 Total Coulomb        Energy =  50.58129187115561
    2     -75.8933079555      3.28e-02  
 Alpha HF Exchange    Energy =  -4.95356414711591
 Beta HF Exchange     Energy =  -4.31108541595263
 One-Electron (alpha) Energy = -66.23293964009429
 One-Electron (beta)  Energy = -60.07228788805475
 Total Coulomb        Energy =  48.87168666199696
    3     -75.9624770317      1.13e-02  
 Alpha HF Exchange    Energy =  -4.97456262293950
 Beta HF Exchange     Energy =  -4.31535982429001
 One-Electron (alpha) Energy = -66.39445707214038
 One-Electron (beta)  Energy = -59.99219157163046
 Total Coulomb        Energy =  48.96938585865060
    4     -75.9714718348      5.67e-03  
 Alpha HF Exchange    Energy =  -4.99209374677077
 Beta HF Exchange     Energy =  -4.31475208099483
 One-Electron (alpha) Energy = -66.51482497223971
 One-Electron (beta)  Energy = -59.79968002538531
 Total Coulomb        Energy =  48.90995797964285
    5     -75.9756794482      1.19e-03  
 Alpha HF Exchange    Energy =  -4.99273009504782
 Beta HF Exchange     Energy =  -4.31269892650489
 One-Electron (alpha) Energy = -66.52872096316625
 One-Electron (beta)  Energy = -59.76292756261653
 Total Coulomb        Energy =  48.88546982314191
    6     -75.9758943267      7.69e-04  
 Alpha HF Exchange    Energy =  -4.99553246808270
 Beta HF Exchange     Energy =  -4.31096338129072
 One-Electron (alpha) Energy = -66.56458198366182
 One-Electron (beta)  Energy = -59.71827348507703
 Total Coulomb        Energy =  48.87760552677996
    7     -75.9760323938      1.98e-04  
 Alpha HF Exchange    Energy =  -4.99511718268558
 Beta HF Exchange     Energy =  -4.31073154380551
 One-Electron (alpha) Energy = -66.56299173070512
 One-Electron (beta)  Energy = -59.71918767529549
 Total Coulomb        Energy =  48.87627733196497
    8     -75.9760374030      7.36e-05  
 Alpha HF Exchange    Energy =  -4.99528958063100
 Beta HF Exchange     Energy =  -4.31068875757669
 One-Electron (alpha) Energy = -66.56449762201876
 One-Electron (beta)  Energy = -59.71660740427215
 Total Coulomb        Energy =  48.87533138072236
    9     -75.9760385863      3.48e-05  
 Alpha HF Exchange    Energy =  -4.99518359958784
 Beta HF Exchange     Energy =  -4.31072231998646
 One-Electron (alpha) Energy = -66.56349357100480
 One-Electron (beta)  Energy = -59.71785299494109
 Total Coulomb        Energy =  48.87550028473622
   10     -75.9760388033      5.58e-06  
 Alpha HF Exchange    Energy =  -4.99518117238461
 Beta HF Exchange     Energy =  -4.31072892227669
 One-Electron (alpha) Energy = -66.56341523964798
 One-Electron (beta)  Energy = -59.71783924328123
 Total Coulomb        Energy =  48.87541237325328
   11     -75.9760388068      2.26e-06  
 Alpha HF Exchange    Energy =  -4.99517357485506
 Beta HF Exchange     Energy =  -4.31072985640154
 One-Electron (alpha) Energy = -66.56334903669732
 One-Electron (beta)  Energy = -59.71792112323475
 Total Coulomb        Energy =  48.87542138627346
   12     -75.9760388074      2.68e-07  
 Alpha HF Exchange    Energy =  -4.99517391583988
 Beta HF Exchange     Energy =  -4.31073017173485
 One-Electron (alpha) Energy = -66.56335131857355
 One-Electron (beta)  Energy = -59.71792436548652
 Total Coulomb        Energy =  48.87542756671395
   13     -75.9760388074      7.10e-08  
 Alpha HF Exchange    Energy =  -4.99517382933183
 Beta HF Exchange     Energy =  -4.31073014985267
 One-Electron (alpha) Energy = -66.56335103798764
 One-Electron (beta)  Energy = -59.71792343515859
 Total Coulomb        Energy =  48.87542624740860
   14     -75.9760388074      5.10e-08  
 Alpha HF Exchange    Energy =  -4.99517382621385
 Beta HF Exchange     Energy =  -4.31073022540738
 One-Electron (alpha) Energy = -66.56335110800040
 One-Electron (beta)  Energy = -59.71792335531530
 Total Coulomb        Energy =  48.87542631000557
   15     -75.9760388074      3.75e-08  
 Alpha HF Exchange    Energy =  -4.99517378987495
 Beta HF Exchange     Energy =  -4.31073023744455
 One-Electron (alpha) Energy = -66.56335091895842
 One-Electron (beta)  Energy = -59.71792345704888
 Total Coulomb        Energy =  48.87542619840071
   16     -75.9760388074      2.95e-08  
 Alpha HF Exchange    Energy =  -4.99517376895936
 Beta HF Exchange     Energy =  -4.31073023001446
 One-Electron (alpha) Energy = -66.56335069317896
 One-Electron (beta)  Energy = -59.71792374401583
 Total Coulomb        Energy =  48.87542623123568
   17     -75.9760388074      1.38e-08  
 Alpha HF Exchange    Energy =  -4.99517380490656
 Beta HF Exchange     Energy =  -4.31073022070987
 One-Electron (alpha) Energy = -66.56335094600938
 One-Electron (beta)  Energy = -59.71792351458834
 Total Coulomb        Energy =  48.87542628127748
   18     -75.9760388074      1.17e-09  Convergence criterion met
 ---------------------------------------
 Alpha HF Exchange    Energy =  -4.99517380490656
 Beta HF Exchange     Energy =  -4.31073022070987
 One-Electron (alpha) Energy = -66.56335094600938
 One-Electron (beta)  Energy = -59.71792351458834
 Total Coulomb        Energy =  48.87542628127748
 SCF time:   CPU 0.45s  wall 0.00s 
<S^2> =          0.775440024
 Alpha HF Exchange    Energy =  -4.99517380490656
 Beta HF Exchange     Energy =  -4.31073022070987
 One-Electron (alpha) Energy = -66.56335094600938
 One-Electron (beta)  Energy = -59.71792351458834
 Total Coulomb        Energy =  48.87542628127748
 Nuclear repulsion Energy =  10.73571339750740
 SCF   energy in the final basis set =      -75.9760388074
 Total energy in the final basis set =      -75.9760388074

 --------------------------------------------------------------

                    Orbital Energies (a.u.)
 --------------------------------------------------------------

 Alpha MOs
 -- Occupied --
-20.3612  -1.3518  -0.6991  -0.6123  -0.5132  -0.4538
 -- Virtual --
  0.5886   0.7392

 Beta MOs
 -- Occupied --
-20.3287  -1.2257  -0.6115  -0.5100  -0.4749
 -- Virtual --
  0.1824   0.6181   0.8197
 --------------------------------------------------------------

          Ground-State Mulliken Net Atomic Charges

     Atom                 Charge (a.u.)    Spin (a.u.)
  --------------------------------------------------------
      1 O                    -0.349084       0.902521
      2 H                     0.293454      -0.051990
      3 H                     0.077057      -0.197146
      4 H                    -0.021426       0.346616
  --------------------------------------------------------
  Sum of atomic charges =     0.000000
  Sum of spin   charges =     1.000000

 -----------------------------------------------------------------
                    Cartesian Multipole Moments
 -----------------------------------------------------------------
    Charge (ESU x 10^10)
                 0.0000
    Dipole Moment (Debye)
         X       0.0703      Y       1.7057      Z       0.0001
       Tot       1.7071
    Quadrupole Moments (Debye-Ang)
        XX      -6.6104     XY      -0.6313     YY      -6.1844
        XZ      -0.0000     YZ       0.0000     ZZ      -7.7254
    Octopole Moments (Debye-Ang^2)
       XXX      -1.5782    XXY       0.4970    XYY      -1.1368
       YYY       1.2500    XXZ      -0.0002    XYZ      -0.0000
       YYZ       0.0000    XZZ      -0.5723    YZZ       0.1130
       ZZZ       0.0000
    Hexadecapole Moments (Debye-Ang^3)
      XXXX     -26.5748   XXXY       0.3247   XXYY      -5.9661
      XYYY      -0.5980   YYYY      -6.1830   XXXZ      -0.0005
      XXYZ      -0.0000   XYYZ      -0.0000   YYYZ       0.0000
      XXZZ      -5.8789   XYZZ      -0.0544   YYZZ      -2.0384
      XZZZ      -0.0000   YZZZ       0.0000   ZZZZ      -4.8748
 -----------------------------------------------------------------
 Mayer SCF Bond Order, atomic valence on the diagonal:

            1           2           3           4
    1   1.2166085   0.9111652   0.1903803   0.1150630
    2   0.9111652   0.9111819   0.0002482  -0.0002315
    3   0.1903803   0.0002482   0.9551955   0.7645671
    4   0.1150630  -0.0002315   0.7645671   0.8793986


 Calculating analytic gradient of the SCF energy
 ------------------------------------------------------
 Correction for Bais Set Incompleteness Error in  HF-3c
 ------------------------------------------------------
 Gradient of SCF Energy
            1           2           3           4
    1   0.0411086   0.0070200  -0.0913947   0.0432662
    2   0.0354672  -0.0363435  -0.0113418   0.0122181
    3   0.0000016   0.0000001   0.0000133  -0.0000150
 Max gradient component =       9.139E-02
 RMS gradient           =       3.514E-02
 Gradient time:  CPU 0.05 s  wall 0.03 s
 Geometry Optimization Parameters
   NAtoms,    NIC,     NZ,  NCons,   NDum,   NFix, NCnnct, MaxDiis
        4      14       0       0       0       0       0       0


** GEOMETRY OPTIMIZATION IN DELOCALIZED INTERNAL COORDINATES **
   Searching for a Transition State

   Optimization Cycle:   1

                       Coordinates (Angstroms)
     ATOM                X               Y               Z
      1  O        -0.3010642614   -0.1080489904   -0.0000080000
      2  H        -0.4279440228    0.8515678429    0.0000160000
      3  H         1.0154857758   -0.1003669249    0.0001189998
      4  H         1.8209675754    0.1131873011   -0.0000730000
   Point Group: c1    Number of degrees of freedom:     6


   Energy is    -75.976038807


 Attempting to generate delocalized internal coordinates
 Initial Hessian constructed with Jon Baker's OPTIMIZE code

  6 Hessian modes will be used to form the next step
  Hessian Eigenvalues:
     0.160000    0.177938    0.200000    0.200000    0.288234    0.537942
**WARNING** Hessian does not have the desired local structure
**WARNING** Hessian does not have the desired local structure

 Transition state search - taking P-RFO step
 Searching for Lamda that Maximizes Along the Lowest mode
 Value Taken    Lamda =   0.16010074
 Searching for Lamda that Minimizes Along All other modes
 Value Taken    Lamda =  -0.02065307
 Calculated Step too Large.  Step scaled by  0.000251
 Step Taken.  Stepsize is  0.010000

                             Maximum     Tolerance    Cnvgd?
         Gradient           0.064120      0.000300      NO
         Displacement       0.007693      0.001200      NO
         Energy change     *********      0.000001      NO


 New Cartesian Coordinates Obtained by Inverse Iteration

 Displacement from previous Coordinates is:  0.014177
 Adding empirical dispersion correction 
 ----------------------------------------------------------------
 Doing -D3(BJ) with
 s6  =   1.00000
 s8  =   0.87770
 a1  =   0.41710
 a2  =   2.91490
 -D3 energy without 3body term =     -0.0047981308 hartrees
 ----------------------------------------------------------------
 Adding gCP correction 
 ----------------------------------------------------------------
 gCP energy =      0.0253719968 hartrees
 ------------------------------------------------------
 Correction for Bais Set Incompleteness Error in  HF-3c
 ------------------------------------------------------
 SRB energy =     -0.0227200717 hartrees
 ----------------------------------------------------------------
             Standard Nuclear Orientation (Angstroms)
    I     Atom           X                Y                Z
 ----------------------------------------------------------------
    1      O      -0.3029307416    -0.1098727447    -0.0000079408
    2      H      -0.4219661965     0.8507575170     0.0000159150
    3      H       1.0136352125    -0.0997831120     0.0001190124
    4      H       1.8187067926     0.1152375684    -0.0000729868
 ----------------------------------------------------------------
 Nuclear Repulsion Energy =          10.73772286 hartrees
 There are        6 alpha and        5 beta electrons
 Applying Cartesian multipole field
    Component          Value
    ---------          -----
     (2,0,0)        1.00000E-11
     (0,2,0)        2.00000E-10
     (0,0,2)       -3.00000E-10
 Nucleus-field energy     =     0.0000000008 hartrees
 Requested basis set is MINIX
 There are 6 shells and 8 basis functions
 A cutoff of  1.0D-11 yielded     21 shell pairs
 There are        39 function pairs
 Smallest overlap matrix eigenvalue = 3.15E-01
 Guess MOs from SCF MO coefficient file

 -----------------------------------------------------------------------
  General SCF calculation program by
  Eric Jon Sundstrom, Paul Horn, Yuezhi Mao, Dmitri Zuev, Alec White,
  David Stuck, Shaama M.S., Shane Yost, Joonho Lee, David Small,
  Daniel Levine, Susi Lehtola, Hugh Burton, Evgeny Epifanovsky,
  Bang C. Huynh
 -----------------------------------------------------------------------
 Hartree-Fock
 Dispersion:   Grimme D3
 using 8 threads for integral computing
 -------------------------------------------------------
 OpenMP Integral computing Module                
 Release: version 1.0, May 2013, Q-Chem Inc. Pittsburgh 
 -------------------------------------------------------
 A unrestricted SCF calculation will be
 performed using DIIS
 SCF converges when DIIS error is below 1.0e-08
 Alpha HF Exchange    Energy =  -4.99519641717711
 Beta HF Exchange     Energy =  -4.31076048834074
 One-Electron (alpha) Energy = -66.56500914024804
 One-Electron (beta)  Energy = -59.71950989645858
 Total Coulomb        Energy =  48.87676293550562
 ---------------------------------------
  Cycle       Energy         DIIS error
 ---------------------------------------
    1     -75.9759901485      2.65e-04  
 Alpha HF Exchange    Energy =  -4.99516413333343
 Beta HF Exchange     Energy =  -4.31076565787242
 One-Electron (alpha) Energy = -66.56474694088290
 One-Electron (beta)  Energy = -59.71921080889363
 Total Coulomb        Energy =  48.87616925356024
    2     -75.9759954292      1.26e-04  
 Alpha HF Exchange    Energy =  -4.99517233464661
 Beta HF Exchange     Energy =  -4.31079111765781
 One-Electron (alpha) Energy = -66.56477893793169
 One-Electron (beta)  Energy = -59.71927149563489
 Total Coulomb        Energy =  48.87629352484915
    3     -75.9759975028      4.89e-05  
 Alpha HF Exchange    Energy =  -4.99517546145141
 Beta HF Exchange     Energy =  -4.31080594638580
 One-Electron (alpha) Energy = -66.56477236242021
 One-Electron (beta)  Energy = -59.71938378237547
 Total Coulomb        Energy =  48.87641673301327
    4     -75.9759979614      2.18e-05  
 Alpha HF Exchange    Energy =  -4.99517218414702
 Beta HF Exchange     Energy =  -4.31081740856216
 One-Electron (alpha) Energy = -66.56471819052558
 One-Electron (beta)  Energy = -59.71959600054215
 Total Coulomb        Energy =  48.87658284354268
    5     -75.9759980820      8.09e-06  
 Alpha HF Exchange    Energy =  -4.99516577939341
 Beta HF Exchange     Energy =  -4.31082433731752
 One-Electron (alpha) Energy = -66.56463006450223
 One-Electron (beta)  Energy = -59.71977115975495
 Total Coulomb        Energy =  48.87667038371906
    6     -75.9759980990      1.86e-06  
 Alpha HF Exchange    Energy =  -4.99516392966869
 Beta HF Exchange     Energy =  -4.31082647144582
 One-Electron (alpha) Energy = -66.56459615788583
 One-Electron (beta)  Energy = -59.71982647649165
 Total Coulomb        Energy =  48.87669207768307
    7     -75.9759980996      9.53e-07  
 Alpha HF Exchange    Energy =  -4.99516232788311
 Beta HF Exchange     Energy =  -4.31082812692043
 One-Electron (alpha) Energy = -66.56456482972490
 One-Electron (beta)  Energy = -59.71986919185167
 Total Coulomb        Energy =  48.87670351839695
    8     -75.9759980998      1.95e-07  
 Alpha HF Exchange    Energy =  -4.99516218210468
 Beta HF Exchange     Energy =  -4.31082843778437
 One-Electron (alpha) Energy = -66.56456002807511
 One-Electron (beta)  Energy = -59.71987564780991
 Total Coulomb        Energy =  48.87670533778575
    9     -75.9759980998      3.27e-08  
 Alpha HF Exchange    Energy =  -4.99516219071131
 Beta HF Exchange     Energy =  -4.31082847322378
 One-Electron (alpha) Energy = -66.56455969420372
 One-Electron (beta)  Energy = -59.71987595191882
 Total Coulomb        Energy =  48.87670535206993
   10     -75.9759980998      4.51e-09  Convergence criterion met
 ---------------------------------------
 Alpha HF Exchange    Energy =  -4.99516219071131
 Beta HF Exchange     Energy =  -4.31082847322378
 One-Electron (alpha) Energy = -66.56455969420372
 One-Electron (beta)  Energy = -59.71987595191882
 Total Coulomb        Energy =  48.87670535206993
 SCF time:   CPU 0.22s  wall 1.00s 
<S^2> =          0.775494081
 Alpha HF Exchange    Energy =  -4.99516219071131
 Beta HF Exchange     Energy =  -4.31082847322378
 One-Electron (alpha) Energy = -66.56455969420372
 One-Electron (beta)  Energy = -59.71987595191882
 Total Coulomb        Energy =  48.87670535206993
 Nuclear repulsion Energy =  10.73772285819962
 SCF   energy in the final basis set =      -75.9759980998
 Total energy in the final basis set =      -75.9759980998

 --------------------------------------------------------------

                    Orbital Energies (a.u.)
 --------------------------------------------------------------

 Alpha MOs
 -- Occupied --
-20.3612  -1.3519  -0.6988  -0.6126  -0.5132  -0.4540
 -- Virtual --
  0.5888   0.7386

 Beta MOs
 -- Occupied --
-20.3287  -1.2258  -0.6105  -0.5113  -0.4749
 -- Virtual --
  0.1824   0.6182   0.8192
 --------------------------------------------------------------

          Ground-State Mulliken Net Atomic Charges

     Atom                 Charge (a.u.)    Spin (a.u.)
  --------------------------------------------------------
      1 O                    -0.349080       0.902442
      2 H                     0.293376      -0.051995
      3 H                     0.076737      -0.197460
      4 H                    -0.021032       0.347013
  --------------------------------------------------------
  Sum of atomic charges =    -0.000000
  Sum of spin   charges =     1.000000

 -----------------------------------------------------------------
                    Cartesian Multipole Moments
 -----------------------------------------------------------------
    Charge (ESU x 10^10)
                -0.0000
    Dipole Moment (Debye)
         X       0.0849      Y       1.7074      Z       0.0001
       Tot       1.7095
    Quadrupole Moments (Debye-Ang)
        XX      -6.6176     XY      -0.6234     YY      -6.1884
        XZ      -0.0000     YZ       0.0000     ZZ      -7.7252
    Octopole Moments (Debye-Ang^2)
       XXX      -1.5382    XXY       0.5007    XYY      -1.1161
       YYY       1.2695    XXZ      -0.0002    XYZ      -0.0000
       YYZ       0.0000    XZZ      -0.5614    YZZ       0.1213
       ZZZ       0.0000
    Hexadecapole Moments (Debye-Ang^3)
      XXXX     -26.5208   XXXY       0.3042   XXYY      -5.9661
      XYYY      -0.6186   YYYY      -6.1957   XXXZ      -0.0005
      XXYZ      -0.0000   XYYZ      -0.0000   YYYZ       0.0000
      XXZZ      -5.8712   XYZZ      -0.0649   YYZZ      -2.0401
      XZZZ      -0.0000   YZZZ       0.0000   ZZZZ      -4.8747
 -----------------------------------------------------------------
 Mayer SCF Bond Order, atomic valence on the diagonal:

            1           2           3           4
    1   1.2164217   0.9112916   0.1903015   0.1148287
    2   0.9112916   0.9112273   0.0002221  -0.0002864
    3   0.1903015   0.0002221   0.9551210   0.7645975
    4   0.1148287  -0.0002864   0.7645975   0.8791398


 Calculating analytic gradient of the SCF energy
 ------------------------------------------------------
 Correction for Bais Set Incompleteness Error in  HF-3c
 ------------------------------------------------------
 Gradient of SCF Energy
            1           2           3           4
    1   0.0409142   0.0073463  -0.0914860   0.0432255
    2   0.0350990  -0.0363185  -0.0111220   0.0123415
    3   0.0000015   0.0000002   0.0000133  -0.0000149
 Max gradient component =       9.149E-02
 RMS gradient           =       3.511E-02
 Gradient time:  CPU 0.05 s  wall 0.06 s
 Geometry Optimization Parameters
   NAtoms,    NIC,     NZ,  NCons,   NDum,   NFix, NCnnct, MaxDiis
        4      14       0       0       0       0       0       0

 Cartesian Hessian Update
 Hessian updated using Powell/Murtagh-Sargent update
  Mixing factors:     0.000655 Powell                      0.999345 Murtagh-Sargent


** GEOMETRY OPTIMIZATION IN DELOCALIZED INTERNAL COORDINATES **
   Searching for a Transition State

   Optimization Cycle:   2

                       Coordinates (Angstroms)
     ATOM                X               Y               Z
      1  O        -0.3029307416   -0.1098727447   -0.0000079408
      2  H        -0.4219661965    0.8507575170    0.0000159150
      3  H         1.0136352125   -0.0997831120    0.0001190124
      4  H         1.8187067926    0.1152375684   -0.0000729868
   Point Group: c1    Number of degrees of freedom:     6


   Energy is    -75.975998100

 Hessian updated using Powell/Murtagh-Sargent update
  Mixing factors:     0.105415 Powell                      0.894585 Murtagh-Sargent

  6 Hessian modes will be used to form the next step
  Hessian Eigenvalues:
     0.111368    0.177191    0.199576    0.200000    0.288231    0.537937
**WARNING** Hessian does not have the desired local structure
**WARNING** Hessian does not have the desired local structure

 Transition state search - taking P-RFO step
 Searching for Lamda that Maximizes Along the Lowest mode
 Value Taken    Lamda =   0.11165600
 Searching for Lamda that Minimizes Along All other modes
 Value Taken    Lamda =  -0.02073087
 Calculated Step too Large.  Step scaled by  0.000508
 Step Taken.  Stepsize is  0.010000

                             Maximum     Tolerance    Cnvgd?
         Gradient           0.063931      0.000300      NO
         Displacement       0.006289      0.001200      NO
         Energy change      0.000041      0.000001      NO


 New Cartesian Coordinates Obtained by Inverse Iteration

 Displacement from previous Coordinates is:  0.012401
 Adding empirical dispersion correction 
 ----------------------------------------------------------------
 Doing -D3(BJ) with
 s6  =   1.00000
 s8  =   0.87770
 a1  =   0.41710
 a2  =   2.91490
 -D3 energy without 3body term =     -0.0047910005 hartrees
 ----------------------------------------------------------------
 Adding gCP correction 
 ----------------------------------------------------------------
 gCP energy =      0.0253827919 hartrees
 ------------------------------------------------------
 Correction for Bais Set Incompleteness Error in  HF-3c
 ------------------------------------------------------
 SRB energy =     -0.0227376530 hartrees
 ----------------------------------------------------------------
             Standard Nuclear Orientation (Angstroms)
    I     Atom           X                Y                Z
 ----------------------------------------------------------------
    1      O      -0.3005625830    -0.1081754742    -0.0000078284
    2      H      -0.4271380807     0.8515016919     0.0000159133
    3      H       1.0149403090    -0.1005912296     0.0001187894
    4      H       1.8202054217     0.1136042406    -0.0000728745
 ----------------------------------------------------------------
 Nuclear Repulsion Energy =          10.73967602 hartrees
 There are        6 alpha and        5 beta electrons
 Applying Cartesian multipole field
    Component          Value
    ---------          -----
     (2,0,0)        1.00000E-11
     (0,2,0)        2.00000E-10
     (0,0,2)       -3.00000E-10
 Nucleus-field energy     =     0.0000000008 hartrees
 Requested basis set is MINIX
 There are 6 shells and 8 basis functions
 A cutoff of  1.0D-11 yielded     21 shell pairs
 There are        39 function pairs
 Smallest overlap matrix eigenvalue = 3.15E-01
 Guess MOs from SCF MO coefficient file

 -----------------------------------------------------------------------
  General SCF calculation program by
  Eric Jon Sundstrom, Paul Horn, Yuezhi Mao, Dmitri Zuev, Alec White,
  David Stuck, Shaama M.S., Shane Yost, Joonho Lee, David Small,
  Daniel Levine, Susi Lehtola, Hugh Burton, Evgeny Epifanovsky,
  Bang C. Huynh
 -----------------------------------------------------------------------
 Hartree-Fock
 Dispersion:   Grimme D3
 using 8 threads for integral computing
 -------------------------------------------------------
 OpenMP Integral computing Module                
 Release: version 1.0, May 2013, Q-Chem Inc. Pittsburgh 
 -------------------------------------------------------
 A unrestricted SCF calculation will be
 performed using DIIS
 SCF converges when DIIS error is below 1.0e-08
 Alpha HF Exchange    Energy =  -4.99521411816235
 Beta HF Exchange     Energy =  -4.31087321746871
 One-Electron (alpha) Energy = -66.56645256363667
 One-Electron (beta)  Energy = -59.72179147711829
 Total Coulomb        Energy =  48.87871649369325
 ---------------------------------------
  Cycle       Energy         DIIS error
 ---------------------------------------
    1     -75.9759388595      2.61e-04  
 Alpha HF Exchange    Energy =  -4.99521393278962
 Beta HF Exchange     Energy =  -4.31086385971676
 One-Electron (alpha) Energy = -66.56637112003585
 One-Electron (beta)  Energy = -59.72280786292274
 Total Coulomb        Energy =  48.87963664795161
    2     -75.9759441044      1.24e-04  
 Alpha HF Exchange    Energy =  -4.99517291978640
 Beta HF Exchange     Energy =  -4.31084379848434
 One-Electron (alpha) Energy = -66.56595671335302
 One-Electron (beta)  Energy = -59.72339628101555
 Total Coulomb        Energy =  48.87974758124659
    3     -75.9759461082      4.58e-05  
 Alpha HF Exchange    Energy =  -4.99515545526390
 Beta HF Exchange     Energy =  -4.31083870370448
 One-Electron (alpha) Energy = -66.56574377324392
 One-Electron (beta)  Energy = -59.72362070159339
 Total Coulomb        Energy =  48.87973611893607
    4     -75.9759464917      1.90e-05  
 Alpha HF Exchange    Energy =  -4.99515482852498
 Beta HF Exchange     Energy =  -4.31083563754556
 One-Electron (alpha) Energy = -66.56568749797994
 One-Electron (beta)  Energy = -59.72357438684098
 Total Coulomb        Energy =  48.87962975036955
    5     -75.9759465774      7.42e-06  
 Alpha HF Exchange    Energy =  -4.99515971063525
 Beta HF Exchange     Energy =  -4.31083200333810
 One-Electron (alpha) Energy = -66.56572841817074
 One-Electron (beta)  Energy = -59.72346730300347
 Total Coulomb        Energy =  48.87956482050194
    6     -75.9759465915      2.13e-06  
 Alpha HF Exchange    Energy =  -4.99516142480938
 Beta HF Exchange     Energy =  -4.31082946718794
 One-Electron (alpha) Energy = -66.56576363915859
 One-Electron (beta)  Energy = -59.72340828289911
 Total Coulomb        Energy =  48.87954019857391
    7     -75.9759465923      1.05e-06  
 Alpha HF Exchange    Energy =  -4.99516294734939
 Beta HF Exchange     Energy =  -4.31082751741765
 One-Electron (alpha) Energy = -66.56579662235227
 One-Electron (beta)  Energy = -59.72336217276461
 Total Coulomb        Energy =  48.87952664417351
    8     -75.9759465926      2.07e-07  
 Alpha HF Exchange    Energy =  -4.99516316738592
 Beta HF Exchange     Energy =  -4.31082716863190
 One-Electron (alpha) Energy = -66.56580219058262
 One-Electron (beta)  Energy = -59.72335414265018
 Total Coulomb        Energy =  48.87952405353336
    9     -75.9759465926      3.25e-08  
 Alpha HF Exchange    Energy =  -4.99516320174128
 Beta HF Exchange     Energy =  -4.31082713160722
 One-Electron (alpha) Energy = -66.56580287388083
 One-Electron (beta)  Energy = -59.72335322145842
 Total Coulomb        Energy =  48.87952381296969
   10     -75.9759465926      4.10e-09  Convergence criterion met
 ---------------------------------------
 Alpha HF Exchange    Energy =  -4.99516320174128
 Beta HF Exchange     Energy =  -4.31082713160722
 One-Electron (alpha) Energy = -66.56580287388083
 One-Electron (beta)  Energy = -59.72335322145842
 Total Coulomb        Energy =  48.87952381296969
 SCF time:   CPU 0.22s  wall 0.00s 
<S^2> =          0.775508879
 Alpha HF Exchange    Energy =  -4.99516320174128
 Beta HF Exchange     Energy =  -4.31082713160722
 One-Electron (alpha) Energy = -66.56580287388083
 One-Electron (beta)  Energy = -59.72335322145842
 Total Coulomb        Energy =  48.87952381296969
 Nuclear repulsion Energy =  10.73967602315737
 SCF   energy in the final basis set =      -75.9759465926
 Total energy in the final basis set =      -75.9759465926

 --------------------------------------------------------------

                    Orbital Energies (a.u.)
 --------------------------------------------------------------

 Alpha MOs
 -- Occupied --
-20.3611  -1.3517  -0.6993  -0.6122  -0.5132  -0.4537
 -- Virtual --
  0.5886   0.7396

 Beta MOs
 -- Occupied --
-20.3286  -1.2257  -0.6116  -0.5101  -0.4748
 -- Virtual --
  0.1824   0.6182   0.8202
 --------------------------------------------------------------

          Ground-State Mulliken Net Atomic Charges

     Atom                 Charge (a.u.)    Spin (a.u.)
  --------------------------------------------------------
      1 O                    -0.349391       0.901788
      2 H                     0.293426      -0.051950
      3 H                     0.077336      -0.197443
      4 H                    -0.021371       0.347606
  --------------------------------------------------------
  Sum of atomic charges =    -0.000000
  Sum of spin   charges =     1.000000

 -----------------------------------------------------------------
                    Cartesian Multipole Moments
 -----------------------------------------------------------------
    Charge (ESU x 10^10)
                 0.0000
    Dipole Moment (Debye)
         X       0.0732      Y       1.7056      Z       0.0001
       Tot       1.7071
    Quadrupole Moments (Debye-Ang)
        XX      -6.6106     XY      -0.6304     YY      -6.1845
        XZ      -0.0000     YZ       0.0000     ZZ      -7.7251
    Octopole Moments (Debye-Ang^2)
       XXX      -1.5817    XXY       0.4967    XYY      -1.1367
       YYY       1.2511    XXZ      -0.0002    XYZ      -0.0000
       YYZ       0.0000    XZZ      -0.5738    YZZ       0.1135
       ZZZ       0.0000
    Hexadecapole Moments (Debye-Ang^3)
      XXXX     -26.5509   XXXY       0.3230   XXYY      -5.9613
      XYYY      -0.5993   YYYY      -6.1842   XXXZ      -0.0004
      XXYZ      -0.0000   XYYZ      -0.0000   YYYZ       0.0000
      XXZZ      -5.8732   XYZZ      -0.0552   YYZZ      -2.0385
      XZZZ      -0.0000   YZZZ       0.0000   ZZZZ      -4.8746
 -----------------------------------------------------------------
 Mayer SCF Bond Order, atomic valence on the diagonal:

            1           2           3           4
    1   1.2178516   0.9111855   0.1912520   0.1154141
    2   0.9111855   0.9112023   0.0002503  -0.0002335
    3   0.1912520   0.0002503   0.9550353   0.7635330
    4   0.1154141  -0.0002335   0.7635330   0.8787136


 Calculating analytic gradient of the SCF energy
 ------------------------------------------------------
 Correction for Bais Set Incompleteness Error in  HF-3c
 ------------------------------------------------------
 Gradient of SCF Energy
            1           2           3           4
    1   0.0412014   0.0070318  -0.0912320   0.0429988
    2   0.0353917  -0.0362812  -0.0113178   0.0122073
    3   0.0000015   0.0000001   0.0000132  -0.0000149
 Max gradient component =       9.123E-02
 RMS gradient           =       3.508E-02
 Gradient time:  CPU 0.04 s  wall 0.03 s
 Geometry Optimization Parameters
   NAtoms,    NIC,     NZ,  NCons,   NDum,   NFix, NCnnct, MaxDiis
        4      14       0       0       0       0       0       0

 Cartesian Hessian Update
 Hessian updated using Powell/Murtagh-Sargent update
  Mixing factors:     0.977974 Powell                      0.022026 Murtagh-Sargent


** GEOMETRY OPTIMIZATION IN DELOCALIZED INTERNAL COORDINATES **
   Searching for a Transition State

   Optimization Cycle:   3

                       Coordinates (Angstroms)
     ATOM                X               Y               Z
      1  O        -0.3005625830   -0.1081754742   -0.0000078284
      2  H        -0.4271380807    0.8515016919    0.0000159133
      3  H         1.0149403090   -0.1005912296    0.0001187894
      4  H         1.8202054217    0.1136042406   -0.0000728745
   Point Group: c1    Number of degrees of freedom:     6


   Energy is    -75.975946593

 Hessian updated using Powell/Murtagh-Sargent update
  Mixing factors:     0.976863 Powell                      0.023137 Murtagh-Sargent

  6 Hessian modes will be used to form the next step
  Hessian Eigenvalues:
     0.093054    0.182156    0.200000    0.200803    0.289309    0.537934
**WARNING** Hessian does not have the desired local structure
**WARNING** Hessian does not have the desired local structure

 Transition state search - taking P-RFO step
 Searching for Lamda that Maximizes Along the Lowest mode
 Value Taken    Lamda =   0.09952772
 Searching for Lamda that Minimizes Along All other modes
 Value Taken    Lamda =  -0.01760761
 Calculated Step too Large.  Step scaled by  0.002545
 Step Taken.  Stepsize is  0.010000

                             Maximum     Tolerance    Cnvgd?
         Gradient           0.064007      0.000300      NO
         Displacement       0.005861      0.001200      NO
         Energy change      0.000052      0.000001      NO


 New Cartesian Coordinates Obtained by Inverse Iteration

 Displacement from previous Coordinates is:  0.009892
 Adding empirical dispersion correction 
 ----------------------------------------------------------------
 Doing -D3(BJ) with
 s6  =   1.00000
 s8  =   0.87770
 a1  =   0.41710
 a2  =   2.91490
 -D3 energy without 3body term =     -0.0047875848 hartrees
 ----------------------------------------------------------------
 Adding gCP correction 
 ----------------------------------------------------------------
 gCP energy =      0.0254106865 hartrees
 ------------------------------------------------------
 Correction for Bais Set Incompleteness Error in  HF-3c
 ------------------------------------------------------
 SRB energy =     -0.0227724434 hartrees
 ----------------------------------------------------------------
             Standard Nuclear Orientation (Angstroms)
    I     Atom           X                Y                Z
 ----------------------------------------------------------------
    1      O      -0.2979214538    -0.1067209815    -0.0000074149
    2      H      -0.4310037610     0.8521109148     0.0000157718
    3      H       1.0153451776    -0.1017445956     0.0001182117
    4      H       1.8210251043     0.1126938911    -0.0000725689
 ----------------------------------------------------------------
 Nuclear Repulsion Energy =          10.74532139 hartrees
 There are        6 alpha and        5 beta electrons
 Applying Cartesian multipole field
    Component          Value
    ---------          -----
     (2,0,0)        1.00000E-11
     (0,2,0)        2.00000E-10
     (0,0,2)       -3.00000E-10
 Nucleus-field energy     =     0.0000000008 hartrees
 Requested basis set is MINIX
 There are 6 shells and 8 basis functions
 A cutoff of  1.0D-11 yielded     21 shell pairs
 There are        39 function pairs
 Smallest overlap matrix eigenvalue = 3.14E-01
 Guess MOs from SCF MO coefficient file

 -----------------------------------------------------------------------
  General SCF calculation program by
  Eric Jon Sundstrom, Paul Horn, Yuezhi Mao, Dmitri Zuev, Alec White,
  David Stuck, Shaama M.S., Shane Yost, Joonho Lee, David Small,
  Daniel Levine, Susi Lehtola, Hugh Burton, Evgeny Epifanovsky,
  Bang C. Huynh
 -----------------------------------------------------------------------
 Hartree-Fock
 Dispersion:   Grimme D3
 using 8 threads for integral computing
 -------------------------------------------------------
 OpenMP Integral computing Module                
 Release: version 1.0, May 2013, Q-Chem Inc. Pittsburgh 
 -------------------------------------------------------
 A unrestricted SCF calculation will be
 performed using DIIS
 SCF converges when DIIS error is below 1.0e-08
 Alpha HF Exchange    Energy =  -4.99523215969193
 Beta HF Exchange     Energy =  -4.31091751282946
 One-Electron (alpha) Energy = -66.57072747690890
 One-Electron (beta)  Energy = -59.72869451848016
 Total Coulomb        Energy =  48.88452324742918
 ---------------------------------------
  Cycle       Energy         DIIS error
 ---------------------------------------
    1     -75.9757270250      2.50e-04  
 Alpha HF Exchange    Energy =  -4.99519304789448
 Beta HF Exchange     Energy =  -4.31091148780168
 One-Electron (alpha) Energy = -66.57015191595443
 One-Electron (beta)  Energy = -59.73073264188335
 Total Coulomb        Energy =  48.88593573292754
    2     -75.9757319651      1.19e-04  
 Alpha HF Exchange    Energy =  -4.99511052734095
 Beta HF Exchange     Energy =  -4.31090523476915
 One-Electron (alpha) Energy = -66.56918877406889
 One-Electron (beta)  Energy = -59.73223963795410
 Total Coulomb        Energy =  48.88638896319092
    3     -75.9757338155      4.40e-05  
 Alpha HF Exchange    Energy =  -4.99507212494662
 Beta HF Exchange     Energy =  -4.31091601948259
 One-Electron (alpha) Energy = -66.56863395190445
 One-Electron (beta)  Energy = -59.73300128174886
 Total Coulomb        Energy =  48.88656783848121
    4     -75.9757341441      1.58e-05  
 Alpha HF Exchange    Energy =  -4.99506563454427
 Beta HF Exchange     Energy =  -4.31092464141640
 One-Electron (alpha) Energy = -66.56842344307508
 One-Electron (beta)  Energy = -59.73319455000486
 Total Coulomb        Energy =  48.88655268127197
    5     -75.9757341923      5.32e-06  
 Alpha HF Exchange    Energy =  -4.99506755454119
 Beta HF Exchange     Energy =  -4.31092665709541
 One-Electron (alpha) Energy = -66.56839243322348
 One-Electron (beta)  Energy = -59.73320568812287
 Total Coulomb        Energy =  48.88653673935820
    6     -75.9757341981      1.62e-06  
 Alpha HF Exchange    Energy =  -4.99506803185121
 Beta HF Exchange     Energy =  -4.31092544943595
 One-Electron (alpha) Energy = -66.56840342761069
 One-Electron (beta)  Energy = -59.73318096947051
 Total Coulomb        Energy =  48.88652228423236
    7     -75.9757341986      8.70e-07  
 Alpha HF Exchange    Energy =  -4.99506884885732
 Beta HF Exchange     Energy =  -4.31092414296513
 One-Electron (alpha) Energy = -66.56842244403335
 One-Electron (beta)  Energy = -59.73315191327335
 Total Coulomb        Energy =  48.88651175480922
    8     -75.9757341988      2.53e-07  
 Alpha HF Exchange    Energy =  -4.99506916647488
 Beta HF Exchange     Energy =  -4.31092369036616
 One-Electron (alpha) Energy = -66.56842928470117
 One-Electron (beta)  Energy = -59.73314107506150
 Total Coulomb        Energy =  48.88650762226843
    9     -75.9757341988      4.30e-08  
 Alpha HF Exchange    Energy =  -4.99506925313188
 Beta HF Exchange     Energy =  -4.31092363368151
 One-Electron (alpha) Energy = -66.56843054327976
 One-Electron (beta)  Energy = -59.73313917332401
 Total Coulomb        Energy =  48.88650700908094
   10     -75.9757341988      6.11e-09  Convergence criterion met
 ---------------------------------------
 Alpha HF Exchange    Energy =  -4.99506925313188
 Beta HF Exchange     Energy =  -4.31092363368151
 One-Electron (alpha) Energy = -66.56843054327976
 One-Electron (beta)  Energy = -59.73313917332401
 Total Coulomb        Energy =  48.88650700908094
 SCF time:   CPU 0.22s  wall 0.00s 
<S^2> =          0.775694909
 Alpha HF Exchange    Energy =  -4.99506925313188
 Beta HF Exchange     Energy =  -4.31092363368151
 One-Electron (alpha) Energy = -66.56843054327976
 One-Electron (beta)  Energy = -59.73313917332401
 Total Coulomb        Energy =  48.88650700908094
 Nuclear repulsion Energy =  10.74532139549027
 SCF   energy in the final basis set =      -75.9757341988
 Total energy in the final basis set =      -75.9757341988

 --------------------------------------------------------------

                    Orbital Energies (a.u.)
 --------------------------------------------------------------

 Alpha MOs
 -- Occupied --
-20.3608  -1.3516  -0.6998  -0.6118  -0.5130  -0.4533
 -- Virtual --
  0.5886   0.7405

 Beta MOs
 -- Occupied --
-20.3284  -1.2258  -0.6125  -0.5088  -0.4748
 -- Virtual --
  0.1823   0.6182   0.8213
 --------------------------------------------------------------

          Ground-State Mulliken Net Atomic Charges

     Atom                 Charge (a.u.)    Spin (a.u.)
  --------------------------------------------------------
      1 O                    -0.350134       0.900090
      2 H                     0.293434      -0.051846
      3 H                     0.078289      -0.198087
      4 H                    -0.021589       0.349843
  --------------------------------------------------------
  Sum of atomic charges =    -0.000000
  Sum of spin   charges =     1.000000

 -----------------------------------------------------------------
                    Cartesian Multipole Moments
 -----------------------------------------------------------------
    Charge (ESU x 10^10)
                -0.0000
    Dipole Moment (Debye)
         X       0.0669      Y       1.7037      Z       0.0001
       Tot       1.7050
    Quadrupole Moments (Debye-Ang)
        XX      -6.6035     XY      -0.6360     YY      -6.1809
        XZ      -0.0000     YZ       0.0000     ZZ      -7.7248
    Octopole Moments (Debye-Ang^2)
       XXX      -1.6218    XXY       0.4929    XYY      -1.1549
       YYY       1.2350    XXZ      -0.0002    XYZ      -0.0000
       YYZ       0.0000    XZZ      -0.5862    YZZ       0.1068
       ZZZ       0.0000
    Hexadecapole Moments (Debye-Ang^3)
      XXXX     -26.5524   XXXY       0.3385   XXYY      -5.9523
      XYYY      -0.5834   YYYY      -6.1753   XXXZ      -0.0004
      XXYZ      -0.0000   XYYZ      -0.0000   YYYZ       0.0000
      XXZZ      -5.8694   XYZZ      -0.0473   YYZZ      -2.0371
      XZZZ      -0.0000   YZZZ       0.0000   ZZZZ      -4.8742
 -----------------------------------------------------------------
 Mayer SCF Bond Order, atomic valence on the diagonal:

            1           2           3           4
    1   1.2209894   0.9111125   0.1934501   0.1164268
    2   0.9111125   0.9112083   0.0002806  -0.0001848
    3   0.1934501   0.0002806   0.9546323   0.7609016
    4   0.1164268  -0.0001848   0.7609016   0.8771437


 Calculating analytic gradient of the SCF energy
 ------------------------------------------------------
 Correction for Bais Set Incompleteness Error in  HF-3c
 ------------------------------------------------------
 Gradient of SCF Energy
            1           2           3           4
    1   0.0414704   0.0067521  -0.0908728   0.0426503
    2   0.0355650  -0.0361710  -0.0115208   0.0121269
    3   0.0000015   0.0000001   0.0000131  -0.0000148
 Max gradient component =       9.087E-02
 RMS gradient           =       3.499E-02
 Gradient time:  CPU 0.04 s  wall 0.03 s
 Geometry Optimization Parameters
   NAtoms,    NIC,     NZ,  NCons,   NDum,   NFix, NCnnct, MaxDiis
        4      14       0       0       0       0       0       0

 Cartesian Hessian Update
 Hessian updated using Powell/Murtagh-Sargent update
  Mixing factors:     0.943697 Powell                      0.056303 Murtagh-Sargent


** GEOMETRY OPTIMIZATION IN DELOCALIZED INTERNAL COORDINATES **
   Searching for a Transition State

   Optimization Cycle:   4

                       Coordinates (Angstroms)
     ATOM                X               Y               Z
      1  O        -0.2979214538   -0.1067209815   -0.0000074149
      2  H        -0.4310037610    0.8521109148    0.0000157718
      3  H         1.0153451776   -0.1017445956    0.0001182117
      4  H         1.8210251043    0.1126938911   -0.0000725689
   Point Group: c1    Number of degrees of freedom:     6


   Energy is    -75.975734199

 Hessian updated using Powell/Murtagh-Sargent update
  Mixing factors:     0.929970 Powell                      0.070030 Murtagh-Sargent

  6 Hessian modes will be used to form the next step
  Hessian Eigenvalues:
     0.053953    0.187916    0.200000    0.202786    0.291825    0.538033
**WARNING** Hessian does not have the desired local structure
**WARNING** Hessian does not have the desired local structure

 Transition state search - taking P-RFO step
 Searching for Lamda that Maximizes Along the Lowest mode
 Value Taken    Lamda =   0.07719121
 Searching for Lamda that Minimizes Along All other modes
 Value Taken    Lamda =  -0.01241544
 Calculated Step too Large.  Step scaled by  0.005449
 Step Taken.  Stepsize is  0.010000

                             Maximum     Tolerance    Cnvgd?
         Gradient           0.063988      0.000300      NO
         Displacement       0.007490      0.001200      NO
         Energy change      0.000212      0.000001      NO


 New Cartesian Coordinates Obtained by Inverse Iteration

 Displacement from previous Coordinates is:  0.007523
 Adding empirical dispersion correction 
 ----------------------------------------------------------------
 Doing -D3(BJ) with
 s6  =   1.00000
 s8  =   0.87770
 a1  =   0.41710
 a2  =   2.91490
 -D3 energy without 3body term =     -0.0047890129 hartrees
 ----------------------------------------------------------------
 Adding gCP correction 
 ----------------------------------------------------------------
 gCP energy =      0.0254504098 hartrees
 ------------------------------------------------------
 Correction for Bais Set Incompleteness Error in  HF-3c
 ------------------------------------------------------
 SRB energy =     -0.0228182710 hartrees
 ----------------------------------------------------------------
             Standard Nuclear Orientation (Angstroms)
    I     Atom           X                Y                Z
 ----------------------------------------------------------------
    1      O      -0.2952959188    -0.1056515565    -0.0000066436
    2      H      -0.4332695550     0.8525756962     0.0000154741
    3      H       1.0148063690    -0.1032052613     0.0001171792
    4      H       1.8212041719     0.1126203503    -0.0000720099
 ----------------------------------------------------------------
 Nuclear Repulsion Energy =          10.75363699 hartrees
 There are        6 alpha and        5 beta electrons
 Applying Cartesian multipole field
    Component          Value
    ---------          -----
     (2,0,0)        1.00000E-11
     (0,2,0)        2.00000E-10
     (0,0,2)       -3.00000E-10
 Nucleus-field energy     =     0.0000000008 hartrees
 Requested basis set is MINIX
 There are 6 shells and 8 basis functions
 A cutoff of  1.0D-11 yielded     21 shell pairs
 There are        39 function pairs
 Smallest overlap matrix eigenvalue = 3.14E-01
 Guess MOs from SCF MO coefficient file

 -----------------------------------------------------------------------
  General SCF calculation program by
  Eric Jon Sundstrom, Paul Horn, Yuezhi Mao, Dmitri Zuev, Alec White,
  David Stuck, Shaama M.S., Shane Yost, Joonho Lee, David Small,
  Daniel Levine, Susi Lehtola, Hugh Burton, Evgeny Epifanovsky,
  Bang C. Huynh
 -----------------------------------------------------------------------
 Hartree-Fock
 Dispersion:   Grimme D3
 using 8 threads for integral computing
 -------------------------------------------------------
 OpenMP Integral computing Module                
 Release: version 1.0, May 2013, Q-Chem Inc. Pittsburgh 
 -------------------------------------------------------
 A unrestricted SCF calculation will be
 performed using DIIS
 SCF converges when DIIS error is below 1.0e-08
 Alpha HF Exchange    Energy =  -4.99512518323700
 Beta HF Exchange     Energy =  -4.31103429553052
 One-Electron (alpha) Energy = -66.57544012701149
 One-Electron (beta)  Energy = -59.74104473649266
 Total Coulomb        Energy =  48.89363502525053
 ---------------------------------------
  Cycle       Energy         DIIS error
 ---------------------------------------
    1     -75.9753723273      2.38e-04  
 Alpha HF Exchange    Energy =  -4.99505030460006
 Beta HF Exchange     Energy =  -4.31103446826090
 One-Electron (alpha) Energy = -66.57439067873067
 One-Electron (beta)  Energy = -59.74397064793557
 Total Coulomb        Energy =  48.89543219786339
    2     -75.9753769120      1.15e-04  
 Alpha HF Exchange    Energy =  -4.99493568286538
 Beta HF Exchange     Energy =  -4.31104453836918
 One-Electron (alpha) Energy = -66.57297537999366
 One-Electron (beta)  Energy = -59.74624607017724
 Total Coulomb        Energy =  48.89618601001995
    3     -75.9753786717      4.69e-05  
 Alpha HF Exchange    Energy =  -4.99487280798482
 Beta HF Exchange     Energy =  -4.31107321473813
 One-Electron (alpha) Energy = -66.57203077342734
 One-Electron (beta)  Energy = -59.74763609892801
 Total Coulomb        Energy =  48.89659686259616
    4     -75.9753790428      1.60e-05  
 Alpha HF Exchange    Energy =  -4.99486080728128
 Beta HF Exchange     Energy =  -4.31109403189702
 One-Electron (alpha) Energy = -66.57166888231691
 One-Electron (beta)  Energy = -59.74806486521057
 Total Coulomb        Energy =  48.89667251484278
    5     -75.9753790822      4.08e-06  
 Alpha HF Exchange    Energy =  -4.99486144470657
 Beta HF Exchange     Energy =  -4.31109985835824
 One-Electron (alpha) Energy = -66.57160366170649
 One-Electron (beta)  Energy = -59.74814418333538
 Total Coulomb        Energy =  48.89669307417340
    6     -75.9753790842      6.31e-07  
 Alpha HF Exchange    Energy =  -4.99486069393017
 Beta HF Exchange     Energy =  -4.31110042290552
 One-Electron (alpha) Energy = -66.57159104435213
 One-Electron (beta)  Energy = -59.74815931982443
 Total Coulomb        Energy =  48.89669540703085
    7     -75.9753790843      2.26e-07  
 Alpha HF Exchange    Energy =  -4.99486039258971
 Beta HF Exchange     Energy =  -4.31110065542335
 One-Electron (alpha) Energy = -66.57158740487048
 One-Electron (beta)  Energy = -59.74816516321415
 Total Coulomb        Energy =  48.89669754210709
    8     -75.9753790843      1.26e-07  
 Alpha HF Exchange    Energy =  -4.99486014789055
 Beta HF Exchange     Energy =  -4.31110084425782
 One-Electron (alpha) Energy = -66.57158446902402
 One-Electron (beta)  Energy = -59.74816965366951
 Total Coulomb        Energy =  48.89669904084718
    9     -75.9753790843      5.45e-08  
 Alpha HF Exchange    Energy =  -4.99486006583862
 Beta HF Exchange     Energy =  -4.31110095023120
 One-Electron (alpha) Energy = -66.57158335092424
 One-Electron (beta)  Energy = -59.74817151327397
 Total Coulomb        Energy =  48.89669980627151
   10     -75.9753790843      8.01e-09  Convergence criterion met
 ---------------------------------------
 Alpha HF Exchange    Energy =  -4.99486006583862
 Beta HF Exchange     Energy =  -4.31110095023120
 One-Electron (alpha) Energy = -66.57158335092424
 One-Electron (beta)  Energy = -59.74817151327397
 Total Coulomb        Energy =  48.89669980627151
 SCF time:   CPU 0.21s  wall 0.00s 
<S^2> =          0.776058792
 Alpha HF Exchange    Energy =  -4.99486006583862
 Beta HF Exchange     Energy =  -4.31110095023120
 One-Electron (alpha) Energy = -66.57158335092424
 One-Electron (beta)  Energy = -59.74817151327397
 Total Coulomb        Energy =  48.89669980627151
 Nuclear repulsion Energy =  10.75363698970444
 SCF   energy in the final basis set =      -75.9753790843
 Total energy in the final basis set =      -75.9753790843

 --------------------------------------------------------------

                    Orbital Energies (a.u.)
 --------------------------------------------------------------

 Alpha MOs
 -- Occupied --
-20.3604  -1.3513  -0.7003  -0.6112  -0.5128  -0.4527
 -- Virtual --
  0.5887   0.7411

 Beta MOs
 -- Occupied --
-20.3280  -1.2259  -0.6133  -0.5077  -0.4747
 -- Virtual --
  0.1821   0.6182   0.8222
 --------------------------------------------------------------

          Ground-State Mulliken Net Atomic Charges

     Atom                 Charge (a.u.)    Spin (a.u.)
  --------------------------------------------------------
      1 O                    -0.351264       0.897437
      2 H                     0.293388      -0.051691
      3 H                     0.079529      -0.199401
      4 H                    -0.021653       0.353655
  --------------------------------------------------------
  Sum of atomic charges =    -0.000000
  Sum of spin   charges =     1.000000

 -----------------------------------------------------------------
                    Cartesian Multipole Moments
 -----------------------------------------------------------------
    Charge (ESU x 10^10)
                -0.0000
    Dipole Moment (Debye)
         X       0.0670      Y       1.7019      Z       0.0001
       Tot       1.7032
    Quadrupole Moments (Debye-Ang)
        XX      -6.5966     XY      -0.6398     YY      -6.1779
        XZ      -0.0000     YZ      -0.0000     ZZ      -7.7243
    Octopole Moments (Debye-Ang^2)
       XXX      -1.6532    XXY       0.4900    XYY      -1.1689
       YYY       1.2228    XXZ      -0.0002    XYZ      -0.0000
       YYZ       0.0000    XZZ      -0.5974    YZZ       0.1018
       ZZZ      -0.0000
    Hexadecapole Moments (Debye-Ang^3)
      XXXX     -26.5256   XXXY       0.3495   XXYY      -5.9401
      XYYY      -0.5724   YYYY      -6.1697   XXXZ      -0.0004
      XXYZ      -0.0000   XYYZ      -0.0000   YYYZ       0.0000
      XXZZ      -5.8607   XYZZ      -0.0418   YYZZ      -2.0363
      XZZZ      -0.0000   YZZZ       0.0000   ZZZZ      -4.8735
 -----------------------------------------------------------------
 Mayer SCF Bond Order, atomic valence on the diagonal:

            1           2           3           4
    1   1.2256458   0.9110847   0.1967807   0.1177804
    2   0.9110847   0.9112514   0.0003108  -0.0001441
    3   0.1967807   0.0003108   0.9539145   0.7568230
    4   0.1177804  -0.0001441   0.7568230   0.8744593


 Calculating analytic gradient of the SCF energy
 ------------------------------------------------------
 Correction for Bais Set Incompleteness Error in  HF-3c
 ------------------------------------------------------
 Gradient of SCF Energy
            1           2           3           4
    1   0.0416651   0.0065140  -0.0904342   0.0422551
    2   0.0355663  -0.0359540  -0.0117340   0.0121218
    3   0.0000015   0.0000001   0.0000130  -0.0000146
 Max gradient component =       9.043E-02
 RMS gradient           =       3.486E-02
 Gradient time:  CPU 0.04 s  wall 0.03 s
 Geometry Optimization Parameters
   NAtoms,    NIC,     NZ,  NCons,   NDum,   NFix, NCnnct, MaxDiis
        4      14       0       0       0       0       0       0

 Cartesian Hessian Update
 Hessian updated using Powell/Murtagh-Sargent update
  Mixing factors:     0.855268 Powell                      0.144732 Murtagh-Sargent


** GEOMETRY OPTIMIZATION IN DELOCALIZED INTERNAL COORDINATES **
   Searching for a Transition State

   Optimization Cycle:   5

                       Coordinates (Angstroms)
     ATOM                X               Y               Z
      1  O        -0.2952959188   -0.1056515565   -0.0000066436
      2  H        -0.4332695550    0.8525756962    0.0000154741
      3  H         1.0148063690   -0.1032052613    0.0001171792
      4  H         1.8212041719    0.1126203503   -0.0000720099
   Point Group: c1    Number of degrees of freedom:     6


   Energy is    -75.975379084

 Hessian updated using Powell/Murtagh-Sargent update
  Mixing factors:     0.928331 Powell                      0.071669 Murtagh-Sargent

  6 Hessian modes will be used to form the next step
  Hessian Eigenvalues:
     0.018083    0.191360    0.200000    0.204057    0.295178    0.538349
**WARNING** Hessian does not have the desired local structure
**WARNING** Hessian does not have the desired local structure

 Transition state search - taking P-RFO step
 Searching for Lamda that Maximizes Along the Lowest mode
 Value Taken    Lamda =   0.06128193
 Searching for Lamda that Minimizes Along All other modes
 Value Taken    Lamda =  -0.00876587
 Calculated Step too Large.  Step scaled by  0.008308
 Step Taken.  Stepsize is  0.010000

                             Maximum     Tolerance    Cnvgd?
         Gradient           0.063875      0.000300      NO
         Displacement       0.008271      0.001200      NO
         Energy change      0.000355      0.000001      NO


 New Cartesian Coordinates Obtained by Inverse Iteration

 Displacement from previous Coordinates is:  0.006552
 Adding empirical dispersion correction 
 ----------------------------------------------------------------
 Doing -D3(BJ) with
 s6  =   1.00000
 s8  =   0.87770
 a1  =   0.41710
 a2  =   2.91490
 -D3 energy without 3body term =     -0.0047942969 hartrees
 ----------------------------------------------------------------
 Adding gCP correction 
 ----------------------------------------------------------------
 gCP energy =      0.0254955068 hartrees
 ------------------------------------------------------
 Correction for Bais Set Incompleteness Error in  HF-3c
 ------------------------------------------------------
 SRB energy =     -0.0228682966 hartrees
 ----------------------------------------------------------------
             Standard Nuclear Orientation (Angstroms)
    I     Atom           X                Y                Z
 ----------------------------------------------------------------
    1      O      -0.2928722498    -0.1049501287    -0.0000055329
    2      H      -0.4341763058     0.8529289845     0.0000150388
    3      H       1.0135934862    -0.1048705023     0.0001156675
    4      H       1.8209001364     0.1132308752    -0.0000711736
 ----------------------------------------------------------------
 Nuclear Repulsion Energy =          10.76325241 hartrees
 There are        6 alpha and        5 beta electrons
 Applying Cartesian multipole field
    Component          Value
    ---------          -----
     (2,0,0)        1.00000E-11
     (0,2,0)        2.00000E-10
     (0,0,2)       -3.00000E-10
 Nucleus-field energy     =     0.0000000008 hartrees
 Requested basis set is MINIX
 There are 6 shells and 8 basis functions
 A cutoff of  1.0D-11 yielded     21 shell pairs
 There are        39 function pairs
 Smallest overlap matrix eigenvalue = 3.14E-01
 Guess MOs from SCF MO coefficient file

 -----------------------------------------------------------------------
  General SCF calculation program by
  Eric Jon Sundstrom, Paul Horn, Yuezhi Mao, Dmitri Zuev, Alec White,
  David Stuck, Shaama M.S., Shane Yost, Joonho Lee, David Small,
  Daniel Levine, Susi Lehtola, Hugh Burton, Evgeny Epifanovsky,
  Bang C. Huynh
 -----------------------------------------------------------------------
 Hartree-Fock
 Dispersion:   Grimme D3
 using 8 threads for integral computing
 -------------------------------------------------------
 OpenMP Integral computing Module                
 Release: version 1.0, May 2013, Q-Chem Inc. Pittsburgh 
 -------------------------------------------------------
 A unrestricted SCF calculation will be
 performed using DIIS
 SCF converges when DIIS error is below 1.0e-08
 Alpha HF Exchange    Energy =  -4.99489479951442
 Beta HF Exchange     Energy =  -4.31121500481850
 One-Electron (alpha) Energy = -66.57954416108163
 One-Electron (beta)  Energy = -59.75737116736177
 Total Coulomb        Energy =  48.90483734049808
 ---------------------------------------
  Cycle       Energy         DIIS error
 ---------------------------------------
    1     -75.9749353802      2.32e-04  
 Alpha HF Exchange    Energy =  -4.99479752713942
 Beta HF Exchange     Energy =  -4.31122124741499
 One-Electron (alpha) Energy = -66.57818704956838
 One-Electron (beta)  Energy = -59.76080291537224
 Total Coulomb        Energy =  48.90681660957405
    2     -75.9749397178      1.12e-04  
 Alpha HF Exchange    Energy =  -4.99466743324157
 Beta HF Exchange     Energy =  -4.31124403414764
 One-Electron (alpha) Energy = -66.57653597847319
 One-Electron (beta)  Energy = -59.76349172361829
 Total Coulomb        Energy =  48.90774529009494
    3     -75.9749414673      5.14e-05  
 Alpha HF Exchange    Energy =  -4.99458389813452
 Beta HF Exchange     Energy =  -4.31128841833720
 One-Electron (alpha) Energy = -66.57526937575304
 One-Electron (beta)  Energy = -59.76541479725024
 Total Coulomb        Energy =  48.90836213331217
    4     -75.9749419441      1.82e-05  
 Alpha HF Exchange    Energy =  -4.99456811224517
 Beta HF Exchange     Energy =  -4.31131939725211
 One-Electron (alpha) Energy = -66.57479580802176
 One-Electron (beta)  Energy = -59.76602107476673
 Total Coulomb        Energy =  48.90850998330492
    5     -75.9749419969      4.84e-06  
 Alpha HF Exchange    Energy =  -4.99456917002904
 Beta HF Exchange     Energy =  -4.31132686885495
 One-Electron (alpha) Energy = -66.57473037875427
 One-Electron (beta)  Energy = -59.76611428690166
 Total Coulomb        Energy =  48.90854629204617
    6     -75.9749420004      1.70e-06  
 Alpha HF Exchange    Energy =  -4.99456736323749
 Beta HF Exchange     Energy =  -4.31132859610174
 One-Electron (alpha) Energy = -66.57470321228080
 One-Electron (beta)  Energy = -59.76615538404211
 Total Coulomb        Energy =  48.90856014251910
    7     -75.9749420010      8.56e-07  
 Alpha HF Exchange    Energy =  -4.99456632516638
 Beta HF Exchange     Energy =  -4.31132962193765
 One-Electron (alpha) Energy = -66.57469149040820
 One-Electron (beta)  Energy = -59.76617874679695
 Total Coulomb        Energy =  48.90857177095307
    8     -75.9749420013      2.66e-07  
 Alpha HF Exchange    Energy =  -4.99456603470068
 Beta HF Exchange     Energy =  -4.31132986626474
 One-Electron (alpha) Energy = -66.57468835477276
 One-Electron (beta)  Energy = -59.76618487045137
 Total Coulomb        Energy =  48.90857471281850
    9     -75.9749420013      4.64e-08  
 Alpha HF Exchange    Energy =  -4.99456609167713
 Beta HF Exchange     Energy =  -4.31132984854591
 One-Electron (alpha) Energy = -66.57468906491120
 One-Electron (beta)  Energy = -59.76618404547135
 Total Coulomb        Energy =  48.90857463723313
   10     -75.9749420013      8.47e-09  Convergence criterion met
 ---------------------------------------
 Alpha HF Exchange    Energy =  -4.99456609167713
 Beta HF Exchange     Energy =  -4.31132984854591
 One-Electron (alpha) Energy = -66.57468906491120
 One-Electron (beta)  Energy = -59.76618404547135
 Total Coulomb        Energy =  48.90857463723313
 SCF time:   CPU 0.21s  wall 0.00s 
<S^2> =          0.776541257
 Alpha HF Exchange    Energy =  -4.99456609167713
 Beta HF Exchange     Energy =  -4.31132984854591
 One-Electron (alpha) Energy = -66.57468906491120
 One-Electron (beta)  Energy = -59.76618404547135
 Total Coulomb        Energy =  48.90857463723313
 Nuclear repulsion Energy =  10.76325241210562
 SCF   energy in the final basis set =      -75.9749420013
 Total energy in the final basis set =      -75.9749420013

 --------------------------------------------------------------

                    Orbital Energies (a.u.)
 --------------------------------------------------------------

 Alpha MOs
 -- Occupied --
-20.3599  -1.3510  -0.7007  -0.6107  -0.5125  -0.4521
 -- Virtual --
  0.5887   0.7413

 Beta MOs
 -- Occupied --
-20.3276  -1.2261  -0.6138  -0.5066  -0.4745
 -- Virtual --
  0.1819   0.6182   0.8228
 --------------------------------------------------------------

          Ground-State Mulliken Net Atomic Charges

     Atom                 Charge (a.u.)    Spin (a.u.)
  --------------------------------------------------------
      1 O                    -0.352627       0.894189
      2 H                     0.293297      -0.051507
      3 H                     0.080918      -0.201144
      4 H                    -0.021588       0.358462
  --------------------------------------------------------
  Sum of atomic charges =     0.000000
  Sum of spin   charges =     1.000000

 -----------------------------------------------------------------
                    Cartesian Multipole Moments
 -----------------------------------------------------------------
    Charge (ESU x 10^10)
                 0.0000
    Dipole Moment (Debye)
         X       0.0720      Y       1.7003      Z       0.0001
       Tot       1.7018
    Quadrupole Moments (Debye-Ang)
        XX      -6.5902     XY      -0.6423     YY      -6.1753
        XZ      -0.0000     YZ      -0.0000     ZZ      -7.7236
    Octopole Moments (Debye-Ang^2)
       XXX      -1.6753    XXY       0.4878    XYY      -1.1785
       YYY       1.2147    XXZ      -0.0002    XYZ      -0.0000
       YYZ       0.0000    XZZ      -0.6068    YZZ       0.0985
       ZZZ      -0.0000
    Hexadecapole Moments (Debye-Ang^3)
      XXXX     -26.4795   XXXY       0.3565   XXYY      -5.9265
      XYYY      -0.5661   YYYY      -6.1673   XXXZ      -0.0004
      XXYZ      -0.0000   XYYZ      -0.0000   YYYZ       0.0000
      XXZZ      -5.8488   XYZZ      -0.0387   YYZZ      -2.0359
      XZZZ      -0.0000   YZZZ       0.0000   ZZZZ      -4.8728
 -----------------------------------------------------------------
 Mayer SCF Bond Order, atomic valence on the diagonal:

            1           2           3           4
    1   1.2312059   0.9110961   0.2008064   0.1193034
    2   0.9110961   0.9113238   0.0003397  -0.0001120
    3   0.2008064   0.0003397   0.9529933   0.7518472
    4   0.1193034  -0.0001120   0.7518472   0.8710387


 Calculating analytic gradient of the SCF energy
 ------------------------------------------------------
 Correction for Bais Set Incompleteness Error in  HF-3c
 ------------------------------------------------------
 Gradient of SCF Energy
            1           2           3           4
    1   0.0417771   0.0063123  -0.0899405   0.0418510
    2   0.0354164  -0.0356456  -0.0119522   0.0121814
    3   0.0000014   0.0000001   0.0000128  -0.0000143
 Max gradient component =       8.994E-02
 RMS gradient           =       3.469E-02
 Gradient time:  CPU 0.04 s  wall 0.03 s
 Geometry Optimization Parameters
   NAtoms,    NIC,     NZ,  NCons,   NDum,   NFix, NCnnct, MaxDiis
        4      14       0       0       0       0       0       0

 Cartesian Hessian Update
 Hessian updated using Powell/Murtagh-Sargent update
  Mixing factors:     0.801377 Powell                      0.198623 Murtagh-Sargent


** GEOMETRY OPTIMIZATION IN DELOCALIZED INTERNAL COORDINATES **
   Searching for a Transition State

   Optimization Cycle:   6

                       Coordinates (Angstroms)
     ATOM                X               Y               Z
      1  O        -0.2928722498   -0.1049501287   -0.0000055329
      2  H        -0.4341763058    0.8529289845    0.0000150388
      3  H         1.0135934862   -0.1048705023    0.0001156675
      4  H         1.8209001364    0.1132308752   -0.0000711736
   Point Group: c1    Number of degrees of freedom:     6


   Energy is    -75.974942001

 Hessian updated using Powell/Murtagh-Sargent update
  Mixing factors:     0.951013 Powell                      0.048987 Murtagh-Sargent

  6 Hessian modes will be used to form the next step
  Hessian Eigenvalues:
    -0.002581    0.192877    0.200000    0.203963    0.298025    0.538807

 Transition state search - taking P-RFO step
 Searching for Lamda that Maximizes Along the Lowest mode
 Value Taken    Lamda =   0.05405414
 Searching for Lamda that Minimizes Along All other modes
 Value Taken    Lamda =  -0.00701379
 Calculated Step too Large.  Step scaled by  0.010113
 Step Taken.  Stepsize is  0.010000

                             Maximum     Tolerance    Cnvgd?
         Gradient           0.063686      0.000300      NO
         Displacement       0.008524      0.001200      NO
         Energy change      0.000437      0.000001      NO


 New Cartesian Coordinates Obtained by Inverse Iteration

 Displacement from previous Coordinates is:  0.006682
 Adding empirical dispersion correction 
 ----------------------------------------------------------------
 Doing -D3(BJ) with
 s6  =   1.00000
 s8  =   0.87770
 a1  =   0.41710
 a2  =   2.91490
 -D3 energy without 3body term =     -0.0048021662 hartrees
 ----------------------------------------------------------------
 Adding gCP correction 
 ----------------------------------------------------------------
 gCP energy =      0.0255427509 hartrees
 ------------------------------------------------------
 Correction for Bais Set Incompleteness Error in  HF-3c
 ------------------------------------------------------
 SRB energy =     -0.0229199409 hartrees
 ----------------------------------------------------------------
             Standard Nuclear Orientation (Angstroms)
    I     Atom           X                Y                Z
 ----------------------------------------------------------------
    1      O      -0.2906796840    -0.1045216818    -0.0000041196
    2      H      -0.4341126153     0.8532028414     0.0000144902
    3      H       1.0119690376    -0.1066619379     0.0001136904
    4      H       1.8202683287     0.1143200070    -0.0000700612
 ----------------------------------------------------------------
 Nuclear Repulsion Energy =          10.77342015 hartrees
 There are        6 alpha and        5 beta electrons
 Applying Cartesian multipole field
    Component          Value
    ---------          -----
     (2,0,0)        1.00000E-11
     (0,2,0)        2.00000E-10
     (0,0,2)       -3.00000E-10
 Nucleus-field energy     =     0.0000000008 hartrees
 Requested basis set is MINIX
 There are 6 shells and 8 basis functions
 A cutoff of  1.0D-11 yielded     21 shell pairs
 There are        39 function pairs
 Smallest overlap matrix eigenvalue = 3.14E-01
 Guess MOs from SCF MO coefficient file

 -----------------------------------------------------------------------
  General SCF calculation program by
  Eric Jon Sundstrom, Paul Horn, Yuezhi Mao, Dmitri Zuev, Alec White,
  David Stuck, Shaama M.S., Shane Yost, Joonho Lee, David Small,
  Daniel Levine, Susi Lehtola, Hugh Burton, Evgeny Epifanovsky,
  Bang C. Huynh
 -----------------------------------------------------------------------
 Hartree-Fock
 Dispersion:   Grimme D3
 using 8 threads for integral computing
 -------------------------------------------------------
 OpenMP Integral computing Module                
 Release: version 1.0, May 2013, Q-Chem Inc. Pittsburgh 
 -------------------------------------------------------
 A unrestricted SCF calculation will be
 performed using DIIS
 SCF converges when DIIS error is below 1.0e-08
 Alpha HF Exchange    Energy =  -4.99458473457019
 Beta HF Exchange     Energy =  -4.31144372954279
[...]
 -------------------------------------------------------
 A unrestricted SCF calculation will be
 performed using DIIS
 SCF converges when DIIS error is below 1.0e-08
 Alpha HF Exchange    Energy =  -4.95248340151952
 Beta HF Exchange     Energy =  -4.37073826126114
 One-Electron (alpha) Energy = -66.29143099495448
 One-Electron (beta)  Energy = -61.13121226740512
 Total Coulomb        Energy =  49.59695987229249
 ---------------------------------------
  Cycle       Energy         DIIS error
 ---------------------------------------
    1     -75.9582264537      9.09e-06  
 Alpha HF Exchange    Energy =  -4.95248340064621
 Beta HF Exchange     Energy =  -4.37073826583258
 One-Electron (alpha) Energy = -66.29143097916781
 One-Electron (beta)  Energy = -61.13121230929230
 Total Coulomb        Energy =  49.59695989371190
    2     -75.9582264621      3.93e-06  
 Alpha HF Exchange    Energy =  -4.95248339957702
 Beta HF Exchange     Energy =  -4.37073826537181
 One-Electron (alpha) Energy = -66.29143095807497
 One-Electron (beta)  Energy = -61.13121231655295
 Total Coulomb        Energy =  49.59695987544853
    3     -75.9582264650      2.50e-06  
 Alpha HF Exchange    Energy =  -4.95248340043357
 Beta HF Exchange     Energy =  -4.37073826439222
 One-Electron (alpha) Energy = -66.29143095849673
 One-Electron (beta)  Energy = -61.13121233361704
 Total Coulomb        Energy =  49.59695989032963
    4     -75.9582264675      4.54e-07  
 Alpha HF Exchange    Energy =  -4.95248339887121
 Beta HF Exchange     Energy =  -4.37073826073402
 One-Electron (alpha) Energy = -66.29143095127883
 One-Electron (beta)  Energy = -61.13121230305930
 Total Coulomb        Energy =  49.59695984724970
    5     -75.9582264676      1.65e-08  
 Alpha HF Exchange    Energy =  -4.95248340063924
 Beta HF Exchange     Energy =  -4.37073826207844
 One-Electron (alpha) Energy = -66.29143097124040
 One-Electron (beta)  Energy = -61.13121231816406
 Total Coulomb        Energy =  49.59695988542941
    6     -75.9582264676      1.52e-09  Convergence criterion met
 ---------------------------------------
 Alpha HF Exchange    Energy =  -4.95248340063924
 Beta HF Exchange     Energy =  -4.37073826207844
 One-Electron (alpha) Energy = -66.29143097124040
 One-Electron (beta)  Energy = -61.13121231816406
 Total Coulomb        Energy =  49.59695988542941
 SCF time:   CPU 0.15s  wall 0.00s 
<S^2> =          0.789523087
 Alpha HF Exchange    Energy =  -4.95248340063924
 Beta HF Exchange     Energy =  -4.37073826207844
 One-Electron (alpha) Energy = -66.29143097124040
 One-Electron (beta)  Energy = -61.13121231816406
 Total Coulomb        Energy =  49.59695988542941
 Nuclear repulsion Energy =  11.19067859911202
 SCF   energy in the final basis set =      -75.9582264676
 Total energy in the final basis set =      -75.9582264676

 --------------------------------------------------------------

                    Orbital Energies (a.u.)
 --------------------------------------------------------------

 Alpha MOs
 -- Occupied --
-20.3059  -1.3116  -0.7018  -0.5639  -0.4744  -0.4375
 -- Virtual --
  0.5969   0.7391

 Beta MOs
 -- Occupied --
-20.2859  -1.2416  -0.6142  -0.4862  -0.4522
 -- Virtual --
  0.1736   0.6190   0.8439
 --------------------------------------------------------------

          Ground-State Mulliken Net Atomic Charges

     Atom                 Charge (a.u.)    Spin (a.u.)
  --------------------------------------------------------
      1 O                    -0.482678       0.528804
      2 H                     0.275109      -0.028680
      3 H                     0.180072      -0.234020
      4 H                     0.027498       0.733896
  --------------------------------------------------------
  Sum of atomic charges =    -0.000000
  Sum of spin   charges =     1.000000

 -----------------------------------------------------------------
                    Cartesian Multipole Moments
 -----------------------------------------------------------------
    Charge (ESU x 10^10)
                -0.0000
    Dipole Moment (Debye)
         X       1.0903      Y       1.7296      Z      -0.0002
       Tot       2.0446
    Quadrupole Moments (Debye-Ang)
        XX      -5.6874     XY      -0.7489     YY      -6.2135
        XZ      -0.0004     YZ      -0.0001     ZZ      -7.6537
    Octopole Moments (Debye-Ang^2)
       XXX      -0.5840    XXY       0.4551    XYY      -1.2521
       YYY       1.2525    XXZ      -0.0004    XYZ      -0.0001
       YYZ       0.0006    XZZ      -0.7286    YZZ       0.1308
       ZZZ       0.0016
    Hexadecapole Moments (Debye-Ang^3)
      XXXX     -22.7492   XXXY       0.0822   XXYY      -5.4838
      XYYY      -0.5548   YYYY      -6.2027   XXXZ       0.0023
      XXYZ      -0.0001   XYYZ       0.0016   YYYZ       0.0003
      XXZZ      -5.3427   XYZZ      -0.0293   YYZZ      -2.0170
      XZZZ       0.0048   YZZZ       0.0003   ZZZZ      -4.7851
 -----------------------------------------------------------------
 Mayer SCF Bond Order, atomic valence on the diagonal:

            1           2           3           4
    1   1.6501226   0.9195485   0.5900739   0.1405003
    2   0.9195485   0.9234927   0.0032694   0.0006749
    3   0.5900739   0.0032694   0.9128088   0.3194656
    4   0.1405003   0.0006749   0.3194656   0.4606407


 Calculating analytic gradient of the SCF energy
 ------------------------------------------------------
 Correction for Bais Set Incompleteness Error in  HF-3c
 ------------------------------------------------------
 Gradient of SCF Energy
            1           2           3           4
    1   0.0001662   0.0000163  -0.0002849   0.0001024
    2   0.0001047  -0.0000923  -0.0000334   0.0000210
    3  -0.0000148   0.0000022   0.0000269  -0.0000142
 Max gradient component =       2.849E-04
 RMS gradient           =       1.087E-04
 Gradient time:  CPU 0.05 s  wall 0.03 s
Dipole drv :
gprntSymmMtrx error report: 
 Final Hessian.
            1           2           3           4           5           6
    1   0.1590071  -0.1377400   0.0000039  -0.0769945   0.1736530  -0.0000086
    2  -0.1377400   0.6181326  -0.0000352   0.0866488  -0.5715429   0.0000341
    3   0.0000039  -0.0000352   0.0081265  -0.0000031   0.0000318  -0.0011483
    4  -0.0769945   0.0866488  -0.0000031   0.0911688  -0.1361526   0.0000062
    5   0.1736530  -0.5715429   0.0000318  -0.1361526   0.5726638  -0.0000329
    6  -0.0000086   0.0000341  -0.0011483   0.0000062  -0.0000329   0.0001241
    7   0.1261757   0.0739763  -0.0000093  -0.0146594  -0.0509941   0.0000030
    8  -0.0009548  -0.0483871   0.0000022   0.0487538  -0.0043176  -0.0000010
    9  -0.0000035   0.0000002  -0.0148413  -0.0000028   0.0000017   0.0021667
   10  -0.2081926  -0.0228860   0.0000068   0.0004853   0.0134941  -0.0000005
   11  -0.0349601   0.0017955   0.0000012   0.0007492   0.0031972  -0.0000002
   12   0.0000071   0.0000007   0.0078622  -0.0000003  -0.0000005  -0.0011419
            7           8           9          10          11          12
    1   0.1261757  -0.0009548  -0.0000035  -0.2081926  -0.0349601   0.0000071
    2   0.0739763  -0.0483871   0.0000002  -0.0228860   0.0017955   0.0000007
    3  -0.0000093   0.0000022  -0.0148413   0.0000068   0.0000012   0.0078622
    4  -0.0146594   0.0487538  -0.0000028   0.0004853   0.0007492  -0.0000003
    5  -0.0509941  -0.0043176   0.0000017   0.0134941   0.0031972  -0.0000005
    6   0.0000030  -0.0000010   0.0021667  -0.0000005  -0.0000002  -0.0011419
    7  -0.3042867  -0.0542744   0.0000136   0.1927772   0.0312969  -0.0000053
    8  -0.0542744   0.0667554  -0.0000011   0.0064762  -0.0140493   0.0000000
    9   0.0000136  -0.0000011   0.0269266  -0.0000060  -0.0000009  -0.0142521
   10   0.1927772   0.0064762  -0.0000060   0.0149274   0.0029137  -0.0000011
   11   0.0312969  -0.0140493  -0.0000009   0.0029137   0.0090564  -0.0000003
   12  -0.0000053   0.0000000  -0.0142521  -0.0000011  -0.0000003   0.0075318
 Adding empirical dispersion correction 
 ----------------------------------------------------------------
 Doing -D3(BJ) with
 s6  =   1.00000
 s8  =   0.87770
 a1  =   0.41710
 a2  =   2.91490
 -D3 energy without 3body term =     -0.0051619733 hartrees
 ----------------------------------------------------------------
 Adding gCP correction 
 ----------------------------------------------------------------
 gCP energy =      0.0277324444 hartrees
 ------------------------------------------------------
 Correction for Bais Set Incompleteness Error in  HF-3c
 ------------------------------------------------------
 SRB energy =     -0.0262499313 hartrees
 ----------------------------------------------------------------
             Standard Nuclear Orientation (Angstroms)
    I     Atom           X                Y                Z
 ----------------------------------------------------------------
    1      O      -0.2146056460    -0.1121287895     0.0000523815
    2      H      -0.4439341444     0.8471573021    -0.0000027146
    3      H       0.8996656865    -0.0780280553     0.0000199379
    4      H       1.8663191709     0.0993387714    -0.0000156050
 ----------------------------------------------------------------
 Nuclear Repulsion Energy =          11.19067918 hartrees
 There are        6 alpha and        5 beta electrons
 old dipole drv.
            1           2           3           4           5           6
    1   0.3649662   0.2331443  -0.0000345   0.3024304  -0.1662450   0.0000073
    2   0.0291767  -0.2371565  -0.0000265  -0.0019427   0.0426232   0.0000212
    3  -0.0000285  -0.0000308  -0.6217806   0.0000019   0.0000248   0.3621809
            7           8           9          10          11          12
    1  -1.2963861  -0.1239717   0.0000495   0.6290244   0.0571224  -0.0000095
    2  -0.0297865   0.1762616   0.0000049   0.0025501   0.0182720   0.0000002
    3   0.0000417   0.0000074   0.2380991  -0.0000164  -0.0000014   0.0215005
 New transposed dipole drv.
            1           2           3
    1   0.3649662   0.0291767  -0.0000285
    2   0.2331443  -0.2371565  -0.0000308
    3  -0.0000345  -0.0000265  -0.6217806
    4   0.3024304  -0.0019427   0.0000019
    5  -0.1662450   0.0426232   0.0000248
    6   0.0000073   0.0000212   0.3621809
    7  -1.2963861  -0.0297865   0.0000417
    8  -0.1239717   0.1762616   0.0000074
    9   0.0000495   0.0000049   0.2380991
   10   0.6290244   0.0025501  -0.0000164
   11   0.0571224   0.0182720  -0.0000014
   12  -0.0000095   0.0000002   0.0215005
FINAL TENSOR RESULT:
Order 2, Length 12
    Atom      X          Y          Z
     1 Order 1, Length 12
    Atom      X          Y          Z
     1    1.590071455973828e-01  -1.377399994348839e-01   3.877535514080020e-06
     2   -7.699447152182003e-02   1.736530128302467e-01  -8.593259196582734e-06
     3    1.261757290255559e-01  -9.548112080208448e-04  -3.527494130399772e-06
     4   -2.081926343848682e-01  -3.496007564277822e-02   7.122357696813472e-06

Order 1, Length 12
    Atom      X          Y          Z
     1   -1.377399994348839e-01   6.181326438799654e-01  -3.522695713036505e-05
     2    8.664881583690044e-02  -5.715428544597471e-01   3.407680511508080e-05
     3    7.397632959328226e-02  -4.838707444904899e-02   2.483713481627367e-07
     4   -2.288602801555280e-02   1.795537425163703e-03   6.957640282032370e-07

Order 1, Length 12
    Atom      X          Y          Z
     1    3.877535514080020e-06  -3.522695713036505e-05   8.126531400504100e-03
     2   -3.077027359424132e-06   3.180290458237627e-05  -1.148302681928931e-03
     3   -9.339288564669997e-06   2.214209755268487e-06  -1.484125571387380e-02
     4    6.764951455154966e-06   1.210838626185932e-06   7.862228618496326e-03


     2 Order 1, Length 12
    Atom      X          Y          Z
     1   -7.699447152182003e-02   8.664881583690044e-02  -3.077027359424132e-06
     2    9.116879384002888e-02  -1.361526379854235e-01   6.224902801332568e-06
     3   -1.465943409667791e-02   4.875380227257451e-02  -2.839008720028230e-06
     4    4.853079630327817e-04   7.491788889550137e-04  -3.431782026425397e-07

Order 1, Length 12
    Atom      X          Y          Z
     1    1.736530128302467e-01  -5.715428544597471e-01   3.180290458237627e-05
     2   -1.361526379854235e-01   5.726637656364462e-01  -3.287936087151766e-05
     3   -5.099405208819342e-02  -4.317635489445330e-03   1.703116756695192e-06
     4    1.349413902828843e-02   3.197189568932846e-03  -4.681727731322954e-07

Order 1, Length 12
    Atom      X          Y          Z
     1   -8.593259196582734e-06   3.407680511508080e-05  -1.148302681928931e-03
     2    6.224902801332568e-06  -3.287936087151766e-05   1.241394660745772e-04
     3    3.021234309855705e-06  -9.686330164191560e-07   2.166719152280329e-03
     4   -5.473334316262386e-07  -2.287851005195434e-07  -1.141903639663266e-03


     3 Order 1, Length 12
    Atom      X          Y          Z
     1    1.261757290255559e-01   7.397632959328226e-02  -9.339288564669997e-06
     2   -1.465943409667791e-02  -5.099405208819342e-02   3.021234309855705e-06
     3   -3.042866850286942e-01  -5.427444655226073e-02   1.363123532539806e-05
     4    1.927771827108640e-01   3.129687132154498e-02  -5.266994855059280e-06

Order 1, Length 12
    Atom      X          Y          Z
     1   -9.548112080208448e-04  -4.838707444904899e-02   2.214209755268487e-06
     2    4.875380227257451e-02  -4.317635489445330e-03  -9.686330164191560e-07
     3   -5.427444655226073e-02   6.675539352300491e-02  -1.089700372849690e-06
     4    6.476179964749683e-03  -1.404926510378381e-02   2.373358309521259e-08

Order 1, Length 12
    Atom      X          Y          Z
     1   -3.527494130399772e-06   2.483713481627367e-07  -1.484125571387380e-02
     2   -2.839008720028230e-06   1.703116756695192e-06   2.166719152280329e-03
     3    1.363123532539806e-05  -1.089700372849690e-06   2.692664974011063e-02
     4   -5.994408874902674e-06  -8.626849795622542e-07  -1.425205987775458e-02


     4 Order 1, Length 12
    Atom      X          Y          Z
     1   -2.081926343848682e-01  -2.288602801555280e-02   6.764951455154966e-06
     2    4.853079630327817e-04   1.349413902828843e-02  -5.473334316262386e-07
     3    1.927771827108640e-01   6.476179964749683e-03  -5.994408874902674e-06
     4    1.492738619880099e-02   2.913721190937598e-03  -1.114228300562052e-06

Order 1, Length 12
    Atom      X          Y          Z
     1   -3.496007564277822e-02   1.795537425163703e-03   1.210838626185932e-06
     2    7.491788889550137e-04   3.197189568932846e-03  -2.287851005195434e-07
     3    3.129687132154498e-02  -1.404926510378381e-02  -8.626849795622542e-07
     4    2.913721190937598e-03   9.056401978468390e-03  -2.514504620951768e-07

Order 1, Length 12
    Atom      X          Y          Z
     1    7.122357696813472e-06   6.957640282032370e-07   7.862228618496326e-03
     2   -3.431782026425397e-07  -4.681727731322954e-07  -1.141903639663266e-03
     3   -5.266994855059280e-06   2.373358309521259e-08  -1.425205987775458e-02
     4   -1.114228300562052e-06  -2.514504620951768e-07   7.531827674797394e-03




 # Finishing finite difference calculation for IDERIV #
 ######################################################
 ######################################################
 Requested basis set is MINIX
 There are 6 shells and 8 basis functions
 **********************************************************************
 **                                                                  **
 **                       VIBRATIONAL ANALYSIS                       **
 **                       --------------------                       **
 **                                                                  **
 **        VIBRATIONAL FREQUENCIES (CM**-1) AND NORMAL MODES         **
 **     FORCE CONSTANTS (mDYN/ANGSTROM) AND REDUCED MASSES (AMU)     **
 **                  INFRARED INTENSITIES (KM/MOL)                   **
 **                                                                  **
 **********************************************************************


 Mode:                 1                      2                      3
 Frequency:     -3288.53                 759.69                 960.10
 Force Cnst:      6.5206                 0.3463                 0.5551
 Red. Mass:       1.0234                 1.0186                 1.0220
 IR Active:          YES                    YES                    YES
 IR Intens:     2021.934                 33.551                 57.223
 Raman Active:       YES                    YES                    YES
               X      Y      Z        X      Y      Z        X      Y      Z
 O         -0.032 -0.006  0.000   -0.024 -0.011  0.000   -0.000 -0.000 -0.031
 H          0.029  0.059 -0.000    0.613  0.141 -0.000   -0.000  0.000  0.071
 H          0.895  0.102 -0.000   -0.037 -0.511  0.000    0.000  0.000  0.882
 H         -0.423 -0.063  0.000   -0.192  0.552 -0.000   -0.000 -0.000 -0.465
 TransDip  -1.440 -0.008  0.000    0.171 -0.072  0.000    0.000  0.000  0.242

 Mode:                 4                      5                      6
 Frequency:      1658.70                1886.79                4125.12
 Force Cnst:      1.8547                 2.1731                10.6928
 Red. Mass:       1.1442                 1.0361                 1.0665
 IR Active:          YES                    YES                    YES
 IR Intens:       43.596                 30.363                 31.125
 Raman Active:       YES                    YES                    YES
               X      Y      Z        X      Y      Z        X      Y      Z
 O         -0.086 -0.042  0.000   -0.032  0.030 -0.000    0.019 -0.060  0.000
 H          0.486  0.128 -0.000   -0.424 -0.065  0.000   -0.248  0.965 -0.000
 H          0.193  0.484 -0.000    0.353 -0.574  0.000   -0.049 -0.018  0.000
 H          0.681  0.052 -0.000    0.576  0.169 -0.000    0.001  0.001 -0.000
 TransDip   0.192  0.088 -0.000   -0.134 -0.115  0.000   -0.171  0.053  0.000

 STANDARD THERMODYNAMIC QUANTITIES AT   298.15 K  AND     1.00 ATM

   This Molecule has  1 Imaginary Frequencies
   Zero point vibrational energy:       13.424 kcal/mol

   Atom    1 Element O  Has Mass   15.99491
   Atom    2 Element H  Has Mass    1.00783
   Atom    3 Element H  Has Mass    1.00783
   Atom    4 Element H  Has Mass    1.00783
   Molecular Mass:    19.018400 amu
   Principal axes and moments of inertia in amu*Bohr^2:
                             1           2           3
    Eigenvalues --        3.19622    18.56883    21.76505
          X               0.99987    -0.01608     0.00003
          Y               0.01608     0.99987     0.00006
          Z              -0.00003    -0.00006     1.00000
   Rotational Symmetry Number is   1
   The Molecule is an Asymmetric Top
   Translational Enthalpy:        0.889 kcal/mol
   Rotational Enthalpy:           0.889 kcal/mol
   Vibrational Enthalpy:         13.510 kcal/mol
   gas constant (RT):             0.592 kcal/mol
   Translational Entropy:        34.770  cal/mol.K
   Rotational Entropy:           14.921  cal/mol.K
   Vibrational Entropy:           0.361  cal/mol.K

   Total Enthalpy:               15.880 kcal/mol
   Total Entropy:                50.052  cal/mol.K
Archival summary:
1\1\C-node1\FREQ\HF\BasisUnspecified\13(2)\pierpa\FriOct3010:25:052020FriOct3010:25:052020\0\\#,FREQ,HF,BasisUnspecified,\\0,2\O\H,1,0.986317\H,1,1.11479,2,101.692\H,3,0.982791,1,171.356,2,0,0\\HF=-75.9582265\\@

 Total job time:  3.81s(wall), 7.26s(cpu) 
 Fri Oct 30 10:25:05 2020

        *************************************************************
        *                                                           *
        *  Thank you very much for using Q-Chem.  Have a nice day.  *
        *                                                           *
        *************************************************************


