                  Welcome to Q-Chem
     A Quantum Leap Into The Future Of Chemistry


 Q-Chem 5.3 (devel), Q-Chem, Inc., Pleasanton, CA (2020)

 Yihan Shao,  Zhengting Gan,  E. Epifanovsky,  A. T. B. Gilbert,  M. Wormit,  
 J. Kussmann,  A. W. Lange,  A. Behn,  Jia Deng,  Xintian Feng,  D. Ghosh,  
 M. Goldey,  P. R. Horn,  L. D. Jacobson,  I. Kaliman,  T. Kus,  A. Landau,  
 Jie Liu,  E. I. Proynov,  R. M. Richard,  R. P. Steele,  E. J. Sundstrom,  
 H. L. Woodcock III,  P. M. Zimmerman,  D. Zuev,  B. Alam,  B. Albrecht,  
 A. Aldossary,  E. Alguire,  S. A. Baeppler,  D. Barton,  Z. Benda,  
 Y. A. Bernard,  E. J. Berquist,  K. B. Bravaya,  H. Burton,  K. Carter-Fenk,  
 D. Casanova,  Chun-Min Chang,  Yunqing Chen,  A. Chien,  K. D. Closser,  
 M. P. Coons,  S. Coriani,  S. Dasgupta,  A. L. Dempwolff,  M. Diedenhofen,  
 Hainam Do,  R. G. Edgar,  Po-Tung Fang,  S. Faraji,  S. Fatehi,  
 Qingguo Feng,  J. Fosso-Tande,  J. Gayvert,  Qinghui Ge,  A. Ghysels,  
 G. Gidofalvi,  J. Gomes,  J. Gonthier,  S. Gulania,  A. Gunina,  D. Hait,  
 M. W. D. Hanson-Heine,  S. Hammes-Schiffer,  P. H. P. Harbach,  
 A. W. Hauser,  M. F. Herbst,  J. E. Herr,  E. G. Hohenstein,  Z. C. Holden,  
 S. Houck,  Kerwin Hui,  B. C. Huynh,  M. Ivanov,  T.-C. Jagau,  Hyunjun Ji,  
 B. Kaduk,  K. Khistyaev,  Jaehoon Kim,  P. Klunzinger,  K. Koh,  
 D. Kosenkov,  L. Koulias,  T. Kowalczyk,  C. M. Krauter,  A. Kunitsa,  
 Ka Un Lao,  A. Laurent,  K. V. Lawler,  Joonho Lee,  D. Lefrancois,  
 S. Lehtola,  D. S. Levine,  Yi-Pei Li,  You-Sheng Lin,  Fenglai Liu,  
 Kuan-Yu Liu,  E. Livshits,  M. Loipersberger,  A. Luenser,  P. Manohar,  
 E. Mansoor,  S. F. Manzer,  Shan-Ping Mao,  Yuezhi Mao,  N. Mardirossian,  
 A. V. Marenich,  T. Markovich,  L. A. Martinez-Martinez,  S. A. Maurer,  
 N. J. Mayhall,  S. C. McKenzie,  J.-M. Mewes,  P. Morgante,  A. F. Morrison,  
 J. W. Mullinax,  K. Nanda,  T. S. Nguyen-Beck,  R. Olivares-Amaya,  
 K. J. Oosterbaan,  J. A. Parkhill,  S. K. Paul,  F. Pavosevic,  Zheng Pei,  
 T. M. Perrine,  F. Plasser,  P. Pokhilko,  S. Prager,  A. Prociuk,  
 E. Ramos,  B. Rana,  D. R. Rehn,  F. Rob,  E. Rossomme,  M. Scheurer,  
 M. Schneider,  N. Sergueev,  S. M. Sharada,  S. Sharma,  W. Skomorowski,  
 D. W. Small,  T. Stauch,  C. J. Stein,  T. Stein,  Yu-Chuan Su,  
 S. P. Veccham,  Zhen Tao,  A. J. W. Thom,  A. Tkatchenko,  T. Tsuchimochi,  
 N. M. Tubman,  L. Vogt,  M. L. Vidal,  O. Vydrov,  M. A. Watson,  J. Wenzel,  
 M. de Wergifosse,  T. A. Wesolowski,  A. White,  J. Witte,  A. Yamada,  
 Jun Yang,  K. Yao,  S. Yeganeh,  S. R. Yost,  Zhi-Qiang You,  A. Zech,  
 Igor Ying Zhang,  Xing Zhang,  Yan Zhao,  Ying Zhu,  B. R. Brooks,  
 G. K. L. Chan,  C. J. Cramer,  M. S. Gordon,  W. J. Hehre,  A. Klamt,  
 M. W. Schmidt,  C. D. Sherrill,  D. G. Truhlar,  A. Aspuru-Guzik,  R. Baer,  
 A. T. Bell,  N. A. Besley,  Jeng-Da Chai,  A. E. DePrince, III,  
 R. A. DiStasio Jr.,  A. Dreuw,  B. D. Dunietz,  T. R. Furlani,  
 Chao-Ping Hsu,  Yousung Jung,  Jing Kong,  D. S. Lambrecht,  WanZhen Liang,  
 C. Ochsenfeld,  V. A. Rassolov,  L. V. Slipchenko,  J. E. Subotnik,  
 T. Van Voorhis,  J. M. Herbert,  A. I. Krylov,  P. M. W. Gill,  M. Head-Gordon

 Contributors to earlier versions of Q-Chem not listed above: 
 R. D. Adamson,  B. Austin,  J. Baker,  G. J. O. Beran,  K. Brandhorst,  
 S. T. Brown,  E. F. C. Byrd,  A. K. Chakraborty,  C.-L. Cheng,  
 Siu Hung Chien,  D. M. Chipman,  D. L. Crittenden,  H. Dachsel,  
 R. J. Doerksen,  A. D. Dutoi,  L. Fusti-Molnar,  W. A. Goddard III,  
 A. Golubeva-Zadorozhnaya,  S. R. Gwaltney,  G. Hawkins,  A. Heyden,  
 S. Hirata,  G. Kedziora,  F. J. Keil,  C. Kelley,  Jihan Kim,  R. A. King,  
 R. Z. Khaliullin,  P. P. Korambath,  W. Kurlancheek,  A. M. Lee,  M. S. Lee,  
 S. V. Levchenko,  Ching Yeh Lin,  D. Liotard,  R. C. Lochan,  I. Lotan,  
 P. E. Maslen,  N. Nair,  D. P. O'Neill,  D. Neuhauser,  E. Neuscamman,  
 C. M. Oana,  R. Olson,  B. Peters,  R. Peverati,  P. A. Pieniazek,  
 Y. M. Rhee,  J. Ritchie,  M. A. Rohrdanz,  E. Rosta,  N. J. Russ,  
 H. F. Schaefer III,  N. E. Schultz,  N. Shenvi,  A. C. Simmonett,  A. Sodt,  
 D. Stuck,  K. S. Thanthiriwatte,  V. Vanovschi,  Tao Wang,  A. Warshel,  
 C. F. Williams,  Q. Wu,  X. Xu,  W. Zhang

 Please cite Q-Chem as follows:
 Y. Shao et al., Mol. Phys. 113, 184-215 (2015)
 DOI: 10.1080/00268976.2014.952696

 Q-Chem 5.3.1 for Intel X86 EM64T Linux

 Parts of Q-Chem use Armadillo 9.800.1 (Horizon Scraper).
 http://arma.sourceforge.net/

 Q-Chem begins on Fri Oct 30 10:27:02 2020  

Host: 
0

     Scratch files written to /data/scratch/MN_86_RKT10_BH76_HF_3c//
Processing $rem in /home/pierpa/qchem53/config/preferences:
Processing $rem in /home/pierpa/.qchemrc:

Checking the input file for inconsistencies... 	...done.

--------------------------------------------------------------
User input:
--------------------------------------------------------------
$Comment
Geometry optimizations for CLB18.
$End

$Rem
SYMMETRY              False
SYM_IGNORE            True
JOBTYPE               TS
METHOD                HF-3c
BASIS                 MINIX
GEOM_OPT_MAX_CYCLES   150
GEOM_OPT_DMAX         10
MAX_SCF_CYCLES        50
SCF_ALGORITHM         DIIS
SCF_PRINT             1
SCF_FINAL_PRINT       1
XC_GRID               000099000590
MEM_TOTAL             20000
MEM_STATIC            4000
BLAS3_DFT             True
New_DFT               True
$End

$Molecule
0 2
H 0.1465677996 -1.1283910254 0.0000000000
F 0.0000000000 0.3304219547 0.0000000000
H -0.1465677996 -1.8454102708 0.0000000000
$End

--------------------------------------------------------------
 Adding empirical dispersion correction 
 ----------------------------------------------------------------
 Doing -D3(BJ) with
 s6  =   1.00000
 s8  =   0.87770
 a1  =   0.41710
 a2  =   2.91490
 -D3 energy without 3body term =     -0.0023583435 hartrees
 ----------------------------------------------------------------
 Adding gCP correction 
 ----------------------------------------------------------------
 gCP energy =      0.0126430670 hartrees
 ------------------------------------------------------
 Correction for Bais Set Incompleteness Error in  HF-3c
 ------------------------------------------------------
 SRB energy =     -0.0055333215 hartrees
 ----------------------------------------------------------------
             Standard Nuclear Orientation (Angstroms)
    I     Atom           X                Y                Z
 ----------------------------------------------------------------
    1      H       0.1465677996    -1.1283910254     0.0000000000
    2      F       0.0000000000     0.3304219547     0.0000000000
    3      H      -0.1465677996    -1.8454102708     0.0000000000
 ----------------------------------------------------------------
 Nuclear Repulsion Energy =           6.12015438 hartrees
 There are        6 alpha and        5 beta electrons
 Requested basis set is MINIX
 There are 5 shells and 7 basis functions

 Total QAlloc Memory Limit  20000 MB
 Mega-Array Size      3911 MB
 MEM_STATIC part      4000 MB
 A cutoff of  1.0D-11 yielded     15 shell pairs
 There are        31 function pairs
 Smallest overlap matrix eigenvalue = 3.32E-01

 Scale SEOQF with 1.000000e+00/1.000000e-01/1.000000e+00

 Standard Electronic Orientation quadrupole field applied
 Nucleus-field energy     =     0.0000000004 hartrees
 Guess from superposition of atomic densities
 Warning:  Energy on first SCF cycle will be non-variational
 SAD guess density has 11.000000 electrons

 -----------------------------------------------------------------------
  General SCF calculation program by
  Eric Jon Sundstrom, Paul Horn, Yuezhi Mao, Dmitri Zuev, Alec White,
  David Stuck, Shaama M.S., Shane Yost, Joonho Lee, David Small,
  Daniel Levine, Susi Lehtola, Hugh Burton, Evgeny Epifanovsky,
  Bang C. Huynh
 -----------------------------------------------------------------------
 Hartree-Fock
 Dispersion:   Grimme D3
 using 8 threads for integral computing
 -------------------------------------------------------
 OpenMP Integral computing Module                
 Release: version 1.0, May 2013, Q-Chem Inc. Pittsburgh 
 -------------------------------------------------------
 A unrestricted SCF calculation will be
 performed using DIIS
 SCF converges when DIIS error is below 1.0e-08
 Alpha HF Exchange    Energy =  -5.14996862715100
 Beta HF Exchange     Energy =  -5.14996862715100
 One-Electron (alpha) Energy = -76.00326737016337
 One-Electron (beta)  Energy = -76.00326737016337
 Total Coulomb        Energy =  56.98047457408573
 ---------------------------------------
  Cycle       Energy         DIIS error
 ---------------------------------------
    1     -99.2058430384      6.80e-02  
 Alpha HF Exchange    Energy =  -5.77371249508021
 Beta HF Exchange     Energy =  -5.16508273869441
 One-Electron (alpha) Energy = -80.27543121938238
 One-Electron (beta)  Energy = -74.85235002892946
 Total Coulomb        Energy =  60.25845675758158
    2     -99.6879653424      3.48e-02  
 Alpha HF Exchange    Energy =  -5.75464536777286
 Beta HF Exchange     Energy =  -5.01825273401269
 One-Electron (alpha) Energy = -80.08712899624882
 One-Electron (beta)  Energy = -73.09197380450622
 Total Coulomb        Energy =  58.01049572216878
    3     -99.8213507983      1.89e-02  
 Alpha HF Exchange    Energy =  -5.77061241708937
 Beta HF Exchange     Energy =  -4.99994015921023
 One-Electron (alpha) Energy = -80.19388860886164
 One-Electron (beta)  Energy = -72.39767233339369
 Total Coulomb        Energy =  57.38445347263400
    4     -99.8575056638      8.99e-03  
 Alpha HF Exchange    Energy =  -5.78282053688959
 Beta HF Exchange     Energy =  -4.99896365998925
 One-Electron (alpha) Energy = -80.28377751533182
 One-Electron (beta)  Energy = -72.02128352798726
 Total Coulomb        Energy =  57.10024538926625
    5     -99.8664454688      1.79e-03  
 Alpha HF Exchange    Energy =  -5.78108449376129
 Beta HF Exchange     Energy =  -4.99795035221337
 One-Electron (alpha) Energy = -80.28242635315458
 One-Electron (beta)  Energy = -72.01700462721740
 Total Coulomb        Energy =  57.09165844557366
    6     -99.8666529987      1.03e-03  
 Alpha HF Exchange    Energy =  -5.78194307445036
 Beta HF Exchange     Energy =  -4.99754355576544
 One-Electron (alpha) Energy = -80.30082049486155
 One-Electron (beta)  Energy = -71.97800182110082
 Total Coulomb        Energy =  57.07135736973682
    7     -99.8667971943      2.64e-04  
 Alpha HF Exchange    Energy =  -5.78205970710114
 Beta HF Exchange     Energy =  -4.99746832042424
 One-Electron (alpha) Energy = -80.30391275859634
 One-Electron (beta)  Energy = -71.98031982013512
 Total Coulomb        Energy =  57.07680032172939
    8     -99.8668059024      1.63e-04  
 Alpha HF Exchange    Energy =  -5.78207118285943
 Beta HF Exchange     Energy =  -4.99745469060960
 One-Electron (alpha) Energy = -80.30404815160207
 One-Electron (beta)  Energy = -71.97769106039549
 Total Coulomb        Energy =  57.07430070872611
    9     -99.8668099946      1.46e-04  
 Alpha HF Exchange    Energy =  -5.78206349466451
 Beta HF Exchange     Energy =  -4.99742426144095
 One-Electron (alpha) Energy = -80.30414484739042
 One-Electron (beta)  Energy = -71.97712020513411
 Total Coulomb        Energy =  57.07377872581254
   10     -99.8668197007      1.34e-04  
 Alpha HF Exchange    Energy =  -5.78208006447997
 Beta HF Exchange     Energy =  -4.99724440234531
 One-Electron (alpha) Energy = -80.30433888573121
 One-Electron (beta)  Energy = -71.97188063800455
 Total Coulomb        Energy =  57.06852384905491
   11     -99.8668657594      6.01e-05  
 Alpha HF Exchange    Energy =  -5.78204079012155
 Beta HF Exchange     Energy =  -4.99721656407284
 One-Electron (alpha) Energy = -80.30420816929851
 One-Electron (beta)  Energy = -71.97307272344875
 Total Coulomb        Energy =  57.06951774321321
   12     -99.8668661216      1.18e-05  
 Alpha HF Exchange    Energy =  -5.78204659093801
 Beta HF Exchange     Energy =  -4.99721141164356
 One-Electron (alpha) Energy = -80.30431814502629
 One-Electron (beta)  Energy = -71.97330381080286
 Total Coulomb        Energy =  57.06985944083402
   13     -99.8668661355      1.56e-07  
 Alpha HF Exchange    Energy =  -5.78204671146176
 Beta HF Exchange     Energy =  -4.99721142922327
 One-Electron (alpha) Energy = -80.30431908187701
 One-Electron (beta)  Energy = -71.97329945692651
 Total Coulomb        Energy =  57.06985616190835
   14     -99.8668661355      9.14e-08  
 Alpha HF Exchange    Energy =  -5.78204660452292
 Beta HF Exchange     Energy =  -4.99721137505757
 One-Electron (alpha) Energy = -80.30431835392547
 One-Electron (beta)  Energy = -71.97330051262600
 Total Coulomb        Energy =  57.06985632854284
   15     -99.8668661355      1.75e-09  Convergence criterion met
 ---------------------------------------
 Alpha HF Exchange    Energy =  -5.78204660452292
 Beta HF Exchange     Energy =  -4.99721137505757
 One-Electron (alpha) Energy = -80.30431835392547
 One-Electron (beta)  Energy = -71.97330051262600
 Total Coulomb        Energy =  57.06985632854284
 SCF time:   CPU 0.34s  wall 0.00s 
<S^2> =          0.756793389
 Alpha HF Exchange    Energy =  -5.78204660452292
 Beta HF Exchange     Energy =  -4.99721137505757
 One-Electron (alpha) Energy = -80.30431835392547
 One-Electron (beta)  Energy = -71.97330051262600
 Total Coulomb        Energy =  57.06985632854284
 Nuclear repulsion Energy =   6.12015438211571
 SCF   energy in the final basis set =      -99.8668661355
 Total energy in the final basis set =      -99.8668661355

 --------------------------------------------------------------

                    Orbital Energies (a.u.)
 --------------------------------------------------------------

 Alpha MOs
 -- Occupied --
-26.1033  -1.6157  -0.7909  -0.6619  -0.6614  -0.5419
 -- Virtual --
  0.6936

 Beta MOs
 -- Occupied --
-26.0658  -1.4472  -0.6195  -0.6172  -0.5718
 -- Virtual --
  0.1484   0.7431
 --------------------------------------------------------------

          Ground-State Mulliken Net Atomic Charges

     Atom                 Charge (a.u.)    Spin (a.u.)
  --------------------------------------------------------
      1 H                     0.024490      -0.104655
      2 F                    -0.032522       0.938654
      3 H                     0.008031       0.166001
  --------------------------------------------------------
  Sum of atomic charges =    -0.000000
  Sum of spin   charges =     1.000000

 -----------------------------------------------------------------
                    Cartesian Multipole Moments
 -----------------------------------------------------------------
    Charge (ESU x 10^10)
                -0.0000
    Dipole Moment (Debye)
         X       0.0148      Y      -0.2272      Z       0.0000
       Tot       0.2277
    Quadrupole Moments (Debye-Ang)
        XX      -6.1661     XY       0.1591     YY      -5.0386
        XZ      -0.0000     YZ      -0.0000     ZZ      -6.2328
    Octopole Moments (Debye-Ang^2)
       XXX       0.0077    XXY       1.0096    XYY      -0.4297
       YYY       2.1731    XXZ      -0.0000    XYZ      -0.0000
       YYZ      -0.0000    XZZ       0.0025    YZZ       1.1060
       ZZZ      -0.0000
    Hexadecapole Moments (Debye-Ang^3)
      XXXX      -3.4884   XXXY      -0.1740   XXYY      -5.4183
      XYYY       0.8596   YYYY     -24.2102   XXXZ      -0.0000
      XXYZ      -0.0000   XYYZ      -0.0000   YYYZ      -0.0000
      XXZZ      -1.1399   XYZZ      -0.0591   YYZZ      -5.5480
      XZZZ      -0.0000   YZZZ      -0.0000   ZZZZ      -3.3493
 -----------------------------------------------------------------
 Mayer SCF Bond Order, atomic valence on the diagonal:

            1           2           3
    1   0.9884475   0.0723567   0.9160908
    2   0.0723567   0.1286449   0.0562882
    3   0.9160908   0.0562882   0.9723790


 Calculating analytic gradient of the SCF energy
 ------------------------------------------------------
 Correction for Bais Set Incompleteness Error in  HF-3c
 ------------------------------------------------------
 Gradient of SCF Energy
            1           2           3
    1   0.0174306   0.0020829  -0.0195135
    2   0.0772206  -0.0382485  -0.0389722
    3  -0.0000000   0.0000000  -0.0000000
 Max gradient component =       7.722E-02
 RMS gradient           =       3.272E-02
 Gradient time:  CPU 0.05 s  wall 0.03 s
 Geometry Optimization Parameters
   NAtoms,    NIC,     NZ,  NCons,   NDum,   NFix, NCnnct, MaxDiis
        3       9       0       0       0       0       0       0


** GEOMETRY OPTIMIZATION IN DELOCALIZED INTERNAL COORDINATES **
   Searching for a Transition State

   Optimization Cycle:   1

                       Coordinates (Angstroms)
     ATOM                X               Y               Z
      1  H         0.1465677996   -1.1283910254    0.0000000000
      2  F         0.0000000000    0.3304219547    0.0000000000
      3  H        -0.1465677996   -1.8454102708    0.0000000000
   Point Group: c1    Number of degrees of freedom:     3


   Energy is    -99.866866135


 Attempting to generate delocalized internal coordinates
 Initial Hessian constructed with Jon Baker's OPTIMIZE code

  3 Hessian modes will be used to form the next step
  Hessian Eigenvalues:
     0.122557    0.160000    0.348109
**WARNING** Hessian does not have the desired local structure
**WARNING** Hessian does not have the desired local structure

 Transition state search - taking P-RFO step
 Searching for Lamda that Maximizes Along the Lowest mode
 Value Taken    Lamda =   0.13352289
 Searching for Lamda that Minimizes Along All other modes
 Value Taken    Lamda =  -0.00548349
 Calculated Step too Large.  Step scaled by  0.002864
 Step Taken.  Stepsize is  0.010000

                             Maximum     Tolerance    Cnvgd?
         Gradient           0.057054      0.000300      NO
         Displacement       0.006924      0.001200      NO
         Energy change     *********      0.000001      NO


 New Cartesian Coordinates Obtained by Inverse Iteration

 Displacement from previous Coordinates is:  0.008243
 Adding empirical dispersion correction 
 ----------------------------------------------------------------
 Doing -D3(BJ) with
 s6  =   1.00000
 s8  =   0.87770
 a1  =   0.41710
 a2  =   2.91490
 -D3 energy without 3body term =     -0.0023615038 hartrees
 ----------------------------------------------------------------
 Adding gCP correction 
 ----------------------------------------------------------------
 gCP energy =      0.0127440579 hartrees
 ------------------------------------------------------
 Correction for Bais Set Incompleteness Error in  HF-3c
 ------------------------------------------------------
 SRB energy =     -0.0056126905 hartrees
 ----------------------------------------------------------------
             Standard Nuclear Orientation (Angstroms)
    I     Atom           X                Y                Z
 ----------------------------------------------------------------
    1      H       0.1464007796    -1.1266549056     0.0000000000
    2      F       0.0000493227     0.3268648465     0.0000000000
    3      H      -0.1464501023    -1.8435892824     0.0000000000
 ----------------------------------------------------------------
 Nuclear Repulsion Energy =           6.13748764 hartrees
 There are        6 alpha and        5 beta electrons
 Applying Cartesian multipole field
    Component          Value
    ---------          -----
     (2,0,0)        1.00000E-10
     (0,2,0)        2.00000E-11
     (0,0,2)       -3.00000E-10
 Nucleus-field energy     =     0.0000000004 hartrees
 Requested basis set is MINIX
 There are 5 shells and 7 basis functions
 A cutoff of  1.0D-11 yielded     15 shell pairs
 There are        31 function pairs
 Smallest overlap matrix eigenvalue = 3.31E-01
 Guess MOs from SCF MO coefficient file

 -----------------------------------------------------------------------
  General SCF calculation program by
  Eric Jon Sundstrom, Paul Horn, Yuezhi Mao, Dmitri Zuev, Alec White,
  David Stuck, Shaama M.S., Shane Yost, Joonho Lee, David Small,
  Daniel Levine, Susi Lehtola, Hugh Burton, Evgeny Epifanovsky,
  Bang C. Huynh
 -----------------------------------------------------------------------
 Hartree-Fock
 Dispersion:   Grimme D3
 using 8 threads for integral computing
 -------------------------------------------------------
 OpenMP Integral computing Module                
 Release: version 1.0, May 2013, Q-Chem Inc. Pittsburgh 
 -------------------------------------------------------
 A unrestricted SCF calculation will be
 performed using DIIS
 SCF converges when DIIS error is below 1.0e-08
 Alpha HF Exchange    Energy =  -5.78229552582212
 Beta HF Exchange     Energy =  -4.99743283552894
 One-Electron (alpha) Energy = -80.32059140615070
 One-Electron (beta)  Energy = -71.98912151974085
 Total Coulomb        Energy =  57.08545954286404
 ---------------------------------------
  Cycle       Energy         DIIS error
 ---------------------------------------
    1     -99.8664941050      2.53e-04  
 Alpha HF Exchange    Energy =  -5.78222076744773
 Beta HF Exchange     Energy =  -4.99739837583956
 One-Electron (alpha) Energy = -80.31985545978476
 One-Electron (beta)  Energy = -71.99166048818549
 Total Coulomb        Energy =  57.08715156212777
    2     -99.8664958898      6.98e-05  
 Alpha HF Exchange    Energy =  -5.78218790574627
 Beta HF Exchange     Energy =  -4.99739514055049
 One-Electron (alpha) Energy = -80.31939417062917
 One-Electron (beta)  Energy = -71.99311705862517
 Total Coulomb        Energy =  57.08811027837094
    3     -99.8664963578      3.84e-05  
 Alpha HF Exchange    Energy =  -5.78216397654850
 Beta HF Exchange     Energy =  -4.99740185737783
 One-Electron (alpha) Energy = -80.31891189865222
 One-Electron (beta)  Energy = -71.99435674971843
 Total Coulomb        Energy =  57.08885029283661
    4     -99.8664965501      1.64e-05  
 Alpha HF Exchange    Energy =  -5.78216069384904
 Beta HF Exchange     Energy =  -4.99741436702951
 One-Electron (alpha) Energy = -80.31863547188793
 One-Electron (beta)  Energy = -71.99474739696895
 Total Coulomb        Energy =  57.08897370675163
    5     -99.8664965836      2.39e-06  
 Alpha HF Exchange    Energy =  -5.78216095499267
 Beta HF Exchange     Energy =  -4.99741494659854
 One-Electron (alpha) Energy = -80.31862657235357
 One-Electron (beta)  Energy = -71.99474779400293
 Total Coulomb        Energy =  57.08896604422469
    6     -99.8664965844      1.99e-06  
 Alpha HF Exchange    Energy =  -5.78216096719441
 Beta HF Exchange     Energy =  -4.99741519990762
 One-Electron (alpha) Energy = -80.31862455859070
 One-Electron (beta)  Energy = -71.99475219492437
 Total Coulomb        Energy =  57.08896869594273
    7     -99.8664965853      1.86e-06  
 Alpha HF Exchange    Energy =  -5.78216093489404
 Beta HF Exchange     Energy =  -4.99741598912269
 One-Electron (alpha) Energy = -80.31862203476250
 One-Electron (beta)  Energy = -71.99476876630563
 Total Coulomb        Energy =  57.08898349703519
    8     -99.8664965887      1.49e-06  
 Alpha HF Exchange    Energy =  -5.78216112206987
 Beta HF Exchange     Energy =  -4.99741841626588
 One-Electron (alpha) Energy = -80.31861856470842
 One-Electron (beta)  Energy = -71.99482116002221
 Total Coulomb        Energy =  57.08903502952525
    9     -99.8664965942      7.71e-08  
 Alpha HF Exchange    Energy =  -5.78216116389525
 Beta HF Exchange     Energy =  -4.99741847167942
 One-Electron (alpha) Energy = -80.31861868414468
 One-Electron (beta)  Energy = -71.99482321503122
 Total Coulomb        Energy =  57.08903730120392
   10     -99.8664965942      1.06e-09  Convergence criterion met
 ---------------------------------------
 Alpha HF Exchange    Energy =  -5.78216116389525
 Beta HF Exchange     Energy =  -4.99741847167942
 One-Electron (alpha) Energy = -80.31861868414468
 One-Electron (beta)  Energy = -71.99482321503122
 Total Coulomb        Energy =  57.08903730120392
 SCF time:   CPU 0.17s  wall 0.00s 
<S^2> =          0.756995514
 Alpha HF Exchange    Energy =  -5.78216116389525
 Beta HF Exchange     Energy =  -4.99741847167942
 One-Electron (alpha) Energy = -80.31861868414468
 One-Electron (beta)  Energy = -71.99482321503122
 Total Coulomb        Energy =  57.08903730120392
 Nuclear repulsion Energy =   6.13748763935876
 SCF   energy in the final basis set =      -99.8664965942
 Total energy in the final basis set =      -99.8664965942

 --------------------------------------------------------------

                    Orbital Energies (a.u.)
 --------------------------------------------------------------

 Alpha MOs
 -- Occupied --
-26.1027  -1.6155  -0.7912  -0.6616  -0.6612  -0.5416
 -- Virtual --
  0.6947

 Beta MOs
 -- Occupied --
-26.0652  -1.4473  -0.6193  -0.6169  -0.5720
 -- Virtual --
  0.1482   0.7449
 --------------------------------------------------------------

          Ground-State Mulliken Net Atomic Charges

     Atom                 Charge (a.u.)    Spin (a.u.)
  --------------------------------------------------------
      1 H                     0.025258      -0.106161
      2 F                    -0.033445       0.937246
      3 H                     0.008186       0.168915
  --------------------------------------------------------
  Sum of atomic charges =    -0.000000
  Sum of spin   charges =     1.000000

 -----------------------------------------------------------------
                    Cartesian Multipole Moments
 -----------------------------------------------------------------
    Charge (ESU x 10^10)
                -0.0000
    Dipole Moment (Debye)
         X       0.0153      Y      -0.2330      Z       0.0000
       Tot       0.2335
    Quadrupole Moments (Debye-Ang)
        XX      -6.1656     XY       0.1576     YY      -5.0356
        XZ      -0.0000     YZ      -0.0000     ZZ      -6.2321
    Octopole Moments (Debye-Ang^2)
       XXX       0.0074    XXY       1.0216    XYY      -0.4282
       YYY       2.2000    XXZ      -0.0000    XYZ      -0.0000
       YYZ      -0.0000    XZZ       0.0024    YZZ       1.1178
       ZZZ      -0.0000
    Hexadecapole Moments (Debye-Ang^3)
      XXXX      -3.4875   XXXY      -0.1749   XXYY      -5.3981
      XYYY       0.8530   YYYY     -24.1108   XXXZ      -0.0000
      XXYZ      -0.0000   XYYZ      -0.0000   YYYZ      -0.0000
      XXZZ      -1.1396   XYZZ      -0.0594   YYZZ      -5.5271
      XZZZ      -0.0000   YZZZ      -0.0000   ZZZZ      -3.3486
 -----------------------------------------------------------------
 Mayer SCF Bond Order, atomic valence on the diagonal:

            1           2           3
    1   0.9880919   0.0740587   0.9140332
    2   0.0740587   0.1314261   0.0573674
    3   0.9140332   0.0573674   0.9714006


 Calculating analytic gradient of the SCF energy
 ------------------------------------------------------
 Correction for Bais Set Incompleteness Error in  HF-3c
 ------------------------------------------------------
 Gradient of SCF Energy
            1           2           3
    1   0.0172258   0.0021065  -0.0193323
    2   0.0771925  -0.0387991  -0.0383934
    3   0.0000000   0.0000000  -0.0000000
 Max gradient component =       7.719E-02
 RMS gradient           =       3.268E-02
 Gradient time:  CPU 0.04 s  wall 0.03 s
 Geometry Optimization Parameters
   NAtoms,    NIC,     NZ,  NCons,   NDum,   NFix, NCnnct, MaxDiis
        3       9       0       0       0       0       0       0

 Cartesian Hessian Update
 Hessian updated using Powell/Murtagh-Sargent update
  Mixing factors:     0.004103 Powell                      0.995897 Murtagh-Sargent


** GEOMETRY OPTIMIZATION IN DELOCALIZED INTERNAL COORDINATES **
   Searching for a Transition State

   Optimization Cycle:   2

                       Coordinates (Angstroms)
     ATOM                X               Y               Z
      1  H         0.1464007796   -1.1266549056    0.0000000000
      2  F         0.0000493227    0.3268648465    0.0000000000
      3  H        -0.1464501023   -1.8435892824    0.0000000000
   Point Group: c1    Number of degrees of freedom:     3


   Energy is    -99.866496594

 Hessian updated using Powell/Murtagh-Sargent update
  Mixing factors:     0.380665 Powell                      0.619335 Murtagh-Sargent

  3 Hessian modes will be used to form the next step
  Hessian Eigenvalues:
     0.043757    0.159965    0.336048
**WARNING** Hessian does not have the desired local structure
**WARNING** Hessian does not have the desired local structure

 Transition state search - taking P-RFO step
 Searching for Lamda that Maximizes Along the Lowest mode
 Value Taken    Lamda =   0.07181399
 Searching for Lamda that Minimizes Along All other modes
 Value Taken    Lamda =  -0.00422106
 Calculated Step too Large.  Step scaled by  0.006234
 Step Taken.  Stepsize is  0.010000

                             Maximum     Tolerance    Cnvgd?
         Gradient           0.057020      0.000300      NO
         Displacement       0.007912      0.001200      NO
         Energy change      0.000370      0.000001      NO


 New Cartesian Coordinates Obtained by Inverse Iteration

 Displacement from previous Coordinates is:  0.007470
 Adding empirical dispersion correction 
 ----------------------------------------------------------------
 Doing -D3(BJ) with
 s6  =   1.00000
 s8  =   0.87770
 a1  =   0.41710
 a2  =   2.91490
 -D3 energy without 3body term =     -0.0023648307 hartrees
 ----------------------------------------------------------------
 Adding gCP correction 
 ----------------------------------------------------------------
 gCP energy =      0.0128355422 hartrees
 ------------------------------------------------------
 Correction for Bais Set Incompleteness Error in  HF-3c
 ------------------------------------------------------
 SRB energy =     -0.0056870106 hartrees
 ----------------------------------------------------------------
             Standard Nuclear Orientation (Angstroms)
    I     Atom           X                Y                Z
 ----------------------------------------------------------------
    1      H       0.1459577174    -1.1246352388     0.0000000000
    2      F       0.0002551611     0.3237088919     0.0000000000
    3      H      -0.1462128785    -1.8424529946     0.0000000000
 ----------------------------------------------------------------
 Nuclear Repulsion Energy =           6.15300592 hartrees
 There are        6 alpha and        5 beta electrons
 Applying Cartesian multipole field
    Component          Value
    ---------          -----
     (2,0,0)        1.00000E-10
     (0,2,0)        2.00000E-11
     (0,0,2)       -3.00000E-10
 Nucleus-field energy     =     0.0000000004 hartrees
 Requested basis set is MINIX
 There are 5 shells and 7 basis functions
 A cutoff of  1.0D-11 yielded     15 shell pairs
 There are        31 function pairs
 Smallest overlap matrix eigenvalue = 3.31E-01
 Guess MOs from SCF MO coefficient file

 -----------------------------------------------------------------------
  General SCF calculation program by
  Eric Jon Sundstrom, Paul Horn, Yuezhi Mao, Dmitri Zuev, Alec White,
  David Stuck, Shaama M.S., Shane Yost, Joonho Lee, David Small,
  Daniel Levine, Susi Lehtola, Hugh Burton, Evgeny Epifanovsky,
  Bang C. Huynh
 -----------------------------------------------------------------------
 Hartree-Fock
 Dispersion:   Grimme D3
 using 8 threads for integral computing
 -------------------------------------------------------
 OpenMP Integral computing Module                
 Release: version 1.0, May 2013, Q-Chem Inc. Pittsburgh 
 -------------------------------------------------------
 A unrestricted SCF calculation will be
 performed using DIIS
 SCF converges when DIIS error is below 1.0e-08
 Alpha HF Exchange    Energy =  -5.78231720344783
 Beta HF Exchange     Energy =  -4.99757031938334
 One-Electron (alpha) Energy = -80.33300251055961
 One-Electron (beta)  Energy = -72.00921514420790
 Total Coulomb        Energy =  57.10302905649590
 ---------------------------------------
  Cycle       Energy         DIIS error
 ---------------------------------------
    1     -99.8660701999      2.49e-04  
 Alpha HF Exchange    Energy =  -5.78223750980579
 Beta HF Exchange     Energy =  -4.99754096910967
 One-Electron (alpha) Energy = -80.33218456724804
 One-Electron (beta)  Energy = -72.01196681364452
 Total Coulomb        Energy =  57.10485175330863
    2     -99.8660721853      7.60e-05  
 Alpha HF Exchange    Energy =  -5.78220110344031
 Beta HF Exchange     Energy =  -4.99754038527250
 One-Electron (alpha) Energy = -80.33165346880418
 One-Electron (beta)  Energy = -72.01358237146729
 Total Coulomb        Energy =  57.10589866056938
    3     -99.8660727472      4.25e-05  
 Alpha HF Exchange    Energy =  -5.78217441457064
 Beta HF Exchange     Energy =  -4.99755016784981
 One-Electron (alpha) Energy = -80.33109404863106
 One-Electron (beta)  Energy = -72.01497441966545
 Total Coulomb        Energy =  57.10671414466275
    4     -99.8660729849      1.78e-05  
 Alpha HF Exchange    Energy =  -5.78217147485046
 Beta HF Exchange     Energy =  -4.99756416709169
 One-Electron (alpha) Energy = -80.33079610891492
 One-Electron (beta)  Energy = -72.01538087854196
 Total Coulomb        Energy =  57.10683368474039
    5     -99.8660730235      2.46e-06  
 Alpha HF Exchange    Energy =  -5.78217173023754
 Beta HF Exchange     Energy =  -4.99756468055439
 One-Electron (alpha) Energy = -80.33078926730187
 One-Electron (beta)  Energy = -72.01537959209627
 Total Coulomb        Energy =  57.10682632474217
    6     -99.8660730243      2.13e-06  
 Alpha HF Exchange    Energy =  -5.78217173845996
 Beta HF Exchange     Energy =  -4.99756497136240
 One-Electron (alpha) Energy = -80.33078718581810
 One-Electron (beta)  Energy = -72.01538429457207
 Total Coulomb        Energy =  57.10682924360520
    7     -99.8660730254      1.99e-06  
 Alpha HF Exchange    Energy =  -5.78217170904782
 Beta HF Exchange     Energy =  -4.99756612202193
 One-Electron (alpha) Energy = -80.33078387295039
 One-Electron (beta)  Energy = -72.01540836838618
 Total Coulomb        Energy =  57.10685112076215
    8     -99.8660730305      1.42e-06  
 Alpha HF Exchange    Energy =  -5.78217190387495
 Beta HF Exchange     Energy =  -4.99756846507265
 One-Electron (alpha) Energy = -80.33078064469402
 One-Electron (beta)  Energy = -72.01545886241335
 Total Coulomb        Energy =  57.10690091952927
    9     -99.8660730353      4.56e-08  
 Alpha HF Exchange    Energy =  -5.78217194216602
 Beta HF Exchange     Energy =  -4.99756846506836
 One-Electron (alpha) Energy = -80.33078086962732
 One-Electron (beta)  Energy = -72.01545960016091
 Total Coulomb        Energy =  57.10690192049240
   10     -99.8660730353      8.38e-10  Convergence criterion met
 ---------------------------------------
 Alpha HF Exchange    Energy =  -5.78217194216602
 Beta HF Exchange     Energy =  -4.99756846506836
 One-Electron (alpha) Energy = -80.33078086962732
 One-Electron (beta)  Energy = -72.01545960016091
 Total Coulomb        Energy =  57.10690192049240
 SCF time:   CPU 0.17s  wall 0.00s 
<S^2> =          0.757247920
 Alpha HF Exchange    Energy =  -5.78217194216602
 Beta HF Exchange     Energy =  -4.99756846506836
 One-Electron (alpha) Energy = -80.33078086962732
 One-Electron (beta)  Energy = -72.01545960016091
 Total Coulomb        Energy =  57.10690192049240
 Nuclear repulsion Energy =   6.15300592119388
 SCF   energy in the final basis set =      -99.8660730353
 Total energy in the final basis set =      -99.8660730353

 --------------------------------------------------------------

                    Orbital Energies (a.u.)
 --------------------------------------------------------------

 Alpha MOs
 -- Occupied --
-26.1021  -1.6152  -0.7915  -0.6613  -0.6609  -0.5411
 -- Virtual --
  0.6951

 Beta MOs
 -- Occupied --
-26.0647  -1.4474  -0.6191  -0.6167  -0.5720
 -- Virtual --
  0.1479   0.7459
 --------------------------------------------------------------

          Ground-State Mulliken Net Atomic Charges

     Atom                 Charge (a.u.)    Spin (a.u.)
  --------------------------------------------------------
      1 H                     0.026054      -0.107973
      2 F                    -0.034428       0.935726
      3 H                     0.008375       0.172247
  --------------------------------------------------------
  Sum of atomic charges =    -0.000000
  Sum of spin   charges =     1.000000

 -----------------------------------------------------------------
                    Cartesian Multipole Moments
 -----------------------------------------------------------------
    Charge (ESU x 10^10)
                -0.0000
    Dipole Moment (Debye)
         X       0.0157      Y      -0.2396      Z       0.0000
       Tot       0.2401
    Quadrupole Moments (Debye-Ang)
        XX      -6.1654     XY       0.1560     YY      -5.0308
        XZ      -0.0000     YZ      -0.0000     ZZ      -6.2315
    Octopole Moments (Debye-Ang^2)
       XXX       0.0054    XXY       1.0325    XYY      -0.4270
       YYY       2.2176    XXZ      -0.0000    XYZ      -0.0000
       YYZ      -0.0000    XZZ       0.0017    YZZ       1.1281
       ZZZ      -0.0000
    Hexadecapole Moments (Debye-Ang^3)
      XXXX      -3.4863   XXXY      -0.1770   XXYY      -5.3809
      XYYY       0.8453   YYYY     -24.0112   XXXZ      -0.0000
      XXYZ      -0.0000   XYYZ      -0.0000   YYYZ      -0.0000
      XXZZ      -1.1393   XYZZ      -0.0601   YYZZ      -5.5090
      XZZZ      -0.0000   YZZZ      -0.0000   ZZZZ      -3.3480
 -----------------------------------------------------------------
 Mayer SCF Bond Order, atomic valence on the diagonal:

            1           2           3
    1   0.9876630   0.0758997   0.9117633
    2   0.0758997   0.1343972   0.0584975
    3   0.9117633   0.0584975   0.9702608


 Calculating analytic gradient of the SCF energy
 ------------------------------------------------------
 Correction for Bais Set Incompleteness Error in  HF-3c
 ------------------------------------------------------
 Gradient of SCF Energy
            1           2           3
    1   0.0171791   0.0021182  -0.0192973
    2   0.0775954  -0.0392664  -0.0383290
    3  -0.0000000   0.0000000  -0.0000000
 Max gradient component =       7.760E-02
 RMS gradient           =       3.284E-02
 Gradient time:  CPU 0.03 s  wall 0.03 s
 Geometry Optimization Parameters
   NAtoms,    NIC,     NZ,  NCons,   NDum,   NFix, NCnnct, MaxDiis
        3       9       0       0       0       0       0       0

 Cartesian Hessian Update
 Hessian updated using Powell/Murtagh-Sargent update
  Mixing factors:     0.969735 Powell                      0.030265 Murtagh-Sargent


** GEOMETRY OPTIMIZATION IN DELOCALIZED INTERNAL COORDINATES **
   Searching for a Transition State

   Optimization Cycle:   3

                       Coordinates (Angstroms)
     ATOM                X               Y               Z
      1  H         0.1459577174   -1.1246352388    0.0000000000
      2  F         0.0002551611    0.3237088919    0.0000000000
      3  H        -0.1462128785   -1.8424529946    0.0000000000
   Point Group: c1    Number of degrees of freedom:     3


   Energy is    -99.866073035

 Hessian updated using Powell/Murtagh-Sargent update
  Mixing factors:     0.997367 Powell                      0.002633 Murtagh-Sargent

  3 Hessian modes will be used to form the next step
  Hessian Eigenvalues:
     0.042208    0.160469    0.335227
**WARNING** Hessian does not have the desired local structure
**WARNING** Hessian does not have the desired local structure

 Transition state search - taking P-RFO step
 Searching for Lamda that Maximizes Along the Lowest mode
 Value Taken    Lamda =   0.06877239
 Searching for Lamda that Minimizes Along All other modes
 Value Taken    Lamda =  -0.00536038
 Calculated Step too Large.  Step scaled by  0.006191
 Step Taken.  Stepsize is  0.010000

                             Maximum     Tolerance    Cnvgd?
         Gradient           0.057295      0.000300      NO
         Displacement       0.007628      0.001200      NO
         Energy change      0.000424      0.000001      NO


 New Cartesian Coordinates Obtained by Inverse Iteration

 Displacement from previous Coordinates is:  0.007276
 Adding empirical dispersion correction 
 ----------------------------------------------------------------
 Doing -D3(BJ) with
 s6  =   1.00000
 s8  =   0.87770
 a1  =   0.41710
 a2  =   2.91490
 -D3 energy without 3body term =     -0.0023675765 hartrees
 ----------------------------------------------------------------
 Adding gCP correction 
 ----------------------------------------------------------------
 gCP energy =      0.0129245497 hartrees
 ------------------------------------------------------
 Correction for Bais Set Incompleteness Error in  HF-3c
 ------------------------------------------------------
 SRB energy =     -0.0057606138 hartrees
 ----------------------------------------------------------------
             Standard Nuclear Orientation (Angstroms)
    I     Atom           X                Y                Z
 ----------------------------------------------------------------
    1      H       0.1449848877    -1.1226343376     0.0000000000
    2      F       0.0006498459     0.3207869669     0.0000000000
    3      H      -0.1456347336    -1.8415319709     0.0000000000
 ----------------------------------------------------------------
 Nuclear Repulsion Energy =           6.16789967 hartrees
 There are        6 alpha and        5 beta electrons
 Applying Cartesian multipole field
    Component          Value
    ---------          -----
     (2,0,0)        1.00000E-10
     (0,2,0)        2.00000E-11
     (0,0,2)       -3.00000E-10
 Nucleus-field energy     =     0.0000000004 hartrees
 Requested basis set is MINIX
 There are 5 shells and 7 basis functions
 A cutoff of  1.0D-11 yielded     15 shell pairs
 There are        31 function pairs
 Smallest overlap matrix eigenvalue = 3.31E-01
 Guess MOs from SCF MO coefficient file

 -----------------------------------------------------------------------
  General SCF calculation program by
  Eric Jon Sundstrom, Paul Horn, Yuezhi Mao, Dmitri Zuev, Alec White,
  David Stuck, Shaama M.S., Shane Yost, Joonho Lee, David Small,
  Daniel Levine, Susi Lehtola, Hugh Burton, Evgeny Epifanovsky,
  Bang C. Huynh
 -----------------------------------------------------------------------
 Hartree-Fock
 Dispersion:   Grimme D3
 using 8 threads for integral computing
 -------------------------------------------------------
 OpenMP Integral computing Module                
 Release: version 1.0, May 2013, Q-Chem Inc. Pittsburgh 
 -------------------------------------------------------
 A unrestricted SCF calculation will be
 performed using DIIS
 SCF converges when DIIS error is below 1.0e-08
 Alpha HF Exchange    Energy =  -5.78233100287794
 Beta HF Exchange     Energy =  -4.99772669368030
 One-Electron (alpha) Energy = -80.34444004114378
 One-Electron (beta)  Energy = -72.02920937982083
 Total Coulomb        Energy =  57.12013159747244
 ---------------------------------------
  Cycle       Energy         DIIS error
 ---------------------------------------
    1     -99.8656758495      2.48e-04  
 Alpha HF Exchange    Energy =  -5.78225028233831
 Beta HF Exchange     Energy =  -4.99770155068248
 One-Electron (alpha) Energy = -80.34362818570246
 One-Electron (beta)  Energy = -72.03187479852566
 Total Coulomb        Energy =  57.12187746550000
    2     -99.8656776812      7.33e-05  
 Alpha HF Exchange    Energy =  -5.78221430467331
 Beta HF Exchange     Energy =  -4.99770252638951
 One-Electron (alpha) Energy = -80.34310925041166
 One-Electron (beta)  Energy = -72.03342826491804
 Total Coulomb        Energy =  57.12287647600250
    3     -99.8656781998      4.14e-05  
 Alpha HF Exchange    Energy =  -5.78218737234251
 Beta HF Exchange     Energy =  -4.99771308780934
 One-Electron (alpha) Energy = -80.34255207821494
 One-Electron (beta)  Energy = -72.03480813543482
 Total Coulomb        Energy =  57.12368257632953
    4     -99.8656784269      1.72e-05  
 Alpha HF Exchange    Energy =  -5.78218469203830
 Beta HF Exchange     Energy =  -4.99772672210601
 One-Electron (alpha) Energy = -80.34226407065033
 One-Electron (beta)  Energy = -72.03520377072549
 Total Coulomb        Energy =  57.12380112256847
    5     -99.8656784624      2.09e-06  
 Alpha HF Exchange    Energy =  -5.78218491269588
 Beta HF Exchange     Energy =  -4.99772725329339
 One-Electron (alpha) Energy = -80.34225725997219
 One-Electron (beta)  Energy = -72.03520185748074
 Total Coulomb        Energy =  57.12379314994097
    6     -99.8656784629      1.76e-06  
 Alpha HF Exchange    Energy =  -5.78218490769661
 Beta HF Exchange     Energy =  -4.99772750177710
 One-Electron (alpha) Energy = -80.34225544418956
 One-Electron (beta)  Energy = -72.03520525011243
 Total Coulomb        Energy =  57.12379496954313
    7     -99.8656784637      1.65e-06  
 Alpha HF Exchange    Energy =  -5.78218490140377
 Beta HF Exchange     Energy =  -4.99772829140968
 One-Electron (alpha) Energy = -80.34225310529939
 One-Electron (beta)  Energy = -72.03522198503428
 Total Coulomb        Energy =  57.12381014599945
    8     -99.8656784666      1.24e-06  
 Alpha HF Exchange    Energy =  -5.78218504766298
 Beta HF Exchange     Energy =  -4.99773035287884
 One-Electron (alpha) Energy = -80.34225000345700
 One-Electron (beta)  Energy = -72.03526586863275
 Total Coulomb        Energy =  57.12385313178496
    9     -99.8656784703      3.13e-08  
 Alpha HF Exchange    Energy =  -5.78218507015791
 Beta HF Exchange     Energy =  -4.99773037952725
 One-Electron (alpha) Energy = -80.34225008472075
 One-Electron (beta)  Energy = -72.03526678901201
 Total Coulomb        Energy =  57.12385418256567
   10     -99.8656784703      9.95e-10  Convergence criterion met
 ---------------------------------------
 Alpha HF Exchange    Energy =  -5.78218507015791
 Beta HF Exchange     Energy =  -4.99773037952725
 One-Electron (alpha) Energy = -80.34225008472075
 One-Electron (beta)  Energy = -72.03526678901201
 Total Coulomb        Energy =  57.12385418256567
 SCF time:   CPU 0.16s  wall 0.00s 
<S^2> =          0.757492797
 Alpha HF Exchange    Energy =  -5.78218507015791
 Beta HF Exchange     Energy =  -4.99773037952725
 One-Electron (alpha) Energy = -80.34225008472075
 One-Electron (beta)  Energy = -72.03526678901201
 Total Coulomb        Energy =  57.12385418256567
 Nuclear repulsion Energy =   6.16789967055697
 SCF   energy in the final basis set =      -99.8656784703
 Total energy in the final basis set =      -99.8656784703

 --------------------------------------------------------------

                    Orbital Energies (a.u.)
 --------------------------------------------------------------

 Alpha MOs
 -- Occupied --
-26.1016  -1.6150  -0.7917  -0.6610  -0.6606  -0.5407
 -- Virtual --
  0.6956

 Beta MOs
 -- Occupied --
-26.0642  -1.4475  -0.6189  -0.6165  -0.5720
 -- Virtual --
  0.1476   0.7472
 --------------------------------------------------------------

          Ground-State Mulliken Net Atomic Charges

     Atom                 Charge (a.u.)    Spin (a.u.)
  --------------------------------------------------------
      1 H                     0.026811      -0.109717
      2 F                    -0.035374       0.934245
      3 H                     0.008563       0.175472
  --------------------------------------------------------
  Sum of atomic charges =    -0.000000
  Sum of spin   charges =     1.000000

 -----------------------------------------------------------------
                    Cartesian Multipole Moments
 -----------------------------------------------------------------
    Charge (ESU x 10^10)
                -0.0000
    Dipole Moment (Debye)
         X       0.0160      Y      -0.2458      Z       0.0000
       Tot       0.2463
    Quadrupole Moments (Debye-Ang)
        XX      -6.1656     XY       0.1542     YY      -5.0258
        XZ       0.0000     YZ       0.0000     ZZ      -6.2309
    Octopole Moments (Debye-Ang^2)
       XXX       0.0012    XXY       1.0430    XYY      -0.4254
       YYY       2.2321    XXZ       0.0000    XYZ       0.0000
       YYZ       0.0000    XZZ       0.0003    YZZ       1.1375
       ZZZ       0.0000
    Hexadecapole Moments (Debye-Ang^3)
      XXXX      -3.4843   XXXY      -0.1802   XXYY      -5.3657
      XYYY       0.8346   YYYY     -23.9152   XXXZ       0.0000
      XXYZ       0.0000   XYYZ       0.0000   YYYZ       0.0000
      XXZZ      -1.1389   XYZZ      -0.0611   YYZZ      -5.4923
      XZZZ       0.0000   YZZZ       0.0000   ZZZZ      -3.3474
 -----------------------------------------------------------------
 Mayer SCF Bond Order, atomic valence on the diagonal:

            1           2           3
    1   0.9872433   0.0776910   0.9095522
    2   0.0776910   0.1372750   0.0595840
    3   0.9095522   0.0595840   0.9691362


 Calculating analytic gradient of the SCF energy
 ------------------------------------------------------
 Correction for Bais Set Incompleteness Error in  HF-3c
 ------------------------------------------------------
 Gradient of SCF Energy
            1           2           3
    1   0.0170549   0.0021160  -0.0191709
    2   0.0779228  -0.0397150  -0.0382078
    3   0.0000000  -0.0000000   0.0000000
 Max gradient component =       7.792E-02
 RMS gradient           =       3.295E-02
 Gradient time:  CPU 0.03 s  wall 0.03 s
 Geometry Optimization Parameters
   NAtoms,    NIC,     NZ,  NCons,   NDum,   NFix, NCnnct, MaxDiis
        3       9       0       0       0       0       0       0

 Cartesian Hessian Update
 Hessian updated using Powell/Murtagh-Sargent update
  Mixing factors:     0.965957 Powell                      0.034043 Murtagh-Sargent


** GEOMETRY OPTIMIZATION IN DELOCALIZED INTERNAL COORDINATES **
   Searching for a Transition State

   Optimization Cycle:   4

                       Coordinates (Angstroms)
     ATOM                X               Y               Z
      1  H         0.1449848877   -1.1226343376    0.0000000000
      2  F         0.0006498459    0.3207869669    0.0000000000
      3  H        -0.1456347336   -1.8415319709    0.0000000000
   Point Group: c1    Number of degrees of freedom:     3


   Energy is    -99.865678470

 Hessian updated using Powell/Murtagh-Sargent update
  Mixing factors:     0.972003 Powell                      0.027997 Murtagh-Sargent

  3 Hessian modes will be used to form the next step
  Hessian Eigenvalues:
     0.035993    0.158521    0.335387
**WARNING** Hessian does not have the desired local structure
**WARNING** Hessian does not have the desired local structure

 Transition state search - taking P-RFO step
 Searching for Lamda that Maximizes Along the Lowest mode
 Value Taken    Lamda =   0.06121660
 Searching for Lamda that Minimizes Along All other modes
 Value Taken    Lamda =  -0.00729449
 Calculated Step too Large.  Step scaled by  0.006377
 Step Taken.  Stepsize is  0.010000

                             Maximum     Tolerance    Cnvgd?
         Gradient           0.057495      0.000300      NO
         Displacement       0.007068      0.001200      NO
         Energy change      0.000395      0.000001      NO


 New Cartesian Coordinates Obtained by Inverse Iteration

 Displacement from previous Coordinates is:  0.007021
 Adding empirical dispersion correction 
 ----------------------------------------------------------------
 Doing -D3(BJ) with
 s6  =   1.00000
 s8  =   0.87770
 a1  =   0.41710
 a2  =   2.91490
 -D3 energy without 3body term =     -0.0023695507 hartrees
 ----------------------------------------------------------------
 Adding gCP correction 
 ----------------------------------------------------------------
 gCP energy =      0.0130035415 hartrees
 ------------------------------------------------------
 Correction for Bais Set Incompleteness Error in  HF-3c
 ------------------------------------------------------
 SRB energy =     -0.0058276922 hartrees
 ----------------------------------------------------------------
             Standard Nuclear Orientation (Angstroms)
    I     Atom           X                Y                Z
 ----------------------------------------------------------------
    1      H       0.1433535549    -1.1207085341     0.0000000000
    2      F       0.0012880072     0.3183770505     0.0000000000
    3      H      -0.1446415621    -1.8410478579     0.0000000000
 ----------------------------------------------------------------
 Nuclear Repulsion Energy =           6.18085502 hartrees
 There are        6 alpha and        5 beta electrons
 Applying Cartesian multipole field
    Component          Value
    ---------          -----
     (2,0,0)        1.00000E-10
     (0,2,0)        2.00000E-11
     (0,0,2)       -3.00000E-10
 Nucleus-field energy     =     0.0000000004 hartrees
 Requested basis set is MINIX
 There are 5 shells and 7 basis functions
 A cutoff of  1.0D-11 yielded     15 shell pairs
 There are        31 function pairs
 Smallest overlap matrix eigenvalue = 3.30E-01
 Guess MOs from SCF MO coefficient file

 -----------------------------------------------------------------------
  General SCF calculation program by
  Eric Jon Sundstrom, Paul Horn, Yuezhi Mao, Dmitri Zuev, Alec White,
  David Stuck, Shaama M.S., Shane Yost, Joonho Lee, David Small,
  Daniel Levine, Susi Lehtola, Hugh Burton, Evgeny Epifanovsky,
  Bang C. Huynh
 -----------------------------------------------------------------------
 Hartree-Fock
 Dispersion:   Grimme D3
 using 8 threads for integral computing
 -------------------------------------------------------
 OpenMP Integral computing Module                
 Release: version 1.0, May 2013, Q-Chem Inc. Pittsburgh 
 -------------------------------------------------------
 A unrestricted SCF calculation will be
 performed using DIIS
 SCF converges when DIIS error is below 1.0e-08
 Alpha HF Exchange    Energy =  -5.78232072339247
 Beta HF Exchange     Energy =  -4.99787264447205
 One-Electron (alpha) Energy = -80.35391706794285
 One-Electron (beta)  Energy = -72.04719783711683
 Total Coulomb        Energy =  57.13512235817704
 ---------------------------------------
  Cycle       Energy         DIIS error
 ---------------------------------------
    1     -99.8653308980      2.34e-04  
 Alpha HF Exchange    Energy =  -5.78224277941652
 Beta HF Exchange     Energy =  -4.99785444116490
 One-Electron (alpha) Energy = -80.35314868744665
 One-Electron (beta)  Energy = -72.04962359320317
 Total Coulomb        Energy =  57.13668207739482
    2     -99.8653324071      6.70e-05  
 Alpha HF Exchange    Energy =  -5.78220902569059
 Beta HF Exchange     Energy =  -4.99785728180963
 One-Electron (alpha) Energy = -80.35266500881339
 One-Electron (beta)  Energy = -72.05102955458091
 Total Coulomb        Energy =  57.13757302021551
    3     -99.8653328340      3.83e-05  
 Alpha HF Exchange    Energy =  -5.78218344920305
 Beta HF Exchange     Energy =  -4.99786827853369
 One-Electron (alpha) Energy = -80.35213822022946
 One-Electron (beta)  Energy = -72.05231485836860
 Total Coulomb        Energy =  57.13831676149893
    4     -99.8653330281      1.57e-05  
 Alpha HF Exchange    Energy =  -5.78218113108204
 Beta HF Exchange     Energy =  -4.99788061712074
 One-Electron (alpha) Energy = -80.35187595884629
 One-Electron (beta)  Energy = -72.05268123463807
 Total Coulomb        Energy =  57.13843086769629
    5     -99.8653330573      1.64e-06  
 Alpha HF Exchange    Energy =  -5.78218134975651
 Beta HF Exchange     Energy =  -4.99788124655768
 One-Electron (alpha) Energy = -80.35186846154916
 One-Electron (beta)  Energy = -72.05267798443276
 Total Coulomb        Energy =  57.13842096799355
    6     -99.8653330576      1.21e-06  
 Alpha HF Exchange    Energy =  -5.78218133797195
 Beta HF Exchange     Energy =  -4.99788142482790
 One-Electron (alpha) Energy = -80.35186711831169
 One-Electron (beta)  Energy = -72.05267957693067
 Total Coulomb        Energy =  57.13842138346424
    7     -99.8653330579      1.13e-06  
 Alpha HF Exchange    Energy =  -5.78218133861314
 Beta HF Exchange     Energy =  -4.99788172898479
 One-Electron (alpha) Energy = -80.35186601861110
 One-Electron (beta)  Energy = -72.05268586474192
 Total Coulomb        Energy =  57.13842687557447
    8     -99.8653330587      9.71e-07  
 Alpha HF Exchange    Energy =  -5.78218143355523
 Beta HF Exchange     Energy =  -4.99788320656014
 One-Electron (alpha) Energy = -80.35186361456900
 One-Electron (beta)  Energy = -72.05271711792689
 Total Coulomb        Energy =  57.13845729501420
    9     -99.8653330609      1.10e-07  
 Alpha HF Exchange    Energy =  -5.78218144276087
 Beta HF Exchange     Energy =  -4.99788339106532
 One-Electron (alpha) Energy = -80.35186324637274
 One-Electron (beta)  Energy = -72.05272116393182
 Total Coulomb        Energy =  57.13846116651219
   10     -99.8653330609      1.39e-09  Convergence criterion met
 ---------------------------------------
 Alpha HF Exchange    Energy =  -5.78218144276087
 Beta HF Exchange     Energy =  -4.99788339106532
 One-Electron (alpha) Energy = -80.35186324637274
 One-Electron (beta)  Energy = -72.05272116393182
 Total Coulomb        Energy =  57.13846116651219
 SCF time:   CPU 0.16s  wall 0.00s 
<S^2> =          0.757721141
 Alpha HF Exchange    Energy =  -5.78218144276087
 Beta HF Exchange     Energy =  -4.99788339106532
 One-Electron (alpha) Energy = -80.35186324637274
 One-Electron (beta)  Energy = -72.05272116393182
 Total Coulomb        Energy =  57.13846116651219
 Nuclear repulsion Energy =   6.18085501671368
 SCF   energy in the final basis set =      -99.8653330609
 Total energy in the final basis set =      -99.8653330609

 --------------------------------------------------------------

                    Orbital Energies (a.u.)
 --------------------------------------------------------------

 Alpha MOs
 -- Occupied --
-26.1011  -1.6148  -0.7919  -0.6608  -0.6604  -0.5403
 -- Virtual --
  0.6962

 Beta MOs
 -- Occupied --
-26.0638  -1.4476  -0.6187  -0.6164  -0.5720
 -- Virtual --
  0.1473   0.7485
 --------------------------------------------------------------

          Ground-State Mulliken Net Atomic Charges

     Atom                 Charge (a.u.)    Spin (a.u.)
  --------------------------------------------------------
      1 H                     0.027475      -0.111335
      2 F                    -0.036219       0.932891
      3 H                     0.008744       0.178444
  --------------------------------------------------------
  Sum of atomic charges =    -0.000000
  Sum of spin   charges =     1.000000

 -----------------------------------------------------------------
                    Cartesian Multipole Moments
 -----------------------------------------------------------------
    Charge (ESU x 10^10)
                -0.0000
    Dipole Moment (Debye)
         X       0.0161      Y      -0.2515      Z       0.0000
       Tot       0.2520
    Quadrupole Moments (Debye-Ang)
        XX      -6.1662     XY       0.1523     YY      -5.0207
        XZ       0.0000     YZ       0.0000     ZZ      -6.2304
    Octopole Moments (Debye-Ang^2)
       XXX      -0.0056    XXY       1.0525    XYY      -0.4232
       YYY       2.2405    XXZ       0.0000    XYZ       0.0000
       YYZ       0.0000    XZZ      -0.0019    YZZ       1.1452
       ZZZ       0.0000
    Hexadecapole Moments (Debye-Ang^3)
      XXXX      -3.4814   XXXY      -0.1845   XXYY      -5.3544
      XYYY       0.8207   YYYY     -23.8285   XXXZ       0.0000
      XXYZ       0.0000   XYYZ       0.0000   YYYZ       0.0000
      XXZZ      -1.1383   XYZZ      -0.0626   YYZZ      -5.4787
      XZZZ       0.0000   YZZZ       0.0000   ZZZZ      -3.3468
 -----------------------------------------------------------------
 Mayer SCF Bond Order, atomic valence on the diagonal:

            1           2           3
    1   0.9868497   0.0793262   0.9075235
    2   0.0793262   0.1398840   0.0605578
    3   0.9075235   0.0605578   0.9680813


 Calculating analytic gradient of the SCF energy
 ------------------------------------------------------
 Correction for Bais Set Incompleteness Error in  HF-3c
 ------------------------------------------------------
 Gradient of SCF Energy
            1           2           3
    1   0.0168739   0.0020941  -0.0189680
    2   0.0782263  -0.0400998  -0.0381264
    3  -0.0000000  -0.0000000   0.0000000
 Max gradient component =       7.823E-02
 RMS gradient           =       3.305E-02
 Gradient time:  CPU 0.03 s  wall 0.03 s
 Geometry Optimization Parameters
   NAtoms,    NIC,     NZ,  NCons,   NDum,   NFix, NCnnct, MaxDiis
        3       9       0       0       0       0       0       0

 Cartesian Hessian Update
 Hessian updated using Powell/Murtagh-Sargent update
  Mixing factors:     0.923868 Powell                      0.076132 Murtagh-Sargent


** GEOMETRY OPTIMIZATION IN DELOCALIZED INTERNAL COORDINATES **
   Searching for a Transition State

   Optimization Cycle:   5

                       Coordinates (Angstroms)
     ATOM                X               Y               Z
      1  H         0.1433535549   -1.1207085341    0.0000000000
      2  F         0.0012880072    0.3183770505    0.0000000000
      3  H        -0.1446415621   -1.8410478579    0.0000000000
   Point Group: c1    Number of degrees of freedom:     3


   Energy is    -99.865333061

 Hessian updated using Powell/Murtagh-Sargent update
  Mixing factors:     0.947148 Powell                      0.052852 Murtagh-Sargent

  3 Hessian modes will be used to form the next step
  Hessian Eigenvalues:
     0.027056    0.153528    0.335410
**WARNING** Hessian does not have the desired local structure
**WARNING** Hessian does not have the desired local structure

 Transition state search - taking P-RFO step
 Searching for Lamda that Maximizes Along the Lowest mode
 Value Taken    Lamda =   0.04871698
 Searching for Lamda that Minimizes Along All other modes
 Value Taken    Lamda =  -0.01049852
 Calculated Step too Large.  Step scaled by  0.006592
 Step Taken.  Stepsize is  0.010000

                             Maximum     Tolerance    Cnvgd?
         Gradient           0.057655      0.000300      NO
         Displacement       0.008106      0.001200      NO
         Energy change      0.000345      0.000001      NO


 New Cartesian Coordinates Obtained by Inverse Iteration

 Displacement from previous Coordinates is:  0.007005
 Adding empirical dispersion correction 
 ----------------------------------------------------------------
 Doing -D3(BJ) with
 s6  =   1.00000
 s8  =   0.87770
 a1  =   0.41710
 a2  =   2.91490
 -D3 energy without 3body term =     -0.0023704568 hartrees
 ----------------------------------------------------------------
 Adding gCP correction 
 ----------------------------------------------------------------
 gCP energy =      0.0130649024 hartrees
 ------------------------------------------------------
 Correction for Bais Set Incompleteness Error in  HF-3c
 ------------------------------------------------------
 SRB energy =     -0.0058816568 hartrees
 ----------------------------------------------------------------
             Standard Nuclear Orientation (Angstroms)
    I     Atom           X                Y                Z
 ----------------------------------------------------------------
    1      H       0.1410285744    -1.1190379839     0.0000000000
    2      F       0.0021755178     0.3167366283     0.0000000000
    3      H      -0.1432040922    -1.8410779859     0.0000000000
 ----------------------------------------------------------------
 Nuclear Repulsion Energy =           6.19060098 hartrees
 There are        6 alpha and        5 beta electrons
 Applying Cartesian multipole field
    Component          Value
    ---------          -----
     (2,0,0)        1.00000E-10
     (0,2,0)        2.00000E-11
     (0,0,2)       -3.00000E-10
 Nucleus-field energy     =     0.0000000004 hartrees
 Requested basis set is MINIX
 There are 5 shells and 7 basis functions
 A cutoff of  1.0D-11 yielded     15 shell pairs
 There are        31 function pairs
 Smallest overlap matrix eigenvalue = 3.30E-01
 Guess MOs from SCF MO coefficient file

 -----------------------------------------------------------------------
  General SCF calculation program by
  Eric Jon Sundstrom, Paul Horn, Yuezhi Mao, Dmitri Zuev, Alec White,
  David Stuck, Shaama M.S., Shane Yost, Joonho Lee, David Small,
  Daniel Levine, Susi Lehtola, Hugh Burton, Evgeny Epifanovsky,
  Bang C. Huynh
 -----------------------------------------------------------------------
 Hartree-Fock
 Dispersion:   Grimme D3
 using 8 threads for integral computing
 -------------------------------------------------------
 OpenMP Integral computing Module                
 Release: version 1.0, May 2013, Q-Chem Inc. Pittsburgh 
 -------------------------------------------------------
 A unrestricted SCF calculation will be
 performed using DIIS
 SCF converges when DIIS error is below 1.0e-08
 Alpha HF Exchange    Energy =  -5.78228564485502
 Beta HF Exchange     Energy =  -4.99799976933728
 One-Electron (alpha) Energy = -80.36036979019410
 One-Electron (beta)  Energy = -72.06163621254491
 Total Coulomb        Energy =  57.14661175027592
 ---------------------------------------
  Cycle       Energy         DIIS error
 ---------------------------------------
    1     -99.8650786813      2.02e-04  
 Alpha HF Exchange    Energy =  -5.78221778873668
 Beta HF Exchange     Energy =  -4.99799048100700
 One-Electron (alpha) Energy = -80.35972560418230
 One-Electron (beta)  Energy = -72.06354302427889
 Total Coulomb        Energy =  57.14779624715919
    2     -99.8650796657      5.36e-05  
 Alpha HF Exchange    Energy =  -5.78218987116446
 Beta HF Exchange     Energy =  -4.99799470252553
 One-Electron (alpha) Energy = -80.35933116486692
 One-Electron (beta)  Energy = -72.06463809064148
 Total Coulomb        Energy =  57.14847291265721
    3     -99.8650799312      3.08e-05  
 Alpha HF Exchange    Energy =  -5.78216905715772
 Beta HF Exchange     Energy =  -4.99800451772371
 One-Electron (alpha) Energy = -80.35890450568395
 One-Electron (beta)  Energy = -72.06565363571414
 Total Coulomb        Energy =  57.14905067522965
    4     -99.8650800557      1.26e-05  
 Alpha HF Exchange    Energy =  -5.78216683748214
 Beta HF Exchange     Energy =  -4.99801400512135
 One-Electron (alpha) Energy = -80.35869194416577
 One-Electron (beta)  Energy = -72.06596994761952
 Total Coulomb        Energy =  57.14916167428198
    5     -99.8650800748      1.36e-06  
 Alpha HF Exchange    Energy =  -5.78216716422093
 Beta HF Exchange     Energy =  -4.99801483689107
 One-Electron (alpha) Energy = -80.35868266113987
 One-Electron (beta)  Energy = -72.06596421336469
 Total Coulomb        Energy =  57.14914781535474
    6     -99.8650800749      4.12e-07  
 Alpha HF Exchange    Energy =  -5.78216716299434
 Beta HF Exchange     Energy =  -4.99801494208273
 One-Electron (alpha) Energy = -80.35868180164536
 One-Electron (beta)  Energy = -72.06596415456636
 Total Coulomb        Energy =  57.14914700100474
    7     -99.8650800749      3.54e-07  
 Alpha HF Exchange    Energy =  -5.78216716009748
 Beta HF Exchange     Energy =  -4.99801498912389
 One-Electron (alpha) Energy = -80.35868152150009
 One-Electron (beta)  Energy = -72.06596489361510
 Total Coulomb        Energy =  57.14914750401351
    8     -99.8650800750      3.29e-07  
 Alpha HF Exchange    Energy =  -5.78216717885259
 Beta HF Exchange     Energy =  -4.99801524566864
 One-Electron (alpha) Energy = -80.35868109781912
 One-Electron (beta)  Energy = -72.06597020939098
 Total Coulomb        Energy =  57.14915267122295
    9     -99.8650800752      1.77e-07  
 Alpha HF Exchange    Energy =  -5.78216719211879
 Beta HF Exchange     Energy =  -4.99801555733278
 One-Electron (alpha) Energy = -80.35868046176843
 One-Electron (beta)  Energy = -72.06597686441356
 Total Coulomb        Energy =  57.14915901505345
   10     -99.8650800752      1.98e-09  Convergence criterion met
 ---------------------------------------
 Alpha HF Exchange    Energy =  -5.78216719211879
 Beta HF Exchange     Energy =  -4.99801555733278
 One-Electron (alpha) Energy = -80.35868046176843
 One-Electron (beta)  Energy = -72.06597686441356
 Total Coulomb        Energy =  57.14915901505345
 SCF time:   CPU 0.16s  wall 0.00s 
<S^2> =          0.757904372
 Alpha HF Exchange    Energy =  -5.78216719211879
 Beta HF Exchange     Energy =  -4.99801555733278
 One-Electron (alpha) Energy = -80.35868046176843
 One-Electron (beta)  Energy = -72.06597686441356
 Total Coulomb        Energy =  57.14915901505345
 Nuclear repulsion Energy =   6.19060098535487
 SCF   energy in the final basis set =      -99.8650800752
 Total energy in the final basis set =      -99.8650800752

 --------------------------------------------------------------

                    Orbital Energies (a.u.)
 --------------------------------------------------------------

 Alpha MOs
 -- Occupied --
-26.1008  -1.6147  -0.7921  -0.6606  -0.6602  -0.5401
 -- Virtual --
  0.6969

 Beta MOs
 -- Occupied --
-26.0635  -1.4477  -0.6186  -0.6163  -0.5721
 -- Virtual --
  0.1469   0.7497
 --------------------------------------------------------------

          Ground-State Mulliken Net Atomic Charges

     Atom                 Charge (a.u.)    Spin (a.u.)
  --------------------------------------------------------
      1 H                     0.027963      -0.112642
      2 F                    -0.036860       0.931819
      3 H                     0.008898       0.180823
  --------------------------------------------------------
  Sum of atomic charges =    -0.000000
  Sum of spin   charges =     1.000000

 -----------------------------------------------------------------
                    Cartesian Multipole Moments
 -----------------------------------------------------------------
    Charge (ESU x 10^10)
                -0.0000
    Dipole Moment (Debye)
         X       0.0160      Y      -0.2558      Z      -0.0000
       Tot       0.2563
    Quadrupole Moments (Debye-Ang)
        XX      -6.1675     XY       0.1504     YY      -5.0160
        XZ       0.0000     YZ       0.0000     ZZ      -6.2300
    Octopole Moments (Debye-Ang^2)
       XXX      -0.0153    XXY       1.0600    XYY      -0.4206
       YYY       2.2417    XXZ      -0.0000    XYZ       0.0000
       YYZ       0.0000    XZZ      -0.0052    YZZ       1.1504
       ZZZ      -0.0000
    Hexadecapole Moments (Debye-Ang^3)
      XXXX      -3.4776   XXXY      -0.1900   XXYY      -5.3484
      XYYY       0.8035   YYYY     -23.7594   XXXZ       0.0000
      XXYZ       0.0000   XYYZ       0.0000   YYYZ       0.0000
      XXZZ      -1.1376   XYZZ      -0.0644   YYZZ      -5.4696
      XZZZ       0.0000   YZZZ       0.0000   ZZZZ      -3.3464
 -----------------------------------------------------------------
 Mayer SCF Bond Order, atomic valence on the diagonal:

            1           2           3
    1   0.9865298   0.0806146   0.9059152
    2   0.0806146   0.1419232   0.0613086
    3   0.9059152   0.0613086   0.9672237


 Calculating analytic gradient of the SCF energy
 ------------------------------------------------------
 Correction for Bais Set Incompleteness Error in  HF-3c
 ------------------------------------------------------
 Gradient of SCF Energy
            1           2           3
    1   0.0166230   0.0020500  -0.0186730
    2   0.0784469  -0.0403855  -0.0380614
    3  -0.0000000   0.0000000   0.0000000
 Max gradient component =       7.845E-02
 RMS gradient           =       3.310E-02
 Gradient time:  CPU 0.04 s  wall 0.03 s
 Geometry Optimization Parameters
   NAtoms,    NIC,     NZ,  NCons,   NDum,   NFix, NCnnct, MaxDiis
        3       9       0       0       0       0       0       0

 Cartesian Hessian Update
 Hessian updated using Powell/Murtagh-Sargent update
  Mixing factors:     0.882103 Powell                      0.117897 Murtagh-Sargent


** GEOMETRY OPTIMIZATION IN DELOCALIZED INTERNAL COORDINATES **
   Searching for a Transition State

   Optimization Cycle:   6

                       Coordinates (Angstroms)
     ATOM                X               Y               Z
      1  H         0.1410285744   -1.1190379839    0.0000000000
      2  F         0.0021755178    0.3167366283    0.0000000000
      3  H        -0.1432040922   -1.8410779859    0.0000000000
   Point Group: c1    Number of degrees of freedom:     3


   Energy is    -99.865080075

 Hessian updated using Powell/Murtagh-Sargent update
  Mixing factors:     0.921992 Powell                      0.078008 Murtagh-Sargent

  3 Hessian modes will be used to form the next step
  Hessian Eigenvalues:
     0.017795    0.144405    0.335520
**WARNING** Hessian does not have the desired local structure
**WARNING** Hessian does not have the desired local structure

 Transition state search - taking P-RFO step
 Searching for Lamda that Maximizes Along the Lowest mode
 Value Taken    Lamda =   0.03349040
 Searching for Lamda that Minimizes Along All other modes
 Value Taken    Lamda =  -0.01423278
 Calculated Step too Large.  Step scaled by  0.006724
 Step Taken.  Stepsize is  0.010000

                             Maximum     Tolerance    Cnvgd?
         Gradient           0.057731      0.000300      NO
         Displacement       0.009129      0.001200      NO
         Energy change      0.000253      0.000001      NO


 New Cartesian Coordinates Obtained by Inverse Iteration

 Displacement from previous Coordinates is:  0.007277
 Adding empirical dispersion correction 
 ----------------------------------------------------------------
 Doing -D3(BJ) with
 s6  =   1.00000
 s8  =   0.87770
 a1  =   0.41710
 a2  =   2.91490
 -D3 energy without 3body term =     -0.0023702019 hartrees
 ----------------------------------------------------------------
 Adding gCP correction 
 ----------------------------------------------------------------
 gCP energy =      0.0131024273 hartrees
 ------------------------------------------------------
 Correction for Bais Set Incompleteness Error in  HF-3c
 ------------------------------------------------------
 SRB energy =     -0.0059167192 hartrees
 ----------------------------------------------------------------
             Standard Nuclear Orientation (Angstroms)
    I     Atom           X                Y                Z
 ----------------------------------------------------------------
    1      H       0.1381723964    -1.1177933665     0.0000000000
    2      F       0.0032474190     0.3160274720     0.0000000000
    3      H      -0.1414198154    -1.8416134470     0.0000000000
 ----------------------------------------------------------------
 Nuclear Repulsion Energy =           6.19616724 hartrees
 There are        6 alpha and        5 beta electrons
 Applying Cartesian multipole field
    Component          Value
    ---------          -----
     (2,0,0)        1.00000E-10
     (0,2,0)        2.00000E-11
     (0,0,2)       -3.00000E-10
 Nucleus-field energy     =     0.0000000004 hartrees
 Requested basis set is MINIX
 There are 5 shells and 7 basis functions
 A cutoff of  1.0D-11 yielded     15 shell pairs
 There are        31 function pairs
 Smallest overlap matrix eigenvalue = 3.29E-01
 Guess MOs from SCF MO coefficient file

 -----------------------------------------------------------------------
  General SCF calculation program by
  Eric Jon Sundstrom, Paul Horn, Yuezhi Mao, Dmitri Zuev, Alec White,
  David Stuck, Shaama M.S., Shane Yost, Joonho Lee, David Small,
  Daniel Levine, Susi Lehtola, Hugh Burton, Evgeny Epifanovsky,
  Bang C. Huynh
 -----------------------------------------------------------------------
 Hartree-Fock
 Dispersion:   Grimme D3
 using 8 threads for integral computing
 -------------------------------------------------------
 OpenMP Integral computing Module                
 Release: version 1.0, May 2013, Q-Chem Inc. Pittsburgh 
 -------------------------------------------------------
 A unrestricted SCF calculation will be
 performed using DIIS
 SCF converges when DIIS error is below 1.0e-08
 Alpha HF Exchange    Energy =  -5.78223242322136
 Beta HF Exchange     Energy =  -4.99809551855596
 One-Electron (alpha) Energy = -80.36318889084342
 One-Electron (beta)  Energy = -72.07097668486583
 Total Coulomb        Energy =  57.15337705523606
 ---------------------------------------
  Cycle       Energy         DIIS error
 ---------------------------------------
    1     -99.8649492206      1.54e-04  
 Alpha HF Exchange    Energy =  -5.78218195508701
 Beta HF Exchange     Energy =  -4.99809561905277
 One-Electron (alpha) Energy = -80.36274285164413
 One-Electron (beta)  Energy = -72.07213579797670
 Total Coulomb        Energy =  57.15403927229413
    2     -99.8649497099      3.54e-05  
 Alpha HF Exchange    Energy =  -5.78216293197566
 Beta HF Exchange     Energy =  -4.99810037239282
 One-Electron (alpha) Energy = -80.36248185594819
 One-Electron (beta)  Energy = -72.07279676829320
 Total Coulomb        Energy =  57.15442487107917
    3     -99.8649498159      1.96e-05  
 Alpha HF Exchange    Energy =  -5.78215048522811
 Beta HF Exchange     Energy =  -4.99810706465955
 One-Electron (alpha) Energy = -80.36222648572780
 One-Electron (beta)  Energy = -72.07337262416797
 Total Coulomb        Energy =  57.15473955449208
    4     -99.8649498637      8.72e-06  
 Alpha HF Exchange    Energy =  -5.78214780538440
 Beta HF Exchange     Energy =  -4.99811302879605
 One-Electron (alpha) Energy = -80.36207282348354
 One-Electron (beta)  Energy = -72.07363246171866
 Total Coulomb        Energy =  57.15484900444818
    5     -99.8649498733      1.41e-06  
 Alpha HF Exchange    Energy =  -5.78214829143879
 Beta HF Exchange     Energy =  -4.99811381751076
 One-Electron (alpha) Energy = -80.36206457176065
 One-Electron (beta)  Energy = -72.07362390385673
 Total Coulomb        Energy =  57.15483346944315
    6     -99.8649498735      5.40e-07  
 Alpha HF Exchange    Energy =  -5.78214831138382
 Beta HF Exchange     Energy =  -4.99811385191821
 One-Electron (alpha) Energy = -80.36206420576752
 One-Electron (beta)  Energy = -72.07362229006172
 Total Coulomb        Energy =  57.15483154396873
    7     -99.8649498736      5.08e-07  
 Alpha HF Exchange    Energy =  -5.78214830300804
 Beta HF Exchange     Energy =  -4.99811375880395
 One-Electron (alpha) Energy = -80.36206422272116
 One-Electron (beta)  Energy = -72.07361966017167
 Total Coulomb        Energy =  57.15482882940123
    8     -99.8649498737      4.48e-07  
 Alpha HF Exchange    Energy =  -5.78214828542752
 Beta HF Exchange     Energy =  -4.99811318907015
 One-Electron (alpha) Energy = -80.36206554907172
 One-Electron (beta)  Energy = -72.07360795268774
 Total Coulomb        Energy =  57.15481786052588
    9     -99.8649498741      1.38e-07  
 Alpha HF Exchange    Energy =  -5.78214826949614
 Beta HF Exchange     Energy =  -4.99811298245229
 One-Electron (alpha) Energy = -80.36206595001136
 One-Electron (beta)  Energy = -72.07360410097725
 Total Coulomb        Energy =  57.15481418716939
   10     -99.8649498742      2.70e-09  Convergence criterion met
 ---------------------------------------
 Alpha HF Exchange    Energy =  -5.78214826949614
 Beta HF Exchange     Energy =  -4.99811298245229
 One-Electron (alpha) Energy = -80.36206595001136
 One-Electron (beta)  Energy = -72.07360410097725
 Total Coulomb        Energy =  57.15481418716939
 SCF time:   CPU 0.17s  wall 0.00s 
[...]

     Atom                 Charge (a.u.)    Spin (a.u.)
  --------------------------------------------------------
      1 H                     0.026604      -0.118938
      2 F                    -0.036776       0.928965
      3 H                     0.010172       0.189972
  --------------------------------------------------------
  Sum of atomic charges =     0.000000
  Sum of spin   charges =     1.000000

 -----------------------------------------------------------------
                    Cartesian Multipole Moments
 -----------------------------------------------------------------
    Charge (ESU x 10^10)
                 0.0000
    Dipole Moment (Debye)
         X      -0.0090      Y      -0.2599      Z       0.0000
       Tot       0.2600
    Quadrupole Moments (Debye-Ang)
        XX      -6.2256     XY       0.0635     YY      -4.9478
        XZ      -0.0001     YZ      -0.0008     ZZ      -6.2297
    Octopole Moments (Debye-Ang^2)
       XXX      -0.5460    XXY       1.1063    XYY      -0.2497
       YYY       1.8629    XXZ      -0.0009    XYZ       0.0001
       YYZ       0.0009    XZZ      -0.1820    YZZ       1.1096
       ZZZ      -0.0026
    Hexadecapole Moments (Debye-Ang^3)
      XXXX      -3.4271   XXXY      -0.4522   XXYY      -5.5404
      XYYY      -0.1048   YYYY     -23.3558   XXXZ       0.0001
      XXYZ       0.0015   XYYZ      -0.0002   YYYZ      -0.0005
      XXZZ      -1.1288   XYZZ      -0.1510   YYZZ      -5.5442
      XZZZ       0.0001   YZZZ       0.0045   ZZZZ      -3.3457
 -----------------------------------------------------------------
 Mayer SCF Bond Order, atomic valence on the diagonal:

            1           2           3
    1   0.9851461   0.0835207   0.9016253
    2   0.0835207   0.1457025   0.0621818
    3   0.9016253   0.0621818   0.9638071


 Calculating analytic gradient of the SCF energy
 ------------------------------------------------------
 Correction for Bais Set Incompleteness Error in  HF-3c
 ------------------------------------------------------
 Gradient of SCF Energy
            1           2           3
    1   0.0051212  -0.0013941  -0.0037271
    2   0.0790781  -0.0399764  -0.0391017
    3  -0.0000644   0.0000047   0.0000596
 Max gradient component =       7.908E-02
 RMS gradient           =       3.236E-02
 Gradient time:  CPU 0.04 s  wall 0.03 s
 Adding empirical dispersion correction 
 ----------------------------------------------------------------
 Doing -D3(BJ) with
 s6  =   1.00000
 s8  =   0.87770
 a1  =   0.41710
 a2  =   2.91490
 -D3 energy without 3body term =     -0.0023358294 hartrees
 ----------------------------------------------------------------
 Adding gCP correction 
 ----------------------------------------------------------------
 gCP energy =      0.0131670917 hartrees
 ------------------------------------------------------
 Correction for Bais Set Incompleteness Error in  HF-3c
 ------------------------------------------------------
 SRB energy =     -0.0060723239 hartrees
 ----------------------------------------------------------------
             Standard Nuclear Orientation (Angstroms)
    I     Atom           X                Y                Z
 ----------------------------------------------------------------
    1      H       0.0077871596    -1.1007857464     0.0000000000
    2      F       0.0503068575     0.3275856126     0.0000000000
    3      H      -0.0580940171    -1.8701792077    -0.0010000000
 ----------------------------------------------------------------
 Nuclear Repulsion Energy =           6.18722885 hartrees
 There are        6 alpha and        5 beta electrons

                       Distance Matrix (Angstroms)
             H (  1)   F (  2)
   F (  2)  1.429004
   H (  3)  0.772210  2.200437

 Requested basis set is MINIX
 There are 5 shells and 7 basis functions
 A cutoff of  1.0D-11 yielded     15 shell pairs
 There are        31 function pairs
 Smallest overlap matrix eigenvalue = 3.24E-01
 Guess MOs from SCF MO coefficient file

 -----------------------------------------------------------------------
  General SCF calculation program by
  Eric Jon Sundstrom, Paul Horn, Yuezhi Mao, Dmitri Zuev, Alec White,
  David Stuck, Shaama M.S., Shane Yost, Joonho Lee, David Small,
  Daniel Levine, Susi Lehtola, Hugh Burton, Evgeny Epifanovsky,
  Bang C. Huynh
 -----------------------------------------------------------------------
 Hartree-Fock
 Dispersion:   Grimme D3
 using 8 threads for integral computing
 -------------------------------------------------------
 OpenMP Integral computing Module                
 Release: version 1.0, May 2013, Q-Chem Inc. Pittsburgh 
 -------------------------------------------------------
 A unrestricted SCF calculation will be
 performed using DIIS
 SCF converges when DIIS error is below 1.0e-08
 Alpha HF Exchange    Energy =  -5.78128108279093
 Beta HF Exchange     Energy =  -4.99885341675726
 One-Electron (alpha) Energy = -80.32946875763658
 One-Electron (beta)  Energy = -72.06941027630884
 Total Coulomb        Energy =  57.12631055932053
 ---------------------------------------
  Cycle       Energy         DIIS error
 ---------------------------------------
    1     -99.8654741266      7.08e-06  
 Alpha HF Exchange    Energy =  -5.78128108257393
 Beta HF Exchange     Energy =  -4.99885341929645
 One-Electron (alpha) Energy = -80.32946876305029
 One-Electron (beta)  Energy = -72.06941029047840
 Total Coulomb        Energy =  57.12631057862446
    2     -99.8654741292      2.30e-06  
 Alpha HF Exchange    Energy =  -5.78128108234024
 Beta HF Exchange     Energy =  -4.99885341975297
 One-Electron (alpha) Energy = -80.32946876016732
 One-Electron (beta)  Energy = -72.06941029052690
 Total Coulomb        Energy =  57.12631057538772
    3     -99.8654741299      1.76e-06  
 Alpha HF Exchange    Energy =  -5.78128108254330
 Beta HF Exchange     Energy =  -4.99885341922669
 One-Electron (alpha) Energy = -80.32946874116202
 One-Electron (beta)  Energy = -72.06941027118454
 Total Coulomb        Energy =  57.12631053118503
    4     -99.8654741354      9.61e-07  
 Alpha HF Exchange    Energy =  -5.78128108227550
 Beta HF Exchange     Energy =  -4.99885341561723
 One-Electron (alpha) Energy = -80.32946873684423
 One-Electron (beta)  Energy = -72.06941017338454
 Total Coulomb        Energy =  57.12631042284268
    5     -99.8654741378      3.92e-09  Convergence criterion met
 ---------------------------------------
 Alpha HF Exchange    Energy =  -5.78128108227550
 Beta HF Exchange     Energy =  -4.99885341561723
 One-Electron (alpha) Energy = -80.32946873684423
 One-Electron (beta)  Energy = -72.06941017338454
 Total Coulomb        Energy =  57.12631042284268
 SCF time:   CPU 0.09s  wall 0.00s 
<S^2> =          0.758565067
 Alpha HF Exchange    Energy =  -5.78128108227550
 Beta HF Exchange     Energy =  -4.99885341561723
 One-Electron (alpha) Energy = -80.32946873684423
 One-Electron (beta)  Energy = -72.06941017338454
 Total Coulomb        Energy =  57.12631042284268
 Nuclear repulsion Energy =   6.18722884752840
 SCF   energy in the final basis set =      -99.8654741378
 Total energy in the final basis set =      -99.8654741378

 --------------------------------------------------------------

                    Orbital Energies (a.u.)
 --------------------------------------------------------------

 Alpha MOs
 -- Occupied --
-26.1031  -1.6162  -0.7940  -0.6617  -0.6617  -0.5426
 -- Virtual --
  0.7111

 Beta MOs
 -- Occupied --
-26.0659  -1.4499  -0.6180  -0.6179  -0.5756
 -- Virtual --
  0.1401   0.7690
 --------------------------------------------------------------

          Ground-State Mulliken Net Atomic Charges

     Atom                 Charge (a.u.)    Spin (a.u.)
  --------------------------------------------------------
      1 H                     0.026604      -0.118938
      2 F                    -0.036776       0.928965
      3 H                     0.010172       0.189972
  --------------------------------------------------------
  Sum of atomic charges =     0.000000
  Sum of spin   charges =     1.000000

 -----------------------------------------------------------------
                    Cartesian Multipole Moments
 -----------------------------------------------------------------
    Charge (ESU x 10^10)
                 0.0000
    Dipole Moment (Debye)
         X      -0.0090      Y      -0.2599      Z      -0.0000
       Tot       0.2600
    Quadrupole Moments (Debye-Ang)
        XX      -6.2256     XY       0.0635     YY      -4.9478
        XZ       0.0001     YZ       0.0008     ZZ      -6.2297
    Octopole Moments (Debye-Ang^2)
       XXX      -0.5460    XXY       1.1063    XYY      -0.2497
       YYY       1.8629    XXZ       0.0009    XYZ      -0.0001
       YYZ      -0.0009    XZZ      -0.1820    YZZ       1.1096
       ZZZ       0.0026
    Hexadecapole Moments (Debye-Ang^3)
      XXXX      -3.4271   XXXY      -0.4522   XXYY      -5.5404
      XYYY      -0.1048   YYYY     -23.3558   XXXZ      -0.0001
      XXYZ      -0.0015   XYYZ       0.0002   YYYZ       0.0005
      XXZZ      -1.1288   XYZZ      -0.1510   YYZZ      -5.5442
      XZZZ      -0.0001   YZZZ      -0.0045   ZZZZ      -3.3457
 -----------------------------------------------------------------
 Mayer SCF Bond Order, atomic valence on the diagonal:

            1           2           3
    1   0.9851461   0.0835207   0.9016254
    2   0.0835207   0.1457025   0.0621817
    3   0.9016254   0.0621817   0.9638071


 Calculating analytic gradient of the SCF energy
 ------------------------------------------------------
 Correction for Bais Set Incompleteness Error in  HF-3c
 ------------------------------------------------------
 Gradient of SCF Energy
            1           2           3
    1   0.0051212  -0.0013941  -0.0037271
    2   0.0790781  -0.0399764  -0.0391017
    3   0.0000644  -0.0000047  -0.0000596
 Max gradient component =       7.908E-02
 RMS gradient           =       3.236E-02
 Gradient time:  CPU 0.03 s  wall 0.03 s
Dipole drv :
gprntSymmMtrx error report: 
 Final Hessian.
            1           2           3           4           5           6
    1   0.0253973   0.0253454  -0.0000001   0.0109847   0.0015342   0.0000000
    2   0.0253454   0.3207103  -0.0000021  -0.0004358   0.0011394   0.0000001
    3  -0.0000001  -0.0000021   0.0231281   0.0000000   0.0000000   0.0109437
    4   0.0109847  -0.0004358   0.0000000  -0.0133627   0.0024622  -0.0000000
    5   0.0015342   0.0011394   0.0000000   0.0024622   0.0533133  -0.0000003
    6   0.0000000   0.0000001   0.0109437  -0.0000000  -0.0000003  -0.0134567
    7  -0.0363820  -0.0249094   0.0000000   0.0023780  -0.0039966   0.0000000
    8  -0.0268797  -0.3218504   0.0000000  -0.0020263  -0.0544523   0.0000000
    9  -0.0000000  -0.0000005  -0.0340718   0.0000000   0.0000002   0.0025130
            7           8           9
    1  -0.0363820  -0.0268797  -0.0000000
    2  -0.0249094  -0.3218504  -0.0000005
    3   0.0000000   0.0000000  -0.0340718
    4   0.0023780  -0.0020263   0.0000000
    5  -0.0039966  -0.0544523   0.0000002
    6   0.0000000   0.0000000   0.0025130
    7   0.0340040   0.0289059   0.0000000
    8   0.0289059   0.3763028   0.0000003
    9   0.0000000   0.0000003   0.0315588
 Adding empirical dispersion correction 
 ----------------------------------------------------------------
 Doing -D3(BJ) with
 s6  =   1.00000
 s8  =   0.87770
 a1  =   0.41710
 a2  =   2.91490
 -D3 energy without 3body term =     -0.0023358288 hartrees
 ----------------------------------------------------------------
 Adding gCP correction 
 ----------------------------------------------------------------
 gCP energy =      0.0131670972 hartrees
 ------------------------------------------------------
 Correction for Bais Set Incompleteness Error in  HF-3c
 ------------------------------------------------------
 SRB energy =     -0.0060723280 hartrees
 ----------------------------------------------------------------
             Standard Nuclear Orientation (Angstroms)
    I     Atom           X                Y                Z
 ----------------------------------------------------------------
    1      H       0.0077871596    -1.1007857464     0.0000000000
    2      F       0.0503068575     0.3275856126     0.0000000000
    3      H      -0.0580940171    -1.8701792077     0.0000000000
 ----------------------------------------------------------------
 Nuclear Repulsion Energy =           6.18722965 hartrees
 There are        6 alpha and        5 beta electrons
 old dipole drv.
            1           2           3           4           5           6
    1   0.0272804  -0.0185943  -0.0000002  -0.0342261   0.0101031   0.0000003
    2  -0.0289407  -0.4855020  -0.0000054   0.0097057   0.2690721   0.0000064
    3  -0.0000000   0.0000000   0.0283113   0.0000000  -0.0000000  -0.0345280
            7           8           9
    1   0.0069458   0.0084909  -0.0000003
    2   0.0192367   0.2164260  -0.0000061
    3  -0.0000000  -0.0000000   0.0062168
 New transposed dipole drv.
            1           2           3
    1   0.0272804  -0.0289407  -0.0000000
    2  -0.0185943  -0.4855020   0.0000000
    3  -0.0000002  -0.0000054   0.0283113
    4  -0.0342261   0.0097057   0.0000000
    5   0.0101031   0.2690721  -0.0000000
    6   0.0000003   0.0000064  -0.0345280
    7   0.0069458   0.0192367  -0.0000000
    8   0.0084909   0.2164260  -0.0000000
    9  -0.0000003  -0.0000061   0.0062168
FINAL TENSOR RESULT:
Order 2, Length 9
    Atom      X          Y          Z
     1 Order 1, Length 9
    Atom      X          Y          Z
     1    2.539734827410689e-02   2.534544218537135e-02  -1.146637508501799e-07
     2    1.098469820510459e-02   1.534245202116738e-03   0.000000000000000e+00
     3   -3.638202689491869e-02  -2.687972300511433e-02  -3.567005902880276e-08

Order 1, Length 9
    Atom      X          Y          Z
     1    2.534544218537135e-02   3.207103083404899e-01  -2.076729366426888e-06
     2   -4.358350257523555e-04   1.139432796724508e-03   1.253045339915777e-07
     3   -2.490938632732272e-02  -3.218503853069595e-01  -5.431261575008395e-07

Order 1, Length 9
    Atom      X          Y          Z
     1   -1.146637508501799e-07  -2.076729366426888e-06   2.312807205638824e-02
     2    0.000000000000000e+00   0.000000000000000e+00   1.094369919448743e-02
     3    0.000000000000000e+00   0.000000000000000e+00  -3.407176488679868e-02


     2 Order 1, Length 9
    Atom      X          Y          Z
     1    1.098469820510459e-02  -4.358350257523555e-04   0.000000000000000e+00
     2   -1.336265796162640e-02   2.462201745779741e-03  -1.288635758452357e-08
     3    2.377968572200017e-03  -2.026303542204807e-03   0.000000000000000e+00

Order 1, Length 9
    Atom      X          Y          Z
     1    1.534245202116738e-03   1.139432796724508e-03   0.000000000000000e+00
     2    2.462201745779741e-03   5.331334167385565e-02  -2.941960033237321e-07
     3   -3.996565125546568e-03  -5.445226589901093e-02   2.333655496311476e-07

Order 1, Length 9
    Atom      X          Y          Z
     1    0.000000000000000e+00   1.253045339915777e-07   1.094369919448743e-02
     2   -1.288635758452357e-08  -2.941960033237321e-07  -1.345665942671995e-02
     3    2.514946663840754e-08   0.000000000000000e+00   2.512973478415440e-03


     3 Order 1, Length 9
    Atom      X          Y          Z
     1   -3.638202689491869e-02  -2.490938632732272e-02   0.000000000000000e+00
     2    2.377968572200017e-03  -3.996565125546568e-03   2.514946663840754e-08
     3    3.400402992229053e-02   2.890592389374240e-02   2.168641152953978e-08

Order 1, Length 9
    Atom      X          Y          Z
     1   -2.687972300511433e-02  -3.218503853069595e-01   0.000000000000000e+00
     2   -2.026303542204807e-03  -5.445226589901093e-02   0.000000000000000e+00
     3    2.890592389374240e-02   3.763027868046750e-01   3.097605225974523e-07

Order 1, Length 9
    Atom      X          Y          Z
     1   -3.567005902880276e-08  -5.431261575008395e-07  -3.407176488679868e-02
     2    0.000000000000000e+00   2.333655496311476e-07   2.512973478415440e-03
     3    2.168641152953978e-08   3.097605225974523e-07   3.155877179860982e-02




 # Finishing finite difference calculation for IDERIV #
 ######################################################
 ######################################################
 Requested basis set is MINIX
 There are 5 shells and 7 basis functions
 **********************************************************************
 **                                                                  **
 **                       VIBRATIONAL ANALYSIS                       **
 **                       --------------------                       **
 **                                                                  **
 **        VIBRATIONAL FREQUENCIES (CM**-1) AND NORMAL MODES         **
 **     FORCE CONSTANTS (mDYN/ANGSTROM) AND REDUCED MASSES (AMU)     **
 **                  INFRARED INTENSITIES (KM/MOL)                   **
 **                                                                  **
 **********************************************************************


 Mode:                 1                      2                      3
 Frequency:       859.66                1215.07                4211.00
 Force Cnst:      0.4825                 0.8805                10.5315
 Red. Mass:       1.1082                 1.0123                 1.0080
 IR Active:          YES                    YES                    YES
 IR Intens:       47.882                  0.622                230.481
 Raman Active:       YES                    YES                    YES
               X      Y      Z        X      Y      Z        X      Y      Z
 H          0.050  0.736 -0.000    0.835 -0.080  0.000   -0.060 -0.673  0.000
 F         -0.003 -0.075 -0.000   -0.016  0.002 -0.000   -0.000 -0.003  0.000
 H          0.015  0.671  0.000   -0.542  0.041 -0.000    0.062  0.734 -0.000
 TransDip  -0.007 -0.222 -0.000    0.021  0.014  0.000    0.017  0.486 -0.000

 STANDARD THERMODYNAMIC QUANTITIES AT   298.15 K  AND     1.00 ATM

   This Molecule has  0 Imaginary Frequencies
   Zero point vibrational energy:        8.986 kcal/mol

   Atom    1 Element H  Has Mass    1.00783
   Atom    2 Element F  Has Mass   18.99840
   Atom    3 Element H  Has Mass    1.00783
   Molecular Mass:    21.014060 amu
   Principal axes and moments of inertia in amu*Bohr^2:
                             1           2           3
    Eigenvalues --        0.00196    22.50010    22.50206
          X               0.04367     0.99905     0.00000
          Y               0.99905    -0.04367     0.00000
          Z               0.00000    -0.00000     1.00000
   Rotational Symmetry Number is   1
   The Molecule is an Asymmetric Top
   Translational Enthalpy:        0.889 kcal/mol
   Rotational Enthalpy:           0.889 kcal/mol
   Vibrational Enthalpy:          9.035 kcal/mol
   gas constant (RT):             0.592 kcal/mol
   Translational Entropy:        35.068  cal/mol.K
   Rotational Entropy:            7.796  cal/mol.K
   Vibrational Entropy:           0.203  cal/mol.K

   Total Enthalpy:               11.405 kcal/mol
   Total Entropy:                43.066  cal/mol.K
Archival summary:
1\1\C-node1\FREQ\HF\BasisUnspecified\12(2)\pierpa\FriOct3010:27:272020FriOct3010:27:272020\0\\#,FREQ,HF,BasisUnspecified,\\0,2\F\H,1,1.429\H,2,0.772209,1,176.811\\HF=-99.8654741\\@

 Total job time:  2.92s(wall), 4.70s(cpu) 
 Fri Oct 30 10:27:27 2020

        *************************************************************
        *                                                           *
        *  Thank you very much for using Q-Chem.  Have a nice day.  *
        *                                                           *
        *************************************************************


