                  Welcome to Q-Chem
     A Quantum Leap Into The Future Of Chemistry


 Q-Chem 5.3 (devel), Q-Chem, Inc., Pleasanton, CA (2020)

 Yihan Shao,  Zhengting Gan,  E. Epifanovsky,  A. T. B. Gilbert,  M. Wormit,  
 J. Kussmann,  A. W. Lange,  A. Behn,  Jia Deng,  Xintian Feng,  D. Ghosh,  
 M. Goldey,  P. R. Horn,  L. D. Jacobson,  I. Kaliman,  T. Kus,  A. Landau,  
 Jie Liu,  E. I. Proynov,  R. M. Richard,  R. P. Steele,  E. J. Sundstrom,  
 H. L. Woodcock III,  P. M. Zimmerman,  D. Zuev,  B. Alam,  B. Albrecht,  
 A. Aldossary,  E. Alguire,  S. A. Baeppler,  D. Barton,  Z. Benda,  
 Y. A. Bernard,  E. J. Berquist,  K. B. Bravaya,  H. Burton,  K. Carter-Fenk,  
 D. Casanova,  Chun-Min Chang,  Yunqing Chen,  A. Chien,  K. D. Closser,  
 M. P. Coons,  S. Coriani,  S. Dasgupta,  A. L. Dempwolff,  M. Diedenhofen,  
 Hainam Do,  R. G. Edgar,  Po-Tung Fang,  S. Faraji,  S. Fatehi,  
 Qingguo Feng,  J. Fosso-Tande,  J. Gayvert,  Qinghui Ge,  A. Ghysels,  
 G. Gidofalvi,  J. Gomes,  J. Gonthier,  S. Gulania,  A. Gunina,  D. Hait,  
 M. W. D. Hanson-Heine,  S. Hammes-Schiffer,  P. H. P. Harbach,  
 A. W. Hauser,  M. F. Herbst,  J. E. Herr,  E. G. Hohenstein,  Z. C. Holden,  
 S. Houck,  Kerwin Hui,  B. C. Huynh,  M. Ivanov,  T.-C. Jagau,  Hyunjun Ji,  
 B. Kaduk,  K. Khistyaev,  Jaehoon Kim,  P. Klunzinger,  K. Koh,  
 D. Kosenkov,  L. Koulias,  T. Kowalczyk,  C. M. Krauter,  A. Kunitsa,  
 Ka Un Lao,  A. Laurent,  K. V. Lawler,  Joonho Lee,  D. Lefrancois,  
 S. Lehtola,  D. S. Levine,  Yi-Pei Li,  You-Sheng Lin,  Fenglai Liu,  
 Kuan-Yu Liu,  E. Livshits,  M. Loipersberger,  A. Luenser,  P. Manohar,  
 E. Mansoor,  S. F. Manzer,  Shan-Ping Mao,  Yuezhi Mao,  N. Mardirossian,  
 A. V. Marenich,  T. Markovich,  L. A. Martinez-Martinez,  S. A. Maurer,  
 N. J. Mayhall,  S. C. McKenzie,  J.-M. Mewes,  P. Morgante,  A. F. Morrison,  
 J. W. Mullinax,  K. Nanda,  T. S. Nguyen-Beck,  R. Olivares-Amaya,  
 K. J. Oosterbaan,  J. A. Parkhill,  S. K. Paul,  F. Pavosevic,  Zheng Pei,  
 T. M. Perrine,  F. Plasser,  P. Pokhilko,  S. Prager,  A. Prociuk,  
 E. Ramos,  B. Rana,  D. R. Rehn,  F. Rob,  E. Rossomme,  M. Scheurer,  
 M. Schneider,  N. Sergueev,  S. M. Sharada,  S. Sharma,  W. Skomorowski,  
 D. W. Small,  T. Stauch,  C. J. Stein,  T. Stein,  Yu-Chuan Su,  
 S. P. Veccham,  Zhen Tao,  A. J. W. Thom,  A. Tkatchenko,  T. Tsuchimochi,  
 N. M. Tubman,  L. Vogt,  M. L. Vidal,  O. Vydrov,  M. A. Watson,  J. Wenzel,  
 M. de Wergifosse,  T. A. Wesolowski,  A. White,  J. Witte,  A. Yamada,  
 Jun Yang,  K. Yao,  S. Yeganeh,  S. R. Yost,  Zhi-Qiang You,  A. Zech,  
 Igor Ying Zhang,  Xing Zhang,  Yan Zhao,  Ying Zhu,  B. R. Brooks,  
 G. K. L. Chan,  C. J. Cramer,  M. S. Gordon,  W. J. Hehre,  A. Klamt,  
 M. W. Schmidt,  C. D. Sherrill,  D. G. Truhlar,  A. Aspuru-Guzik,  R. Baer,  
 A. T. Bell,  N. A. Besley,  Jeng-Da Chai,  A. E. DePrince, III,  
 R. A. DiStasio Jr.,  A. Dreuw,  B. D. Dunietz,  T. R. Furlani,  
 Chao-Ping Hsu,  Yousung Jung,  Jing Kong,  D. S. Lambrecht,  WanZhen Liang,  
 C. Ochsenfeld,  V. A. Rassolov,  L. V. Slipchenko,  J. E. Subotnik,  
 T. Van Voorhis,  J. M. Herbert,  A. I. Krylov,  P. M. W. Gill,  M. Head-Gordon

 Contributors to earlier versions of Q-Chem not listed above: 
 R. D. Adamson,  B. Austin,  J. Baker,  G. J. O. Beran,  K. Brandhorst,  
 S. T. Brown,  E. F. C. Byrd,  A. K. Chakraborty,  C.-L. Cheng,  
 Siu Hung Chien,  D. M. Chipman,  D. L. Crittenden,  H. Dachsel,  
 R. J. Doerksen,  A. D. Dutoi,  L. Fusti-Molnar,  W. A. Goddard III,  
 A. Golubeva-Zadorozhnaya,  S. R. Gwaltney,  G. Hawkins,  A. Heyden,  
 S. Hirata,  G. Kedziora,  F. J. Keil,  C. Kelley,  Jihan Kim,  R. A. King,  
 R. Z. Khaliullin,  P. P. Korambath,  W. Kurlancheek,  A. M. Lee,  M. S. Lee,  
 S. V. Levchenko,  Ching Yeh Lin,  D. Liotard,  R. C. Lochan,  I. Lotan,  
 P. E. Maslen,  N. Nair,  D. P. O'Neill,  D. Neuhauser,  E. Neuscamman,  
 C. M. Oana,  R. Olson,  B. Peters,  R. Peverati,  P. A. Pieniazek,  
 Y. M. Rhee,  J. Ritchie,  M. A. Rohrdanz,  E. Rosta,  N. J. Russ,  
 H. F. Schaefer III,  N. E. Schultz,  N. Shenvi,  A. C. Simmonett,  A. Sodt,  
 D. Stuck,  K. S. Thanthiriwatte,  V. Vanovschi,  Tao Wang,  A. Warshel,  
 C. F. Williams,  Q. Wu,  X. Xu,  W. Zhang

 Please cite Q-Chem as follows:
 Y. Shao et al., Mol. Phys. 113, 184-215 (2015)
 DOI: 10.1080/00268976.2014.952696

 Q-Chem 5.3.1 for Intel X86 EM64T Linux

 Parts of Q-Chem use Armadillo 9.800.1 (Horizon Scraper).
 http://arma.sourceforge.net/

 Q-Chem begins on Fri Oct 30 10:27:36 2020  

Host: 
0

     Scratch files written to /data/scratch/MN_88_RKT12_BH76_HF_3c//
Processing $rem in /home/pierpa/qchem53/config/preferences:
Processing $rem in /home/pierpa/.qchemrc:

Checking the input file for inconsistencies... 	...done.

--------------------------------------------------------------
User input:
--------------------------------------------------------------
$Comment
Geometry optimizations for CLB18.
$End

$Rem
SYMMETRY              False
SYM_IGNORE            True
JOBTYPE               TS
METHOD                HF-3c
BASIS                 MINIX
GEOM_OPT_MAX_CYCLES   150
GEOM_OPT_DMAX         10
MAX_SCF_CYCLES        50
SCF_ALGORITHM         DIIS
SCF_PRINT             1
SCF_FINAL_PRINT       1
XC_GRID               000099000590
MEM_TOTAL             20000
MEM_STATIC            4000
BLAS3_DFT             True
New_DFT               True
$End

$Molecule
0 2
P 0.2174288616 0.0000880001 -0.1112489250
H 0.2466103388 1.0346684496 0.8521658132
H 0.2626613420 -1.0250585915 0.8616222099
H -1.2664163173 -0.0109520103 -0.1506260596
H -2.5042888159 0.0000290000 0.1055750870
$End

--------------------------------------------------------------
 Adding empirical dispersion correction 
 ----------------------------------------------------------------
 Doing -D3(BJ) with
 s6  =   1.00000
 s8  =   0.87770
 a1  =   0.41710
 a2  =   2.91490
 -D3 energy without 3body term =     -0.0118890624 hartrees
 ----------------------------------------------------------------
 Adding gCP correction 
 ----------------------------------------------------------------
 gCP energy =      0.0440621572 hartrees
 ------------------------------------------------------
 Correction for Bais Set Incompleteness Error in  HF-3c
 ------------------------------------------------------
 SRB energy =     -0.0068642879 hartrees
 ----------------------------------------------------------------
             Standard Nuclear Orientation (Angstroms)
    I     Atom           X                Y                Z
 ----------------------------------------------------------------
    1      P       0.2174288616     0.0000880001    -0.1112489250
    2      H       0.2466103388     1.0346684496     0.8521658132
    3      H       0.2626613420    -1.0250585915     0.8616222099
    4      H      -1.2664163173    -0.0109520103    -0.1506260596
    5      H      -2.5042888159     0.0000290000     0.1055750870
 ----------------------------------------------------------------
 Nuclear Repulsion Energy =          21.03594556 hartrees
 There are       10 alpha and        9 beta electrons
 Requested basis set is MINIX
 There are 10 shells and 18 basis functions

 Total QAlloc Memory Limit  20000 MB
 Mega-Array Size      3911 MB
 MEM_STATIC part      4000 MB
 A cutoff of  1.0D-11 yielded     55 shell pairs
 There are       187 function pairs (       211 Cartesian)
 Smallest overlap matrix eigenvalue = 2.51E-01

 Scale SEOQF with 1.000000e-01/1.000000e+00/1.000000e+00

 Standard Electronic Orientation quadrupole field applied
 Guess from superposition of atomic densities
 Warning:  Energy on first SCF cycle will be non-variational
 SAD guess density has 19.000000 electrons

 -----------------------------------------------------------------------
  General SCF calculation program by
  Eric Jon Sundstrom, Paul Horn, Yuezhi Mao, Dmitri Zuev, Alec White,
  David Stuck, Shaama M.S., Shane Yost, Joonho Lee, David Small,
  Daniel Levine, Susi Lehtola, Hugh Burton, Evgeny Epifanovsky,
  Bang C. Huynh
 -----------------------------------------------------------------------
 Hartree-Fock
 Dispersion:   Grimme D3
 using 8 threads for integral computing
 -------------------------------------------------------
 OpenMP Integral computing Module                
 Release: version 1.0, May 2013, Q-Chem Inc. Pittsburgh 
 -------------------------------------------------------
 A unrestricted SCF calculation will be
 performed using DIIS
 SCF converges when DIIS error is below 1.0e-08
 Alpha HF Exchange    Energy = -11.84522216645041
 Beta HF Exchange     Energy = -11.84522216645041
 One-Electron (alpha) Energy = -257.17004084616087
 One-Electron (beta)  Energy = -257.17004084616087
 Total Coulomb        Energy = 176.53747413411890
 ---------------------------------------
  Cycle       Energy         DIIS error
 ---------------------------------------
    1    -340.4571063360      5.26e-02  
 Alpha HF Exchange    Energy = -12.19342594711107
 Beta HF Exchange     Energy = -11.76908089258083
 One-Electron (alpha) Energy = -260.12972881670868
 One-Electron (beta)  Energy = -254.39031742444612
 Total Coulomb        Energy = 176.32185001302170
    2    -341.1247575127      8.09e-03  
 Alpha HF Exchange    Energy = -12.20707009055031
 Beta HF Exchange     Energy = -11.79226558418426
 One-Electron (alpha) Energy = -259.84722132591457
 One-Electron (beta)  Energy = -254.46289250769178
 Total Coulomb        Energy = 176.11776084893143
    3    -341.1557431043      3.52e-03  
 Alpha HF Exchange    Energy = -12.21589852849781
 Beta HF Exchange     Energy = -11.80556594938250
 One-Electron (alpha) Energy = -259.73922216306966
 One-Electron (beta)  Energy = -254.55595432324688
 Total Coulomb        Energy = 176.11751299403295
    4    -341.1631824150      1.26e-03  
 Alpha HF Exchange    Energy = -12.21998941164158
 Beta HF Exchange     Energy = -11.81155505977136
 One-Electron (alpha) Energy = -259.68171484543069
 One-Electron (beta)  Energy = -254.59330703780336
 Total Coulomb        Energy = 176.10636915463868
    5    -341.1642516449      1.95e-04  
 Alpha HF Exchange    Energy = -12.21990554855826
 Beta HF Exchange     Energy = -11.81151959619444
 One-Electron (alpha) Energy = -259.67795732451026
 One-Electron (beta)  Energy = -254.60244598626338
 Total Coulomb        Energy = 176.11160624314894
    6    -341.1642766572      9.71e-05  
 Alpha HF Exchange    Energy = -12.22001890191881
 Beta HF Exchange     Energy = -11.81173625116116
 One-Electron (alpha) Energy = -259.67029967632914
 One-Electron (beta)  Energy = -254.61067778590015
 Total Coulomb        Energy = 176.11249836605802
    7    -341.1642886941      4.48e-05  
 Alpha HF Exchange    Energy = -12.21996242077585
 Beta HF Exchange     Energy = -11.81162180896345
 One-Electron (alpha) Energy = -259.66857427791149
 One-Electron (beta)  Energy = -254.61288880955394
 Total Coulomb        Energy = 176.11281096433697
    8    -341.1642907977      1.06e-05  
 Alpha HF Exchange    Energy = -12.21998205532396
 Beta HF Exchange     Energy = -11.81162189993241
 One-Electron (alpha) Energy = -259.66789107906413
 One-Electron (beta)  Energy = -254.61346217741379
 Total Coulomb        Energy = 176.11272072515445
    9    -341.1642909314      2.33e-06  
 Alpha HF Exchange    Energy = -12.21998831163346
 Beta HF Exchange     Energy = -11.81162468493459
 One-Electron (alpha) Energy = -259.66784642319317
 One-Electron (beta)  Energy = -254.61348320051442
 Total Coulomb        Energy = 176.11270612992652
   10    -341.1642909352      7.87e-07  
 Alpha HF Exchange    Energy = -12.21998676153494
 Beta HF Exchange     Energy = -11.81162257378245
 One-Electron (alpha) Energy = -259.66792308388551
 One-Electron (beta)  Energy = -254.61341517011968
 Total Coulomb        Energy = 176.11271109853584
   11    -341.1642909356      3.07e-07  
 Alpha HF Exchange    Energy = -12.21998686140361
 Beta HF Exchange     Energy = -11.81162355972982
 One-Electron (alpha) Energy = -259.66793923438740
 One-Electron (beta)  Energy = -254.61339793398361
 Total Coulomb        Energy = 176.11271109862992
   12    -341.1642909357      1.24e-07  
 Alpha HF Exchange    Energy = -12.21998654991464
 Beta HF Exchange     Energy = -11.81162357782308
 One-Electron (alpha) Energy = -259.66795735604353
 One-Electron (beta)  Energy = -254.61338038768943
 Total Coulomb        Energy = 176.11271138059416
   13    -341.1642909357      2.64e-08  
 Alpha HF Exchange    Energy = -12.21998650176722
 Beta HF Exchange     Energy = -11.81162357703237
 One-Electron (alpha) Energy = -259.66796096443693
 One-Electron (beta)  Energy = -254.61337682312322
 Total Coulomb        Energy = 176.11271137544594
   14    -341.1642909358      1.13e-08  
 Alpha HF Exchange    Energy = -12.21998651321870
 Beta HF Exchange     Energy = -11.81162360473260
 One-Electron (alpha) Energy = -259.66796132808679
 One-Electron (beta)  Energy = -254.61337638432411
 Total Coulomb        Energy = 176.11271133939479
   15    -341.1642909358      2.45e-09  Convergence criterion met
 ---------------------------------------
 Alpha HF Exchange    Energy = -12.21998651321870
 Beta HF Exchange     Energy = -11.81162360473260
 One-Electron (alpha) Energy = -259.66796132808679
 One-Electron (beta)  Energy = -254.61337638432411
 Total Coulomb        Energy = 176.11271133939479
 SCF time:   CPU 0.51s  wall 0.00s 
<S^2> =          0.770617598
 Alpha HF Exchange    Energy = -12.21998651321870
 Beta HF Exchange     Energy = -11.81162360473260
 One-Electron (alpha) Energy = -259.66796132808679
 One-Electron (beta)  Energy = -254.61337638432411
 Total Coulomb        Energy = 176.11271133939479
 Nuclear repulsion Energy =  21.03594555514806
 SCF   energy in the final basis set =     -341.1642909358
 Total energy in the final basis set =     -341.1642909358

 --------------------------------------------------------------

                    Orbital Energies (a.u.)
 --------------------------------------------------------------

 Alpha MOs
 -- Occupied --
-79.3398  -7.4223  -5.2876  -5.2834  -5.2818  -0.8443  -0.5854  -0.5078
 -0.4115  -0.3403
 -- Virtual --
  0.3297   0.3388   0.6124   0.7764   0.7813   0.7999   1.1578   1.1599

 Beta MOs
 -- Occupied --
-79.3373  -7.4193  -5.2818  -5.2811  -5.2764  -0.8269  -0.5121  -0.5069
 -0.3731
 -- Virtual --
  0.2023   0.3311   0.4077   0.6323   0.7911   0.7990   0.8129   1.1617
  1.1799
 --------------------------------------------------------------

          Ground-State Mulliken Net Atomic Charges

     Atom                 Charge (a.u.)    Spin (a.u.)
  --------------------------------------------------------
      1 P                    -0.297375       0.277295
      2 H                     0.092479      -0.011786
      3 H                     0.092524      -0.011775
      4 H                     0.095914      -0.155498
      5 H                     0.016458       0.901763
  --------------------------------------------------------
  Sum of atomic charges =    -0.000000
  Sum of spin   charges =     1.000000

 -----------------------------------------------------------------
                    Cartesian Multipole Moments
 -----------------------------------------------------------------
    Charge (ESU x 10^10)
                -0.0000
    Dipole Moment (Debye)
         X      -0.8989      Y      -0.0008      Z       0.8123
       Tot       1.2116
    Quadrupole Moments (Debye-Ang)
        XX     -15.6557     XY      -0.0022     YY     -15.5790
        XZ       0.9119     YZ       0.0003     ZZ     -16.9039
    Octopole Moments (Debye-Ang^2)
       XXX      -3.2714    XXY      -0.0030    XYY      -0.2450
       YYY       0.0030    XXZ       0.8055    XYZ      -0.0017
       YYZ       0.5679    XZZ      -0.6593    YZZ      -0.0014
       ZZZ       1.5826
    Hexadecapole Moments (Debye-Ang^3)
      XXXX     -60.2029   XXXY       0.0108   XXYY     -16.3528
      XYYY      -0.0137   YYYY     -30.6265   XXXZ       1.2098
      XXYZ       0.0001   XYYZ       0.4660   YYYZ       0.0123
      XXZZ     -16.6500   XYZZ      -0.0116   YYZZ      -9.5991
      XZZZ       1.3172   YZZZ      -0.0119   ZZZZ     -32.1745
 -----------------------------------------------------------------
 Mayer SCF Bond Order, atomic valence on the diagonal:

            1           2           3           4           5
    1   2.9089413   0.9889019   0.9888926   0.8551060   0.0760407
    2   0.9889019   0.9913088   0.0011335   0.0008914   0.0003819
    3   0.9888926   0.0011335   0.9913007   0.0008842   0.0003903
    4   0.8551060   0.0008914   0.0008842   0.9666210   0.1097393
    5   0.0760407   0.0003819   0.0003903   0.1097393   0.1865522


 Calculating analytic gradient of the SCF energy
 ------------------------------------------------------
 Correction for Bais Set Incompleteness Error in  HF-3c
 ------------------------------------------------------
 Gradient of SCF Energy
            1           2           3           4           5
    1  -0.0030495  -0.0015744  -0.0017223  -0.0077580   0.0141042
    2   0.0001749  -0.0092671   0.0091669  -0.0001018   0.0000271
    3   0.0137136  -0.0071564  -0.0072447   0.0020834  -0.0013959
 Max gradient component =       1.410E-02
 RMS gradient           =       7.033E-03
 Gradient time:  CPU 0.20 s  wall 0.16 s
 Geometry Optimization Parameters
   NAtoms,    NIC,     NZ,  NCons,   NDum,   NFix, NCnnct, MaxDiis
        5      20       0       0       0       0       0       0


** GEOMETRY OPTIMIZATION IN DELOCALIZED INTERNAL COORDINATES **
   Searching for a Transition State

   Optimization Cycle:   1

                       Coordinates (Angstroms)
     ATOM                X               Y               Z
      1  P         0.2174288616    0.0000880001   -0.1112489250
      2  H         0.2466103388    1.0346684496    0.8521658132
      3  H         0.2626613420   -1.0250585915    0.8616222099
      4  H        -1.2664163173   -0.0109520103   -0.1506260596
      5  H        -2.5042888159    0.0000290000    0.1055750870
   Point Group: c1    Number of degrees of freedom:     9


   Energy is   -341.164290936


 Attempting to generate delocalized internal coordinates
 Initial Hessian constructed with Jon Baker's OPTIMIZE code

  9 Hessian modes will be used to form the next step
  Hessian Eigenvalues:
     0.095004    0.160000    0.160000    0.160869    0.175669    0.200000
     0.200000    0.212860    0.212876
**WARNING** Hessian does not have the desired local structure
**WARNING** Hessian does not have the desired local structure

 Transition state search - taking P-RFO step
 Searching for Lamda that Maximizes Along the Lowest mode
 Value Taken    Lamda =   0.09705083
 Searching for Lamda that Minimizes Along All other modes
 Value Taken    Lamda =  -0.00174949
 Calculated Step too Large.  Step scaled by  0.001452
 Step Taken.  Stepsize is  0.010000

                             Maximum     Tolerance    Cnvgd?
         Gradient           0.011338      0.000300      NO
         Displacement       0.007078      0.001200      NO
         Energy change     *********      0.000001      NO


 New Cartesian Coordinates Obtained by Inverse Iteration

 Displacement from previous Coordinates is:  0.008605
 Adding empirical dispersion correction 
 ----------------------------------------------------------------
 Doing -D3(BJ) with
 s6  =   1.00000
 s8  =   0.87770
 a1  =   0.41710
 a2  =   2.91490
 -D3 energy without 3body term =     -0.0119044332 hartrees
 ----------------------------------------------------------------
 Adding gCP correction 
 ----------------------------------------------------------------
 gCP energy =      0.0440806143 hartrees
 ------------------------------------------------------
 Correction for Bais Set Incompleteness Error in  HF-3c
 ------------------------------------------------------
 SRB energy =     -0.0068681078 hartrees
 ----------------------------------------------------------------
             Standard Nuclear Orientation (Angstroms)
    I     Atom           X                Y                Z
 ----------------------------------------------------------------
    1      P       0.2162045310     0.0000878820    -0.1113889531
    2      H       0.2458564661     1.0347123754     0.8520255267
    3      H       0.2618897176    -1.0251002747     0.8614780262
    4      H      -1.2676850169    -0.0109361145    -0.1501330594
    5      H      -2.5002702887     0.0000109797     0.1055065851
 ----------------------------------------------------------------
 Nuclear Repulsion Energy =          21.04330995 hartrees
 There are       10 alpha and        9 beta electrons
 Applying Cartesian multipole field
    Component          Value
    ---------          -----
     (2,0,0)        1.00000E-11
     (0,2,0)        2.00000E-10
     (0,0,2)       -3.00000E-10
 Requested basis set is MINIX
 There are 10 shells and 18 basis functions
 A cutoff of  1.0D-11 yielded     55 shell pairs
 There are       187 function pairs (       211 Cartesian)
 Smallest overlap matrix eigenvalue = 2.51E-01
 Guess MOs from SCF MO coefficient file

 -----------------------------------------------------------------------
  General SCF calculation program by
  Eric Jon Sundstrom, Paul Horn, Yuezhi Mao, Dmitri Zuev, Alec White,
  David Stuck, Shaama M.S., Shane Yost, Joonho Lee, David Small,
  Daniel Levine, Susi Lehtola, Hugh Burton, Evgeny Epifanovsky,
  Bang C. Huynh
 -----------------------------------------------------------------------
 Hartree-Fock
 Dispersion:   Grimme D3
 using 8 threads for integral computing
 -------------------------------------------------------
 OpenMP Integral computing Module                
 Release: version 1.0, May 2013, Q-Chem Inc. Pittsburgh 
 -------------------------------------------------------
 A unrestricted SCF calculation will be
 performed using DIIS
 SCF converges when DIIS error is below 1.0e-08
 Alpha HF Exchange    Energy = -12.22021054222523
 Beta HF Exchange     Energy = -11.81160505061303
 One-Electron (alpha) Energy = -259.68044111763191
 One-Electron (beta)  Energy = -254.61649899920837
 Total Coulomb        Energy = 176.12129582802564
 ---------------------------------------
  Cycle       Energy         DIIS error
 ---------------------------------------
    1    -341.1641499363      6.20e-05  
 Alpha HF Exchange    Energy = -12.22011242764376
 Beta HF Exchange     Energy = -11.81151790906848
 One-Electron (alpha) Energy = -259.68283986176698
 One-Electron (beta)  Energy = -254.61432033002319
 Total Coulomb        Energy = 176.12132870730713
    2    -341.1641518759      2.91e-05  
 Alpha HF Exchange    Energy = -12.22004947844875
 Beta HF Exchange     Energy = -11.81145618856899
 One-Electron (alpha) Energy = -259.68495753765689
 One-Electron (beta)  Energy = -254.61227278500596
 Total Coulomb        Energy = 176.12127345771262
    3    -341.1641525866      1.19e-05  
 Alpha HF Exchange    Energy = -12.22003584596546
 Beta HF Exchange     Energy = -11.81144527352255
 One-Electron (alpha) Energy = -259.68594446970286
 One-Electron (beta)  Energy = -254.61120859465890
 Total Coulomb        Energy = 176.12117150477661
    4    -341.1641527338      6.13e-06  
 Alpha HF Exchange    Energy = -12.22003459034005
 Beta HF Exchange     Energy = -11.81145330317505
 One-Electron (alpha) Energy = -259.68664667664780
 One-Electron (beta)  Energy = -254.61043287711070
 Total Coulomb        Energy = 176.12110472094608
    5    -341.1641527810      1.17e-06  
 Alpha HF Exchange    Energy = -12.22003447401090
 Beta HF Exchange     Energy = -11.81145677964001
 One-Electron (alpha) Energy = -259.68672546674588
 One-Electron (beta)  Energy = -254.61035927311823
 Total Coulomb        Energy = 176.12111326579515
    6    -341.1641527824      3.51e-07  
 Alpha HF Exchange    Energy = -12.22003434990820
 Beta HF Exchange     Energy = -11.81145690058920
 One-Electron (alpha) Energy = -259.68672834941708
 One-Electron (beta)  Energy = -254.61035756658464
 Total Coulomb        Energy = 176.12111443866036
    7    -341.1641527825      1.29e-07  
 Alpha HF Exchange    Energy = -12.22003435698799
 Beta HF Exchange     Energy = -11.81145673357907
 One-Electron (alpha) Energy = -259.68672585904432
 One-Electron (beta)  Energy = -254.61035931569577
 Total Coulomb        Energy = 176.12111353744785
    8    -341.1641527825      4.02e-08  
 Alpha HF Exchange    Energy = -12.22003439469107
 Beta HF Exchange     Energy = -11.81145666213586
 One-Electron (alpha) Energy = -259.68672344826086
 One-Electron (beta)  Energy = -254.61036142644267
 Total Coulomb        Energy = 176.12111320366790
    9    -341.1641527825      1.80e-08  
 Alpha HF Exchange    Energy = -12.22003442450845
 Beta HF Exchange     Energy = -11.81145663578769
 One-Electron (alpha) Energy = -259.68672134795139
 One-Electron (beta)  Energy = -254.61036347610465
 Total Coulomb        Energy = 176.12111315650833
   10    -341.1641527825      4.95e-09  Convergence criterion met
 ---------------------------------------
 Alpha HF Exchange    Energy = -12.22003442450845
 Beta HF Exchange     Energy = -11.81145663578769
 One-Electron (alpha) Energy = -259.68672134795139
 One-Electron (beta)  Energy = -254.61036347610465
 Total Coulomb        Energy = 176.12111315650833
 SCF time:   CPU 0.36s  wall 0.00s 
<S^2> =          0.771098575
 Alpha HF Exchange    Energy = -12.22003442450845
 Beta HF Exchange     Energy = -11.81145663578769
 One-Electron (alpha) Energy = -259.68672134795139
 One-Electron (beta)  Energy = -254.61036347610465
 Total Coulomb        Energy = 176.12111315650833
 Nuclear repulsion Energy =  21.04330994532266
 SCF   energy in the final basis set =     -341.1641527825
 Total energy in the final basis set =     -341.1641527825

 --------------------------------------------------------------

                    Orbital Energies (a.u.)
 --------------------------------------------------------------

 Alpha MOs
 -- Occupied --
-79.3396  -7.4222  -5.2875  -5.2832  -5.2817  -0.8445  -0.5861  -0.5077
 -0.4112  -0.3397
 -- Virtual --
  0.3297   0.3393   0.6128   0.7763   0.7812   0.7999   1.1583   1.1599

 Beta MOs
 -- Occupied --
-79.3371  -7.4192  -5.2816  -5.2809  -5.2762  -0.8268  -0.5124  -0.5068
 -0.3731
 -- Virtual --
  0.2016   0.3311   0.4083   0.6330   0.7912   0.7992   0.8132   1.1618
  1.1808
 --------------------------------------------------------------

          Ground-State Mulliken Net Atomic Charges

     Atom                 Charge (a.u.)    Spin (a.u.)
  --------------------------------------------------------
      1 P                    -0.297347       0.281518
      2 H                     0.092465      -0.011971
      3 H                     0.092510      -0.011960
      4 H                     0.095703      -0.157289
      5 H                     0.016668       0.899703
  --------------------------------------------------------
  Sum of atomic charges =     0.000000
  Sum of spin   charges =     1.000000

 -----------------------------------------------------------------
                    Cartesian Multipole Moments
 -----------------------------------------------------------------
    Charge (ESU x 10^10)
                -0.0000
    Dipole Moment (Debye)
         X      -0.9013      Y      -0.0008      Z       0.8132
       Tot       1.2140
    Quadrupole Moments (Debye-Ang)
        XX     -15.6488     XY      -0.0023     YY     -15.5790
        XZ       0.9090     YZ       0.0002     ZZ     -16.9052
    Octopole Moments (Debye-Ang^2)
       XXX      -3.2437    XXY      -0.0029    XYY      -0.2312
       YYY       0.0031    XXZ       0.8063    XYZ      -0.0018
       YYZ       0.5698    XZZ      -0.6442    YZZ      -0.0014
       ZZZ       1.5892
    Hexadecapole Moments (Debye-Ang^3)
      XXXX     -60.0212   XXXY       0.0105   XXYY     -16.3291
      XYYY      -0.0138   YYYY     -30.6276   XXXZ       1.1985
      XXYZ       0.0001   XYYZ       0.4650   YYYZ       0.0123
      XXZZ     -16.6253   XYZZ      -0.0117   YYZZ      -9.5997
      XZZZ       1.3129   YZZZ      -0.0119   ZZZZ     -32.1776
 -----------------------------------------------------------------
 Mayer SCF Bond Order, atomic valence on the diagonal:

            1           2           3           4           5
    1   2.9071843   0.9888932   0.9888840   0.8521342   0.0772729
    2   0.9888932   0.9913070   0.0011351   0.0008889   0.0003897
    3   0.9888840   0.0011351   0.9912988   0.0008816   0.0003982
    4   0.8521342   0.0008889   0.0008816   0.9661009   0.1121961
    5   0.0772729   0.0003897   0.0003982   0.1121961   0.1902569


 Calculating analytic gradient of the SCF energy
 ------------------------------------------------------
 Correction for Bais Set Incompleteness Error in  HF-3c
 ------------------------------------------------------
 Gradient of SCF Energy
            1           2           3           4           5
    1  -0.0037414  -0.0015479  -0.0016958  -0.0070788   0.0140640
    2   0.0001719  -0.0092411   0.0091415  -0.0001023   0.0000300
    3   0.0137111  -0.0071372  -0.0072255   0.0020243  -0.0013728
 Max gradient component =       1.406E-02
 RMS gradient           =       6.992E-03
 Gradient time:  CPU 0.18 s  wall 0.15 s
 Geometry Optimization Parameters
   NAtoms,    NIC,     NZ,  NCons,   NDum,   NFix, NCnnct, MaxDiis
        5      20       0       0       0       0       0       0

 Cartesian Hessian Update
 Hessian updated using Powell/Murtagh-Sargent update
  Mixing factors:     0.012460 Powell                      0.987540 Murtagh-Sargent


** GEOMETRY OPTIMIZATION IN DELOCALIZED INTERNAL COORDINATES **
   Searching for a Transition State

   Optimization Cycle:   2

                       Coordinates (Angstroms)
     ATOM                X               Y               Z
      1  P         0.2162045310    0.0000878820   -0.1113889531
      2  H         0.2458564661    1.0347123754    0.8520255267
      3  H         0.2618897176   -1.0251002747    0.8614780262
      4  H        -1.2676850169   -0.0109361145   -0.1501330594
      5  H        -2.5002702887    0.0000109797    0.1055065851
   Point Group: c1    Number of degrees of freedom:     9


   Energy is   -341.164152783

 Hessian updated using Powell/Murtagh-Sargent update
  Mixing factors:     0.299409 Powell                      0.700591 Murtagh-Sargent

  9 Hessian modes will be used to form the next step
  Hessian Eigenvalues:
    -0.028858    0.159902    0.160000    0.160870    0.170056    0.199986
     0.200000    0.212863    0.212880

 Transition state search - taking P-RFO step
 Searching for Lamda that Maximizes Along the Lowest mode
 Value Taken    Lamda =   0.00380902
 Searching for Lamda that Minimizes Along All other modes
 Value Taken    Lamda =  -0.00221118
 Calculated Step too Large.  Step scaled by  0.027950
 Step Taken.  Stepsize is  0.010000

                             Maximum     Tolerance    Cnvgd?
         Gradient           0.011233      0.000300      NO
         Displacement       0.009276      0.001200      NO
         Energy change      0.000138      0.000001      NO


 New Cartesian Coordinates Obtained by Inverse Iteration

 Displacement from previous Coordinates is:  0.006590
 Adding empirical dispersion correction 
 ----------------------------------------------------------------
 Doing -D3(BJ) with
 s6  =   1.00000
 s8  =   0.87770
 a1  =   0.41710
 a2  =   2.91490
 -D3 energy without 3body term =     -0.0119051168 hartrees
 ----------------------------------------------------------------
 Adding gCP correction 
 ----------------------------------------------------------------
 gCP energy =      0.0439622693 hartrees
 ------------------------------------------------------
 Correction for Bais Set Incompleteness Error in  HF-3c
 ------------------------------------------------------
 SRB energy =     -0.0068331990 hartrees
 ----------------------------------------------------------------
             Standard Nuclear Orientation (Angstroms)
    I     Atom           X                Y                Z
 ----------------------------------------------------------------
    1      P       0.2162270563     0.0000910347    -0.1114458609
    2      H       0.2463754383     1.0354827826     0.8522477052
    3      H       0.2623880135    -1.0258591449     0.8617039313
    4      H      -1.2703578850    -0.0109139213    -0.1498385576
    5      H      -2.4986372139    -0.0000259032     0.1048209076
 ----------------------------------------------------------------
 Nuclear Repulsion Energy =          21.03000417 hartrees
 There are       10 alpha and        9 beta electrons
 Applying Cartesian multipole field
    Component          Value
    ---------          -----
     (2,0,0)        1.00000E-11
     (0,2,0)        2.00000E-10
     (0,0,2)       -3.00000E-10
 Requested basis set is MINIX
 There are 10 shells and 18 basis functions
 A cutoff of  1.0D-11 yielded     55 shell pairs
 There are       187 function pairs (       211 Cartesian)
 Smallest overlap matrix eigenvalue = 2.52E-01
 Guess MOs from SCF MO coefficient file

 -----------------------------------------------------------------------
  General SCF calculation program by
  Eric Jon Sundstrom, Paul Horn, Yuezhi Mao, Dmitri Zuev, Alec White,
  David Stuck, Shaama M.S., Shane Yost, Joonho Lee, David Small,
  Daniel Levine, Susi Lehtola, Hugh Burton, Evgeny Epifanovsky,
  Bang C. Huynh
 -----------------------------------------------------------------------
 Hartree-Fock
 Dispersion:   Grimme D3
 using 8 threads for integral computing
 -------------------------------------------------------
 OpenMP Integral computing Module                
 Release: version 1.0, May 2013, Q-Chem Inc. Pittsburgh 
 -------------------------------------------------------
 A unrestricted SCF calculation will be
 performed using DIIS
 SCF converges when DIIS error is below 1.0e-08
 Alpha HF Exchange    Energy = -12.21979098734913
 Beta HF Exchange     Energy = -11.81104301098801
 One-Electron (alpha) Energy = -259.67915408820068
 One-Electron (beta)  Energy = -254.59598354399779
 Total Coulomb        Energy = 176.11186391396126
 ---------------------------------------
  Cycle       Energy         DIIS error
 ---------------------------------------
    1    -341.1641035470      1.16e-04  
 Alpha HF Exchange    Energy = -12.21971207372564
 Beta HF Exchange     Energy = -11.81097169639456
 One-Electron (alpha) Energy = -259.68203782153773
 One-Electron (beta)  Energy = -254.59353898523250
 Total Coulomb        Energy = 176.11215017495746
    2    -341.1641062324      3.53e-05  
 Alpha HF Exchange    Energy = -12.21966650938930
 Beta HF Exchange     Energy = -11.81092766838664
 One-Electron (alpha) Energy = -259.68385582348304
 One-Electron (beta)  Energy = -254.59174340346507
 Total Coulomb        Energy = 176.11208214337074
    3    -341.1641070918      2.04e-05  
 Alpha HF Exchange    Energy = -12.21962971276653
 Beta HF Exchange     Energy = -11.81089578205983
 One-Electron (alpha) Energy = -259.68588900000816
 One-Electron (beta)  Energy = -254.58965436680916
 Total Coulomb        Energy = 176.11195714177106
    4    -341.1641075503      8.35e-06  
 Alpha HF Exchange    Energy = -12.21962801314270
 Beta HF Exchange     Energy = -11.81090666241824
 One-Electron (alpha) Energy = -259.68679641500609
 One-Electron (beta)  Energy = -254.58863241132119
 Total Coulomb        Energy = 176.11185169671580
    5    -341.1641076356      1.78e-06  
 Alpha HF Exchange    Energy = -12.21962869102817
 Beta HF Exchange     Energy = -11.81091145572058
 One-Electron (alpha) Energy = -259.68692275179694
 One-Electron (beta)  Energy = -254.58850716730200
 Total Coulomb        Energy = 176.11185825741421
    6    -341.1641076389      6.10e-07  
 Alpha HF Exchange    Energy = -12.21962858692452
 Beta HF Exchange     Energy = -11.81091234503696
 One-Electron (alpha) Energy = -259.68693546562309
 One-Electron (beta)  Energy = -254.58849995584433
 Total Coulomb        Energy = 176.11186454465025
    7    -341.1641076392      2.36e-07  
 Alpha HF Exchange    Energy = -12.21962848452627
 Beta HF Exchange     Energy = -11.81091204353334
 One-Electron (alpha) Energy = -259.68693463115574
 One-Electron (beta)  Energy = -254.58849971640078
 Total Coulomb        Energy = 176.11186306677564
    8    -341.1641076393      5.71e-08  
 Alpha HF Exchange    Energy = -12.21962853095887
 Beta HF Exchange     Energy = -11.81091193824732
 One-Electron (alpha) Energy = -259.68693168620308
 One-Electron (beta)  Energy = -254.58850206896622
 Total Coulomb        Energy = 176.11186241553767
    9    -341.1641076393      2.68e-08  
 Alpha HF Exchange    Energy = -12.21962857612947
 Beta HF Exchange     Energy = -11.81091189711077
 One-Electron (alpha) Energy = -259.68692879396281
 One-Electron (beta)  Energy = -254.58850481347147
 Total Coulomb        Energy = 176.11186227186340
   10    -341.1641076393      8.94e-09  Convergence criterion met
 ---------------------------------------
 Alpha HF Exchange    Energy = -12.21962857612947
 Beta HF Exchange     Energy = -11.81091189711077
 One-Electron (alpha) Energy = -259.68692879396281
 One-Electron (beta)  Energy = -254.58850481347147
 Total Coulomb        Energy = 176.11186227186340
 SCF time:   CPU 0.32s  wall 0.00s 
<S^2> =          0.771856081
 Alpha HF Exchange    Energy = -12.21962857612947
 Beta HF Exchange     Energy = -11.81091189711077
 One-Electron (alpha) Energy = -259.68692879396281
 One-Electron (beta)  Energy = -254.58850481347147
 Total Coulomb        Energy = 176.11186227186340
 Nuclear repulsion Energy =  21.03000416955971
 SCF   energy in the final basis set =     -341.1641076393
 Total energy in the final basis set =     -341.1641076393

 --------------------------------------------------------------

                    Orbital Energies (a.u.)
 --------------------------------------------------------------

 Alpha MOs
 -- Occupied --
-79.3394  -7.4220  -5.2874  -5.2830  -5.2815  -0.8441  -0.5864  -0.5075
 -0.4108  -0.3391
 -- Virtual --
  0.3297   0.3394   0.6118   0.7763   0.7814   0.8001   1.1571   1.1594

 Beta MOs
 -- Occupied --
-79.3369  -7.4189  -5.2814  -5.2807  -5.2758  -0.8261  -0.5122  -0.5066
 -0.3729
 -- Virtual --
  0.2005   0.3311   0.4087   0.6322   0.7915   0.7997   0.8135   1.1613
  1.1798
 --------------------------------------------------------------

          Ground-State Mulliken Net Atomic Charges

     Atom                 Charge (a.u.)    Spin (a.u.)
  --------------------------------------------------------
      1 P                    -0.297226       0.287046
      2 H                     0.092395      -0.012204
      3 H                     0.092441      -0.012193
      4 H                     0.095475      -0.160057
      5 H                     0.016914       0.897408
  --------------------------------------------------------
  Sum of atomic charges =     0.000000
  Sum of spin   charges =     1.000000

 -----------------------------------------------------------------
                    Cartesian Multipole Moments
 -----------------------------------------------------------------
    Charge (ESU x 10^10)
                -0.0000
    Dipole Moment (Debye)
         X      -0.9051      Y      -0.0008      Z       0.8150
       Tot       1.2180
    Quadrupole Moments (Debye-Ang)
        XX     -15.6359     XY      -0.0023     YY     -15.5784
        XZ       0.9070     YZ       0.0002     ZZ     -16.9072
    Octopole Moments (Debye-Ang^2)
       XXX      -3.2817    XXY      -0.0030    XYY      -0.2296
       YYY       0.0030    XXZ       0.8078    XYZ      -0.0018
       YYZ       0.5732    XZZ      -0.6433    YZZ      -0.0014
       ZZZ       1.5936
    Hexadecapole Moments (Debye-Ang^3)
      XXXX     -59.9058   XXXY       0.0100   XXYY     -16.3299
      XYYY      -0.0141   YYYY     -30.6402   XXXZ       1.1820
      XXYZ       0.0001   XYYZ       0.4630   YYYZ       0.0123
      XXZZ     -16.6241   XYZZ      -0.0118   YYZZ      -9.6014
      XZZZ       1.3036   YZZZ      -0.0120   ZZZZ     -32.1862
 -----------------------------------------------------------------
 Mayer SCF Bond Order, atomic valence on the diagonal:

            1           2           3           4           5
    1   2.9046857   0.9888762   0.9888670   0.8484268   0.0785157
    2   0.9888762   0.9913142   0.0011467   0.0008953   0.0003960
    3   0.9888670   0.0011467   0.9913060   0.0008878   0.0004045
    4   0.8484268   0.0008953   0.0008878   0.9652662   0.1150564
    5   0.0785157   0.0003960   0.0004045   0.1150564   0.1943726


 Calculating analytic gradient of the SCF energy
 ------------------------------------------------------
 Correction for Bais Set Incompleteness Error in  HF-3c
 ------------------------------------------------------
 Gradient of SCF Energy
            1           2           3           4           5
    1  -0.0033305  -0.0014950  -0.0016363  -0.0072363   0.0136980
    2   0.0001729  -0.0088799   0.0087837  -0.0001114   0.0000348
    3   0.0132398  -0.0068619  -0.0069469   0.0018558  -0.0012868
 Max gradient component =       1.370E-02
 RMS gradient           =       6.771E-03
 Gradient time:  CPU 0.17 s  wall 0.15 s
 Geometry Optimization Parameters
   NAtoms,    NIC,     NZ,  NCons,   NDum,   NFix, NCnnct, MaxDiis
        5      20       0       0       0       0       0       0

 Cartesian Hessian Update
 Hessian updated using Powell/Murtagh-Sargent update
  Mixing factors:     0.367670 Powell                      0.632330 Murtagh-Sargent


** GEOMETRY OPTIMIZATION IN DELOCALIZED INTERNAL COORDINATES **
   Searching for a Transition State

   Optimization Cycle:   3

                       Coordinates (Angstroms)
     ATOM                X               Y               Z
      1  P         0.2162270563    0.0000910347   -0.1114458609
      2  H         0.2463754383    1.0354827826    0.8522477052
      3  H         0.2623880135   -1.0258591449    0.8617039313
      4  H        -1.2703578850   -0.0109139213   -0.1498385576
      5  H        -2.4986372139   -0.0000259032    0.1048209076
   Point Group: c1    Number of degrees of freedom:     9


   Energy is   -341.164107639

 Hessian updated using Powell/Murtagh-Sargent update
  Mixing factors:     0.770262 Powell                      0.229738 Murtagh-Sargent

  9 Hessian modes will be used to form the next step
  Hessian Eigenvalues:
    -0.031437    0.159938    0.160001    0.161046    0.186428    0.200000
     0.200375    0.212868    0.231074

 Transition state search - taking P-RFO step
 Searching for Lamda that Maximizes Along the Lowest mode
 Value Taken    Lamda =   0.00458244
 Searching for Lamda that Minimizes Along All other modes
 Value Taken    Lamda =  -0.00156333
 Calculated Step too Large.  Step scaled by  0.027298
 Step Taken.  Stepsize is  0.010000

                             Maximum     Tolerance    Cnvgd?
         Gradient           0.010926      0.000300      NO
         Displacement       0.008858      0.001200      NO
         Energy change      0.000045      0.000001      NO


 New Cartesian Coordinates Obtained by Inverse Iteration

 Displacement from previous Coordinates is:  0.006659
 Adding empirical dispersion correction 
 ----------------------------------------------------------------
 Doing -D3(BJ) with
 s6  =   1.00000
 s8  =   0.87770
 a1  =   0.41710
 a2  =   2.91490
 -D3 energy without 3body term =     -0.0119111722 hartrees
 ----------------------------------------------------------------
 Adding gCP correction 
 ----------------------------------------------------------------
 gCP energy =      0.0438939200 hartrees
 ------------------------------------------------------
 Correction for Bais Set Incompleteness Error in  HF-3c
 ------------------------------------------------------
 SRB energy =     -0.0068128302 hartrees
 ----------------------------------------------------------------
             Standard Nuclear Orientation (Angstroms)
    I     Atom           X                Y                Z
 ----------------------------------------------------------------
    1      P       0.2158897008     0.0000943826    -0.1115854261
    2      H       0.2464383174     1.0358802213     0.8523179327
    3      H       0.2623970933    -1.0262464002     0.8617757051
    4      H      -1.2726016449    -0.0108737461    -0.1492799068
    5      H      -2.4961280575    -0.0000796097     0.1042598206
 ----------------------------------------------------------------
 Nuclear Repulsion Energy =          21.02415821 hartrees
 There are       10 alpha and        9 beta electrons
 Applying Cartesian multipole field
    Component          Value
    ---------          -----
     (2,0,0)        1.00000E-11
     (0,2,0)        2.00000E-10
     (0,0,2)       -3.00000E-10
 Requested basis set is MINIX
 There are 10 shells and 18 basis functions
 A cutoff of  1.0D-11 yielded     55 shell pairs
 There are       187 function pairs (       211 Cartesian)
 Smallest overlap matrix eigenvalue = 2.52E-01
 Guess MOs from SCF MO coefficient file

 -----------------------------------------------------------------------
  General SCF calculation program by
  Eric Jon Sundstrom, Paul Horn, Yuezhi Mao, Dmitri Zuev, Alec White,
  David Stuck, Shaama M.S., Shane Yost, Joonho Lee, David Small,
  Daniel Levine, Susi Lehtola, Hugh Burton, Evgeny Epifanovsky,
  Bang C. Huynh
 -----------------------------------------------------------------------
 Hartree-Fock
 Dispersion:   Grimme D3
 using 8 threads for integral computing
 -------------------------------------------------------
 OpenMP Integral computing Module                
 Release: version 1.0, May 2013, Q-Chem Inc. Pittsburgh 
 -------------------------------------------------------
 A unrestricted SCF calculation will be
 performed using DIIS
 SCF converges when DIIS error is below 1.0e-08
 Alpha HF Exchange    Energy = -12.21955818619833
 Beta HF Exchange     Energy = -11.81064023473602
 One-Electron (alpha) Energy = -259.68672554959096
 One-Electron (beta)  Energy = -254.58035609509204
 Total Coulomb        Energy = 176.10909970909319
 ---------------------------------------
  Cycle       Energy         DIIS error
 ---------------------------------------
    1    -341.1640221459      9.08e-05  
 Alpha HF Exchange    Energy = -12.21946777966861
 Beta HF Exchange     Energy = -11.81055964157856
 One-Electron (alpha) Energy = -259.68961873845581
 One-Electron (beta)  Energy = -254.57786231002319
 Total Coulomb        Energy = 176.10932548095661
    2    -341.1640247782      3.51e-05  
 Alpha HF Exchange    Energy = -12.21941482929023
 Beta HF Exchange     Energy = -11.81050833049231
 One-Electron (alpha) Energy = -259.69162508211980
 One-Electron (beta)  Energy = -254.57590191028390
 Total Coulomb        Energy = 176.10926625190697
    3    -341.1640256897      1.88e-05  
 Alpha HF Exchange    Energy = -12.21938134702741
 Beta HF Exchange     Energy = -11.81047910782796
 One-Electron (alpha) Energy = -259.69346901268443
 One-Electron (beta)  Energy = -254.57399571436713
 Total Coulomb        Energy = 176.10914089080325
    4    -341.1640260805      8.18e-06  
 Alpha HF Exchange    Energy = -12.21938045912232
 Beta HF Exchange     Energy = -11.81049058165926
 One-Electron (alpha) Energy = -259.69438780894558
 One-Electron (beta)  Energy = -254.57296144654876
 Total Coulomb        Energy = 176.10903592226464
    5    -341.1640261634      1.53e-06  
 Alpha HF Exchange    Energy = -12.21938085419534
 Beta HF Exchange     Energy = -11.81049472376282
 One-Electron (alpha) Energy = -259.69448678261523
 One-Electron (beta)  Energy = -254.57286756351604
 Total Coulomb        Energy = 176.10904554775172
    6    -341.1640261657      5.57e-07  
 Alpha HF Exchange    Energy = -12.21938068417046
 Beta HF Exchange     Energy = -11.81049543293099
 One-Electron (alpha) Energy = -259.69449755309012
 One-Electron (beta)  Energy = -254.57286167894608
 Total Coulomb        Energy = 176.10905097251137
    7    -341.1640261660      2.18e-07  
 Alpha HF Exchange    Energy = -12.21938061260965
 Beta HF Exchange     Energy = -11.81049511777982
 One-Electron (alpha) Energy = -259.69449578903516
 One-Electron (beta)  Energy = -254.57286215260393
 Total Coulomb        Energy = 176.10904929534951
    8    -341.1640261661      5.29e-08  
 Alpha HF Exchange    Energy = -12.21938066668798
 Beta HF Exchange     Energy = -11.81049502550863
 One-Electron (alpha) Energy = -259.69449271536587
 One-Electron (beta)  Energy = -254.57286468565360
 Total Coulomb        Energy = 176.10904871655390
    9    -341.1640261661      2.46e-08  
 Alpha HF Exchange    Energy = -12.21938070889454
 Beta HF Exchange     Energy = -11.81049498895267
 One-Electron (alpha) Energy = -259.69448988911495
 One-Electron (beta)  Energy = -254.57286741602061
 Total Coulomb        Energy = 176.10904862634953
   10    -341.1640261660      7.40e-09  Convergence criterion met
 ---------------------------------------
 Alpha HF Exchange    Energy = -12.21938070889454
 Beta HF Exchange     Energy = -11.81049498895267
 One-Electron (alpha) Energy = -259.69448988911495
 One-Electron (beta)  Energy = -254.57286741602061
 Total Coulomb        Energy = 176.10904862634953
 SCF time:   CPU 0.35s  wall 0.00s 
<S^2> =          0.772571031
 Alpha HF Exchange    Energy = -12.21938070889454
 Beta HF Exchange     Energy = -11.81049498895267
 One-Electron (alpha) Energy = -259.69448988911495
 One-Electron (beta)  Energy = -254.57286741602061
 Total Coulomb        Energy = 176.10904862634953
 Nuclear repulsion Energy =  21.02415821060869
 SCF   energy in the final basis set =     -341.1640261660
 Total energy in the final basis set =     -341.1640261660

 --------------------------------------------------------------

                    Orbital Energies (a.u.)
 --------------------------------------------------------------

 Alpha MOs
 -- Occupied --
-79.3392  -7.4219  -5.2873  -5.2828  -5.2813  -0.8440  -0.5868  -0.5074
 -0.4104  -0.3385
 -- Virtual --
  0.3296   0.3396   0.6115   0.7763   0.7814   0.8001   1.1565   1.1592

 Beta MOs
 -- Occupied --
-79.3366  -7.4187  -5.2811  -5.2805  -5.2755  -0.8256  -0.5122  -0.5064
 -0.3728
 -- Virtual --
  0.1994   0.3311   0.4092   0.6321   0.7917   0.8001   0.8138   1.1610
  1.1795
 --------------------------------------------------------------

          Ground-State Mulliken Net Atomic Charges

     Atom                 Charge (a.u.)    Spin (a.u.)
  --------------------------------------------------------
      1 P                    -0.297126       0.292458
      2 H                     0.092342      -0.012436
      3 H                     0.092389      -0.012424
      4 H                     0.095231      -0.162629
      5 H                     0.017164       0.895031
  --------------------------------------------------------
  Sum of atomic charges =     0.000000
  Sum of spin   charges =     1.000000

 -----------------------------------------------------------------
                    Cartesian Multipole Moments
 -----------------------------------------------------------------
    Charge (ESU x 10^10)
                 0.0000
    Dipole Moment (Debye)
         X      -0.9085      Y      -0.0008      Z       0.8163
       Tot       1.2214
    Quadrupole Moments (Debye-Ang)
        XX     -15.6243     XY      -0.0023     YY     -15.5783
        XZ       0.9041     YZ       0.0002     ZZ     -16.9090
    Octopole Moments (Debye-Ang^2)
       XXX      -3.3013    XXY      -0.0030    XYY      -0.2246
       YYY       0.0030    XXZ       0.8099    XYZ      -0.0018
       YYZ       0.5764    XZZ      -0.6383    YZZ      -0.0015
       ZZZ       1.6008
    Hexadecapole Moments (Debye-Ang^3)
      XXXX     -59.7624   XXXY       0.0094   XXYY     -16.3220
      XYYY      -0.0145   YYYY     -30.6474   XXXZ       1.1672
      XXYZ       0.0001   XYYZ       0.4613   YYYZ       0.0123
      XXZZ     -16.6152   XYZZ      -0.0119   YYZZ      -9.6028
      XZZZ       1.2965   YZZZ      -0.0120   ZZZZ     -32.1930
 -----------------------------------------------------------------
 Mayer SCF Bond Order, atomic valence on the diagonal:

            1           2           3           4           5
    1   2.9022420   0.9888642   0.9888550   0.8447048   0.0798179
    2   0.9888642   0.9913182   0.0011534   0.0008970   0.0004037
    3   0.9888550   0.0011534   0.9913100   0.0008894   0.0004122
    4   0.8447048   0.0008970   0.0008894   0.9644829   0.1179918
    5   0.0798179   0.0004037   0.0004122   0.1179918   0.1986255


 Calculating analytic gradient of the SCF energy
 ------------------------------------------------------
 Correction for Bais Set Incompleteness Error in  HF-3c
 ------------------------------------------------------
 Gradient of SCF Energy
            1           2           3           4           5
    1  -0.0032822  -0.0014614  -0.0015989  -0.0070627   0.0134052
    2   0.0001724  -0.0086741   0.0085800  -0.0001176   0.0000394
    3   0.0129618  -0.0066989  -0.0067822   0.0017353  -0.0012160
 Max gradient component =       1.341E-02
 RMS gradient           =       6.620E-03
 Gradient time:  CPU 0.18 s  wall 0.15 s
 Geometry Optimization Parameters
   NAtoms,    NIC,     NZ,  NCons,   NDum,   NFix, NCnnct, MaxDiis
        5      20       0       0       0       0       0       0

 Cartesian Hessian Update
 Hessian updated using Powell/Murtagh-Sargent update
  Mixing factors:     0.906943 Powell                      0.093057 Murtagh-Sargent


** GEOMETRY OPTIMIZATION IN DELOCALIZED INTERNAL COORDINATES **
   Searching for a Transition State

   Optimization Cycle:   4

                       Coordinates (Angstroms)
     ATOM                X               Y               Z
      1  P         0.2158897008    0.0000943826   -0.1115854261
      2  H         0.2464383174    1.0358802213    0.8523179327
      3  H         0.2623970933   -1.0262464002    0.8617757051
      4  H        -1.2726016449   -0.0108737461   -0.1492799068
      5  H        -2.4961280575   -0.0000796097    0.1042598206
   Point Group: c1    Number of degrees of freedom:     9


   Energy is   -341.164026166

 Hessian updated using Powell/Murtagh-Sargent update
  Mixing factors:     0.993370 Powell                      0.006630 Murtagh-Sargent

  9 Hessian modes will be used to form the next step
  Hessian Eigenvalues:
    -0.028452    0.159939    0.160001    0.161021    0.185469    0.199134
     0.200000    0.212868    0.228371

 Transition state search - taking P-RFO step
 Searching for Lamda that Maximizes Along the Lowest mode
 Value Taken    Lamda =   0.00429570
 Searching for Lamda that Minimizes Along All other modes
 Value Taken    Lamda =  -0.00160950
 Calculated Step too Large.  Step scaled by  0.026866
 Step Taken.  Stepsize is  0.010000

                             Maximum     Tolerance    Cnvgd?
         Gradient           0.010705      0.000300      NO
         Displacement       0.008985      0.001200      NO
         Energy change      0.000081      0.000001      NO


 New Cartesian Coordinates Obtained by Inverse Iteration

 Displacement from previous Coordinates is:  0.006590
 Adding empirical dispersion correction 
 ----------------------------------------------------------------
 Doing -D3(BJ) with
 s6  =   1.00000
 s8  =   0.87770
 a1  =   0.41710
 a2  =   2.91490
 -D3 energy without 3body term =     -0.0119159744 hartrees
 ----------------------------------------------------------------
 Adding gCP correction 
 ----------------------------------------------------------------
 gCP energy =      0.0438162811 hartrees
 ------------------------------------------------------
 Correction for Bais Set Incompleteness Error in  HF-3c
 ------------------------------------------------------
 SRB energy =     -0.0067899288 hartrees
 ----------------------------------------------------------------
             Standard Nuclear Orientation (Angstroms)
    I     Atom           X                Y                Z
 ----------------------------------------------------------------
    1      P       0.2156032989     0.0000980373    -0.1117157994
    2      H       0.2466601943     1.0363575060     0.8524048855
    3      H       0.2625457595    -1.0267112958     0.8618659465
    4      H      -1.2749457594    -0.0108197375    -0.1486253193
    5      H      -2.4938680841    -0.0001496621     0.1035584123
 ----------------------------------------------------------------
 Nuclear Repulsion Energy =          21.01683598 hartrees
 There are       10 alpha and        9 beta electrons
 Applying Cartesian multipole field
    Component          Value
    ---------          -----
     (2,0,0)        1.00000E-11
     (0,2,0)        2.00000E-10
     (0,0,2)       -3.00000E-10
 Requested basis set is MINIX
 There are 10 shells and 18 basis functions
 A cutoff of  1.0D-11 yielded     55 shell pairs
 There are       187 function pairs (       211 Cartesian)
 Smallest overlap matrix eigenvalue = 2.52E-01
 Guess MOs from SCF MO coefficient file

 -----------------------------------------------------------------------
  General SCF calculation program by
  Eric Jon Sundstrom, Paul Horn, Yuezhi Mao, Dmitri Zuev, Alec White,
  David Stuck, Shaama M.S., Shane Yost, Joonho Lee, David Small,
  Daniel Levine, Susi Lehtola, Hugh Burton, Evgeny Epifanovsky,
  Bang C. Huynh
 -----------------------------------------------------------------------
 Hartree-Fock
 Dispersion:   Grimme D3
 using 8 threads for integral computing
 -------------------------------------------------------
 OpenMP Integral computing Module                
 Release: version 1.0, May 2013, Q-Chem Inc. Pittsburgh 
 -------------------------------------------------------
 A unrestricted SCF calculation will be
 performed using DIIS
 SCF converges when DIIS error is below 1.0e-08
 Alpha HF Exchange    Energy = -12.21927813184057
 Beta HF Exchange     Energy = -11.81019717658724
 One-Electron (alpha) Energy = -259.69282029233239
 One-Electron (beta)  Energy = -254.56348591007401
 Total Coulomb        Energy = 176.10499480449732
 ---------------------------------------
  Cycle       Energy         DIIS error
 ---------------------------------------
    1    -341.1639507234      9.56e-05  
 Alpha HF Exchange    Energy = -12.21918945402377
 Beta HF Exchange     Energy = -11.81011802109378
 One-Electron (alpha) Energy = -259.69575761623076
 One-Electron (beta)  Energy = -254.56095891107637
 Total Coulomb        Energy = 176.10523458566109
    2    -341.1639534338      3.57e-05  
 Alpha HF Exchange    Energy = -12.21913771088889
 Beta HF Exchange     Energy = -11.81006753943402
 One-Electron (alpha) Energy = -259.69775740077785
 One-Electron (beta)  Energy = -254.55899704280898
 Total Coulomb        Energy = 176.10516934621100
    3    -341.1639543648      1.95e-05  
 Alpha HF Exchange    Energy = -12.21910288193058
 Beta HF Exchange     Energy = -11.81003653505297
 One-Electron (alpha) Energy = -259.69969003349138
 One-Electron (beta)  Energy = -254.55699770507135
 Total Coulomb        Energy = 176.10503638693530
    4    -341.1639547857      8.29e-06  
 Alpha HF Exchange    Energy = -12.21910209163954
 Beta HF Exchange     Energy = -11.81004789459091
 One-Electron (alpha) Energy = -259.70061324052296
 One-Electron (beta)  Energy = -254.55595604984330
 Total Coulomb        Energy = 176.10492842287312
    5    -341.1639548708      1.63e-06  
 Alpha HF Exchange    Energy = -12.21910259580339
 Beta HF Exchange     Energy = -11.81005232699350
 One-Electron (alpha) Energy = -259.70072243361557
 One-Electron (beta)  Energy = -254.55585074917553
 Total Coulomb        Energy = 176.10493724919769
    6    -341.1639548735      5.76e-07  
 Alpha HF Exchange    Energy = -12.21910244254288
 Beta HF Exchange     Energy = -11.81005312237771
 One-Electron (alpha) Energy = -259.70073367342422
 One-Electron (beta)  Energy = -254.55584477864224
 Total Coulomb        Energy = 176.10494316028905
    7    -341.1639548738      2.25e-07  
 Alpha HF Exchange    Energy = -12.21910235744713
 Beta HF Exchange     Energy = -11.81005280194635
 One-Electron (alpha) Energy = -259.70073197708655
 One-Electron (beta)  Energy = -254.55584524038770
 Total Coulomb        Energy = 176.10494152011265
    8    -341.1639548738      5.50e-08  
 Alpha HF Exchange    Energy = -12.21910241094117
 Beta HF Exchange     Energy = -11.81005270463726
 One-Electron (alpha) Energy = -259.70072885480670
 One-Electron (beta)  Energy = -254.55584779963269
 Total Coulomb        Energy = 176.10494091326888
    9    -341.1639548738      2.53e-08  
 Alpha HF Exchange    Energy = -12.21910245445982
 Beta HF Exchange     Energy = -11.81005266716749
 One-Electron (alpha) Energy = -259.70072599992437
 One-Electron (beta)  Energy = -254.55585054707191
 Total Coulomb        Energy = 176.10494081190427
   10    -341.1639548738      7.96e-09  Convergence criterion met
 ---------------------------------------
 Alpha HF Exchange    Energy = -12.21910245445982
 Beta HF Exchange     Energy = -11.81005266716749
 One-Electron (alpha) Energy = -259.70072599992437
 One-Electron (beta)  Energy = -254.55585054707191
 Total Coulomb        Energy = 176.10494081190427
 SCF time:   CPU 0.32s  wall 1.00s 
<S^2> =          0.773310291
 Alpha HF Exchange    Energy = -12.21910245445982
 Beta HF Exchange     Energy = -11.81005266716749
 One-Electron (alpha) Energy = -259.70072599992437
 One-Electron (beta)  Energy = -254.55585054707191
 Total Coulomb        Energy = 176.10494081190427
 Nuclear repulsion Energy =  21.01683598293450
 SCF   energy in the final basis set =     -341.1639548738
 Total energy in the final basis set =     -341.1639548738

 --------------------------------------------------------------

                    Orbital Energies (a.u.)
 --------------------------------------------------------------

 Alpha MOs
 -- Occupied --
-79.3389  -7.4217  -5.2872  -5.2826  -5.2811  -0.8438  -0.5872  -0.5072
 -0.4100  -0.3379
 -- Virtual --
  0.3296   0.3398   0.6111   0.7763   0.7815   0.8002   1.1558   1.1588

 Beta MOs
 -- Occupied --
-79.3363  -7.4185  -5.2809  -5.2802  -5.2752  -0.8251  -0.5122  -0.5062
 -0.3727
 -- Virtual --
  0.1983   0.3311   0.4096   0.6319   0.7919   0.8006   0.8142   1.1608
  1.1791
 --------------------------------------------------------------

          Ground-State Mulliken Net Atomic Charges

     Atom                 Charge (a.u.)    Spin (a.u.)
  --------------------------------------------------------
      1 P                    -0.297013       0.297975
      2 H                     0.092288      -0.012673
      3 H                     0.092334      -0.012660
      4 H                     0.094976      -0.165249
      5 H                     0.017415       0.892607
  --------------------------------------------------------
  Sum of atomic charges =     0.000000
  Sum of spin   charges =     1.000000

 -----------------------------------------------------------------
                    Cartesian Multipole Moments
 -----------------------------------------------------------------
    Charge (ESU x 10^10)
                -0.0000
    Dipole Moment (Debye)
         X      -0.9118      Y      -0.0007      Z       0.8178
       Tot       1.2249
    Quadrupole Moments (Debye-Ang)
        XX     -15.6122     XY      -0.0023     YY     -15.5782
        XZ       0.9013     YZ       0.0001     ZZ     -16.9109
    Octopole Moments (Debye-Ang^2)
       XXX      -3.3240    XXY      -0.0030    XYY      -0.2200
       YYY       0.0030    XXZ       0.8119    XYZ      -0.0018
       YYZ       0.5797    XZZ      -0.6338    YZZ      -0.0015
       ZZZ       1.6077
    Hexadecapole Moments (Debye-Ang^3)
      XXXX     -59.6242   XXXY       0.0087   XXYY     -16.3161
      XYYY      -0.0150   YYYY     -30.6557   XXXZ       1.1514
      XXYZ       0.0001   XYYZ       0.4595   YYYZ       0.0124
      XXZZ     -16.6080   XYZZ      -0.0120   YYZZ      -9.6042
      XZZZ       1.2885   YZZZ      -0.0120   ZZZZ     -32.2002
 -----------------------------------------------------------------
 Mayer SCF Bond Order, atomic valence on the diagonal:

            1           2           3           4           5
    1   2.8996930   0.9888506   0.9888415   0.8408827   0.0811183
    2   0.9888506   0.9913223   0.0011611   0.0008992   0.0004114
    3   0.9888415   0.0011611   0.9913141   0.0008915   0.0004199
    4   0.8408827   0.0008992   0.0008915   0.9636724   0.1209990
    5   0.0811183   0.0004114   0.0004199   0.1209990   0.2029486


 Calculating analytic gradient of the SCF energy
 ------------------------------------------------------
 Correction for Bais Set Incompleteness Error in  HF-3c
 ------------------------------------------------------
 Gradient of SCF Energy
            1           2           3           4           5
    1  -0.0031898  -0.0014253  -0.0015583  -0.0069053   0.0130787
    2   0.0001718  -0.0084369   0.0083451  -0.0001240   0.0000441
    3   0.0126414  -0.0065141  -0.0065953   0.0016072  -0.0011392
 Max gradient component =       1.308E-02
 RMS gradient           =       6.449E-03
 Gradient time:  CPU 0.19 s  wall 0.15 s
 Geometry Optimization Parameters
   NAtoms,    NIC,     NZ,  NCons,   NDum,   NFix, NCnnct, MaxDiis
        5      20       0       0       0       0       0       0

 Cartesian Hessian Update
 Hessian updated using Powell/Murtagh-Sargent update
  Mixing factors:     0.966932 Powell                      0.033068 Murtagh-Sargent


** GEOMETRY OPTIMIZATION IN DELOCALIZED INTERNAL COORDINATES **
   Searching for a Transition State

   Optimization Cycle:   5

                       Coordinates (Angstroms)
     ATOM                X               Y               Z
      1  P         0.2156032989    0.0000980373   -0.1117157994
      2  H         0.2466601943    1.0363575060    0.8524048855
      3  H         0.2625457595   -1.0267112958    0.8618659465
      4  H        -1.2749457594   -0.0108197375   -0.1486253193
      5  H        -2.4938680841   -0.0001496621    0.1035584123
   Point Group: c1    Number of degrees of freedom:     9


   Energy is   -341.163954874

 Hessian updated using Powell/Murtagh-Sargent update
  Mixing factors:     0.883474 Powell                      0.116526 Murtagh-Sargent

  9 Hessian modes will be used to form the next step
  Hessian Eigenvalues:
    -0.030889    0.159948    0.160001    0.161031    0.184690    0.196940
     0.200000    0.212868    0.229043

 Transition state search - taking P-RFO step
 Searching for Lamda that Maximizes Along the Lowest mode
 Value Taken    Lamda =   0.00380649
 Searching for Lamda that Minimizes Along All other modes
 Value Taken    Lamda =  -0.00153976
 Calculated Step too Large.  Step scaled by  0.029260
 Step Taken.  Stepsize is  0.010000

                             Maximum     Tolerance    Cnvgd?
         Gradient           0.010455      0.000300      NO
         Displacement       0.009021      0.001200      NO
         Energy change      0.000071      0.000001      NO


 New Cartesian Coordinates Obtained by Inverse Iteration

 Displacement from previous Coordinates is:  0.006598
 Adding empirical dispersion correction 
 ----------------------------------------------------------------
 Doing -D3(BJ) with
 s6  =   1.00000
 s8  =   0.87770
 a1  =   0.41710
 a2  =   2.91490
 -D3 energy without 3body term =     -0.0119201412 hartrees
 ----------------------------------------------------------------
 Adding gCP correction 
 ----------------------------------------------------------------
 gCP energy =      0.0437357592 hartrees
 ------------------------------------------------------
 Correction for Bais Set Incompleteness Error in  HF-3c
 ------------------------------------------------------
 SRB energy =     -0.0067663578 hartrees
 ----------------------------------------------------------------
             Standard Nuclear Orientation (Angstroms)
    I     Atom           X                Y                Z
 ----------------------------------------------------------------
    1      P       0.2153164449     0.0001019207    -0.1118474206
    2      H       0.2469975392     1.0368531411     0.8524993309
    3      H       0.2627886354    -1.0271923239     0.8619646609
    4      H      -1.2773409118    -0.0107517211    -0.1478637793
    5      H      -2.4917662985    -0.0002361688     0.1027353337
 ----------------------------------------------------------------
 Nuclear Repulsion Energy =          21.00897434 hartrees
 There are       10 alpha and        9 beta electrons
 Applying Cartesian multipole field
    Component          Value
    ---------          -----
     (2,0,0)        1.00000E-11
     (0,2,0)        2.00000E-10
     (0,0,2)       -3.00000E-10
 Requested basis set is MINIX
 There are 10 shells and 18 basis functions
 A cutoff of  1.0D-11 yielded     55 shell pairs
 There are       187 function pairs (       211 Cartesian)
 Smallest overlap matrix eigenvalue = 2.53E-01
 Guess MOs from SCF MO coefficient file

 -----------------------------------------------------------------------
  General SCF calculation program by
  Eric Jon Sundstrom, Paul Horn, Yuezhi Mao, Dmitri Zuev, Alec White,
  David Stuck, Shaama M.S., Shane Yost, Joonho Lee, David Small,
  Daniel Levine, Susi Lehtola, Hugh Burton, Evgeny Epifanovsky,
  Bang C. Huynh
 -----------------------------------------------------------------------
 Hartree-Fock
 Dispersion:   Grimme D3
 using 8 threads for integral computing
 -------------------------------------------------------
 OpenMP Integral computing Module                
 Release: version 1.0, May 2013, Q-Chem Inc. Pittsburgh 
 -------------------------------------------------------
 A unrestricted SCF calculation will be
 performed using DIIS
 SCF converges when DIIS error is below 1.0e-08
 Alpha HF Exchange    Energy = -12.21898914768822
 Beta HF Exchange     Energy = -11.80974715351853
 One-Electron (alpha) Energy = -259.69849105207697
 One-Electron (beta)  Energy = -254.54603274295678
 Total Coulomb        Energy = 176.10040053459829
 ---------------------------------------
  Cycle       Energy         DIIS error
 ---------------------------------------
    1    -341.1638852177      9.77e-05  
 Alpha HF Exchange    Energy = -12.21890125096415
 Beta HF Exchange     Energy = -11.80966866879403
 One-Electron (alpha) Energy = -259.70145739794026
 One-Electron (beta)  Energy = -254.54347998285121
 Total Coulomb        Energy = 176.10064497475577
    2    -341.1638879818      3.61e-05  
 Alpha HF Exchange    Energy = -12.21884986481587
 Beta HF Exchange     Energy = -11.80961819392364
 One-Electron (alpha) Energy = -259.70347018804318
 One-Electron (beta)  Energy = -254.54149991034686
 Total Coulomb        Energy = 176.10057488158998
    3    -341.1638889316      1.98e-05  
 Alpha HF Exchange    Energy = -12.21881462906445
 Beta HF Exchange     Energy = -11.80958620799933
 One-Electron (alpha) Energy = -259.70544643461466
 One-Electron (beta)  Energy = -254.53945140325541
 Total Coulomb        Energy = 176.10043496342936
    4    -341.1638893675      8.34e-06  
 Alpha HF Exchange    Energy = -12.21881397785982
 Beta HF Exchange     Energy = -11.80959735870445
 One-Electron (alpha) Energy = -259.70636918687575
 One-Electron (beta)  Energy = -254.53840836716219
 Total Coulomb        Energy = 176.10032509292915
    5    -341.1638894537      1.71e-06  
 Alpha HF Exchange    Energy = -12.21881455320288
 Beta HF Exchange     Energy = -11.80960201546574
 One-Electron (alpha) Energy = -259.70648697860935
 One-Electron (beta)  Energy = -254.53829333066335
 Total Coulomb        Energy = 176.10033307730922
    6    -341.1638894566      5.88e-07  
 Alpha HF Exchange    Energy = -12.21881441312641
 Beta HF Exchange     Energy = -11.80960288408400
 One-Electron (alpha) Energy = -259.70649851726978
 One-Electron (beta)  Energy = -254.53828734551720
 Total Coulomb        Energy = 176.10033935904727
    7    -341.1638894570      2.29e-07  
 Alpha HF Exchange    Energy = -12.21881431901023
 Beta HF Exchange     Energy = -11.80960256021122
 One-Electron (alpha) Energy = -259.70649676890082
 One-Electron (beta)  Energy = -254.53828790779420
 Total Coulomb        Energy = 176.10033775490780
    8    -341.1638894570      5.64e-08  
 Alpha HF Exchange    Energy = -12.21881437223447
 Beta HF Exchange     Energy = -11.80960245949517
 One-Electron (alpha) Energy = -259.70649359303059
 One-Electron (beta)  Energy = -254.53829051121750
 Total Coulomb        Energy = 176.10033713497447
    9    -341.1638894570      2.57e-08  
 Alpha HF Exchange    Energy = -12.21881441635771
 Beta HF Exchange     Energy = -11.80960242187748
 One-Electron (alpha) Energy = -259.70649073619677
 One-Electron (beta)  Energy = -254.53829325733270
 Total Coulomb        Energy = 176.10033703079284
   10    -341.1638894570      8.29e-09  Convergence criterion met
 ---------------------------------------
 Alpha HF Exchange    Energy = -12.21881441635771
 Beta HF Exchange     Energy = -11.80960242187748
 One-Electron (alpha) Energy = -259.70649073619677
 One-Electron (beta)  Energy = -254.53829325733270
 Total Coulomb        Energy = 176.10033703079284
 SCF time:   CPU 0.38s  wall 0.00s 
<S^2> =          0.774063709
 Alpha HF Exchange    Energy = -12.21881441635771
 Beta HF Exchange     Energy = -11.80960242187748
 One-Electron (alpha) Energy = -259.70649073619677
 One-Electron (beta)  Energy = -254.53829325733270
 Total Coulomb        Energy = 176.10033703079284
 Nuclear repulsion Energy =  21.00897434398570
 SCF   energy in the final basis set =     -341.1638894570
 Total energy in the final basis set =     -341.1638894570

 --------------------------------------------------------------

                    Orbital Energies (a.u.)
 --------------------------------------------------------------

 Alpha MOs
 -- Occupied --
-79.3387  -7.4215  -5.2871  -5.2824  -5.2809  -0.8436  -0.5875  -0.5070
 -0.4097  -0.3373
 -- Virtual --
  0.3296   0.3400   0.6106   0.7763   0.7815   0.8003   1.1551   1.1585

 Beta MOs
 -- Occupied --
-79.3361  -7.4182  -5.2807  -5.2800  -5.2749  -0.8246  -0.5121  -0.5060
 -0.3726
 -- Virtual --
  0.1973   0.3311   0.4101   0.6317   0.7922   0.8010   0.8145   1.1605
  1.1786
 --------------------------------------------------------------

          Ground-State Mulliken Net Atomic Charges

     Atom                 Charge (a.u.)    Spin (a.u.)
  --------------------------------------------------------
      1 P                    -0.296891       0.303549
      2 H                     0.092234      -0.012912
      3 H                     0.092280      -0.012899
      4 H                     0.094710      -0.167881
      5 H                     0.017667       0.890143
  --------------------------------------------------------
  Sum of atomic charges =    -0.000000
  Sum of spin   charges =     1.000000

 -----------------------------------------------------------------
                    Cartesian Multipole Moments
 -----------------------------------------------------------------
    Charge (ESU x 10^10)
                -0.0000
    Dipole Moment (Debye)
         X      -0.9151      Y      -0.0007      Z       0.8194
       Tot       1.2283
    Quadrupole Moments (Debye-Ang)
        XX     -15.5999     XY      -0.0022     YY     -15.5780
        XZ       0.8985     YZ       0.0000     ZZ     -16.9131
    Octopole Moments (Debye-Ang^2)
       XXX      -3.3470    XXY      -0.0030    XYY      -0.2152
       YYY       0.0029    XXZ       0.8139    XYZ      -0.0018
       YYZ       0.5831    XZZ      -0.6292    YZZ      -0.0015
       ZZZ       1.6149
    Hexadecapole Moments (Debye-Ang^3)
      XXXX     -59.4885   XXXY       0.0079   XXYY     -16.3111
      XYYY      -0.0155   YYYY     -30.6642   XXXZ       1.1346
      XXYZ       0.0000   XYYZ       0.4576   YYYZ       0.0124
      XXZZ     -16.6018   XYZZ      -0.0122   YYZZ      -9.6057
      XZZZ       1.2798   YZZZ      -0.0120   ZZZZ     -32.2076
 -----------------------------------------------------------------
 Mayer SCF Bond Order, atomic valence on the diagonal:

            1           2           3           4           5
    1   2.8970632   0.9888362   0.9888273   0.8369824   0.0824173
    2   0.9888362   0.9913262   0.0011691   0.0009016   0.0004193
    3   0.9888273   0.0011691   0.9913180   0.0008938   0.0004278
    4   0.8369824   0.0009016   0.0008938   0.9628459   0.1240681
    5   0.0824173   0.0004193   0.0004278   0.1240681   0.2073324


 Calculating analytic gradient of the SCF energy
 ------------------------------------------------------
 Correction for Bais Set Incompleteness Error in  HF-3c
 ------------------------------------------------------
 Gradient of SCF Energy
            1           2           3           4           5
    1  -0.0030969  -0.0013876  -0.0015158  -0.0067300   0.0127303
    2   0.0001707  -0.0081907   0.0081015  -0.0001302   0.0000488
    3   0.0123050  -0.0063214  -0.0064004   0.0014758  -0.0010590
 Max gradient component =       1.273E-02
 RMS gradient           =       6.269E-03
 Gradient time:  CPU 0.22 s  wall 0.18 s
 Geometry Optimization Parameters
   NAtoms,    NIC,     NZ,  NCons,   NDum,   NFix, NCnnct, MaxDiis
        5      20       0       0       0       0       0       0

 Cartesian Hessian Update
 Hessian updated using Powell/Murtagh-Sargent update
  Mixing factors:     0.969943 Powell                      0.030057 Murtagh-Sargent


** GEOMETRY OPTIMIZATION IN DELOCALIZED INTERNAL COORDINATES **
   Searching for a Transition State

   Optimization Cycle:   6

                       Coordinates (Angstroms)
     ATOM                X               Y               Z
      1  P         0.2153164449    0.0001019207   -0.1118474206
      2  H         0.2469975392    1.0368531411    0.8524993309
      3  H         0.2627886354   -1.0271923239    0.8619646609
      4  H        -1.2773409118   -0.0107517211   -0.1478637793
      5  H        -2.4917662985   -0.0002361688    0.1027353337
   Point Group: c1    Number of degrees of freedom:     9


   Energy is   -341.163889457

 Hessian updated using Powell/Murtagh-Sargent update
  Mixing factors:     0.871562 Powell                      0.128438 Murtagh-Sargent

  9 Hessian modes will be used to form the next step
  Hessian Eigenvalues:
    -0.032851    0.159960    0.160002    0.161034    0.183277    0.194846
     0.200000    0.212868    0.229591

 Transition state search - taking P-RFO step
 Searching for Lamda that Maximizes Along the Lowest mode
 Value Taken    Lamda =   0.00335878
 Searching for Lamda that Minimizes Along All other modes
 Value Taken    Lamda =  -0.00148070
 Calculated Step too Large.  Step scaled by  0.031679
 Step Taken.  Stepsize is  0.010000

                             Maximum     Tolerance    Cnvgd?
         Gradient           0.010190      0.000300      NO
         Displacement       0.009049      0.001200      NO
         Energy change      0.000065      0.000001      NO


 New Cartesian Coordinates Obtained by Inverse Iteration

 Displacement from previous Coordinates is:  0.006641
 Adding empirical dispersion correction 
 ----------------------------------------------------------------
 Doing -D3(BJ) with
 s6  =   1.00000
 s8  =   0.87770
 a1  =   0.41710
 a2  =   2.91490
 -D3 energy without 3body term =     -0.0119235506 hartrees
 ----------------------------------------------------------------
 Adding gCP correction 
 ----------------------------------------------------------------
 gCP energy =      0.0436513065 hartrees
 ------------------------------------------------------
 Correction for Bais Set Incompleteness Error in  HF-3c
 ------------------------------------------------------
 SRB energy =     -0.0067418119 hartrees
 ----------------------------------------------------------------
[...]
    4   0.7413703   0.0009692   0.0009693   0.9425019   0.1991931
    5   0.1056589   0.0006135   0.0006134   0.1991931   0.3060789


 Calculating analytic gradient of the SCF energy
 ------------------------------------------------------
 Correction for Bais Set Incompleteness Error in  HF-3c
 ------------------------------------------------------
 Gradient of SCF Energy
            1           2           3           4           5
    1  -0.0000200  -0.0000046  -0.0000048  -0.0000089   0.0000384
    2  -0.0000010  -0.0000182   0.0000181   0.0000023  -0.0000012
    3   0.0000269  -0.0000146  -0.0000147   0.0000048  -0.0000024
 Max gradient component =       3.840E-05
 RMS gradient           =       1.601E-05
 Gradient time:  CPU 0.19 s  wall 0.15 s
Dipole drv :
gprntSymmMtrx error report: 
 Final Hessian.
            1           2           3           4           5           6
    1   0.1671680  -0.0004814   0.0093597  -0.0195215  -0.0087354  -0.0172634
    2  -0.0004814   0.3320254   0.0000247   0.0043233  -0.1536078  -0.1414867
    3   0.0093597   0.0000247   0.3309498  -0.0016966  -0.1116925  -0.1546194
    4  -0.0195215   0.0043233  -0.0016966   0.0236409   0.0104138   0.0132236
    5  -0.0087354  -0.1536078  -0.1116925   0.0104138   0.1684262   0.1258738
    6  -0.0172634  -0.1414867  -0.1546194   0.0132236   0.1258738   0.1425808
    7  -0.0195547  -0.0034889  -0.0023772  -0.0002695  -0.0014223   0.0025377
    8   0.0094194  -0.1511779   0.1116469   0.0015443  -0.0153969   0.0150154
    9  -0.0182590   0.1413405  -0.1570166   0.0026195  -0.0147289   0.0130966
   10  -0.0199687  -0.0000210  -0.0122355  -0.0078336  -0.0008364   0.0017155
   11   0.0001285  -0.0326052   0.0000030  -0.0172208   0.0005764   0.0003466
   12   0.0164832   0.0000969  -0.0233953  -0.0144165   0.0004844  -0.0011667
   13  -0.1081259  -0.0003328   0.0069491   0.0039842   0.0005807  -0.0002128
   14  -0.0003287   0.0053645   0.0000167   0.0009400   0.0000026   0.0002509
   15   0.0096771   0.0000252   0.0040838   0.0002697   0.0000627   0.0001084
            7           8           9          10          11          12
    1  -0.0195547   0.0094194  -0.0182590  -0.0199687   0.0001285   0.0164832
    2  -0.0034889  -0.1511779   0.1413405  -0.0000210  -0.0326052   0.0000969
    3  -0.0023772   0.1116469  -0.1570166  -0.0122355   0.0000030  -0.0233953
    4  -0.0002695   0.0015443   0.0026195  -0.0078336  -0.0172208  -0.0144165
    5  -0.0014223  -0.0153969  -0.0147289  -0.0008364   0.0005764   0.0004844
    6   0.0025377   0.0150154   0.0130966   0.0017155   0.0003466  -0.0011667
    7   0.0237806  -0.0112069   0.0141359  -0.0079515   0.0170283  -0.0145751
    8  -0.0112069   0.1659016  -0.1260075   0.0008025   0.0006831  -0.0005950
    9   0.0141359  -0.1260075   0.1449664   0.0017090  -0.0003519  -0.0011582
   10  -0.0079515   0.0008025   0.0017090  -0.1003914  -0.0003712   0.0225838
   11   0.0170283   0.0006831  -0.0003519  -0.0003712   0.0422004   0.0000410
   12  -0.0145751  -0.0005950  -0.0011582   0.0225838   0.0000410   0.0351960
   13   0.0039955  -0.0005592  -0.0002051   0.1361488   0.0004354  -0.0100757
   14  -0.0009104  -0.0000098  -0.0002515   0.0004202  -0.0108545  -0.0000264
   15   0.0002788  -0.0000596   0.0001110  -0.0137657  -0.0000388  -0.0094769
           13          14          15
    1  -0.1081259  -0.0003287   0.0096771
    2  -0.0003328   0.0053645   0.0000252
    3   0.0069491   0.0000167   0.0040838
    4   0.0039842   0.0009400   0.0002697
    5   0.0005807   0.0000026   0.0000627
    6  -0.0002128   0.0002509   0.0001084
    7   0.0039955  -0.0009104   0.0002788
    8  -0.0005592  -0.0000098  -0.0000596
    9  -0.0002051  -0.0002515   0.0001110
   10   0.1361488   0.0004202  -0.0137657
   11   0.0004354  -0.0108545  -0.0000388
   12  -0.0100757  -0.0000264  -0.0094769
   13  -0.0360041  -0.0001212   0.0035401
   14  -0.0001212   0.0054970   0.0000104
   15   0.0035401   0.0000104   0.0051739
 Adding empirical dispersion correction 
 ----------------------------------------------------------------
 Doing -D3(BJ) with
 s6  =   1.00000
 s8  =   0.87770
 a1  =   0.41710
 a2  =   2.91490
 -D3 energy without 3body term =     -0.0118087123 hartrees
 ----------------------------------------------------------------
 Adding gCP correction 
 ----------------------------------------------------------------
 gCP energy =      0.0411488529 hartrees
 ------------------------------------------------------
 Correction for Bais Set Incompleteness Error in  HF-3c
 ------------------------------------------------------
 SRB energy =     -0.0060643950 hartrees
 ----------------------------------------------------------------
             Standard Nuclear Orientation (Angstroms)
    I     Atom           X                Y                Z
 ----------------------------------------------------------------
    1      P       0.2057061681     0.0003929066    -0.1137196681
    2      H       0.2937292140     1.0549291016     0.8550666603
    3      H       0.3004806815    -1.0443325203     0.8650078458
    4      H      -1.3450697871    -0.0044748687    -0.0866305172
    5      H      -2.4988508673    -0.0077397712     0.0377638047
 ----------------------------------------------------------------
 Nuclear Repulsion Energy =          20.67479691 hartrees
 There are       10 alpha and        9 beta electrons
 old dipole drv.
            1           2           3           4           5           6
    1  -0.0748682  -0.0002860  -0.1033933   0.0081055   0.0360899   0.0030567
    2   0.0000553  -0.1477764   0.0003626   0.0664991   0.0658828  -0.0240102
    3  -0.0375120   0.0005752  -0.0006783   0.0380148   0.0885668  -0.0250532
            7           8           9          10          11          12
    1   0.0087580  -0.0364132   0.0032438   0.0983964   0.0007796   0.0809544
    2  -0.0665016   0.0646029   0.0231806   0.0000618  -0.0189239   0.0004376
    3   0.0392173  -0.0891661  -0.0244369  -0.0694823  -0.0000492   0.0188662
           13          14          15
    1  -0.0403899  -0.0002156   0.0161884
    2  -0.0001160   0.0362071   0.0000334
    3   0.0297707   0.0000751   0.0313087
 New transposed dipole drv.
            1           2           3
    1  -0.0748682   0.0000553  -0.0375120
    2  -0.0002860  -0.1477764   0.0005752
    3  -0.1033933   0.0003626  -0.0006783
    4   0.0081055   0.0664991   0.0380148
    5   0.0360899   0.0658828   0.0885668
    6   0.0030567  -0.0240102  -0.0250532
    7   0.0087580  -0.0665016   0.0392173
    8  -0.0364132   0.0646029  -0.0891661
    9   0.0032438   0.0231806  -0.0244369
   10   0.0983964   0.0000618  -0.0694823
   11   0.0007796  -0.0189239  -0.0000492
   12   0.0809544   0.0004376   0.0188662
   13  -0.0403899  -0.0001160   0.0297707
   14  -0.0002156   0.0362071   0.0000751
   15   0.0161884   0.0000334   0.0313087
FINAL TENSOR RESULT:
Order 2, Length 15
    Atom      X          Y          Z
     1 Order 1, Length 15
    Atom      X          Y          Z
     1    1.671679771912363e-01  -4.814011199111244e-04   9.359746670168935e-03
     2   -1.952151468265472e-02  -8.735379629218880e-03  -1.726339871202678e-02
     3   -1.955468033778443e-02   9.419366753443063e-03  -1.825902653479171e-02
     4   -1.996874458754724e-02   1.284864521873467e-04   1.648322704573275e-02
     5   -1.081259394664701e-01  -3.286762371827817e-04   9.677120291360079e-03

Order 1, Length 15
    Atom      X          Y          Z
     1   -4.814011199111244e-04   3.320253724265229e-01   2.467576074578379e-05
     2    4.323342262942545e-03  -1.536077534911272e-01  -1.414867202607116e-01
     3   -3.488875895725443e-03  -1.511778842702708e-01   1.413404674520917e-01
     4   -2.104939765291600e-05  -3.260516582098404e-02   9.686581921039401e-05
     5   -3.327891863373771e-04   5.364513674462212e-03   2.516138651824649e-05

Order 1, Length 15
    Atom      X          Y          Z
     1    9.359746670168935e-03   2.467576074578379e-05   3.309497878457739e-01
     2   -1.696638181238308e-03  -1.116924631958448e-01  -1.546194404203999e-01
     3   -2.377183337595404e-03   1.116468720924499e-01  -1.570166312344691e-01
     4   -1.223546556174443e-02   3.008137286283446e-06  -2.339531632594867e-02
     5    6.949053584133955e-03   1.671103376687029e-05   4.083772056809558e-03


     2 Order 1, Length 15
    Atom      X          Y          Z
     1   -1.952151468265472e-02   4.323342262942545e-03  -1.696638181238308e-03
     2    2.364087459191062e-02   1.041384820106184e-02   1.322355628405741e-02
     3   -2.695098949962536e-04   1.544297160472124e-03   2.619458778773331e-03
     4   -7.833579329042249e-03  -1.722081521109139e-02  -1.441646385161350e-02
     5    3.984184556359624e-03   9.400489690952520e-04   2.697229757405162e-04

Order 1, Length 15
    Atom      X          Y          Z
     1   -8.735379629218880e-03  -1.536077534911272e-01  -1.116924631958448e-01
     2    1.041384820106184e-02   1.684261559686393e-01   1.258737835770528e-01
     3   -1.422253977320509e-03  -1.539688814736969e-02  -1.472891577985913e-02
     4   -8.363577022758991e-04   5.763749420987739e-04   4.844053205841413e-04
     5    5.807266772234730e-04   2.639184042501247e-06   6.265730323782548e-05

Order 1, Length 15
    Atom      X          Y          Z
     1   -1.726339871202678e-02  -1.414867202607116e-01  -1.546194404203999e-01
     2    1.322355628405741e-02   1.258737835770528e-01   1.425807906294114e-01
     3    2.537688653571650e-03   1.501543256452489e-02   1.309656266216381e-02
     4    1.715484292001088e-03   3.465725748612661e-04  -1.166734326350933e-03
     5   -2.128364714605305e-04   2.508908546262714e-04   1.083766058273157e-04


     3 Order 1, Length 15
    Atom      X          Y          Z
     1   -1.955468033778443e-02  -3.488875895725443e-03  -2.377183337595404e-03
     2   -2.695098949962536e-04  -1.422253977320509e-03   2.537688653571650e-03
     3    2.378060921071690e-02  -1.120690908405942e-02   1.413590134806181e-02
     4   -7.951522204955527e-03   1.702826950527079e-02  -1.457512179789363e-02
     5    3.995514967506737e-03  -9.104052097700791e-04   2.787619747456559e-04

Order 1, Length 15
    Atom      X          Y          Z
     1    9.419366753443063e-03  -1.511778842702708e-01   1.116468720924499e-01
     2    1.544297160472124e-03  -1.539688814736969e-02   1.501543256452489e-02
     3   -1.120690908405942e-02   1.659015964510921e-01  -1.260075285587134e-01
     4    8.024608067299107e-04   6.831168817504147e-04  -5.949725348395019e-04
     5   -5.591744371119330e-04  -9.750251710710036e-06  -5.958572426292114e-05

Order 1, Length 15
    Atom      X          Y          Z
     1   -1.825902653479171e-02   1.413404674520917e-01  -1.570166312344691e-01
     2    2.619458778773331e-03  -1.472891577985913e-02   1.309656266216381e-02
     3    1.413590134806181e-02  -1.260075285587134e-01   1.449663969615977e-01
     4    1.709034010842087e-03  -3.519242959376843e-04  -1.158194097810555e-03
     5   -2.051191959595848e-04  -2.515130065562370e-04   1.110168581539247e-04


     4 Order 1, Length 15
    Atom      X          Y          Z
     1   -1.996874458754724e-02  -2.104939765291600e-05  -1.223546556174443e-02
     2   -7.833579329042249e-03  -8.363577022758991e-04   1.715484292001088e-03
     3   -7.951522204955527e-03   8.024608067299107e-04   1.709034010842087e-03
     4   -1.003914420090104e-01  -3.712258075054894e-04   2.258379328038107e-02
     5    1.361488294800827e-01   4.202033103382667e-04  -1.376571856316322e-02

Order 1, Length 15
    Atom      X          Y          Z
     1    1.284864521873467e-04  -3.260516582098404e-02   3.008137286283446e-06
     2   -1.722081521109139e-02   5.763749420987739e-04   3.465725748612661e-04
     3    1.702826950527079e-02   6.831168817504147e-04  -3.519242959376843e-04
     4   -3.712258075054894e-04   4.220035602743424e-02   4.099625500347753e-05
     5    4.354206363492225e-04  -1.085446522708268e-02  -3.879892950059223e-05

Order 1, Length 15
    Atom      X          Y          Z
     1    1.648322704573275e-02   9.686581921039401e-05  -2.339531632594867e-02
     2   -1.441646385161350e-02   4.844053205841413e-04  -1.166734326350933e-03
     3   -1.457512179789363e-02  -5.949725348395019e-04  -1.158194097810555e-03
     4    2.258379328038107e-02   4.099625500347753e-05   3.519602359683445e-02
     5   -1.007569153588643e-02  -2.644965396904471e-05  -9.476860987026350e-03


     5 Order 1, Length 15
    Atom      X          Y          Z
     1   -1.081259394664701e-01  -3.327891863373771e-04   6.949053584133955e-03
     2    3.984184556359624e-03   5.807266772234730e-04  -2.128364714605305e-04
     3    3.995514967506737e-03  -5.591744371119330e-04  -2.051191959595848e-04
     4    1.361488294800827e-01   4.354206363492225e-04  -1.007569153588643e-02
     5   -3.600409597927044e-02  -1.211578353034507e-04   3.540114555328412e-03

Order 1, Length 15
    Atom      X          Y          Z
     1   -3.286762371827817e-04   5.364513674462212e-03   1.671103376687029e-05
     2    9.400489690952520e-04   2.639184042501247e-06   2.508908546262714e-04
     3   -9.104052097700791e-04  -9.750251710710036e-06  -2.515130065562370e-04
     4    4.202033103382667e-04  -1.085446522708268e-02  -2.644965396904471e-05
     5   -1.211578353034507e-04   5.497044187131296e-03   1.037180809189935e-05

Order 1, Length 15
    Atom      X          Y          Z
     1    9.677120291360079e-03   2.516138651824649e-05   4.083772056809558e-03
     2    2.697229757405162e-04   6.265730323782548e-05   1.083766058273157e-04
     3    2.787619747456559e-04  -5.958572426292114e-05   1.110168581539247e-04
     4   -1.376571856316322e-02  -3.879892950059223e-05  -9.476860987026350e-03
     5    3.540114555328412e-03   1.037180809189935e-05   5.173899388838225e-03




 # Finishing finite difference calculation for IDERIV #
 ######################################################
 ######################################################
 Requested basis set is MINIX
 There are 10 shells and 18 basis functions
 **********************************************************************
 **                                                                  **
 **                       VIBRATIONAL ANALYSIS                       **
 **                       --------------------                       **
 **                                                                  **
 **        VIBRATIONAL FREQUENCIES (CM**-1) AND NORMAL MODES         **
 **     FORCE CONSTANTS (mDYN/ANGSTROM) AND REDUCED MASSES (AMU)     **
 **                  INFRARED INTENSITIES (KM/MOL)                   **
 **                                                                  **
 **********************************************************************


 Mode:                 1                      2                      3
 Frequency:     -2357.48                 519.38                 539.62
 Force Cnst:      3.3056                 0.1605                 0.1773
 Red. Mass:       1.0095                 1.0097                 1.0334
 IR Active:          YES                    YES                    YES
 IR Intens:       13.532                  1.551                  2.011
 Raman Active:       YES                    YES                    YES
               X      Y      Z        X      Y      Z        X      Y      Z
 P         -0.007 -0.000  0.002    0.000 -0.008  0.000    0.028  0.000 -0.010
 H          0.031  0.004 -0.007   -0.509 -0.002  0.038   -0.496 -0.013  0.053
 H          0.031 -0.004 -0.007    0.508  0.001 -0.038   -0.497  0.010  0.053
 H          0.780  0.002 -0.090    0.001 -0.352  0.002    0.043 -0.002 -0.390
 H         -0.616 -0.002  0.056   -0.002  0.597 -0.003    0.103  0.003  0.579
 TransDip   0.096 -0.000 -0.068    0.000 -0.040  0.000   -0.032 -0.000 -0.033

 Mode:                 4                      5                      6
 Frequency:      1177.27                1267.39                1275.88
 Force Cnst:      0.8734                 0.9668                 0.9862
 Red. Mass:       1.0695                 1.0216                 1.0283
 IR Active:          YES                    YES                    YES
 IR Intens:        6.043                  4.541                  9.465
 Raman Active:       YES                    YES                    YES
               X      Y      Z        X      Y      Z        X      Y      Z
 P          0.030 -0.000 -0.034    0.000 -0.021  0.000   -0.017 -0.000 -0.020
 H         -0.326 -0.207  0.236   -0.382  0.004  0.003    0.219 -0.443  0.447
 H         -0.327  0.207  0.234    0.382  0.007 -0.003    0.216  0.448  0.442
 H         -0.046  0.003  0.716   -0.003  0.823 -0.004    0.005 -0.002 -0.324
 H         -0.231 -0.001 -0.146    0.001 -0.175  0.001    0.070  0.001  0.056
 TransDip   0.041 -0.000 -0.067    0.000 -0.068  0.000   -0.049 -0.001 -0.085

 Mode:                 7                      8                      9
 Frequency:      1430.08                2762.10                2773.53
 Force Cnst:      1.2706                 4.6587                 4.7224
 Red. Mass:       1.0545                 1.0364                 1.0420
 IR Active:          YES                    YES                    YES
 IR Intens:        2.754                  6.893                  2.879
 Raman Active:       YES                    YES                    YES
               X      Y      Z        X      Y      Z        X      Y      Z
 P         -0.039 -0.000 -0.004   -0.003 -0.000 -0.031    0.000 -0.034  0.000
 H         -0.075 -0.018  0.016    0.046  0.524  0.472    0.041  0.519  0.477
 H         -0.076  0.018  0.015    0.049 -0.519  0.477   -0.044  0.515 -0.482
 H          0.614  0.003  0.211    0.002 -0.000 -0.005   -0.000  0.002 -0.000
 H          0.743  0.002 -0.113    0.004  0.000  0.000   -0.000  0.000 -0.000
 TransDip   0.045  0.000 -0.028    0.044  0.000  0.072   -0.000  0.054 -0.000

 STANDARD THERMODYNAMIC QUANTITIES AT   298.15 K  AND     1.00 ATM

   This Molecule has  1 Imaginary Frequencies
   Zero point vibrational energy:       16.791 kcal/mol

   Atom    1 Element P  Has Mass   30.97376
   Atom    2 Element H  Has Mass    1.00783
   Atom    3 Element H  Has Mass    1.00783
   Atom    4 Element H  Has Mass    1.00783
   Atom    5 Element H  Has Mass    1.00783
   Molecular Mass:    35.005080 amu
   Principal axes and moments of inertia in amu*Bohr^2:
                             1           2           3
    Eigenvalues --       14.37245    39.76496    41.25358
          X               0.99999    -0.00327     0.00325
          Y               0.00326     0.99998     0.00477
          Z              -0.00327    -0.00476     0.99998
   Rotational Symmetry Number is   1
   The Molecule is an Asymmetric Top
   Translational Enthalpy:        0.889 kcal/mol
   Rotational Enthalpy:           0.889 kcal/mol
   Vibrational Enthalpy:         17.077 kcal/mol
   gas constant (RT):             0.592 kcal/mol
   Translational Entropy:        36.589  cal/mol.K
   Rotational Entropy:           17.806  cal/mol.K
   Vibrational Entropy:           1.300  cal/mol.K

   Total Enthalpy:               19.447 kcal/mol
   Total Entropy:                55.696  cal/mol.K
Archival summary:
1\1\C-node1\FREQ\HF\BasisUnspecified\14(2)\pierpa\FriOct3010:28:022020FriOct3010:28:022020\0\\#,FREQ,HF,BasisUnspecified,\\0,2\P\H,1,1.43469\H,1,1.43469,2,94.0446\H,1,1.55102,2,92.972,3,-93.1946,0\H,4,1.16047,1,174.847,2,47.0299,0\\HF=-341.163723\\@

 Total job time:  11.20s(wall), 17.00s(cpu) 
 Fri Oct 30 10:28:02 2020

        *************************************************************
        *                                                           *
        *  Thank you very much for using Q-Chem.  Have a nice day.  *
        *                                                           *
        *************************************************************


