                  Welcome to Q-Chem
     A Quantum Leap Into The Future Of Chemistry


 Q-Chem 5.3 (devel), Q-Chem, Inc., Pleasanton, CA (2020)

 Yihan Shao,  Zhengting Gan,  E. Epifanovsky,  A. T. B. Gilbert,  M. Wormit,  
 J. Kussmann,  A. W. Lange,  A. Behn,  Jia Deng,  Xintian Feng,  D. Ghosh,  
 M. Goldey,  P. R. Horn,  L. D. Jacobson,  I. Kaliman,  T. Kus,  A. Landau,  
 Jie Liu,  E. I. Proynov,  R. M. Richard,  R. P. Steele,  E. J. Sundstrom,  
 H. L. Woodcock III,  P. M. Zimmerman,  D. Zuev,  B. Alam,  B. Albrecht,  
 A. Aldossary,  E. Alguire,  S. A. Baeppler,  D. Barton,  Z. Benda,  
 Y. A. Bernard,  E. J. Berquist,  K. B. Bravaya,  H. Burton,  K. Carter-Fenk,  
 D. Casanova,  Chun-Min Chang,  Yunqing Chen,  A. Chien,  K. D. Closser,  
 M. P. Coons,  S. Coriani,  S. Dasgupta,  A. L. Dempwolff,  M. Diedenhofen,  
 Hainam Do,  R. G. Edgar,  Po-Tung Fang,  S. Faraji,  S. Fatehi,  
 Qingguo Feng,  J. Fosso-Tande,  J. Gayvert,  Qinghui Ge,  A. Ghysels,  
 G. Gidofalvi,  J. Gomes,  J. Gonthier,  S. Gulania,  A. Gunina,  D. Hait,  
 M. W. D. Hanson-Heine,  S. Hammes-Schiffer,  P. H. P. Harbach,  
 A. W. Hauser,  M. F. Herbst,  J. E. Herr,  E. G. Hohenstein,  Z. C. Holden,  
 S. Houck,  Kerwin Hui,  B. C. Huynh,  M. Ivanov,  T.-C. Jagau,  Hyunjun Ji,  
 B. Kaduk,  K. Khistyaev,  Jaehoon Kim,  P. Klunzinger,  K. Koh,  
 D. Kosenkov,  L. Koulias,  T. Kowalczyk,  C. M. Krauter,  A. Kunitsa,  
 Ka Un Lao,  A. Laurent,  K. V. Lawler,  Joonho Lee,  D. Lefrancois,  
 S. Lehtola,  D. S. Levine,  Yi-Pei Li,  You-Sheng Lin,  Fenglai Liu,  
 Kuan-Yu Liu,  E. Livshits,  M. Loipersberger,  A. Luenser,  P. Manohar,  
 E. Mansoor,  S. F. Manzer,  Shan-Ping Mao,  Yuezhi Mao,  N. Mardirossian,  
 A. V. Marenich,  T. Markovich,  L. A. Martinez-Martinez,  S. A. Maurer,  
 N. J. Mayhall,  S. C. McKenzie,  J.-M. Mewes,  P. Morgante,  A. F. Morrison,  
 J. W. Mullinax,  K. Nanda,  T. S. Nguyen-Beck,  R. Olivares-Amaya,  
 K. J. Oosterbaan,  J. A. Parkhill,  S. K. Paul,  F. Pavosevic,  Zheng Pei,  
 T. M. Perrine,  F. Plasser,  P. Pokhilko,  S. Prager,  A. Prociuk,  
 E. Ramos,  B. Rana,  D. R. Rehn,  F. Rob,  E. Rossomme,  M. Scheurer,  
 M. Schneider,  N. Sergueev,  S. M. Sharada,  S. Sharma,  W. Skomorowski,  
 D. W. Small,  T. Stauch,  C. J. Stein,  T. Stein,  Yu-Chuan Su,  
 S. P. Veccham,  Zhen Tao,  A. J. W. Thom,  A. Tkatchenko,  T. Tsuchimochi,  
 N. M. Tubman,  L. Vogt,  M. L. Vidal,  O. Vydrov,  M. A. Watson,  J. Wenzel,  
 M. de Wergifosse,  T. A. Wesolowski,  A. White,  J. Witte,  A. Yamada,  
 Jun Yang,  K. Yao,  S. Yeganeh,  S. R. Yost,  Zhi-Qiang You,  A. Zech,  
 Igor Ying Zhang,  Xing Zhang,  Yan Zhao,  Ying Zhu,  B. R. Brooks,  
 G. K. L. Chan,  C. J. Cramer,  M. S. Gordon,  W. J. Hehre,  A. Klamt,  
 M. W. Schmidt,  C. D. Sherrill,  D. G. Truhlar,  A. Aspuru-Guzik,  R. Baer,  
 A. T. Bell,  N. A. Besley,  Jeng-Da Chai,  A. E. DePrince, III,  
 R. A. DiStasio Jr.,  A. Dreuw,  B. D. Dunietz,  T. R. Furlani,  
 Chao-Ping Hsu,  Yousung Jung,  Jing Kong,  D. S. Lambrecht,  WanZhen Liang,  
 C. Ochsenfeld,  V. A. Rassolov,  L. V. Slipchenko,  J. E. Subotnik,  
 T. Van Voorhis,  J. M. Herbert,  A. I. Krylov,  P. M. W. Gill,  M. Head-Gordon

 Contributors to earlier versions of Q-Chem not listed above: 
 R. D. Adamson,  B. Austin,  J. Baker,  G. J. O. Beran,  K. Brandhorst,  
 S. T. Brown,  E. F. C. Byrd,  A. K. Chakraborty,  C.-L. Cheng,  
 Siu Hung Chien,  D. M. Chipman,  D. L. Crittenden,  H. Dachsel,  
 R. J. Doerksen,  A. D. Dutoi,  L. Fusti-Molnar,  W. A. Goddard III,  
 A. Golubeva-Zadorozhnaya,  S. R. Gwaltney,  G. Hawkins,  A. Heyden,  
 S. Hirata,  G. Kedziora,  F. J. Keil,  C. Kelley,  Jihan Kim,  R. A. King,  
 R. Z. Khaliullin,  P. P. Korambath,  W. Kurlancheek,  A. M. Lee,  M. S. Lee,  
 S. V. Levchenko,  Ching Yeh Lin,  D. Liotard,  R. C. Lochan,  I. Lotan,  
 P. E. Maslen,  N. Nair,  D. P. O'Neill,  D. Neuhauser,  E. Neuscamman,  
 C. M. Oana,  R. Olson,  B. Peters,  R. Peverati,  P. A. Pieniazek,  
 Y. M. Rhee,  J. Ritchie,  M. A. Rohrdanz,  E. Rosta,  N. J. Russ,  
 H. F. Schaefer III,  N. E. Schultz,  N. Shenvi,  A. C. Simmonett,  A. Sodt,  
 D. Stuck,  K. S. Thanthiriwatte,  V. Vanovschi,  Tao Wang,  A. Warshel,  
 C. F. Williams,  Q. Wu,  X. Xu,  W. Zhang

 Please cite Q-Chem as follows:
 Y. Shao et al., Mol. Phys. 113, 184-215 (2015)
 DOI: 10.1080/00268976.2014.952696

 Q-Chem 5.3.1 for Intel X86 EM64T Linux

 Parts of Q-Chem use Armadillo 9.800.1 (Horizon Scraper).
 http://arma.sourceforge.net/

 Q-Chem begins on Fri Oct 30 09:41:03 2020  

Host: 
0

     Scratch files written to /data/scratch/MN_87_RKT11_BH76_PBEh_3c//
Processing $rem in /home/pierpa/qchem53/config/preferences:
Processing $rem in /home/pierpa/.qchemrc:

Checking the input file for inconsistencies... 	...done.

--------------------------------------------------------------
User input:
--------------------------------------------------------------
$Comment
Geometry optimizations for CLB18.
$End

$Rem
SYMMETRY              False
SYM_IGNORE            True
JOBTYPE               TS
METHOD                PBEh-3c
BASIS                 def2-mSVP
GEOM_OPT_MAX_CYCLES   150
GEOM_OPT_DMAX         10
MAX_SCF_CYCLES        50
SCF_ALGORITHM         DIIS
SCF_PRINT             1
SCF_FINAL_PRINT       1
XC_GRID               000099000590
MEM_TOTAL             20000
MEM_STATIC            4000
BLAS3_DFT             True
New_DFT               True
$End

$Molecule
0 3
C 0.0002900002 -1.1422872190 0.0000000000
H -1.0559572488 -1.3847350499 0.0000000000
H 0.5201674396 -1.4073891263 0.9124496810
H 0.5201674396 -1.4073891263 -0.9124496810
H 0.0115599820 0.1600988609 0.0000000000
O 0.0002900002 1.3616417564 0.0000000000
$End

--------------------------------------------------------------
 Adding empirical dispersion correction 
 ----------------------------------------------------------------
 Doing -D3(BJ) with
 s6  =   1.00000
 s8  =   0.00000
 a1  =   0.48600
 a2  =   4.50000
 -D3 energy including 3body term = -0.0010860510 hartrees
 ----------------------------------------------------------------
 Adding gCP correction 
 ----------------------------------------------------------------
 gCP energy =      0.0047259511 hartrees
 ----------------------------------------------------------------
             Standard Nuclear Orientation (Angstroms)
    I     Atom           X                Y                Z
 ----------------------------------------------------------------
    1      C       0.0002900002    -1.1422872190     0.0000000000
    2      H      -1.0559572488    -1.3847350499     0.0000000000
    3      H       0.5201674396    -1.4073891263     0.9124496810
    4      H       0.5201674396    -1.4073891263    -0.9124496810
    5      H       0.0115599820     0.1600988609     0.0000000000
    6      O       0.0002900002     1.3616417564     0.0000000000
 ----------------------------------------------------------------
 Nuclear Repulsion Energy =          30.91397254 hartrees
 There are       10 alpha and        8 beta electrons
 Requested basis set is def2-mSVP
 There are 22 shells and 38 basis functions

 Total QAlloc Memory Limit  20000 MB
 Mega-Array Size      3911 MB
 MEM_STATIC part      4000 MB
 A cutoff of  1.0D-11 yielded    249 shell pairs
 There are       769 function pairs (       858 Cartesian)
 Smallest overlap matrix eigenvalue = 1.32E-02

 Scale SEOQF with 1.000000e+00/1.000000e+00/1.000000e+00

 Standard Electronic Orientation quadrupole field applied
 Nucleus-field energy     =     0.0000000192 hartrees
 Guess from superposition of atomic densities
 Warning:  Energy on first SCF cycle will be non-variational
 SAD guess density has 18.000000 electrons

 -----------------------------------------------------------------------
  General SCF calculation program by
  Eric Jon Sundstrom, Paul Horn, Yuezhi Mao, Dmitri Zuev, Alec White,
  David Stuck, Shaama M.S., Shane Yost, Joonho Lee, David Small,
  Daniel Levine, Susi Lehtola, Hugh Burton, Evgeny Epifanovsky,
  Bang C. Huynh
 -----------------------------------------------------------------------
 Exchange:     0.4200 Hartree-Fock + 0.5800 PBEh-3c
 Correlation:  1.0000 PBEh-3c
 Using Euler-Maclaurin-Lebedev (99,590) quadrature formula
 Dispersion:   Grimme D3
 using 8 threads for integral computing
 -------------------------------------------------------
 OpenMP Integral computing Module                
 Release: version 1.0, May 2013, Q-Chem Inc. Pittsburgh 
 -------------------------------------------------------
 A unrestricted SCF calculation will be
 performed using DIIS
 SCF converges when DIIS error is below 1.0e-08
 Alpha HF Exchange    Energy =  -2.99063635253631
 Beta HF Exchange     Energy =  -2.99063635253631
 DFT Correlation      Energy =  -0.74966861855153
 DFT Exchange         Energy =  -8.06172590389504
 One-Electron (alpha) Energy = -108.30728707239672
 One-Electron (beta)  Energy = -108.30728707239672
 Total Coulomb        Energy =  85.33855325727362
 ---------------------------------------
  Cycle       Energy         DIIS error
 ---------------------------------------
    1    -115.1547155536      4.37e-02  
 Alpha HF Exchange    Energy =  -3.36269571915319
 Beta HF Exchange     Energy =  -2.83662060520483
 DFT Correlation      Energy =  -0.74979483256498
 DFT Exchange         Energy =  -8.24553475742409
 One-Electron (alpha) Energy = -117.30831580468768
 One-Electron (beta)  Energy = -101.21995049054853
 Total Coulomb        Energy =  87.51480337289082
    2    -115.2941362753      4.74e-03  
 Alpha HF Exchange    Energy =  -3.35112856641797
 Beta HF Exchange     Energy =  -2.81187595785349
 DFT Correlation      Energy =  -0.74353654020607
 DFT Exchange         Energy =  -8.18657847270561
 One-Electron (alpha) Energy = -117.03782296388380
 One-Electron (beta)  Energy = -100.54809639579838
 Total Coulomb        Energy =  86.45441048549159
    3    -115.3106558500      2.58e-03  
 Alpha HF Exchange    Energy =  -3.37100817659230
 Beta HF Exchange     Energy =  -2.81820966795014
 DFT Correlation      Energy =  -0.74546948020741
 DFT Exchange         Energy =  -8.22269193509049
 One-Electron (alpha) Energy = -117.37762756333871
 One-Electron (beta)  Energy = -100.67430711311017
 Total Coulomb        Energy =  86.97970746954191
    4    -115.3156339053      7.96e-04  
 Alpha HF Exchange    Energy =  -3.37494466076817
 Beta HF Exchange     Energy =  -2.81531998487213
 DFT Correlation      Energy =  -0.74478306432329
 DFT Exchange         Energy =  -8.22219682544543
 One-Electron (alpha) Energy = -117.41801041275042
 One-Electron (beta)  Energy = -100.58487838029725
 Total Coulomb        Energy =  86.92986134521128
    5    -115.3162994218      3.92e-04  
 Alpha HF Exchange    Energy =  -3.37489969685770
 Beta HF Exchange     Energy =  -2.81336099321478
 DFT Correlation      Energy =  -0.74460545912627
 DFT Exchange         Energy =  -8.21922813399919
 One-Electron (alpha) Energy = -117.42300977250275
 One-Electron (beta)  Energy = -100.54501419629992
 Total Coulomb        Energy =  86.88969073581025
    6    -115.3164549548      1.74e-04  
 Alpha HF Exchange    Energy =  -3.37656083126129
 Beta HF Exchange     Energy =  -2.81304387685560
 DFT Correlation      Energy =  -0.74456847492617
 DFT Exchange         Energy =  -8.22079660520639
 One-Electron (alpha) Energy = -117.44654414032331
 One-Electron (beta)  Energy = -100.53464651995188
 Total Coulomb        Energy =  86.90569971437941
    7    -115.3164881727      3.72e-05  
 Alpha HF Exchange    Energy =  -3.37673033697919
 Beta HF Exchange     Energy =  -2.81281480353910
 DFT Correlation      Energy =  -0.74454410007492
 DFT Exchange         Energy =  -8.22067268792900
 One-Electron (alpha) Energy = -117.44847212384236
 One-Electron (beta)  Energy = -100.52959402774565
 Total Coulomb        Energy =  86.90236476525209
    8    -115.3164907535      1.47e-05  
 Alpha HF Exchange    Energy =  -3.37682113840945
 Beta HF Exchange     Energy =  -2.81278471971123
 DFT Correlation      Energy =  -0.74454286812357
 DFT Exchange         Energy =  -8.22074952192148
 One-Electron (alpha) Energy = -117.44964127548111
 One-Electron (beta)  Energy = -100.52909580857369
 Total Coulomb        Energy =  86.90317166169750
    9    -115.3164911091      2.59e-06  
 Alpha HF Exchange    Energy =  -3.37682358282402
 Beta HF Exchange     Energy =  -2.81277706684362
 DFT Correlation      Energy =  -0.74454251757222
 DFT Exchange         Energy =  -8.22074326023494
 One-Electron (alpha) Energy = -117.44957637872911
 One-Electron (beta)  Energy = -100.52902184935273
 Total Coulomb        Energy =  86.90302096572377
   10    -115.3164911284      6.11e-07  
 Alpha HF Exchange    Energy =  -3.37682289891119
 Beta HF Exchange     Energy =  -2.81277695879061
 DFT Correlation      Energy =  -0.74454254265793
 DFT Exchange         Energy =  -8.22074225308064
 One-Electron (alpha) Energy = -117.44953375138064
 One-Electron (beta)  Energy = -100.52905517254641
 Total Coulomb        Energy =  86.90300988662979
   11    -115.3164911293      1.96e-07  
 Alpha HF Exchange    Energy =  -3.37682268792523
 Beta HF Exchange     Energy =  -2.81277753965021
 DFT Correlation      Energy =  -0.74454258485637
 DFT Exchange         Energy =  -8.22074269113836
 One-Electron (alpha) Energy = -117.44951263618893
 One-Electron (beta)  Energy = -100.52908018682690
 Total Coulomb        Energy =  86.90301463575626
   12    -115.3164911294      4.00e-08  
 Alpha HF Exchange    Energy =  -3.37682245458592
 Beta HF Exchange     Energy =  -2.81277770628951
 DFT Correlation      Energy =  -0.74454259527158
 DFT Exchange         Energy =  -8.22074259813350
 One-Electron (alpha) Energy = -117.44950569581832
 One-Electron (beta)  Energy = -100.52908656416342
 Total Coulomb        Energy =  86.90301392342904
   13    -115.3164911294      3.64e-09  Convergence criterion met
 ---------------------------------------
 Alpha HF Exchange    Energy =  -3.37682245458592
 Beta HF Exchange     Energy =  -2.81277770628951
 DFT Correlation      Energy =  -0.74454259527158
 DFT Exchange         Energy =  -8.22074259813350
 One-Electron (alpha) Energy = -117.44950569581832
 One-Electron (beta)  Energy = -100.52908656416342
 Total Coulomb        Energy =  86.90301392342904
 SCF time:   CPU 50.23s  wall 6.00s 
<S^2> =          2.016159718
 Alpha HF Exchange    Energy =  -3.37682245458592
 Beta HF Exchange     Energy =  -2.81277770628951
 DFT Correlation      Energy =  -0.74454259527158
 DFT Exchange         Energy =  -8.22074259813350
 One-Electron (alpha) Energy = -117.44950569581832
 One-Electron (beta)  Energy = -100.52908656416342
 Total Coulomb        Energy =  86.90301392342904
 Nuclear repulsion Energy =  30.91397256139926
 SCF   energy in the final basis set =     -115.3164911294
 Total energy in the final basis set =     -115.3164911294

 --------------------------------------------------------------

                    Orbital Energies (a.u.)
 --------------------------------------------------------------

 Alpha MOs
 -- Occupied --
-19.5672 -10.4638  -1.0980  -0.8083  -0.5554  -0.4949  -0.4909  -0.4753
 -0.3989  -0.3398
 -- Virtual --
  0.1551   0.2005   0.2021   0.2777   0.4730   0.4758   0.5159   0.8360
  0.9330   0.9821   1.0025   1.0226   1.0268   1.0409   1.1602   1.6710
  1.6719   1.7725   1.8098   1.8178   1.8229   1.8835   1.9491   2.2633
  2.2652   2.5643  13.6812  25.2730

 Beta MOs
 -- Occupied --
-19.5222 -10.4528  -0.9522  -0.7715  -0.4827  -0.4819  -0.4476  -0.3504
 -- Virtual --
 -0.0879  -0.0687   0.1638   0.2084   0.2085   0.3164   0.4824   0.4839
  0.5762   0.8592   1.0073   1.0254   1.0273   1.0369   1.0690   1.0744
  1.2039   1.7081   1.7083   1.8670   1.8820   1.8937   1.9012   1.9429
  1.9995   2.2764   2.2787   2.6183  13.6960  25.3330
 --------------------------------------------------------------

          Ground-State Mulliken Net Atomic Charges

     Atom                 Charge (a.u.)    Spin (a.u.)
  --------------------------------------------------------
      1 C                    -0.849131       0.629941
      2 H                     0.251147      -0.020781
      3 H                     0.251348      -0.021891
      4 H                     0.251348      -0.021891
      5 H                     0.361589      -0.119353
      6 O                    -0.266302       1.553975
  --------------------------------------------------------
  Sum of atomic charges =    -0.000000
  Sum of spin   charges =     2.000000

 -----------------------------------------------------------------
                    Cartesian Multipole Moments
 -----------------------------------------------------------------
    Charge (ESU x 10^10)
                 0.0000
    Dipole Moment (Debye)
         X      -0.0007      Y      -1.8512      Z       0.0000
       Tot       1.8512
    Quadrupole Moments (Debye-Ang)
        XX     -12.3888     XY       0.0062     YY     -14.9854
        XZ       0.0000     YZ      -0.0000     ZZ     -13.5213
    Octopole Moments (Debye-Ang^2)
       XXX      -0.9450    XXY       1.6716    XYY       0.0398
       YYY       3.7828    XXZ      -0.0000    XYZ       0.0000
       YYZ       0.0000    XZZ       0.9166    YZZ       0.0607
       ZZZ      -0.0000
    Hexadecapole Moments (Debye-Ang^3)
      XXXX     -16.8345   XXXY       1.3722   XXYY     -23.5736
      XYYY      -0.0698   YYYY    -143.8263   XXXZ       0.0000
      XXYZ       0.0000   XYYZ       0.0000   YYYZ       0.0000
      XXZZ      -5.8467   XYZZ      -1.3585   YYZZ     -25.7707
      XZZZ       0.0000   YZZZ       0.0000   ZZZZ     -18.1204
 -----------------------------------------------------------------
 Mayer SCF Bond Order, atomic valence on the diagonal:

            1           2           3           4           5           6
    1   3.3967719   0.9120716   0.9104985   0.9104985   0.4521878   0.2115155
    2   0.9120716   0.9039109  -0.0042663  -0.0042663  -0.0049739   0.0053456
    3   0.9104985  -0.0042663   0.9023152  -0.0041390  -0.0048780   0.0050999
    4   0.9104985  -0.0042663  -0.0041390   0.9023152  -0.0048780   0.0050999
    5   0.4521878  -0.0049739  -0.0048780  -0.0048780   0.8424351   0.4049771
    6   0.2115155   0.0053456   0.0050999   0.0050999   0.4049771   0.6320381


 Calculating analytic gradient of the SCF energy
 Gradient of SCF Energy
            1           2           3           4           5           6
    1  -0.0004819  -0.0002221   0.0002417   0.0002417   0.0001920   0.0000287
    2  -0.0105449   0.0015743   0.0017303   0.0017303   0.0099016  -0.0043916
    3   0.0000000  -0.0000000   0.0002423  -0.0002423   0.0000000  -0.0000000
 Max gradient component =       1.054E-02
 RMS gradient           =       3.633E-03
 Gradient time:  CPU 6.53 s  wall 0.97 s
 Geometry Optimization Parameters
   NAtoms,    NIC,     NZ,  NCons,   NDum,   NFix, NCnnct, MaxDiis
        6      27       0       0       0       0       0       0


** GEOMETRY OPTIMIZATION IN DELOCALIZED INTERNAL COORDINATES **
   Searching for a Transition State

   Optimization Cycle:   1

                       Coordinates (Angstroms)
     ATOM                X               Y               Z
      1  C         0.0002900002   -1.1422872190    0.0000000000
      2  H        -1.0559572488   -1.3847350499    0.0000000000
      3  H         0.5201674396   -1.4073891263    0.9124496810
      4  H         0.5201674396   -1.4073891263   -0.9124496810
      5  H         0.0115599820    0.1600988609    0.0000000000
      6  O         0.0002900002    1.3616417564    0.0000000000
   Point Group: c1    Number of degrees of freedom:    12


   Energy is   -115.316491129


 Attempting to generate delocalized internal coordinates
 Initial Hessian constructed with Jon Baker's OPTIMIZE code

 10 Hessian modes will be used to form the next step
  Hessian Eigenvalues:
     0.160000    0.160000    0.160000    0.160006    0.184786    0.200000
     0.200000    0.245492    0.355491    0.356218
**WARNING** Hessian does not have the desired local structure
**WARNING** Hessian does not have the desired local structure

 Transition state search - taking P-RFO step
 Searching for Lamda that Maximizes Along the Lowest mode
 Value Taken    Lamda =   0.16005107
 Searching for Lamda that Minimizes Along All other modes
 Value Taken    Lamda =  -0.00033611
 Calculated Step too Large.  Step scaled by  0.000179
 Step Taken.  Stepsize is  0.010000

                             Maximum     Tolerance    Cnvgd?
         Gradient           0.008268      0.000300      NO
         Displacement       0.006904      0.001200      NO
         Energy change     *********      0.000001      NO


 New Cartesian Coordinates Obtained by Inverse Iteration

 Displacement from previous Coordinates is:  0.014683
 Adding empirical dispersion correction 
 ----------------------------------------------------------------
 Doing -D3(BJ) with
 s6  =   1.00000
 s8  =   0.00000
 a1  =   0.48600
 a2  =   4.50000
 -D3 energy including 3body term = -0.0010863680 hartrees
 ----------------------------------------------------------------
 Adding gCP correction 
 ----------------------------------------------------------------
 gCP energy =      0.0047337676 hartrees
 ----------------------------------------------------------------
             Standard Nuclear Orientation (Angstroms)
    I     Atom           X                Y                Z
 ----------------------------------------------------------------
    1      C       0.0013349198    -1.1438390701    -0.0000009981
    2      H      -1.0566867491    -1.3784225909    -0.0000013173
    3      H       0.5215826531    -1.4082178294     0.9124474775
    4      H       0.5215814250    -1.4082252882    -0.9124480127
    5      H       0.0108138454     0.1585584623     0.0000006603
    6      O      -0.0021084815     1.3600864121     0.0000021904
 ----------------------------------------------------------------
 Nuclear Repulsion Energy =          30.91823480 hartrees
 There are       10 alpha and        8 beta electrons
 Applying Cartesian multipole field
    Component          Value
    ---------          -----
     (2,0,0)        1.00000E-10
     (0,2,0)        2.00000E-10
     (0,0,2)       -3.00000E-10
 Nucleus-field energy     =     0.0000000192 hartrees
 Requested basis set is def2-mSVP
 There are 22 shells and 38 basis functions
 A cutoff of  1.0D-11 yielded    249 shell pairs
 There are       769 function pairs (       858 Cartesian)
 Smallest overlap matrix eigenvalue = 1.32E-02
 Guess MOs from SCF MO coefficient file

 -----------------------------------------------------------------------
  General SCF calculation program by
  Eric Jon Sundstrom, Paul Horn, Yuezhi Mao, Dmitri Zuev, Alec White,
  David Stuck, Shaama M.S., Shane Yost, Joonho Lee, David Small,
  Daniel Levine, Susi Lehtola, Hugh Burton, Evgeny Epifanovsky,
  Bang C. Huynh
 -----------------------------------------------------------------------
 Exchange:     0.4200 Hartree-Fock + 0.5800 PBEh-3c
 Correlation:  1.0000 PBEh-3c
 Using Euler-Maclaurin-Lebedev (99,590) quadrature formula
 Dispersion:   Grimme D3
 using 8 threads for integral computing
 -------------------------------------------------------
 OpenMP Integral computing Module                
 Release: version 1.0, May 2013, Q-Chem Inc. Pittsburgh 
 -------------------------------------------------------
 A unrestricted SCF calculation will be
 performed using DIIS
 SCF converges when DIIS error is below 1.0e-08
 Alpha HF Exchange    Energy =  -3.37683213226382
 Beta HF Exchange     Energy =  -2.81279734714079
 DFT Correlation      Energy =  -0.74454976055518
 DFT Exchange         Energy =  -8.22078697452338
 One-Electron (alpha) Energy = -117.45397185103782
 One-Electron (beta)  Energy = -100.53298224455060
 Total Coulomb        Energy =  86.90723278117952
 ---------------------------------------
  Cycle       Energy         DIIS error
 ---------------------------------------
    1    -115.3164527059      5.84e-05  
 Alpha HF Exchange    Energy =  -3.37679319110506
 Beta HF Exchange     Energy =  -2.81282267677325
 DFT Correlation      Energy =  -0.74455451682477
 DFT Exchange         Energy =  -8.22077191245866
 One-Electron (alpha) Energy = -117.45375961414794
 One-Electron (beta)  Energy = -100.53397834389938
 Total Coulomb        Energy =  86.90798851292834
    2    -115.3164569193      1.21e-05  
 Alpha HF Exchange    Energy =  -3.37676836440653
 Beta HF Exchange     Energy =  -2.81283296812194
 DFT Correlation      Energy =  -0.74455668884872
 DFT Exchange         Energy =  -8.22075768215887
 One-Electron (alpha) Energy = -117.45338958137370
 One-Electron (beta)  Energy = -100.53414157470345
 Total Coulomb        Energy =  86.90775478698164
    3    -115.3164572497      4.79e-06  
 Alpha HF Exchange    Energy =  -3.37676590804666
 Beta HF Exchange     Energy =  -2.81284280393385
 DFT Correlation      Energy =  -0.74455710713544
 DFT Exchange         Energy =  -8.22076812025477
 One-Electron (alpha) Energy = -117.45338217305387
 One-Electron (beta)  Energy = -100.53434314849522
 Total Coulomb        Energy =  86.90796713516143
    4    -115.3164573028      2.68e-06  
 Alpha HF Exchange    Energy =  -3.37675690151393
 Beta HF Exchange     Energy =  -2.81284209663271
 DFT Correlation      Energy =  -0.74455768900911
 DFT Exchange         Energy =  -8.22075704929595
 One-Electron (alpha) Energy = -117.45331197722047
 One-Electron (beta)  Energy = -100.53435582651579
 Total Coulomb        Energy =  86.90788940368388
    5    -115.3164573135      1.27e-06  
 Alpha HF Exchange    Energy =  -3.37675718061453
 Beta HF Exchange     Energy =  -2.81284535921317
 DFT Correlation      Energy =  -0.74455781009075
 DFT Exchange         Energy =  -8.22076186680369
 One-Electron (alpha) Energy = -117.45330894009845
 One-Electron (beta)  Energy = -100.53439973248727
 Total Coulomb        Energy =  86.90793875003135
    6    -115.3164573163      2.92e-07  
 Alpha HF Exchange    Energy =  -3.37675605511924
 Beta HF Exchange     Energy =  -2.81284541381047
 DFT Correlation      Energy =  -0.74455780072573
 DFT Exchange         Energy =  -8.22076054833716
 One-Electron (alpha) Energy = -117.45330079164913
 One-Electron (beta)  Energy = -100.53439826479260
 Total Coulomb        Energy =  86.90792673496207
    7    -115.3164573165      9.35e-08  
 Alpha HF Exchange    Energy =  -3.37675624721481
 Beta HF Exchange     Energy =  -2.81284574257068
 DFT Correlation      Energy =  -0.74455785239542
 DFT Exchange         Energy =  -8.22076131218208
 One-Electron (alpha) Energy = -117.45330680383357
 One-Electron (beta)  Energy = -100.53440281269208
 Total Coulomb        Energy =  86.90793863138803
    8    -115.3164573165      3.19e-08  
 Alpha HF Exchange    Energy =  -3.37675600329716
 Beta HF Exchange     Energy =  -2.81284564051792
 DFT Correlation      Energy =  -0.74455782653713
 DFT Exchange         Energy =  -8.22076082923362
 One-Electron (alpha) Energy = -117.45330340843242
 One-Electron (beta)  Energy = -100.53440003224955
 Total Coulomb        Energy =  86.90793160076528
    9    -115.3164573165      1.09e-08  
 Alpha HF Exchange    Energy =  -3.37675605732580
 Beta HF Exchange     Energy =  -2.81284568233253
 DFT Correlation      Energy =  -0.74455783502669
 DFT Exchange         Energy =  -8.22076096637081
 One-Electron (alpha) Energy = -117.45330453565798
 One-Electron (beta)  Energy = -100.53440080079049
 Total Coulomb        Energy =  86.90793373800159
   10    -115.3164573165      1.34e-09  Convergence criterion met
 ---------------------------------------
 Alpha HF Exchange    Energy =  -3.37675605732580
 Beta HF Exchange     Energy =  -2.81284568233253
 DFT Correlation      Energy =  -0.74455783502669
 DFT Exchange         Energy =  -8.22076096637081
 One-Electron (alpha) Energy = -117.45330453565798
 One-Electron (beta)  Energy = -100.53440080079049
 Total Coulomb        Energy =  86.90793373800159
 SCF time:   CPU 40.05s  wall 6.00s 
<S^2> =          2.016187327
 Alpha HF Exchange    Energy =  -3.37675605732580
 Beta HF Exchange     Energy =  -2.81284568233253
 DFT Correlation      Energy =  -0.74455783502669
 DFT Exchange         Energy =  -8.22076096637081
 One-Electron (alpha) Energy = -117.45330453565798
 One-Electron (beta)  Energy = -100.53440080079049
 Total Coulomb        Energy =  86.90793373800159
 Nuclear repulsion Energy =  30.91823482297824
 SCF   energy in the final basis set =     -115.3164573165
 Total energy in the final basis set =     -115.3164573165

 --------------------------------------------------------------

                    Orbital Energies (a.u.)
 --------------------------------------------------------------

 Alpha MOs
 -- Occupied --
-19.5669 -10.4639  -1.0978  -0.8084  -0.5551  -0.4953  -0.4910  -0.4753
 -0.3987  -0.3394
 -- Virtual --
  0.1548   0.2007   0.2020   0.2774   0.4729   0.4757   0.5159   0.8362
  0.9331   0.9822   1.0023   1.0230   1.0267   1.0407   1.1605   1.6708
  1.6720   1.7725   1.8100   1.8179   1.8231   1.8836   1.9500   2.2630
  2.2638   2.5645  13.6813  25.2733

 Beta MOs
 -- Occupied --
-19.5220 -10.4529  -0.9521  -0.7715  -0.4828  -0.4824  -0.4473  -0.3502
 -- Virtual --
 -0.0877  -0.0685   0.1635   0.2083   0.2086   0.3162   0.4823   0.4838
  0.5763   0.8594   1.0073   1.0259   1.0270   1.0368   1.0688   1.0744
  1.2041   1.7083   1.7084   1.8672   1.8820   1.8939   1.9014   1.9430
  2.0005   2.2760   2.2772   2.6185  13.6960  25.3333
 --------------------------------------------------------------

          Ground-State Mulliken Net Atomic Charges

     Atom                 Charge (a.u.)    Spin (a.u.)
  --------------------------------------------------------
      1 C                    -0.849196       0.631143
      2 H                     0.251420      -0.020886
      3 H                     0.251484      -0.022059
      4 H                     0.251484      -0.022059
      5 H                     0.361692      -0.119296
      6 O                    -0.266884       1.553157
  --------------------------------------------------------
  Sum of atomic charges =    -0.000000
  Sum of spin   charges =     2.000000

 -----------------------------------------------------------------
                    Cartesian Multipole Moments
 -----------------------------------------------------------------
    Charge (ESU x 10^10)
                 0.0000
    Dipole Moment (Debye)
         X       0.0005      Y      -1.8517      Z      -0.0000
       Tot       1.8517
    Quadrupole Moments (Debye-Ang)
        XX     -12.3794     XY       0.0004     YY     -15.0050
        XZ       0.0000     YZ       0.0000     ZZ     -13.5201
    Octopole Moments (Debye-Ang^2)
       XXX      -0.9367    XXY       1.6822    XYY       0.0809
       YYY       3.8640    XXZ      -0.0000    XYZ      -0.0000
       YYZ      -0.0000    XZZ       0.9273    YZZ       0.0737
       ZZZ      -0.0000
    Hexadecapole Moments (Debye-Ang^3)
      XXXX     -16.8312   XXXY       1.4496   XXYY     -23.5818
      XYYY      -0.0242   YYYY    -143.8719   XXXZ       0.0000
      XXYZ      -0.0000   XYYZ      -0.0000   YYYZ      -0.0000
      XXZZ      -5.8437   XYZZ      -1.3324   YYZZ     -25.7579
      XZZZ      -0.0000   YZZZ      -0.0001   ZZZZ     -18.1165
 -----------------------------------------------------------------
 Mayer SCF Bond Order, atomic valence on the diagonal:

            1           2           3           4           5           6
    1   3.3956649   0.9118049   0.9104898   0.9104900   0.4514955   0.2113848
    2   0.9118049   0.9037784  -0.0041735  -0.0041736  -0.0051256   0.0054464
    3   0.9104898  -0.0041735   0.9023524  -0.0041446  -0.0048698   0.0050506
    4   0.9104900  -0.0041736  -0.0041446   0.9023526  -0.0048697   0.0050505
    5   0.4514955  -0.0051256  -0.0048698  -0.0048697   0.8422477   0.4056173
    6   0.2113848   0.0054464   0.0050506   0.0050505   0.4056173   0.6325496


 Calculating analytic gradient of the SCF energy
 Gradient of SCF Energy
            1           2           3           4           5           6
    1  -0.0004194  -0.0003620   0.0004508   0.0004506  -0.0001612   0.0000413
    2  -0.0110358   0.0021354   0.0018211   0.0018206   0.0095182  -0.0042595
    3  -0.0000001  -0.0000002   0.0002196  -0.0002196   0.0000003   0.0000000
 Max gradient component =       1.104E-02
 RMS gradient           =       3.671E-03
 Gradient time:  CPU 6.96 s  wall 1.18 s
 Geometry Optimization Parameters
   NAtoms,    NIC,     NZ,  NCons,   NDum,   NFix, NCnnct, MaxDiis
        6      27       0       0       0       0       0       0

 Cartesian Hessian Update
 Hessian updated using Powell/Murtagh-Sargent update
  Mixing factors:     0.002387 Powell                      0.997613 Murtagh-Sargent


** GEOMETRY OPTIMIZATION IN DELOCALIZED INTERNAL COORDINATES **
   Searching for a Transition State

   Optimization Cycle:   2

                       Coordinates (Angstroms)
     ATOM                X               Y               Z
      1  C         0.0013349198   -1.1438390701   -0.0000009981
      2  H        -1.0566867491   -1.3784225909   -0.0000013173
      3  H         0.5215826531   -1.4082178294    0.9124474775
      4  H         0.5215814250   -1.4082252882   -0.9124480127
      5  H         0.0108138454    0.1585584623    0.0000006603
      6  O        -0.0021084815    1.3600864121    0.0000021904
   Point Group: c1    Number of degrees of freedom:    12


   Energy is   -115.316457317

 Hessian updated using Powell/Murtagh-Sargent update
  Mixing factors:     0.281217 Powell                      0.718783 Murtagh-Sargent

 12 Hessian modes will be used to form the next step
  Hessian Eigenvalues:
     0.091479    0.160000    0.160004    0.160006    0.161074    0.184445
     0.199997    0.200000    0.244528    0.355291    0.355719    0.356218
**WARNING** Hessian does not have the desired local structure
**WARNING** Hessian does not have the desired local structure

 Transition state search - taking P-RFO step
 Searching for Lamda that Maximizes Along the Lowest mode
 Value Taken    Lamda =   0.09171556
 Searching for Lamda that Minimizes Along All other modes
 Value Taken    Lamda =  -0.00030227
 Calculated Step too Large.  Step scaled by  0.000508
 Step Taken.  Stepsize is  0.010000

                             Maximum     Tolerance    Cnvgd?
         Gradient           0.008325      0.000300      NO
         Displacement       0.007869      0.001200      NO
         Energy change      0.000034      0.000001      NO


 New Cartesian Coordinates Obtained by Inverse Iteration

 Displacement from previous Coordinates is:  0.014669
 Adding empirical dispersion correction 
 ----------------------------------------------------------------
 Doing -D3(BJ) with
 s6  =   1.00000
 s8  =   0.00000
 a1  =   0.48600
 a2  =   4.50000
 -D3 energy including 3body term = -0.0010865165 hartrees
 ----------------------------------------------------------------
 Adding gCP correction 
 ----------------------------------------------------------------
 gCP energy =      0.0047344854 hartrees
 ----------------------------------------------------------------
             Standard Nuclear Orientation (Angstroms)
    I     Atom           X                Y                Z
 ----------------------------------------------------------------
    1      C       0.0028387431    -1.1453268509    -0.0000024419
    2      H      -1.0567580438    -1.3724101993    -0.0000024303
    3      H       0.5226334769    -1.4103038702     0.9123745400
    4      H       0.5226313854    -1.4103200221    -0.9123758365
    5      H       0.0101050015     0.1586422892     0.0000013628
    6      O      -0.0049329503     1.3596587492     0.0000048059
 ----------------------------------------------------------------
 Nuclear Repulsion Energy =          30.91439839 hartrees
 There are       10 alpha and        8 beta electrons
 Applying Cartesian multipole field
    Component          Value
    ---------          -----
     (2,0,0)        1.00000E-10
     (0,2,0)        2.00000E-10
     (0,0,2)       -3.00000E-10
 Nucleus-field energy     =     0.0000000192 hartrees
 Requested basis set is def2-mSVP
 There are 22 shells and 38 basis functions
 A cutoff of  1.0D-11 yielded    249 shell pairs
 There are       769 function pairs (       858 Cartesian)
 Smallest overlap matrix eigenvalue = 1.32E-02
 Guess MOs from SCF MO coefficient file

 -----------------------------------------------------------------------
  General SCF calculation program by
  Eric Jon Sundstrom, Paul Horn, Yuezhi Mao, Dmitri Zuev, Alec White,
  David Stuck, Shaama M.S., Shane Yost, Joonho Lee, David Small,
  Daniel Levine, Susi Lehtola, Hugh Burton, Evgeny Epifanovsky,
  Bang C. Huynh
 -----------------------------------------------------------------------
 Exchange:     0.4200 Hartree-Fock + 0.5800 PBEh-3c
 Correlation:  1.0000 PBEh-3c
 Using Euler-Maclaurin-Lebedev (99,590) quadrature formula
 Dispersion:   Grimme D3
 using 8 threads for integral computing
 -------------------------------------------------------
 OpenMP Integral computing Module                
 Release: version 1.0, May 2013, Q-Chem Inc. Pittsburgh 
 -------------------------------------------------------
 A unrestricted SCF calculation will be
 performed using DIIS
 SCF converges when DIIS error is below 1.0e-08
 Alpha HF Exchange    Energy =  -3.37670701631051
 Beta HF Exchange     Energy =  -2.81285055614606
 DFT Correlation      Energy =  -0.74454815571099
 DFT Exchange         Energy =  -8.22071738352367
 One-Electron (alpha) Energy = -117.44847561783548
 One-Electron (beta)  Energy = -100.53111966052258
 Total Coulomb        Energy =  86.90361861231347
 ---------------------------------------
  Cycle       Energy         DIIS error
 ---------------------------------------
    1    -115.3164013640      5.85e-05  
 Alpha HF Exchange    Energy =  -3.37666070498965
 Beta HF Exchange     Energy =  -2.81293045650180
 DFT Correlation      Energy =  -0.74455569338804
 DFT Exchange         Energy =  -8.22075770056755
 One-Electron (alpha) Energy = -117.44795561480538
 One-Electron (beta)  Energy = -100.53275365588492
 Total Coulomb        Energy =  86.90480904566812
    2    -115.3164063667      1.78e-05  
 Alpha HF Exchange    Energy =  -3.37657922543156
 Beta HF Exchange     Energy =  -2.81293087536419
 DFT Correlation      Energy =  -0.74456038156929
 DFT Exchange         Energy =  -8.22066236920743
 One-Electron (alpha) Energy = -117.44718438501953
 One-Electron (beta)  Energy = -100.53294612620196
 Total Coulomb        Energy =  86.90405812942237
    3    -115.3164068197      1.34e-05  
 Alpha HF Exchange    Energy =  -3.37659694705684
 Beta HF Exchange     Energy =  -2.81296065402652
 DFT Correlation      Energy =  -0.74456049366038
 DFT Exchange         Energy =  -8.22072261979373
 One-Electron (alpha) Energy = -117.44729112681470
 One-Electron (beta)  Energy = -100.53337861786576
 Total Coulomb        Energy =  86.90470504528561
    4    -115.3164070002      4.55e-06  
 Alpha HF Exchange    Energy =  -3.37657601557512
 Beta HF Exchange     Energy =  -2.81296860854580
 DFT Correlation      Energy =  -0.74456164137838
 DFT Exchange         Energy =  -8.22070862080620
 One-Electron (alpha) Energy = -117.44710217355973
 One-Electron (beta)  Energy = -100.53354978587896
 Total Coulomb        Energy =  86.90466138839935
    5    -115.3164070436      1.02e-06  
 Alpha HF Exchange    Energy =  -3.37657274293387
 Beta HF Exchange     Energy =  -2.81297262503696
 DFT Correlation      Energy =  -0.74456207278712
 DFT Exchange         Energy =  -8.22071054463402
 One-Electron (alpha) Energy = -117.44707608167737
 One-Electron (beta)  Energy = -100.53361046754893
 Total Coulomb        Energy =  86.90469907426315
    6    -115.3164070466      3.23e-07  
 Alpha HF Exchange    Energy =  -3.37657077622597
 Beta HF Exchange     Energy =  -2.81297275307221
 DFT Correlation      Energy =  -0.74456202213584
 DFT Exchange         Energy =  -8.22070821987124
 One-Electron (alpha) Energy = -117.44705919716679
 One-Electron (beta)  Energy = -100.53360651744488
 Total Coulomb        Energy =  86.90467402530373
    7    -115.3164070469      1.03e-07  
 Alpha HF Exchange    Energy =  -3.37657127435492
 Beta HF Exchange     Energy =  -2.81297318404018
 DFT Correlation      Energy =  -0.74456210692740
 DFT Exchange         Energy =  -8.22070956204481
 One-Electron (alpha) Energy = -117.44707033478906
 One-Electron (beta)  Energy = -100.53361343898736
 Total Coulomb        Energy =  86.90469444051008
    8    -115.3164070469      3.82e-08  
 Alpha HF Exchange    Energy =  -3.37657103107485
 Beta HF Exchange     Energy =  -2.81297306759087
 DFT Correlation      Energy =  -0.74456207892516
 DFT Exchange         Energy =  -8.22070905855184
 One-Electron (alpha) Energy = -117.44706727414902
 One-Electron (beta)  Energy = -100.53360992696398
 Total Coulomb        Energy =  86.90468697661953
    9    -115.3164070469      7.89e-09  Convergence criterion met
 ---------------------------------------
 Alpha HF Exchange    Energy =  -3.37657103107485
 Beta HF Exchange     Energy =  -2.81297306759087
 DFT Correlation      Energy =  -0.74456207892516
 DFT Exchange         Energy =  -8.22070905855184
 One-Electron (alpha) Energy = -117.44706727414902
 One-Electron (beta)  Energy = -100.53360992696398
 Total Coulomb        Energy =  86.90468697661953
 SCF time:   CPU 35.40s  wall 5.00s 
<S^2> =          2.016247921
 Alpha HF Exchange    Energy =  -3.37657103107485
 Beta HF Exchange     Energy =  -2.81297306759087
 DFT Correlation      Energy =  -0.74456207892516
 DFT Exchange         Energy =  -8.22070905855184
 One-Electron (alpha) Energy = -117.44706727414902
 One-Electron (beta)  Energy = -100.53360992696398
 Total Coulomb        Energy =  86.90468697661953
 Nuclear repulsion Energy =  30.91439841372022
 SCF   energy in the final basis set =     -115.3164070469
 Total energy in the final basis set =     -115.3164070469

 --------------------------------------------------------------

                    Orbital Energies (a.u.)
 --------------------------------------------------------------

 Alpha MOs
 -- Occupied --
-19.5666 -10.4641  -1.0975  -0.8085  -0.5547  -0.4955  -0.4912  -0.4752
 -0.3984  -0.3391
 -- Virtual --
  0.1545   0.2009   0.2019   0.2770   0.4728   0.4755   0.5158   0.8363
  0.9331   0.9823   1.0021   1.0232   1.0268   1.0407   1.1603   1.6706
  1.6720   1.7726   1.8102   1.8182   1.8233   1.8838   1.9501   2.2628
  2.2630   2.5640  13.6811  25.2736

 Beta MOs
 -- Occupied --
-19.5218 -10.4531  -0.9521  -0.7715  -0.4829  -0.4829  -0.4470  -0.3501
 -- Virtual --
 -0.0876  -0.0683   0.1634   0.2082   0.2087   0.3159   0.4822   0.4837
  0.5763   0.8593   1.0073   1.0258   1.0271   1.0369   1.0686   1.0745
  1.2039   1.7083   1.7086   1.8672   1.8819   1.8941   1.9016   1.9432
  2.0006   2.2758   2.2764   2.6180  13.6959  25.3334
 --------------------------------------------------------------

          Ground-State Mulliken Net Atomic Charges

     Atom                 Charge (a.u.)    Spin (a.u.)
  --------------------------------------------------------
      1 C                    -0.848908       0.633805
      2 H                     0.251687      -0.021032
      3 H                     0.251633      -0.022258
      4 H                     0.251633      -0.022259
      5 H                     0.361943      -0.119369
      6 O                    -0.267988       1.551113
  --------------------------------------------------------
  Sum of atomic charges =    -0.000000
  Sum of spin   charges =     2.000000

 -----------------------------------------------------------------
                    Cartesian Multipole Moments
 -----------------------------------------------------------------
    Charge (ESU x 10^10)
                 0.0000
    Dipole Moment (Debye)
         X       0.0017      Y      -1.8577      Z      -0.0000
       Tot       1.8577
    Quadrupole Moments (Debye-Ang)
        XX     -12.3739     XY      -0.0051     YY     -15.0211
        XZ       0.0000     YZ       0.0000     ZZ     -13.5193
    Octopole Moments (Debye-Ang^2)
       XXX      -0.9284    XXY       1.6898    XYY       0.1256
       YYY       3.8901    XXZ      -0.0000    XYZ       0.0000
       YYZ      -0.0001    XZZ       0.9364    YZZ       0.0761
       ZZZ      -0.0000
    Hexadecapole Moments (Debye-Ang^3)
      XXXX     -16.8282   XXXY       1.5431   XXYY     -23.6089
      XYYY       0.0381   YYYY    -144.0169   XXXZ       0.0000
      XXYZ      -0.0001   XYYZ      -0.0000   YYYZ      -0.0001
      XXZZ      -5.8409   XYZZ      -1.2992   YYZZ     -25.7574
      XZZZ      -0.0000   YZZZ      -0.0002   ZZZZ     -18.1108
 -----------------------------------------------------------------
 Mayer SCF Bond Order, atomic valence on the diagonal:

            1           2           3           4           5           6
    1   3.3931260   0.9114994   0.9104684   0.9104690   0.4495298   0.2111593
    2   0.9114994   0.9035604  -0.0041139  -0.0041141  -0.0052569   0.0055459
    3   0.9104684  -0.0041139   0.9023690  -0.0041560  -0.0048174   0.0049880
    4   0.9104690  -0.0041141  -0.0041560   0.9023696  -0.0048170   0.0049877
    5   0.4495298  -0.0052569  -0.0048174  -0.0048170   0.8420181   0.4073796
    6   0.2111593   0.0055459   0.0049880   0.0049877   0.4073796   0.6340604


 Calculating analytic gradient of the SCF energy
 Gradient of SCF Energy
            1           2           3           4           5           6
    1  -0.0001691  -0.0003965   0.0005375   0.0005372  -0.0005609   0.0000519
    2  -0.0113916   0.0025974   0.0017901   0.0017891   0.0090640  -0.0038490
    3  -0.0000003  -0.0000003   0.0001225  -0.0001225   0.0000006   0.0000000
 Max gradient component =       1.139E-02
 RMS gradient           =       3.659E-03
 Gradient time:  CPU 6.58 s  wall 1.04 s
 Geometry Optimization Parameters
   NAtoms,    NIC,     NZ,  NCons,   NDum,   NFix, NCnnct, MaxDiis
        6      27       0       0       0       0       0       0

 Cartesian Hessian Update
 Hessian updated using Powell/Murtagh-Sargent update
  Mixing factors:     0.868143 Powell                      0.131857 Murtagh-Sargent


** GEOMETRY OPTIMIZATION IN DELOCALIZED INTERNAL COORDINATES **
   Searching for a Transition State

   Optimization Cycle:   3

                       Coordinates (Angstroms)
     ATOM                X               Y               Z
      1  C         0.0028387431   -1.1453268509   -0.0000024419
      2  H        -1.0567580438   -1.3724101993   -0.0000024303
      3  H         0.5226334769   -1.4103038702    0.9123745400
      4  H         0.5226313854   -1.4103200221   -0.9123758365
      5  H         0.0101050015    0.1586422892    0.0000013628
      6  O        -0.0049329503    1.3596587492    0.0000048059
   Point Group: c1    Number of degrees of freedom:    12


   Energy is   -115.316407047

 Hessian updated using Powell/Murtagh-Sargent update
  Mixing factors:     0.941547 Powell                      0.058453 Murtagh-Sargent

 11 Hessian modes will be used to form the next step
  Hessian Eigenvalues:
     0.055552    0.160006    0.160234    0.161075    0.188202    0.200000
     0.200013    0.248726    0.355280    0.355719    0.356218
**WARNING** Hessian does not have the desired local structure
**WARNING** Hessian does not have the desired local structure

 Transition state search - taking P-RFO step
 Searching for Lamda that Maximizes Along the Lowest mode
 Value Taken    Lamda =   0.05638798
 Searching for Lamda that Minimizes Along All other modes
 Value Taken    Lamda =  -0.00018728
 Calculated Step too Large.  Step scaled by  0.001218
 Step Taken.  Stepsize is  0.010000

                             Maximum     Tolerance    Cnvgd?
         Gradient           0.008257      0.000300      NO
         Displacement       0.006855      0.001200      NO
         Energy change      0.000050      0.000001      NO


 New Cartesian Coordinates Obtained by Inverse Iteration

 Displacement from previous Coordinates is:  0.012626
 Adding empirical dispersion correction 
 ----------------------------------------------------------------
 Doing -D3(BJ) with
 s6  =   1.00000
 s8  =   0.00000
 a1  =   0.48600
 a2  =   4.50000
 -D3 energy including 3body term = -0.0010866032 hartrees
 ----------------------------------------------------------------
 Adding gCP correction 
 ----------------------------------------------------------------
 gCP energy =      0.0047290744 hartrees
 ----------------------------------------------------------------
             Standard Nuclear Orientation (Angstroms)
    I     Atom           X                Y                Z
 ----------------------------------------------------------------
    1      C       0.0042416488    -1.1467865560    -0.0000038324
    2      H      -1.0567099104    -1.3675268982    -0.0000031888
    3      H       0.5233838963    -1.4122418400     0.9124879679
    4      H       0.5233813291    -1.4122654884    -0.9124899829
    5      H       0.0095866859     0.1597954416     0.0000019583
    6      O      -0.0073660370     1.3589654369     0.0000070779
 ----------------------------------------------------------------
 Nuclear Repulsion Energy =          30.91287442 hartrees
 There are       10 alpha and        8 beta electrons
 Applying Cartesian multipole field
    Component          Value
    ---------          -----
     (2,0,0)        1.00000E-10
     (0,2,0)        2.00000E-10
     (0,0,2)       -3.00000E-10
 Nucleus-field energy     =     0.0000000192 hartrees
 Requested basis set is def2-mSVP
 There are 22 shells and 38 basis functions
 A cutoff of  1.0D-11 yielded    249 shell pairs
 There are       769 function pairs (       858 Cartesian)
 Smallest overlap matrix eigenvalue = 1.33E-02
 Guess MOs from SCF MO coefficient file

 -----------------------------------------------------------------------
  General SCF calculation program by
  Eric Jon Sundstrom, Paul Horn, Yuezhi Mao, Dmitri Zuev, Alec White,
  David Stuck, Shaama M.S., Shane Yost, Joonho Lee, David Small,
  Daniel Levine, Susi Lehtola, Hugh Burton, Evgeny Epifanovsky,
  Bang C. Huynh
 -----------------------------------------------------------------------
 Exchange:     0.4200 Hartree-Fock + 0.5800 PBEh-3c
 Correlation:  1.0000 PBEh-3c
 Using Euler-Maclaurin-Lebedev (99,590) quadrature formula
 Dispersion:   Grimme D3
 using 8 threads for integral computing
 -------------------------------------------------------
 OpenMP Integral computing Module                
 Release: version 1.0, May 2013, Q-Chem Inc. Pittsburgh 
 -------------------------------------------------------
 A unrestricted SCF calculation will be
 performed using DIIS
 SCF converges when DIIS error is below 1.0e-08
 Alpha HF Exchange    Energy =  -3.37650802903732
 Beta HF Exchange     Energy =  -2.81300222747195
 DFT Correlation      Energy =  -0.74455941144702
 DFT Exchange         Energy =  -8.22067203616399
 One-Electron (alpha) Energy = -117.44435399460039
 One-Electron (beta)  Energy = -100.53216468525873
 Total Coulomb        Energy =  86.90205611744371
 ---------------------------------------
  Cycle       Energy         DIIS error
 ---------------------------------------
    1    -115.3163298234      6.25e-05  
 Alpha HF Exchange    Energy =  -3.37644180386292
 Beta HF Exchange     Energy =  -2.81315564873177
 DFT Correlation      Energy =  -0.74457018980247
 DFT Exchange         Energy =  -8.22078854392834
 One-Electron (alpha) Energy = -117.44339790113568
 One-Electron (beta)  Energy = -100.53507889407521
 Total Coulomb        Energy =  86.90422261605882
    2    -115.3163359224      3.20e-05  
 Alpha HF Exchange    Energy =  -3.37630378980518
 Beta HF Exchange     Energy =  -2.81314444806963
 DFT Correlation      Energy =  -0.74457715776543
 DFT Exchange         Energy =  -8.22061193406540
 One-Electron (alpha) Energy = -117.44214407723544
 One-Electron (beta)  Energy = -100.53525982676243
 Total Coulomb        Energy =  86.90283002005143
    3    -115.3163367706      1.95e-05  
 Alpha HF Exchange    Energy =  -3.37631011616895
 Beta HF Exchange     Energy =  -2.81320314743753
 DFT Correlation      Energy =  -0.74457892718498
 DFT Exchange         Energy =  -8.22069712491202
 One-Electron (alpha) Energy = -117.44208032050577
 One-Electron (beta)  Energy = -100.53617425494488
 Total Coulomb        Energy =  86.90383219388113
    4    -115.3163372542      6.06e-06  
 Alpha HF Exchange    Energy =  -3.37626991825081
 Beta HF Exchange     Energy =  -2.81322489917441
 DFT Correlation      Energy =  -0.74458110910486
 DFT Exchange         Energy =  -8.22067846494557
 One-Electron (alpha) Energy = -117.44168453133277
 One-Electron (beta)  Energy = -100.53658182926719
 Total Coulomb        Energy =  86.90380896512288
    5    -115.3163373439      1.19e-06  
 Alpha HF Exchange    Energy =  -3.37626666090857
 Beta HF Exchange     Energy =  -2.81323054478582
 DFT Correlation      Energy =  -0.74458179293836
 DFT Exchange         Energy =  -8.22068295572763
 One-Electron (alpha) Energy = -117.44167381946890
 One-Electron (beta)  Energy = -100.53666895382499
 Total Coulomb        Energy =  86.90389293740583
    6    -115.3163373472      3.63e-07  
 Alpha HF Exchange    Energy =  -3.37626398047777
 Beta HF Exchange     Energy =  -2.81323008902334
 DFT Correlation      Energy =  -0.74458162068417
 DFT Exchange         Energy =  -8.22067878366792
 One-Electron (alpha) Energy = -117.44164774173909
 One-Electron (beta)  Energy = -100.53664938210180
 Total Coulomb        Energy =  86.90383980719746
    7    -115.3163373474      1.35e-07  
 Alpha HF Exchange    Energy =  -3.37626485800681
 Beta HF Exchange     Energy =  -2.81323055964113
 DFT Correlation      Energy =  -0.74458172669723
 DFT Exchange         Energy =  -8.22068070683616
 One-Electron (alpha) Energy = -117.44166626409124
 One-Electron (beta)  Energy = -100.53665619977870
 Total Coulomb        Energy =  86.90386852452846
    8    -115.3163373474      4.01e-08  
 Alpha HF Exchange    Energy =  -3.37626476473608
 Beta HF Exchange     Energy =  -2.81323040014440
 DFT Correlation      Energy =  -0.74458169785920
 DFT Exchange         Energy =  -8.22068034045058
 One-Electron (alpha) Energy = -117.44166595546629
 One-Electron (beta)  Energy = -100.53665106308685
 Total Coulomb        Energy =  86.90386243121735
    9    -115.3163373474      7.55e-09  Convergence criterion met
 ---------------------------------------
 Alpha HF Exchange    Energy =  -3.37626476473608
 Beta HF Exchange     Energy =  -2.81323040014440
 DFT Correlation      Energy =  -0.74458169785920
 DFT Exchange         Energy =  -8.22068034045058
 One-Electron (alpha) Energy = -117.44166595546629
 One-Electron (beta)  Energy = -100.53665106308685
 Total Coulomb        Energy =  86.90386243121735
 SCF time:   CPU 35.76s  wall 5.00s 
<S^2> =          2.016307316
 Alpha HF Exchange    Energy =  -3.37626476473608
 Beta HF Exchange     Energy =  -2.81323040014440
 DFT Correlation      Energy =  -0.74458169785920
 DFT Exchange         Energy =  -8.22068034045058
 One-Electron (alpha) Energy = -117.44166595546629
 One-Electron (beta)  Energy = -100.53665106308685
 Total Coulomb        Energy =  86.90386243121735
 Nuclear repulsion Energy =  30.91287444309348
 SCF   energy in the final basis set =     -115.3163373474
 Total energy in the final basis set =     -115.3163373474

 --------------------------------------------------------------

                    Orbital Energies (a.u.)
 --------------------------------------------------------------

 Alpha MOs
 -- Occupied --
-19.5661 -10.4644  -1.0972  -0.8087  -0.5544  -0.4958  -0.4915  -0.4749
 -0.3981  -0.3387
 -- Virtual --
  0.1543   0.2009   0.2017   0.2767   0.4726   0.4753   0.5155   0.8361
  0.9333   0.9826   1.0017   1.0232   1.0268   1.0407   1.1600   1.6704
  1.6719   1.7727   1.8106   1.8185   1.8236   1.8848   1.9500   2.2623
  2.2623   2.5644  13.6807  25.2747

 Beta MOs
 -- Occupied --
-19.5214 -10.4533  -0.9523  -0.7715  -0.4833  -0.4832  -0.4469  -0.3498
 -- Virtual --
 -0.0875  -0.0681   0.1632   0.2081   0.2088   0.3157   0.4820   0.4836
  0.5764   0.8589   1.0074   1.0253   1.0273   1.0371   1.0684   1.0746
  1.2036   1.7085   1.7088   1.8673   1.8817   1.8943   1.9019   1.9441
  2.0006   2.2753   2.2757   2.6183  13.6955  25.3344
 --------------------------------------------------------------

          Ground-State Mulliken Net Atomic Charges

     Atom                 Charge (a.u.)    Spin (a.u.)
  --------------------------------------------------------
      1 C                    -0.848397       0.638599
      2 H                     0.251960      -0.021267
      3 H                     0.251831      -0.022532
      4 H                     0.251830      -0.022532
      5 H                     0.362885      -0.119308
      6 O                    -0.270110       1.547040
  --------------------------------------------------------
  Sum of atomic charges =     0.000000
  Sum of spin   charges =     2.000000

 -----------------------------------------------------------------
                    Cartesian Multipole Moments
 -----------------------------------------------------------------
    Charge (ESU x 10^10)
                 0.0000
    Dipole Moment (Debye)
         X       0.0026      Y      -1.8695      Z      -0.0000
       Tot       1.8695
    Quadrupole Moments (Debye-Ang)
        XX     -12.3698     XY      -0.0090     YY     -15.0404
        XZ       0.0000     YZ       0.0000     ZZ     -13.5169
    Octopole Moments (Debye-Ang^2)
       XXX      -0.9228    XXY       1.6976    XYY       0.1626
       YYY       3.8943    XXZ      -0.0000    XYZ       0.0000
       YYZ      -0.0001    XZZ       0.9442    YZZ       0.0770
       ZZZ      -0.0000
    Hexadecapole Moments (Debye-Ang^3)
      XXXX     -16.8252   XXXY       1.6257   XXYY     -23.6326
      XYYY       0.0960   YYYY    -144.1656   XXXZ       0.0000
      XXYZ      -0.0001   XYYZ      -0.0000   YYYZ      -0.0001
      XXZZ      -5.8385   XYZZ      -1.2709   YYZZ     -25.7529
      XZZZ      -0.0000   YZZZ      -0.0003   ZZZZ     -18.1043
 -----------------------------------------------------------------
 Mayer SCF Bond Order, atomic valence on the diagonal:

            1           2           3           4           5           6
    1   3.3884273   0.9111902   0.9103886   0.9103895   0.4455739   0.2108850
    2   0.9111902   0.9033394  -0.0040662  -0.0040664  -0.0053439   0.0056255
    3   0.9103886  -0.0040662   0.9023533  -0.0041492  -0.0047516   0.0049316
    4   0.9103895  -0.0040664  -0.0041492   0.9023540  -0.0047511   0.0049312
    5   0.4455739  -0.0053439  -0.0047516  -0.0047511   0.8414093   0.4106819
    6   0.2108850   0.0056255   0.0049316   0.0049312   0.4106819   0.6370553


 Calculating analytic gradient of the SCF energy
 Gradient of SCF Energy
            1           2           3           4           5           6
    1   0.0001270  -0.0004492   0.0005760   0.0005755  -0.0008860   0.0000566
    2  -0.0113913   0.0029133   0.0017199   0.0017186   0.0083885  -0.0033491
    3  -0.0000006  -0.0000004   0.0000683  -0.0000683   0.0000009   0.0000000
 Max gradient component =       1.139E-02
 RMS gradient           =       3.555E-03
 Gradient time:  CPU 6.52 s  wall 1.05 s
 Geometry Optimization Parameters
   NAtoms,    NIC,     NZ,  NCons,   NDum,   NFix, NCnnct, MaxDiis
        6      27       0       0       0       0       0       0

 Cartesian Hessian Update
 Hessian updated using Powell/Murtagh-Sargent update
  Mixing factors:     0.965657 Powell                      0.034343 Murtagh-Sargent


** GEOMETRY OPTIMIZATION IN DELOCALIZED INTERNAL COORDINATES **
   Searching for a Transition State

   Optimization Cycle:   4

                       Coordinates (Angstroms)
     ATOM                X               Y               Z
      1  C         0.0042416488   -1.1467865560   -0.0000038324
      2  H        -1.0567099104   -1.3675268982   -0.0000031888
      3  H         0.5233838963   -1.4122418400    0.9124879679
      4  H         0.5233813291   -1.4122654884   -0.9124899829
      5  H         0.0095866859    0.1597954416    0.0000019583
      6  O        -0.0073660370    1.3589654369    0.0000070779
   Point Group: c1    Number of degrees of freedom:    12


   Energy is   -115.316337347

 Hessian updated using Powell/Murtagh-Sargent update
  Mixing factors:     0.874740 Powell                      0.125260 Murtagh-Sargent

 11 Hessian modes will be used to form the next step
  Hessian Eigenvalues:
    -0.005916    0.160006    0.160269    0.161586    0.190875    0.200000
     0.200021    0.250252    0.355280    0.355719    0.356218

 Transition state search - taking P-RFO step
 Searching for Lamda that Maximizes Along the Lowest mode
 Value Taken    Lamda =   0.00530437
 Searching for Lamda that Minimizes Along All other modes
 Value Taken    Lamda =  -0.00011046
 Calculated Step too Large.  Step scaled by  0.014534
 Step Taken.  Stepsize is  0.010000

                             Maximum     Tolerance    Cnvgd?
         Gradient           0.007955      0.000300      NO
         Displacement       0.008583      0.001200      NO
         Energy change      0.000070      0.000001      NO


 New Cartesian Coordinates Obtained by Inverse Iteration

 Displacement from previous Coordinates is:  0.009228
 Adding empirical dispersion correction 
 ----------------------------------------------------------------
 Doing -D3(BJ) with
 s6  =   1.00000
 s8  =   0.00000
 a1  =   0.48600
 a2  =   4.50000
 -D3 energy including 3body term = -0.0010866640 hartrees
 ----------------------------------------------------------------
 Adding gCP correction 
 ----------------------------------------------------------------
 gCP energy =      0.0047182394 hartrees
 ----------------------------------------------------------------
             Standard Nuclear Orientation (Angstroms)
    I     Atom           X                Y                Z
 ----------------------------------------------------------------
    1      C       0.0051945010    -1.1480924306    -0.0000048039
    2      H      -1.0566662377    -1.3644818927    -0.0000036107
    3      H       0.5238329374    -1.4136239902     0.9126559596
    4      H       0.5238301637    -1.4136525623    -0.9126584779
    5      H       0.0092958105     0.1618072787     0.0000023716
    6      O      -0.0089695620     1.3579836928     0.0000085613
 ----------------------------------------------------------------
 Nuclear Repulsion Energy =          30.91493245 hartrees
 There are       10 alpha and        8 beta electrons
 Applying Cartesian multipole field
    Component          Value
    ---------          -----
     (2,0,0)        1.00000E-10
     (0,2,0)        2.00000E-10
     (0,0,2)       -3.00000E-10
 Nucleus-field energy     =     0.0000000192 hartrees
 Requested basis set is def2-mSVP
 There are 22 shells and 38 basis functions
 A cutoff of  1.0D-11 yielded    249 shell pairs
 There are       769 function pairs (       858 Cartesian)
 Smallest overlap matrix eigenvalue = 1.33E-02
 Guess MOs from SCF MO coefficient file

 -----------------------------------------------------------------------
  General SCF calculation program by
  Eric Jon Sundstrom, Paul Horn, Yuezhi Mao, Dmitri Zuev, Alec White,
  David Stuck, Shaama M.S., Shane Yost, Joonho Lee, David Small,
  Daniel Levine, Susi Lehtola, Hugh Burton, Evgeny Epifanovsky,
  Bang C. Huynh
 -----------------------------------------------------------------------
 Exchange:     0.4200 Hartree-Fock + 0.5800 PBEh-3c
 Correlation:  1.0000 PBEh-3c
 Using Euler-Maclaurin-Lebedev (99,590) quadrature formula
 Dispersion:   Grimme D3
 using 8 threads for integral computing
 -------------------------------------------------------
 OpenMP Integral computing Module                
 Release: version 1.0, May 2013, Q-Chem Inc. Pittsburgh 
 -------------------------------------------------------
 A unrestricted SCF calculation will be
 performed using DIIS
 SCF converges when DIIS error is below 1.0e-08
 Alpha HF Exchange    Energy =  -3.37620619129942
 Beta HF Exchange     Energy =  -2.81329123025373
 DFT Correlation      Energy =  -0.74458926646311
 DFT Exchange         Energy =  -8.22067789004898
 One-Electron (alpha) Energy = -117.44242078240504
 One-Electron (beta)  Energy = -100.53809850806938
 Total Coulomb        Energy =  86.90409756194893
 ---------------------------------------
  Cycle       Energy         DIIS error
 ---------------------------------------
    1    -115.3162538405      6.72e-05  
 Alpha HF Exchange    Energy =  -3.37613540731938
 Beta HF Exchange     Energy =  -2.81351141831110
 DFT Correlation      Energy =  -0.74460323338380
 DFT Exchange         Energy =  -8.22088177195180
 One-Electron (alpha) Energy = -117.44128163497976
 One-Electron (beta)  Energy = -100.54213347959301
 Total Coulomb        Energy =  86.90735337079792
    2    -115.3162611087      4.38e-05  
 Alpha HF Exchange    Energy =  -3.37596580117190
 Beta HF Exchange     Energy =  -2.81349129958279
 DFT Correlation      Energy =  -0.74461046758035
 DFT Exchange         Energy =  -8.22065495577709
 One-Electron (alpha) Energy = -117.43971051724277
 One-Electron (beta)  Energy = -100.54224033739260
 Total Coulomb        Energy =  86.90547833757347
    3    -115.3162625751      1.94e-05  
 Alpha HF Exchange    Energy =  -3.37594562568827
 Beta HF Exchange     Energy =  -2.81357246034010
 DFT Correlation      Energy =  -0.74461431099656
 DFT Exchange         Energy =  -8.22073841286497
 One-Electron (alpha) Energy = -117.43935877227166
 One-Electron (beta)  Energy = -100.54357257207771
 Total Coulomb        Energy =  86.90660640748369
    4    -115.3162632807      7.48e-06  
 Alpha HF Exchange    Energy =  -3.37589232379440
 Beta HF Exchange     Energy =  -2.81360516974105
 DFT Correlation      Energy =  -0.74461743390283
 DFT Exchange         Energy =  -8.22071882103997
 One-Electron (alpha) Energy = -117.43882950612073
 One-Electron (beta)  Energy = -100.54416550540945
 Total Coulomb        Energy =  86.90663287566650
    5    -115.3162634183      1.23e-06  
 Alpha HF Exchange    Energy =  -3.37588729400888
 Beta HF Exchange     Energy =  -2.81361106569254
 DFT Correlation      Energy =  -0.74461804192437
 DFT Exchange         Energy =  -8.22072123781313
 One-Electron (alpha) Energy = -117.43880101814415
 One-Electron (beta)  Energy = -100.54425058185575
 Total Coulomb        Energy =  86.90669335148320
    6    -115.3162634219      3.17e-07  
 Alpha HF Exchange    Energy =  -3.37588538434852
 Beta HF Exchange     Energy =  -2.81361058046103
 DFT Correlation      Energy =  -0.74461789361052
 DFT Exchange         Energy =  -8.22071806206605
 One-Electron (alpha) Energy = -117.43878824705263
 One-Electron (beta)  Energy = -100.54422890503641
 Total Coulomb        Energy =  86.90665318444064
    7    -115.3162634221      1.20e-07  
 Alpha HF Exchange    Energy =  -3.37588637563966
 Beta HF Exchange     Energy =  -2.81361084629903
 DFT Correlation      Energy =  -0.74461797364618
 DFT Exchange         Energy =  -8.22071982732185
 One-Electron (alpha) Energy = -117.43880796627113
 One-Electron (beta)  Energy = -100.54423073455163
 Total Coulomb        Energy =  86.90667783557521
    8    -115.3162634221      4.17e-08  
 Alpha HF Exchange    Energy =  -3.37588632495382
 Beta HF Exchange     Energy =  -2.81361061626054
 DFT Correlation      Energy =  -0.74461793625498
 DFT Exchange         Energy =  -8.22071941258584
 One-Electron (alpha) Energy = -117.43880838555260
 One-Electron (beta)  Energy = -100.54422397523437
 Total Coulomb        Energy =  86.90667076268552
    9    -115.3162634221      9.42e-09  Convergence criterion met
 ---------------------------------------
 Alpha HF Exchange    Energy =  -3.37588632495382
 Beta HF Exchange     Energy =  -2.81361061626054
 DFT Correlation      Energy =  -0.74461793625498
 DFT Exchange         Energy =  -8.22071941258584
 One-Electron (alpha) Energy = -117.43880838555260
 One-Electron (beta)  Energy = -100.54422397523437
 Total Coulomb        Energy =  86.90667076268552
 SCF time:   CPU 35.39s  wall 5.00s 
<S^2> =          2.016352236
 Alpha HF Exchange    Energy =  -3.37588632495382
 Beta HF Exchange     Energy =  -2.81361061626054
 DFT Correlation      Energy =  -0.74461793625498
 DFT Exchange         Energy =  -8.22071941258584
 One-Electron (alpha) Energy = -117.43880838555260
 One-Electron (beta)  Energy = -100.54422397523437
 Total Coulomb        Energy =  86.90667076268552
 Nuclear repulsion Energy =  30.91493246606781
 SCF   energy in the final basis set =     -115.3162634221
 Total energy in the final basis set =     -115.3162634221

 --------------------------------------------------------------

                    Orbital Energies (a.u.)
 --------------------------------------------------------------

 Alpha MOs
 -- Occupied --
-19.5655 -10.4648  -1.0970  -0.8088  -0.5542  -0.4960  -0.4919  -0.4746
 -0.3976  -0.3381
 -- Virtual --
  0.1540   0.2008   0.2016   0.2766   0.4724   0.4750   0.5152   0.8357
  0.9335   0.9829   1.0012   1.0230   1.0268   1.0406   1.1597   1.6702
  1.6716   1.7729   1.8112   1.8188   1.8239   1.8864   1.9499   2.2617
  2.2617   2.5657  13.6801  25.2768

 Beta MOs
 -- Occupied --
-19.5209 -10.4536  -0.9526  -0.7714  -0.4837  -0.4835  -0.4469  -0.3495
 -- Virtual --
 -0.0874  -0.0679   0.1630   0.2080   0.2087   0.3158   0.4818   0.4835
  0.5766   0.8582   1.0075   1.0247   1.0273   1.0372   1.0683   1.0745
  1.2032   1.7086   1.7090   1.8672   1.8815   1.8946   1.9022   1.9456
  2.0006   2.2749   2.2752   2.6196  13.6951  25.3363
 --------------------------------------------------------------

          Ground-State Mulliken Net Atomic Charges

     Atom                 Charge (a.u.)    Spin (a.u.)
  --------------------------------------------------------
      1 C                    -0.847752       0.644988
      2 H                     0.252230      -0.021565
      3 H                     0.252058      -0.022853
      4 H                     0.252057      -0.022853
      5 H                     0.364431      -0.119085
      6 O                    -0.273024       1.541368
  --------------------------------------------------------
  Sum of atomic charges =    -0.000000
  Sum of spin   charges =     2.000000

 -----------------------------------------------------------------
                    Cartesian Multipole Moments
 -----------------------------------------------------------------
    Charge (ESU x 10^10)
                -0.0000
    Dipole Moment (Debye)
         X       0.0034      Y      -1.8855      Z      -0.0000
       Tot       1.8855
    Quadrupole Moments (Debye-Ang)
        XX     -12.3663     XY      -0.0111     YY     -15.0613
        XZ       0.0000     YZ       0.0000     ZZ     -13.5139
    Octopole Moments (Debye-Ang^2)
       XXX      -0.9200    XXY       1.7038    XYY       0.1864
       YYY       3.8800    XXZ      -0.0000    XYZ       0.0000
       YYZ      -0.0001    XZZ       0.9497    YZZ       0.0781
       ZZZ      -0.0001
    Hexadecapole Moments (Debye-Ang^3)
      XXXX     -16.8208   XXXY       1.6814   XXYY     -23.6468
      XYYY       0.1362   YYYY    -144.2957   XXXZ       0.0000
      XXYZ      -0.0001   XYYZ      -0.0000   YYYZ      -0.0001
      XXZZ      -5.8362   XYZZ      -1.2530   YYZZ     -25.7458
      XZZZ      -0.0000   YZZZ      -0.0003   ZZZZ     -18.0974
 -----------------------------------------------------------------
 Mayer SCF Bond Order, atomic valence on the diagonal:

            1           2           3           4           5           6
    1   3.3820607   0.9109149   0.9102583   0.9102593   0.4400697   0.2105584
    2   0.9109149   0.9031502  -0.0040315  -0.0040317  -0.0053722   0.0056707
    3   0.9102583  -0.0040315   0.9022957  -0.0041336  -0.0046853   0.0048877
    4   0.9102593  -0.0040317  -0.0041336   0.9022967  -0.0046846   0.0048873
    5   0.4400697  -0.0053722  -0.0046853  -0.0046846   0.8404779   0.4151503
    6   0.2105584   0.0056707   0.0048877   0.0048873   0.4151503   0.6411544


 Calculating analytic gradient of the SCF energy
 Gradient of SCF Energy
            1           2           3           4           5           6
    1   0.0003421  -0.0004789   0.0005802   0.0005797  -0.0010780   0.0000549
    2  -0.0110551   0.0030574   0.0016365   0.0016349   0.0075608  -0.0028346
    3  -0.0000008  -0.0000004   0.0000322  -0.0000321   0.0000011   0.0000000
 Max gradient component =       1.106E-02
 RMS gradient           =       3.369E-03
 Gradient time:  CPU 6.54 s  wall 1.03 s
 Geometry Optimization Parameters
   NAtoms,    NIC,     NZ,  NCons,   NDum,   NFix, NCnnct, MaxDiis
        6      27       0       0       0       0       0       0

 Cartesian Hessian Update
 Hessian updated using Powell/Murtagh-Sargent update
  Mixing factors:     0.917993 Powell                      0.082007 Murtagh-Sargent


** GEOMETRY OPTIMIZATION IN DELOCALIZED INTERNAL COORDINATES **
   Searching for a Transition State

   Optimization Cycle:   5

                       Coordinates (Angstroms)
     ATOM                X               Y               Z
      1  C         0.0051945010   -1.1480924306   -0.0000048039
      2  H        -1.0566662377   -1.3644818927   -0.0000036107
      3  H         0.5238329374   -1.4136239902    0.9126559596
      4  H         0.5238301637   -1.4136525623   -0.9126584779
      5  H         0.0092958105    0.1618072787    0.0000023716
      6  O        -0.0089695620    1.3579836928    0.0000085613
   Point Group: c1    Number of degrees of freedom:    12


   Energy is   -115.316263422

 Hessian updated using Powell/Murtagh-Sargent update
  Mixing factors:     0.859623 Powell                      0.140377 Murtagh-Sargent

 10 Hessian modes will be used to form the next step
  Hessian Eigenvalues:
    -0.047648    0.160000    0.160263    0.162244    0.190061    0.200016
     0.244370    0.355280    0.355716    0.356218

 Transition state search - taking P-RFO step
 Searching for Lamda that Maximizes Along the Lowest mode
 Value Taken    Lamda =   0.00103238
 Searching for Lamda that Minimizes Along All other modes
 Value Taken    Lamda =  -0.00012126
 Calculated Step too Large.  Step scaled by  0.067603
 Step Taken.  Stepsize is  0.010000

                             Maximum     Tolerance    Cnvgd?
         Gradient           0.007463      0.000300      NO
         Displacement       0.008756      0.001200      NO
         Energy change      0.000074      0.000001      NO


 New Cartesian Coordinates Obtained by Inverse Iteration

 Displacement from previous Coordinates is:  0.007086
 Adding empirical dispersion correction 
 ----------------------------------------------------------------
 Doing -D3(BJ) with
 s6  =   1.00000
 s8  =   0.00000
 a1  =   0.48600
 a2  =   4.50000
 -D3 energy including 3body term = -0.0010866845 hartrees
 ----------------------------------------------------------------
 Adding gCP correction 
 ----------------------------------------------------------------
 gCP energy =      0.0047028324 hartrees
 ----------------------------------------------------------------
             Standard Nuclear Orientation (Angstroms)
    I     Atom           X                Y                Z
 ----------------------------------------------------------------
    1      C       0.0057565011    -1.1488813204    -0.0000053589
    2      H      -1.0565144257    -1.3632825279    -0.0000037344
    3      H       0.5239541125    -1.4147181115     0.9127569817
    4      H       0.5239513587    -1.4147491572    -0.9127597920
    5      H       0.0092049921     0.1645509959     0.0000026072
    6      O      -0.0098349259     1.3570202170     0.0000092964
 ----------------------------------------------------------------
 Nuclear Repulsion Energy =          30.91995191 hartrees
 There are       10 alpha and        8 beta electrons
 Applying Cartesian multipole field
    Component          Value
    ---------          -----
     (2,0,0)        1.00000E-10
     (0,2,0)        2.00000E-10
     (0,0,2)       -3.00000E-10
 Nucleus-field energy     =     0.0000000192 hartrees
 Requested basis set is def2-mSVP
 There are 22 shells and 38 basis functions
 A cutoff of  1.0D-11 yielded    249 shell pairs
 There are       769 function pairs (       858 Cartesian)
 Smallest overlap matrix eigenvalue = 1.34E-02
 Guess MOs from SCF MO coefficient file

 -----------------------------------------------------------------------
  General SCF calculation program by
  Eric Jon Sundstrom, Paul Horn, Yuezhi Mao, Dmitri Zuev, Alec White,
  David Stuck, Shaama M.S., Shane Yost, Joonho Lee, David Small,
  Daniel Levine, Susi Lehtola, Hugh Burton, Evgeny Epifanovsky,
  Bang C. Huynh
 -----------------------------------------------------------------------
 Exchange:     0.4200 Hartree-Fock + 0.5800 PBEh-3c
 Correlation:  1.0000 PBEh-3c
 Using Euler-Maclaurin-Lebedev (99,590) quadrature formula
 Dispersion:   Grimme D3
 using 8 threads for integral computing
 -------------------------------------------------------
 OpenMP Integral computing Module                
 Release: version 1.0, May 2013, Q-Chem Inc. Pittsburgh 
 -------------------------------------------------------
 A unrestricted SCF calculation will be
 performed using DIIS
 SCF converges when DIIS error is below 1.0e-08
 Alpha HF Exchange    Energy =  -3.37584107112006
 Beta HF Exchange     Energy =  -2.81369283686145
 DFT Correlation      Energy =  -0.74463396304564
 DFT Exchange         Energy =  -8.22074869809256
 One-Electron (alpha) Energy = -117.44255635220124
 One-Electron (beta)  Energy = -100.54802739168863
 Total Coulomb        Energy =  86.90935446005626
 ---------------------------------------
  Cycle       Energy         DIIS error
 ---------------------------------------
    1    -115.3161939243      7.09e-05  
 Alpha HF Exchange    Energy =  -3.37578296753046
 Beta HF Exchange     Energy =  -2.81394807886270
 DFT Correlation      Energy =  -0.74464844868536
 DFT Exchange         Energy =  -8.22101867488561
 One-Electron (alpha) Energy = -117.44145893629883
 One-Electron (beta)  Energy = -100.55251150043483
 Total Coulomb        Energy =  86.91321493466749
    2    -115.3162017434      4.96e-05  
 Alpha HF Exchange    Energy =  -3.37559872320610
 Beta HF Exchange     Energy =  -2.81392023851027
 DFT Correlation      Energy =  -0.74465514544500
 DFT Exchange         Energy =  -8.22076310217404
 One-Electron (alpha) Energy = -117.43973214401336
 One-Electron (beta)  Energy = -100.55252401600113
 Total Coulomb        Energy =  86.91103788455850
    3    -115.3162035562      1.91e-05  
 Alpha HF Exchange    Energy =  -3.37556762179926
 Beta HF Exchange     Energy =  -2.81401104831875
 DFT Correlation      Energy =  -0.74465959062873
 DFT Exchange         Energy =  -8.22084556631450
 One-Electron (alpha) Energy = -117.43926265527391
 One-Electron (beta)  Energy = -100.55402253398354
 Total Coulomb        Energy =  86.91221272529046
    4    -115.3162043624      8.33e-06  
 Alpha HF Exchange    Energy =  -3.37551074027505
 Beta HF Exchange     Energy =  -2.81404789590051
 DFT Correlation      Energy =  -0.74466306432122
 DFT Exchange         Energy =  -8.22082705530306
 One-Electron (alpha) Energy = -117.43869003176344
 One-Electron (beta)  Energy = -100.55467626878142
 Total Coulomb        Energy =  86.91225860093843
    5    -115.3162045268      1.40e-06  
 Alpha HF Exchange    Energy =  -3.37550127287715
 Beta HF Exchange     Energy =  -2.81405536607455
 DFT Correlation      Energy =  -0.74466364360727
 DFT Exchange         Energy =  -8.22082577485237
[...]
 Beta HF Exchange     Energy =  -2.81935642559660
 DFT Correlation      Energy =  -0.74508300753382
 DFT Exchange         Energy =  -8.22268098827764
 One-Electron (alpha) Energy = -117.43915216665332
 One-Electron (beta)  Energy = -100.66746045247780
 Total Coulomb        Energy =  86.97240921992324
    8    -115.3160368432      1.28e-05  
 Alpha HF Exchange    Energy =  -3.37184760944413
 Beta HF Exchange     Energy =  -2.81931506229067
 DFT Correlation      Energy =  -0.74508236697208
 DFT Exchange         Energy =  -8.22274585862091
 One-Electron (alpha) Energy = -117.44044777883556
 One-Electron (beta)  Energy = -100.66677562457700
 Total Coulomb        Energy =  86.97313158459713
    9    -115.3160371084      2.30e-06  
 Alpha HF Exchange    Energy =  -3.37185425383338
 Beta HF Exchange     Energy =  -2.81930324987157
 DFT Correlation      Energy =  -0.74508215979839
 DFT Exchange         Energy =  -8.22274089981465
 One-Electron (alpha) Energy = -117.44048838888253
 One-Electron (beta)  Energy = -100.66662751509494
 Total Coulomb        Energy =  86.97301373571210
   10    -115.3160371239      5.64e-07  
 Alpha HF Exchange    Energy =  -3.37185445870700
 Beta HF Exchange     Energy =  -2.81930209966870
 DFT Correlation      Energy =  -0.74508220346778
 DFT Exchange         Energy =  -8.22273992722889
 One-Electron (alpha) Energy = -117.44046690490681
 One-Electron (beta)  Energy = -100.66664052122441
 Total Coulomb        Energy =  86.97300338284408
   11    -115.3160371247      1.83e-07  
 Alpha HF Exchange    Energy =  -3.37185447073227
 Beta HF Exchange     Energy =  -2.81930241808441
 DFT Correlation      Energy =  -0.74508225142558
 DFT Exchange         Energy =  -8.22274036086410
 One-Electron (alpha) Energy = -117.44045171661773
 One-Electron (beta)  Energy = -100.66665994994781
 Total Coulomb        Energy =  86.97300843523441
   12    -115.3160371247      3.54e-08  
 Alpha HF Exchange    Energy =  -3.37185428743747
 Beta HF Exchange     Energy =  -2.81930252975141
 DFT Correlation      Energy =  -0.74508226066630
 DFT Exchange         Energy =  -8.22274026174731
 One-Electron (alpha) Energy = -117.44044586083648
 One-Electron (beta)  Energy = -100.66666507576709
 Total Coulomb        Energy =  86.97300754376590
   13    -115.3160371247      3.38e-09  Convergence criterion met
 ---------------------------------------
 Alpha HF Exchange    Energy =  -3.37185428743747
 Beta HF Exchange     Energy =  -2.81930252975141
 DFT Correlation      Energy =  -0.74508226066630
 DFT Exchange         Energy =  -8.22274026174731
 One-Electron (alpha) Energy = -117.44044586083648
 One-Electron (beta)  Energy = -100.66666507576709
 Total Coulomb        Energy =  86.97300754376590
 SCF time:   CPU 50.33s  wall 6.00s 
<S^2> =          2.015872138
 Alpha HF Exchange    Energy =  -3.37185428743747
 Beta HF Exchange     Energy =  -2.81930252975141
 DFT Correlation      Energy =  -0.74508226066630
 DFT Exchange         Energy =  -8.22274026174731
 One-Electron (alpha) Energy = -117.44044586083648
 One-Electron (beta)  Energy = -100.66666507576709
 Total Coulomb        Energy =  86.97300754376590
 Nuclear repulsion Energy =  30.97704560769856
 SCF   energy in the final basis set =     -115.3160371247
 Total energy in the final basis set =     -115.3160371247

 --------------------------------------------------------------

                    Orbital Energies (a.u.)
 --------------------------------------------------------------

 Alpha MOs
 -- Occupied --
-19.5585 -10.4686  -1.0967  -0.8100  -0.5539  -0.4969  -0.4947  -0.4713
 -0.3935  -0.3334
 -- Virtual --
  0.1526   0.1981   0.1999   0.2808   0.4702   0.4729   0.5120   0.8310
  0.9369   0.9858   0.9957   1.0196   1.0248   1.0403   1.1569   1.6670
  1.6678   1.7752   1.8165   1.8216   1.8259   1.9108   1.9453   2.2589
  2.2615   2.5945  13.6731  25.3085

 Beta MOs
 -- Occupied --
-19.5160 -10.4563  -0.9600  -0.7696  -0.4853  -0.4843  -0.4521  -0.3476
 -- Virtual --
 -0.0864  -0.0666   0.1625   0.2071   0.2073   0.3212   0.4805   0.4821
  0.5788   0.8512   1.0088   1.0203   1.0240   1.0365   1.0711   1.0717
  1.1989   1.7091   1.7094   1.8641   1.8782   1.8969   1.9045   1.9685
  1.9980   2.2738   2.2767   2.6473  13.6897  25.3651
 --------------------------------------------------------------

          Ground-State Mulliken Net Atomic Charges

     Atom                 Charge (a.u.)    Spin (a.u.)
  --------------------------------------------------------
      1 C                    -0.839516       0.719790
      2 H                     0.253315      -0.024563
      3 H                     0.253429      -0.025702
      4 H                     0.253429      -0.025702
      5 H                     0.387504      -0.112302
      6 O                    -0.308162       1.468478
  --------------------------------------------------------
  Sum of atomic charges =     0.000000
  Sum of spin   charges =     2.000000

 -----------------------------------------------------------------
                    Cartesian Multipole Moments
 -----------------------------------------------------------------
    Charge (ESU x 10^10)
                 0.0000
    Dipole Moment (Debye)
         X       0.0019      Y      -2.0769      Z       0.0000
       Tot       2.0769
    Quadrupole Moments (Debye-Ang)
        XX     -12.3647     XY       0.0086     YY     -15.1920
        XZ      -0.0000     YZ       0.0000     ZZ     -13.4961
    Octopole Moments (Debye-Ang^2)
       XXX      -0.9503    XXY       1.6804    XYY       0.0737
       YYY       3.1792    XXZ       0.0000    XYZ      -0.0000
       YYZ       0.0000    XZZ       0.9314    YZZ       0.0646
       ZZZ       0.0000
    Hexadecapole Moments (Debye-Ang^3)
      XXXX     -16.7734   XXXY       1.4854   XXYY     -23.5792
      XYYY       0.0096   YYYY    -144.9766   XXXZ      -0.0000
      XXYZ       0.0000   XYYZ      -0.0000   YYYZ       0.0000
      XXZZ      -5.8279   XYZZ      -1.3465   YYZZ     -25.7093
      XZZZ      -0.0000   YZZZ       0.0000   ZZZZ     -18.0629
 -----------------------------------------------------------------
 Mayer SCF Bond Order, atomic valence on the diagonal:

            1           2           3           4           5           6
    1   3.3024701   0.9102087   0.9087966   0.9087966   0.3706418   0.2040264
    2   0.9102087   0.9026892  -0.0041881  -0.0041881  -0.0042849   0.0051417
    3   0.9087966  -0.0041881   0.9012647  -0.0040377  -0.0040765   0.0047706
    4   0.9087966  -0.0041881  -0.0040377   0.9012648  -0.0040765   0.0047705
    5   0.3706418  -0.0042849  -0.0040765  -0.0040765   0.8276526   0.4694487
    6   0.2040264   0.0051417   0.0047706   0.0047705   0.4694487   0.6881578


 Calculating MO derivatives via CPSCF
    1     0    21    0.0943576  
    2     0    21    0.0336643  
    3     0    21    0.0066981  
    4     0    21    0.0008568  
    5     3    18    0.0078038  
    6     6    15    0.0014120  
    7    10    11    0.0000765  
    8    18     3    0.0000034  
    9    21     0    0.0000002  Converged
 Time for AOints: 0.2 s (CPU) 0.0 s (wall)
 ------------------------------------------------------------------------------
                     AOints        : Timing summary (seconds)
 ------------------------------------------------------------------------------
     job step          cpu (% of tot)      sys (% of tot)     wall (% of tot)
 ------------------------------------------------------------------------------
  AOints            0.1843E+00 ( 0.1)   0.0000E+00 ( 0.0)   0.4077E-01 ( 0.1)
 ------------------------------------------------------------------------------
   Grand Totals     0.2731E+03          0.1060E-03          0.3457E+02
 ------------------------------------------------------------------------------
 Polarizability Matrix (a.u.)
            1           2           3
    1 -14.3276197   0.1084752   0.0000020
    2   0.1084752 -32.7530690   0.0000047
    3   0.0000020   0.0000047 -14.1046519
 Calculating analytic Hessian of the SCF energy

 Direct stationary perturbation theory relativistic correction:

 rels  =       0.039473608904
 relv  =      -0.149355772452
 rel2e =       0.043454796282
 E_rel =      -0.066427367265

 Hessian of the SCF Energy
            1           2           3           4           5           6
    1   0.6137081  -0.0100846   0.0000011  -0.3433897  -0.0757469  -0.0000004
    2  -0.0100846   0.1526246  -0.0000162  -0.0645002  -0.0417638  -0.0001190
    3   0.0000011  -0.0000162   0.5545087  -0.0000002  -0.0001188  -0.0322343
    4  -0.3433897  -0.0645002  -0.0000002   0.3611046   0.0718498   0.0000001
    5  -0.0757469  -0.0417638  -0.0001188   0.0718498   0.0437080   0.0004554
    6  -0.0000004  -0.0001190  -0.0322343   0.0000001   0.0004554   0.0386836
    7  -0.1239444   0.0372457  -0.1275114  -0.0087721   0.0096108  -0.0233553
    8   0.0422006  -0.0461881   0.0815787  -0.0042523   0.0047490  -0.0105085
    9  -0.1231001   0.0635805  -0.2572017   0.0030188  -0.0002428  -0.0014755
   10  -0.1239446   0.0372457   0.1275109  -0.0087721   0.0096107   0.0233555
   11   0.0422008  -0.0461880  -0.0814474  -0.0042523   0.0047491   0.0105085
   12   0.1230995  -0.0634490  -0.2572018  -0.0030187   0.0002427  -0.0014755
   13  -0.0284147  -0.0017052  -0.0000006  -0.0005707  -0.0162308   0.0000002
   14  -0.0000053   0.1213489   0.0000026   0.0027296  -0.0197422  -0.0000000
   15   0.0000001   0.0000025  -0.0234185  -0.0000000   0.0000000   0.0012055
   16   0.0059854   0.0017986   0.0000001   0.0004000   0.0009063  -0.0000001
   17   0.0014354  -0.1417844   0.0000010  -0.0015747   0.0074161  -0.0003365
   18  -0.0000003   0.0000012   0.0140320   0.0000000  -0.0003366  -0.0058278
            7           8           9          10          11          12
    1  -0.1239444   0.0422006  -0.1231001  -0.1239446   0.0422008   0.1230995
    2   0.0372457  -0.0461881   0.0635805   0.0372457  -0.0461880  -0.0634490
    3  -0.1275114   0.0815787  -0.2572017   0.1275109  -0.0814474  -0.2572018
    4  -0.0087721  -0.0042523   0.0030188  -0.0087721  -0.0042523  -0.0030187
    5   0.0096108   0.0047490  -0.0002428   0.0096107   0.0047491   0.0002427
    6  -0.0233553  -0.0105085  -0.0014755   0.0233555   0.0105085  -0.0014755
    7   0.1225104  -0.0398466   0.1348540   0.0105686  -0.0055609   0.0150915
    8  -0.0398466   0.0469044  -0.0721966  -0.0055608   0.0063334  -0.0101136
    9   0.1348540  -0.0721966   0.2793420  -0.0150914   0.0101137  -0.0185039
   10   0.0105686  -0.0055608  -0.0150914   0.1225104  -0.0398466  -0.1348539
   11  -0.0055609   0.0063334   0.0101137  -0.0398466   0.0469043   0.0717569
   12   0.0150915  -0.0101136  -0.0185039  -0.1348539   0.0717569   0.2793421
   13  -0.0002765   0.0080335   0.0000842  -0.0002764   0.0080333  -0.0000839
   14  -0.0017612  -0.0183604  -0.0025886  -0.0017612  -0.0183603   0.0025886
   15  -0.0006183   0.0128442  -0.0001304   0.0006182  -0.0128442  -0.0001304
   16  -0.0000859  -0.0005744   0.0002346  -0.0000859  -0.0005744  -0.0002346
   17   0.0003122   0.0061735   0.0013339   0.0003122   0.0061735  -0.0010256
   18   0.0015394  -0.0016042  -0.0031112  -0.0015393   0.0019124  -0.0031112
           13          14          15          16          17          18
    1  -0.0284147  -0.0000053   0.0000001   0.0059854   0.0014354  -0.0000003
    2  -0.0017052   0.1213489   0.0000025   0.0017986  -0.1417844   0.0000012
    3  -0.0000006   0.0000026  -0.0234185   0.0000001   0.0000010   0.0140320
    4  -0.0005707   0.0027296  -0.0000000   0.0004000  -0.0015747   0.0000000
    5  -0.0162308  -0.0197422   0.0000000   0.0009063   0.0074161  -0.0003366
    6   0.0000002  -0.0000000   0.0012055  -0.0000001  -0.0003365  -0.0058278
    7  -0.0002765  -0.0017612  -0.0006183  -0.0000859   0.0003122   0.0015394
    8   0.0080335  -0.0183604   0.0128442  -0.0005744   0.0061735  -0.0016042
    9   0.0000842  -0.0025886  -0.0001304   0.0002346   0.0013339  -0.0031112
   10  -0.0002764  -0.0017612   0.0006182  -0.0000859   0.0003122  -0.0015393
   11   0.0080333  -0.0183603  -0.0128442  -0.0005744   0.0061735   0.0019124
   12  -0.0000839   0.0025886  -0.0001304  -0.0002346  -0.0010256  -0.0031112
   13   0.0412399   0.0013248  -0.0000001  -0.0117017   0.0005443   0.0000002
   14   0.0013248  -0.0970324  -0.0000205  -0.0005267   0.0303244   0.0000178
   15  -0.0000001  -0.0000205   0.0272155   0.0000000   0.0000180  -0.0076721
   16  -0.0117017  -0.0005267   0.0000000   0.0054881  -0.0010294  -0.0000000
   17   0.0005443   0.0303244   0.0000180  -0.0010294   0.0904751   0.0000093
   18   0.0000002   0.0000178  -0.0076721  -0.0000000   0.0000093   0.0000708
 **********************************************************************
 **                                                                  **
 **                       VIBRATIONAL ANALYSIS                       **
 **                       --------------------                       **
 **                                                                  **
 **        VIBRATIONAL FREQUENCIES (CM**-1) AND NORMAL MODES         **
 **     FORCE CONSTANTS (mDYN/ANGSTROM) AND REDUCED MASSES (AMU)     **
 **                  INFRARED INTENSITIES (KM/MOL)                   **
 **                                                                  **
 **********************************************************************


 Mode:                 1                      2                      3
 Frequency:     -1724.71                -263.17                 419.50
 Force Cnst:      1.8950                 0.0441                 0.1115
 Red. Mass:       1.0813                 1.0809                 1.0758
 IR Active:          YES                    YES                    YES
 IR Intens:      730.205                  0.278                  3.071
 Raman Active:       YES                    YES                    YES
               X      Y      Z        X      Y      Z        X      Y      Z
 C         -0.000 -0.077  0.000   -0.000 -0.000 -0.061    0.051  0.016 -0.000
 H         -0.031  0.108 -0.000    0.001 -0.006  0.215   -0.103  0.702 -0.001
 H          0.018  0.099  0.028   -0.047  0.562  0.144   -0.135 -0.314  0.009
 H          0.018  0.099 -0.028    0.048 -0.557  0.143   -0.137 -0.323 -0.008
 H         -0.008  0.979  0.000   -0.003  0.000 -0.525    0.502  0.001 -0.006
 O          0.000 -0.023 -0.000    0.000  0.000  0.047   -0.046 -0.016  0.000
 TransDip   0.007 -0.865  0.000   -0.000 -0.000 -0.017    0.055  0.009 -0.001

 Mode:                 4                      5                      6
 Frequency:       574.15                1011.77                1188.64
 Force Cnst:      0.8668                 0.6531                 0.8917
 Red. Mass:       4.4628                 1.0828                 1.0712
 IR Active:          YES                    YES                    YES
 IR Intens:        0.731                 60.779                 49.139
 Raman Active:       YES                    YES                    YES
               X      Y      Z        X      Y      Z        X      Y      Z
 C          0.010 -0.362 -0.000    0.000  0.000 -0.081   -0.074 -0.008 -0.000
 H          0.004 -0.355  0.002    0.000  0.000  0.181    0.010 -0.340  0.004
 H         -0.036 -0.546 -0.021   -0.064  0.307  0.065    0.104  0.206 -0.034
 H         -0.034 -0.545  0.021    0.062 -0.308  0.064    0.108  0.212  0.035
 H          0.084 -0.050  0.000    0.003  0.000  0.869    0.875 -0.006 -0.002
 O         -0.009  0.366 -0.000   -0.000 -0.000 -0.013   -0.014  0.002 -0.000
 TransDip   0.003 -0.027  0.000    0.001 -0.000  0.250    0.224  0.006 -0.000

 Mode:                 7                      8                      9
 Frequency:      1253.01                1380.96                1472.58
 Force Cnst:      1.1405                 1.1830                 1.3685
 Red. Mass:       1.2329                 1.0528                 1.0711
 IR Active:          YES                    YES                    YES
 IR Intens:       26.898                  5.990                  5.027
 Raman Active:       YES                    YES                    YES
               X      Y      Z        X      Y      Z        X      Y      Z
 C          0.002 -0.140  0.001    0.001 -0.001 -0.064   -0.076  0.004 -0.000
 H         -0.141  0.554 -0.010   -0.002  0.011  0.733   -0.111  0.220  0.003
 H          0.089  0.511  0.126   -0.374 -0.275  0.096    0.546 -0.126 -0.383
 H          0.079  0.503 -0.128    0.370  0.284  0.090    0.549 -0.127  0.384
 H         -0.053 -0.301  0.002   -0.004 -0.003 -0.095   -0.091  0.002  0.000
 O          0.000  0.025  0.000   -0.000  0.000 -0.004    0.001 -0.001  0.000
 TransDip  -0.005  0.166 -0.001   -0.002  0.002  0.078    0.072 -0.002  0.001

 Mode:                10                     11                     12
 Frequency:      3165.11                3307.55                3316.13
 Force Cnst:      6.0124                 7.1298                 7.2019
 Red. Mass:       1.0186                 1.1061                 1.1116
 IR Active:          YES                    YES                    YES
 IR Intens:        0.033                  0.687                  1.850
 Raman Active:       YES                    YES                    YES
               X      Y      Z        X      Y      Z        X      Y      Z
 C         -0.003 -0.031 -0.000    0.002  0.000 -0.095   -0.097  0.003 -0.002
 H          0.582  0.117 -0.000   -0.019 -0.004 -0.030    0.780  0.175 -0.001
 H         -0.273  0.127 -0.480    0.345 -0.177  0.577    0.199 -0.107  0.373
 H         -0.275  0.127  0.483   -0.353  0.181  0.591    0.183 -0.098 -0.345
 H         -0.000 -0.012  0.000    0.000  0.000 -0.008   -0.006  0.000 -0.000
 O         -0.000  0.001  0.000   -0.000  0.000 -0.000    0.000 -0.000 -0.000
 TransDip   0.000 -0.006 -0.000    0.001 -0.000 -0.027   -0.044  0.001 -0.001

 STANDARD THERMODYNAMIC QUANTITIES AT   298.15 K  AND     1.00 ATM

   This Molecule has  2 Imaginary Frequencies
   Zero point vibrational energy:       24.431 kcal/mol

   Atom    1 Element C  Has Mass   12.00000
   Atom    2 Element H  Has Mass    1.00783
   Atom    3 Element H  Has Mass    1.00783
   Atom    4 Element H  Has Mass    1.00783
   Atom    5 Element H  Has Mass    1.00783
   Atom    6 Element O  Has Mass   15.99491
   Molecular Mass:    32.026230 amu
   Principal axes and moments of inertia in amu*Bohr^2:
                             1           2           3
    Eigenvalues --       11.95916   186.92043   186.96030
          X              -0.00169    -0.00001     1.00000
          Y               1.00000     0.00000     0.00169
          Z              -0.00000     1.00000     0.00001
   Rotational Symmetry Number is   1
   The Molecule is an Asymmetric Top
   Translational Enthalpy:        0.889 kcal/mol
   Rotational Enthalpy:           0.889 kcal/mol
   Vibrational Enthalpy:         24.773 kcal/mol
   gas constant (RT):             0.592 kcal/mol
   Translational Entropy:        36.324  cal/mol.K
   Rotational Entropy:           20.663  cal/mol.K
   Vibrational Entropy:           1.588  cal/mol.K

   Total Enthalpy:               27.143 kcal/mol
   Total Entropy:                58.575  cal/mol.K
Archival summary:
1\1\C-node1\FREQ\ProcedureUnspecified\BasisUnspecified\114(3)\pierpa\FriOct3009:43:382020FriOct3009:43:382020\0\\#,FREQ,ProcedureUnspecified,BasisUnspecified,\\0,3\C\H,1,1.08296\H,1,1.08296,2,114.921\H,1,1.08373,2,114.426,3,-135.383,0\H,1,1.35045,2,104,3,113.003,0\O,5,1.15152,1,178.886,2,119.672,0\\\@

 Total job time:  51.39s(wall), 401.58s(cpu) 
 Fri Oct 30 09:43:38 2020

        *************************************************************
        *                                                           *
        *  Thank you very much for using Q-Chem.  Have a nice day.  *
        *                                                           *
        *************************************************************


