 Entering Gaussian System, Link 0=g16
 Input=MN_18_C5H8_BH76_TPSShDBJ_631Gs.in
 Output=MN_18_C5H8_BH76_TPSShDBJ_631Gs.log
 Initial command:
 /udrive/faculty/rpeverati/g16/g16/l1.exe "/udrive/scratch-directories/gaussian09/rpeverati/Gau-30943.inp" -scrdir="/udrive/scratch-directories/gaussian09/rpeverati/"
 Entering Link 1 = /udrive/faculty/rpeverati/g16/g16/l1.exe PID=     30957.
  
 Copyright (c) 1988,1990,1992,1993,1995,1998,2003,2009,2016,
            Gaussian, Inc.  All Rights Reserved.
  
 This is part of the Gaussian(R) 16 program.  It is based on
 the Gaussian(R) 09 system (copyright 2009, Gaussian, Inc.),
 the Gaussian(R) 03 system (copyright 2003, Gaussian, Inc.),
 the Gaussian(R) 98 system (copyright 1998, Gaussian, Inc.),
 the Gaussian(R) 94 system (copyright 1995, Gaussian, Inc.),
 the Gaussian 92(TM) system (copyright 1992, Gaussian, Inc.),
 the Gaussian 90(TM) system (copyright 1990, Gaussian, Inc.),
 the Gaussian 88(TM) system (copyright 1988, Gaussian, Inc.),
 the Gaussian 86(TM) system (copyright 1986, Carnegie Mellon
 University), and the Gaussian 82(TM) system (copyright 1983,
 Carnegie Mellon University). Gaussian is a federally registered
 trademark of Gaussian, Inc.
  
 This software contains proprietary and confidential information,
 including trade secrets, belonging to Gaussian, Inc.
  
 This software is provided under written license and may be
 used, copied, transmitted, or stored only in accord with that
 written license.
  
 The following legend is applicable only to US Government
 contracts under FAR:
  
                    RESTRICTED RIGHTS LEGEND
  
 Use, reproduction and disclosure by the US Government is
 subject to restrictions as set forth in subparagraphs (a)
 and (c) of the Commercial Computer Software - Restricted
 Rights clause in FAR 52.227-19.
  
 Gaussian, Inc.
 340 Quinnipiac St., Bldg. 40, Wallingford CT 06492
  
  
 ---------------------------------------------------------------
 Warning -- This program may not be used in any manner that
 competes with the business of Gaussian, Inc. or will provide
 assistance to any competitor of Gaussian, Inc.  The licensee
 of this program is prohibited from giving any competitor of
 Gaussian, Inc. access to this program.  By using this program,
 the user acknowledges that Gaussian, Inc. is engaged in the
 business of creating and licensing software in the field of
 computational chemistry and represents and warrants to the
 licensee that it is not a competitor of Gaussian, Inc. and that
 it will not use this program in any manner prohibited above.
 ---------------------------------------------------------------
  

 Cite this work as:
 Gaussian 16, Revision A.03,
 M. J. Frisch, G. W. Trucks, H. B. Schlegel, G. E. Scuseria, 
 M. A. Robb, J. R. Cheeseman, G. Scalmani, V. Barone, 
 G. A. Petersson, H. Nakatsuji, X. Li, M. Caricato, A. V. Marenich, 
 J. Bloino, B. G. Janesko, R. Gomperts, B. Mennucci, H. P. Hratchian, 
 J. V. Ortiz, A. F. Izmaylov, J. L. Sonnenberg, D. Williams-Young, 
 F. Ding, F. Lipparini, F. Egidi, J. Goings, B. Peng, A. Petrone, 
 T. Henderson, D. Ranasinghe, V. G. Zakrzewski, J. Gao, N. Rega, 
 G. Zheng, W. Liang, M. Hada, M. Ehara, K. Toyota, R. Fukuda, 
 J. Hasegawa, M. Ishida, T. Nakajima, Y. Honda, O. Kitao, H. Nakai, 
 T. Vreven, K. Throssell, J. A. Montgomery, Jr., J. E. Peralta, 
 F. Ogliaro, M. J. Bearpark, J. J. Heyd, E. N. Brothers, K. N. Kudin, 
 V. N. Staroverov, T. A. Keith, R. Kobayashi, J. Normand, 
 K. Raghavachari, A. P. Rendell, J. C. Burant, S. S. Iyengar, 
 J. Tomasi, M. Cossi, J. M. Millam, M. Klene, C. Adamo, R. Cammi, 
 J. W. Ochterski, R. L. Martin, K. Morokuma, O. Farkas, 
 J. B. Foresman, and D. J. Fox, Gaussian, Inc., Wallingford CT, 2016.
 
 ******************************************
 Gaussian 16:  ES64L-G16RevA.03 25-Dec-2016
                 7-Oct-2020 
 ******************************************
 %NoSave
 %nproc=12
 Will use up to   12 processors via shared memory.
 %mem=20GB
 %chk=MN_18_C5H8_BH76_TPSShDBJ_631Gs
 ----------------------------------------------------------------------
 #P Opt(MaxCyc=100) TPSSh/6-31G* 5D 7F Integral=UltraFineGrid SCF=(NoSy
 mm,XQC,MaxCyc=120) IOp(1/33=1,3/174=1000000,3/175=2238200,3/177=045290
 0,3/178=4655000) EmpiricalDispersion=GD3BJ
 ----------------------------------------------------------------------
 1/6=100,18=20,19=15,26=4,33=1,38=1/1,3;
 2/9=110,12=2,17=6,18=5,40=1/2;
 3/5=1,6=6,7=1,8=11,11=2,25=1,30=1,71=1,74=-35,75=-5,124=41,174=1000000,175=2238200,177=452900,178=4655000/1,2,3;
 4/9=2/1;
 5/5=2,7=120,8=3,13=1,38=5/2,8;
 6/7=2,8=2,9=2,10=2,28=1/1;
 7//1,2,3,16;
 1/6=100,18=20,19=15,26=4,33=1/3(2);
 2/9=110/2;
 99//99;
 2/9=110/2;
 3/5=1,6=6,7=1,8=11,11=2,25=1,30=1,71=1,74=-35,75=-5,124=41,174=1000000,175=2238200,177=452900,178=4655000/1,2,3;
 4/5=5,9=2,16=3,69=1/1;
 5/5=2,7=120,8=3,13=1,38=5/2,8;
 7//1,2,3,16;
 1/6=100,18=20,19=15,26=4,33=1/3(-5);
 2/9=110/2;
 6/7=2,8=2,9=2,10=2,19=2,28=1/1;
 99/9=1/99;
 Leave Link    1 at Wed Oct  7 14:39:40 2020, MaxMem=  2684354560 cpu:               5.4 elap:               0.5
 (Enter /udrive/faculty/rpeverati/g16/g16/l101.exe)
 ONIOM data not found on unit 2.
 ------------------
 TS search on BH76.
 ------------------
 TstMul:  ICh=     0
 TstMul:  Mul=     1
 TstMul:  ICh=     0
 TstMul:  Mul=     1
 Symbolic Z-matrix:
 Charge =  0 Multiplicity = 1
 C                    -2.05564  -0.61227   0.00001 
 C                    -1.2311    0.64045   0.00005 
 C                     0.10563   0.73428   0.00003 
 C                     1.05756  -0.37441  -0.00004 
 C                     2.38358  -0.19894  -0.00004 
 H                    -2.70509  -0.6416    0.87713 
 H                    -2.70513  -0.64151  -0.87709 
 H                    -1.45133  -1.51608  -0.00006 
 H                    -1.79367   1.56759   0.0001 
 H                     0.54576   1.72564   0.00006 
 H                     0.66526  -1.38324  -0.0001 
 H                     3.06469  -1.03772  -0.00009 
 H                     2.81928   0.79228   0.00002 
 
 RdStrC is calling ZToCFu for IStruc=1 NZ=    13.
 PrtBox:  NBox=     2 Levels=  2 BoxLen=    8.00 SMaxX=       10.90
          Shift=            5.111950            2.864980            1.657460
 Box      1 Number                   0 centers from      1 to     10:
 Box      2 Number                   4 centers from     11 to     13:
 After GenITR:
 ITRead=  0  0  0  0  0  0  0  0  0  0  0  0  0
 MicOpt= -1 -1 -1 -1 -1 -1 -1 -1 -1 -1 -1 -1 -1
 ITRead=  0  0  0  0  0  0  0  0  0  0  0  0  0
 MicOpt= -1 -1 -1 -1 -1 -1 -1 -1 -1 -1 -1 -1 -1
 NAtoms=     13 NQM=       13 NQMF=       0 NMMI=      0 NMMIF=      0
                NMic=       0 NMicF=      0.
                    Isotopes and Nuclear Properties:
 (Nuclear quadrupole moments (NQMom) in fm**2, nuclear magnetic moments (NMagM)
  in nuclear magnetons)

  Atom         1           2           3           4           5           6           7           8           9          10
 IAtWgt=          12          12          12          12          12           1           1           1           1           1
 AtmWgt=  12.0000000  12.0000000  12.0000000  12.0000000  12.0000000   1.0078250   1.0078250   1.0078250   1.0078250   1.0078250
 NucSpn=           0           0           0           0           0           1           1           1           1           1
 AtZEff=   0.0000000   0.0000000   0.0000000   0.0000000   0.0000000   0.0000000   0.0000000   0.0000000   0.0000000   0.0000000
 NQMom=    0.0000000   0.0000000   0.0000000   0.0000000   0.0000000   0.0000000   0.0000000   0.0000000   0.0000000   0.0000000
 NMagM=    0.0000000   0.0000000   0.0000000   0.0000000   0.0000000   2.7928460   2.7928460   2.7928460   2.7928460   2.7928460
 AtZNuc=   6.0000000   6.0000000   6.0000000   6.0000000   6.0000000   1.0000000   1.0000000   1.0000000   1.0000000   1.0000000

  Atom        11          12          13
 IAtWgt=           1           1           1
 AtmWgt=   1.0078250   1.0078250   1.0078250
 NucSpn=           1           1           1
 AtZEff=   0.0000000   0.0000000   0.0000000
 NQMom=    0.0000000   0.0000000   0.0000000
 NMagM=    2.7928460   2.7928460   2.7928460
 AtZNuc=   1.0000000   1.0000000   1.0000000
 No MM parameters found.
 Leave Link  101 at Wed Oct  7 14:39:41 2020, MaxMem=  2684354560 cpu:              15.2 elap:               1.4
 (Enter /udrive/faculty/rpeverati/g16/g16/l103.exe)

 GradGradGradGradGradGradGradGradGradGradGradGradGradGradGradGradGradGrad
 Berny optimization.
 Optmz: redundant internal coordinate code flag= 1
 Initialization pass.
                           ----------------------------
                           !    Initial Parameters    !
                           ! (Angstroms and Degrees)  !
 --------------------------                            --------------------------
 ! Name  Definition              Value          Derivative Info.                !
 --------------------------------------------------------------------------------
 ! R1    R(1,2)                  1.4997         estimate D2E/DX2                !
 ! R2    R(1,6)                  1.0918         estimate D2E/DX2                !
 ! R3    R(1,7)                  1.0918         estimate D2E/DX2                !
 ! R4    R(1,8)                  1.0872         estimate D2E/DX2                !
 ! R5    R(2,3)                  1.34           estimate D2E/DX2                !
 ! R6    R(2,9)                  1.0845         estimate D2E/DX2                !
 ! R7    R(3,4)                  1.4613         estimate D2E/DX2                !
 ! R8    R(3,10)                 1.0847         estimate D2E/DX2                !
 ! R9    R(4,5)                  1.3376         estimate D2E/DX2                !
 ! R10   R(4,11)                 1.0824         estimate D2E/DX2                !
 ! R11   R(5,12)                 1.0805         estimate D2E/DX2                !
 ! R12   R(5,13)                 1.0827         estimate D2E/DX2                !
 ! A1    A(2,1,6)              110.454          estimate D2E/DX2                !
 ! A2    A(2,1,7)              110.4539         estimate D2E/DX2                !
 ! A3    A(2,1,8)              112.8797         estimate D2E/DX2                !
 ! A4    A(6,1,7)              106.9071         estimate D2E/DX2                !
 ! A5    A(6,1,8)              107.96           estimate D2E/DX2                !
 ! A6    A(7,1,8)              107.9599         estimate D2E/DX2                !
 ! A7    A(1,2,3)              127.3679         estimate D2E/DX2                !
 ! A8    A(1,2,9)              115.3987         estimate D2E/DX2                !
 ! A9    A(3,2,9)              117.2333         estimate D2E/DX2                !
 ! A10   A(2,3,4)              126.6344         estimate D2E/DX2                !
 ! A11   A(2,3,10)             117.9542         estimate D2E/DX2                !
 ! A12   A(4,3,10)             115.4113         estimate D2E/DX2                !
 ! A13   A(3,4,5)              123.1115         estimate D2E/DX2                !
 ! A14   A(3,4,11)             118.1014         estimate D2E/DX2                !
 ! A15   A(5,4,11)             118.7871         estimate D2E/DX2                !
 ! A16   A(4,5,12)             121.5392         estimate D2E/DX2                !
 ! A17   A(4,5,13)             121.266          estimate D2E/DX2                !
 ! A18   A(12,5,13)            117.1948         estimate D2E/DX2                !
 ! D1    D(6,1,2,3)            120.9702         estimate D2E/DX2                !
 ! D2    D(6,1,2,9)            -59.0299         estimate D2E/DX2                !
 ! D3    D(7,1,2,3)           -120.9708         estimate D2E/DX2                !
 ! D4    D(7,1,2,9)             59.0292         estimate D2E/DX2                !
 ! D5    D(8,1,2,3)             -0.0004         estimate D2E/DX2                !
 ! D6    D(8,1,2,9)            179.9995         estimate D2E/DX2                !
 ! D7    D(1,2,3,4)             -0.0001         estimate D2E/DX2                !
 ! D8    D(1,2,3,10)          -180.0            estimate D2E/DX2                !
 ! D9    D(9,2,3,4)            180.0            estimate D2E/DX2                !
 ! D10   D(9,2,3,10)             0.0001         estimate D2E/DX2                !
 ! D11   D(2,3,4,5)           -179.9986         estimate D2E/DX2                !
 ! D12   D(2,3,4,11)             0.0014         estimate D2E/DX2                !
 ! D13   D(10,3,4,5)             0.0013         estimate D2E/DX2                !
 ! D14   D(10,3,4,11)         -179.9987         estimate D2E/DX2                !
 ! D15   D(3,4,5,12)           179.9999         estimate D2E/DX2                !
 ! D16   D(3,4,5,13)            -0.0001         estimate D2E/DX2                !
 ! D17   D(11,4,5,12)           -0.0001         estimate D2E/DX2                !
 ! D18   D(11,4,5,13)          179.9999         estimate D2E/DX2                !
 --------------------------------------------------------------------------------
 Maximum allowed force set to 1.00D+20.
 Trust Radius=3.00D-01 FncErr=1.00D-07 GrdErr=1.00D-06 EigMax=2.50D+02 EigMin=1.00D-04
 Number of steps in this run=    100 maximum allowed number of steps=    100.
 GradGradGradGradGradGradGradGradGradGradGradGradGradGradGradGradGradGrad

 Leave Link  103 at Wed Oct  7 14:39:42 2020, MaxMem=  2684354560 cpu:               1.1 elap:               0.4
 (Enter /udrive/faculty/rpeverati/g16/g16/l202.exe)
                          Input orientation:                          
 ---------------------------------------------------------------------
 Center     Atomic      Atomic             Coordinates (Angstroms)
 Number     Number       Type             X           Y           Z
 ---------------------------------------------------------------------
      1          6           0       -2.055637   -0.612274    0.000007
      2          6           0       -1.231099    0.640447    0.000049
      3          6           0        0.105634    0.734276    0.000026
      4          6           0        1.057555   -0.374407   -0.000044
      5          6           0        2.383583   -0.198936   -0.000036
      6          1           0       -2.705085   -0.641596    0.877132
      7          1           0       -2.705127   -0.641506   -0.877090
      8          1           0       -1.451332   -1.516082   -0.000055
      9          1           0       -1.793667    1.567587    0.000103
     10          1           0        0.545756    1.725642    0.000064
     11          1           0        0.665260   -1.383243   -0.000105
     12          1           0        3.064693   -1.037722   -0.000088
     13          1           0        2.819276    0.792284    0.000023
 ---------------------------------------------------------------------
                    Distance matrix (angstroms):
                    1          2          3          4          5
     1  C    0.000000
     2  C    1.499724   0.000000
     3  C    2.546426   1.340022   0.000000
     4  C    3.122266   2.503571   1.461278   0.000000
     5  C    4.458421   3.710862   2.461694   1.337588   0.000000
     6  H    1.091784   2.141388   3.249997   3.872763   5.182656
     7  H    1.091784   2.141386   3.249998   3.872768   5.182670
     8  H    1.087223   2.167746   2.736467   2.756436   4.054806
     9  H    2.195546   1.084468   2.074067   3.449755   4.535419
    10  H    3.497584   2.082033   1.084672   2.161514   2.661129
    11  H    2.828016   2.773355   2.190221   1.082425   2.086915
    12  H    5.137974   4.611950   3.449059   2.113903   1.080496
    13  H    5.073220   4.053220   2.714262   2.113014   1.082749
                    6          7          8          9         10
     6  H    0.000000
     7  H    1.754222   0.000000
     8  H    1.762408   1.762407   0.000000
     9  H    2.545653   2.545647   3.102613   0.000000
    10  H    4.115948   4.115948   3.807510   2.344757   0.000000
    11  H    3.560732   3.560729   2.120757   3.841057   3.111180
    12  H    5.849510   5.849525   4.541289   5.512830   3.739147
    13  H    5.774418   5.774436   4.854549   4.677643   2.457651
                   11         12         13
    11  H    0.000000
    12  H    2.424182   0.000000
    13  H    3.061487   1.846389   0.000000
 Stoichiometry    C5H8
 Framework group  C1[X(C5H8)]
 Deg. of freedom    33
 Full point group                 C1      NOp   1
 Largest Abelian subgroup         C1      NOp   1
 Largest concise Abelian subgroup C1      NOp   1
                         Standard orientation:                         
 ---------------------------------------------------------------------
 Center     Atomic      Atomic             Coordinates (Angstroms)
 Number     Number       Type             X           Y           Z
 ---------------------------------------------------------------------
      1          6           0       -2.055636   -0.612274    0.000007
      2          6           0       -1.231099    0.640447    0.000049
      3          6           0        0.105634    0.734276    0.000026
      4          6           0        1.057556   -0.374407   -0.000044
      5          6           0        2.383584   -0.198936   -0.000036
      6          1           0       -2.705085   -0.641596    0.877132
      7          1           0       -2.705127   -0.641506   -0.877090
      8          1           0       -1.451332   -1.516082   -0.000055
      9          1           0       -1.793668    1.567587    0.000103
     10          1           0        0.545756    1.725642    0.000064
     11          1           0        0.665261   -1.383243   -0.000105
     12          1           0        3.064693   -1.037721   -0.000088
     13          1           0        2.819276    0.792285    0.000023
 ---------------------------------------------------------------------
 Rotational constants (GHZ):          15.8794823           2.6528461           2.3052563
 Leave Link  202 at Wed Oct  7 14:39:43 2020, MaxMem=  2684354560 cpu:               1.0 elap:               0.4
 (Enter /udrive/faculty/rpeverati/g16/g16/l301.exe)
 Standard basis: 6-31G(d) (5D, 7F)
 Ernie: Thresh=  0.10000D-02 Tol=  0.10000D-05 Strict=F.
 There are    91 symmetry adapted cartesian basis functions of A   symmetry.
 There are    86 symmetry adapted basis functions of A   symmetry.
    86 basis functions,   172 primitive gaussians,    91 cartesian basis functions
    19 alpha electrons       19 beta electrons
       nuclear repulsion energy       155.8151495793 Hartrees.
 IExCor= 2523 DFT=T Ex+Corr=TPSSh ExCW=0 ScaHFX=  0.100000
 ScaDFX=  0.900000  0.900000  1.000000  1.000000 ScalE2=  1.000000  1.000000
 IRadAn=      5 IRanWt=     -1 IRanGd=            0 ICorTp=0 IEmpDi=141
 NAtoms=   13 NActive=   13 NUniq=   13 SFac= 1.00D+00 NAtFMM=   60 NAOKFM=F Big=F
 Integral buffers will be    131072 words long.
 Raffenetti 2 integral format.
 Two-electron integral symmetry is turned on.
 R6DIni: Non-standard D2/D3 S6 parameter, value=     1.000000
 R6DIni: Non-standard D2/D3 S8 parameter, value=     2.238200
 R6DIni: Non-standard D3BJ A1 parameter, value=     0.452900
 R6DIni: Non-standard D3BJ A2 parameter, value=     4.655000
 R6Disp:  Grimme-D3(BJ) Dispersion energy=       -0.0105077590 Hartrees.
 Nuclear repulsion after empirical dispersion term =      155.8046418203 Hartrees.
 Leave Link  301 at Wed Oct  7 14:39:44 2020, MaxMem=  2684354560 cpu:               2.9 elap:               0.6
 (Enter /udrive/faculty/rpeverati/g16/g16/l302.exe)
 NPDir=0 NMtPBC=     1 NCelOv=     1 NCel=       1 NClECP=     1 NCelD=      1
         NCelK=      1 NCelE2=     1 NClLst=     1 CellRange=     0.0.
 One-electron integrals computed using PRISM.
 One-electron integral symmetry used in STVInt
 NBasis=    86 RedAO= T EigKep=  2.65D-03  NBF=    86
 NBsUse=    86 1.00D-06 EigRej= -1.00D+00 NBFU=    86
 Precomputing XC quadrature grid using
 IXCGrd= 4 IRadAn=           5 IRanWt=          -1 IRanGd=           0 AccXCQ= 0.00D+00.
 Generated NRdTot=       0 NPtTot=           0 NUsed=           0 NTot=          32
 NSgBfM=    91    91    91    91    91 MxSgAt=    13 MxSgA2=    13.
 Leave Link  302 at Wed Oct  7 14:39:45 2020, MaxMem=  2684354560 cpu:               5.7 elap:               0.8
 (Enter /udrive/faculty/rpeverati/g16/g16/l303.exe)
 DipDrv:  MaxL=1.
 Leave Link  303 at Wed Oct  7 14:39:45 2020, MaxMem=  2684354560 cpu:               1.8 elap:               0.5
 (Enter /udrive/faculty/rpeverati/g16/g16/l401.exe)
 SCF N**3 symmetry information disabled.
 ExpMin= 1.61D-01 ExpMax= 3.05D+03 ExpMxC= 4.57D+02 IAcc=3 IRadAn=         5 AccDes= 0.00D+00
 Harris functional with IExCor= 1009 and IRadAn=       5 diagonalized for initial guess.
 HarFok:  IExCor= 1009 AccDes= 0.00D+00 IRadAn=         5 IDoV= 1 UseB2=F ITyADJ=14
 ICtDFT=  3500011 ScaDFX=  1.000000  1.000000  1.000000  1.000000
 FoFCou: FMM=F IPFlag=           0 FMFlag=      100000 FMFlg1=           0
         NFxFlg=           0 DoJE=T BraDBF=F KetDBF=T FulRan=T
         wScrn=  0.000000 ICntrl=       500 IOpCl=  0 I1Cent=   200000004 NGrid=           0
         NMat0=    1 NMatS0=      1 NMatT0=    0 NMatD0=    1 NMtDS0=    0 NMtDT0=    0
 Petite list used in FoFCou.
 Harris En= -195.181907959264    
 JPrj=0 DoOrth=F DoCkMO=F.
 Leave Link  401 at Wed Oct  7 14:39:47 2020, MaxMem=  2684354560 cpu:              12.6 elap:               1.4
 (Enter /udrive/faculty/rpeverati/g16/g16/l502.exe)
 Integral symmetry usage will be decided dynamically.
 Closed shell SCF:
 Using DIIS extrapolation, IDIIS=  1040.
 NGot=  2684354560 LenX=  2684335663 LenY=  2684326941
 Requested convergence on RMS density matrix=1.00D-08 within 120 cycles.
 Requested convergence on MAX density matrix=1.00D-06.
 Requested convergence on             energy=1.00D-06.
 No special actions if energy rises.
 Fock matrices will be formed incrementally for  20 cycles.
 Integral accuracy reduced to 1.0D-05 until final iterations.

 Cycle   1  Pass 0  IDiag  1:
 FoFJK:  IHMeth= 1 ICntrl=       0 DoSepK=F KAlg= 0 I1Cent=           0 FoldK=F
 IRaf= 980000000 NMat=       1 IRICut=       1 DoRegI=T DoRafI=F ISym2E= 0 IDoP0=0 IntGTp=1.
 FoFCou: FMM=F IPFlag=           0 FMFlag=      100000 FMFlg1=           0
         NFxFlg=           0 DoJE=F BraDBF=F KetDBF=F FulRan=T
         wScrn=  0.000000 ICntrl=         0 IOpCl=  0 I1Cent=           0 NGrid=           0
         NMat0=    1 NMatS0=      1 NMatT0=    0 NMatD0=    1 NMtDS0=    0 NMtDT0=    0
 Symmetry not used in FoFCou.
 E= -195.167901391488    
 DIIS: error= 4.61D-02 at cycle   1 NSaved=   1.
 NSaved= 1 IEnMin= 1 EnMin= -195.167901391488     IErMin= 1 ErrMin= 4.61D-02
 ErrMax= 4.61D-02  0.00D+00 EMaxC= 1.00D-01 BMatC= 1.39D-01 BMatP= 1.39D-01
 IDIUse=3 WtCom= 5.39D-01 WtEn= 4.61D-01
 Coeff-Com:  0.100D+01
 Coeff-En:   0.100D+01
 Coeff:      0.100D+01
 Gap=     0.178 Goal=   None    Shift=    0.000
 GapD=    0.178 DampG=1.000 DampE=0.500 DampFc=0.5000 IDamp=-1.
 Damping current iteration by 5.00D-01
 RMSDP=9.66D-03 MaxDP=1.31D-01              OVMax= 1.64D-01

 Cycle   2  Pass 0  IDiag  1:
 RMSU=  4.74D-03    CP:  9.74D-01
 E= -195.246362035469     Delta-E=       -0.078460643982 Rises=F Damp=T
 DIIS: error= 5.36D-03 at cycle   2 NSaved=   2.
 NSaved= 2 IEnMin= 2 EnMin= -195.246362035469     IErMin= 2 ErrMin= 5.36D-03
 ErrMax= 5.36D-03  0.00D+00 EMaxC= 1.00D-01 BMatC= 4.35D-03 BMatP= 1.39D-01
 IDIUse=3 WtCom= 9.46D-01 WtEn= 5.36D-02
 Coeff-Com:  0.180D-01 0.982D+00
 Coeff-En:   0.298D-01 0.970D+00
 Coeff:      0.187D-01 0.981D+00
 Gap=     0.181 Goal=   None    Shift=    0.000
 RMSDP=1.83D-03 MaxDP=1.97D-02 DE=-7.85D-02 OVMax= 8.69D-02

 Cycle   3  Pass 0  IDiag  1:
 RMSU=  1.70D-03    CP:  9.72D-01  8.58D-01
 E= -195.330012935251     Delta-E=       -0.083650899781 Rises=F Damp=F
 DIIS: error= 3.36D-03 at cycle   3 NSaved=   3.
 NSaved= 3 IEnMin= 3 EnMin= -195.330012935251     IErMin= 3 ErrMin= 3.36D-03
 ErrMax= 3.36D-03  0.00D+00 EMaxC= 1.00D-01 BMatC= 1.08D-03 BMatP= 4.35D-03
 IDIUse=3 WtCom= 9.66D-01 WtEn= 3.36D-02
 Coeff-Com: -0.122D-01 0.274D+00 0.738D+00
 Coeff-En:   0.000D+00 0.000D+00 0.100D+01
 Coeff:     -0.118D-01 0.265D+00 0.747D+00
 Gap=     0.181 Goal=   None    Shift=    0.000
 RMSDP=7.31D-04 MaxDP=1.19D-02 DE=-8.37D-02 OVMax= 2.89D-02

 Cycle   4  Pass 0  IDiag  1:
 RMSU=  5.88D-04    CP:  9.72D-01  8.94D-01  7.66D-01
 E= -195.329931918649     Delta-E=        0.000081016601 Rises=F Damp=F
 DIIS: error= 3.37D-03 at cycle   4 NSaved=   4.
 NSaved= 4 IEnMin= 3 EnMin= -195.330012935251     IErMin= 3 ErrMin= 3.36D-03
 ErrMax= 3.37D-03  0.00D+00 EMaxC= 1.00D-01 BMatC= 1.14D-03 BMatP= 1.08D-03
 IDIUse=3 WtCom= 9.66D-01 WtEn= 3.37D-02
 Coeff-Com: -0.938D-02 0.662D-01 0.506D+00 0.437D+00
 Coeff-En:   0.000D+00 0.000D+00 0.514D+00 0.486D+00
 Coeff:     -0.906D-02 0.639D-01 0.507D+00 0.438D+00
 Gap=     0.181 Goal=   None    Shift=    0.000
 RMSDP=3.74D-04 MaxDP=7.06D-03 DE= 8.10D-05 OVMax= 1.66D-02

 Cycle   5  Pass 0  IDiag  1:
 RMSU=  1.65D-04    CP:  9.71D-01  8.83D-01  8.52D-01  4.92D-01
 E= -195.331124070997     Delta-E=       -0.001192152347 Rises=F Damp=F
 DIIS: error= 5.88D-04 at cycle   5 NSaved=   5.
 NSaved= 5 IEnMin= 5 EnMin= -195.331124070997     IErMin= 5 ErrMin= 5.88D-04
 ErrMax= 5.88D-04  0.00D+00 EMaxC= 1.00D-01 BMatC= 3.05D-05 BMatP= 1.08D-03
 IDIUse=3 WtCom= 9.94D-01 WtEn= 5.88D-03
 Coeff-Com: -0.258D-02 0.346D-02 0.169D+00 0.207D+00 0.623D+00
 Coeff-En:   0.000D+00 0.000D+00 0.000D+00 0.000D+00 0.100D+01
 Coeff:     -0.257D-02 0.344D-02 0.168D+00 0.206D+00 0.626D+00
 Gap=     0.181 Goal=   None    Shift=    0.000
 RMSDP=7.24D-05 MaxDP=1.22D-03 DE=-1.19D-03 OVMax= 2.08D-03

 Cycle   6  Pass 0  IDiag  1:
 RMSU=  3.23D-05    CP:  9.71D-01  8.85D-01  8.54D-01  5.25D-01  6.27D-01
 E= -195.331154376059     Delta-E=       -0.000030305062 Rises=F Damp=F
 DIIS: error= 1.30D-04 at cycle   6 NSaved=   6.
 NSaved= 6 IEnMin= 6 EnMin= -195.331154376059     IErMin= 6 ErrMin= 1.30D-04
 ErrMax= 1.30D-04  0.00D+00 EMaxC= 1.00D-01 BMatC= 1.63D-06 BMatP= 3.05D-05
 IDIUse=3 WtCom= 9.99D-01 WtEn= 1.30D-03
 Coeff-Com: -0.998D-03-0.716D-04 0.705D-01 0.908D-01 0.324D+00 0.516D+00
 Coeff-En:   0.000D+00 0.000D+00 0.000D+00 0.000D+00 0.000D+00 0.100D+01
 Coeff:     -0.996D-03-0.715D-04 0.704D-01 0.907D-01 0.324D+00 0.516D+00
 Gap=     0.181 Goal=   None    Shift=    0.000
 RMSDP=1.71D-05 MaxDP=2.52D-04 DE=-3.03D-05 OVMax= 4.59D-04

 Cycle   7  Pass 0  IDiag  1:
 RMSU=  7.86D-06    CP:  9.71D-01  8.84D-01  8.57D-01  5.21D-01  6.50D-01
                    CP:  5.98D-01
 E= -195.331156065242     Delta-E=       -0.000001689183 Rises=F Damp=F
 DIIS: error= 2.44D-05 at cycle   7 NSaved=   7.
 NSaved= 7 IEnMin= 7 EnMin= -195.331156065242     IErMin= 7 ErrMin= 2.44D-05
 ErrMax= 2.44D-05  0.00D+00 EMaxC= 1.00D-01 BMatC= 5.95D-08 BMatP= 1.63D-06
 IDIUse=1 WtCom= 1.00D+00 WtEn= 0.00D+00
 Coeff-Com: -0.304D-03-0.206D-03 0.236D-01 0.306D-01 0.115D+00 0.234D+00
 Coeff-Com:  0.597D+00
 Coeff:     -0.304D-03-0.206D-03 0.236D-01 0.306D-01 0.115D+00 0.234D+00
 Coeff:      0.597D+00
 Gap=     0.181 Goal=   None    Shift=    0.000
 RMSDP=4.94D-06 MaxDP=1.09D-04 DE=-1.69D-06 OVMax= 3.06D-04

 Initial convergence to 1.0D-05 achieved.  Increase integral accuracy.
 Cycle   8  Pass 1  IDiag  1:
 E= -195.331152080717     Delta-E=        0.000003984525 Rises=F Damp=F
 DIIS: error= 2.19D-05 at cycle   1 NSaved=   1.
 NSaved= 1 IEnMin= 1 EnMin= -195.331152080717     IErMin= 1 ErrMin= 2.19D-05
 ErrMax= 2.19D-05  0.00D+00 EMaxC= 1.00D-01 BMatC= 3.90D-08 BMatP= 3.90D-08
 IDIUse=1 WtCom= 1.00D+00 WtEn= 0.00D+00
 Coeff-Com:  0.100D+01
 Coeff:      0.100D+01
 Gap=     0.181 Goal=   None    Shift=    0.000
 RMSDP=4.94D-06 MaxDP=1.09D-04 DE= 3.98D-06 OVMax= 4.57D-04

 Cycle   9  Pass 1  IDiag  1:
 RMSU=  7.31D-06    CP:  1.00D+00
 E= -195.331151897046     Delta-E=        0.000000183671 Rises=F Damp=F
 DIIS: error= 5.27D-05 at cycle   2 NSaved=   2.
 NSaved= 2 IEnMin= 1 EnMin= -195.331152080717     IErMin= 1 ErrMin= 2.19D-05
 ErrMax= 5.27D-05  0.00D+00 EMaxC= 1.00D-01 BMatC= 1.93D-07 BMatP= 3.90D-08
 IDIUse=1 WtCom= 1.00D+00 WtEn= 0.00D+00
 Coeff-Com:  0.692D+00 0.308D+00
 Coeff:      0.692D+00 0.308D+00
 Gap=     0.181 Goal=   None    Shift=    0.000
 RMSDP=5.12D-06 MaxDP=1.15D-04 DE= 1.84D-07 OVMax= 3.27D-04

 Cycle  10  Pass 1  IDiag  1:
 RMSU=  1.27D-06    CP:  1.00D+00  3.22D-01
 E= -195.331152126580     Delta-E=       -0.000000229534 Rises=F Damp=F
 DIIS: error= 2.36D-06 at cycle   3 NSaved=   3.
 NSaved= 3 IEnMin= 3 EnMin= -195.331152126580     IErMin= 3 ErrMin= 2.36D-06
 ErrMax= 2.36D-06  0.00D+00 EMaxC= 1.00D-01 BMatC= 3.97D-10 BMatP= 3.90D-08
 IDIUse=1 WtCom= 1.00D+00 WtEn= 0.00D+00
 Coeff-Com:  0.247D+00 0.118D+00 0.635D+00
 Coeff:      0.247D+00 0.118D+00 0.635D+00
 Gap=     0.181 Goal=   None    Shift=    0.000
 RMSDP=3.25D-07 MaxDP=6.08D-06 DE=-2.30D-07 OVMax= 1.04D-05

 Cycle  11  Pass 1  IDiag  1:
 RMSU=  2.82D-07    CP:  1.00D+00  3.38D-01  9.12D-01
 E= -195.331152126960     Delta-E=       -0.000000000380 Rises=F Damp=F
 DIIS: error= 9.71D-07 at cycle   4 NSaved=   4.
 NSaved= 4 IEnMin= 4 EnMin= -195.331152126960     IErMin= 4 ErrMin= 9.71D-07
 ErrMax= 9.71D-07  0.00D+00 EMaxC= 1.00D-01 BMatC= 6.55D-11 BMatP= 3.97D-10
 IDIUse=1 WtCom= 1.00D+00 WtEn= 0.00D+00
 Coeff-Com: -0.259D-02 0.611D-03 0.289D+00 0.713D+00
 Coeff:     -0.259D-02 0.611D-03 0.289D+00 0.713D+00
 Gap=     0.181 Goal=   None    Shift=    0.000
 RMSDP=1.05D-07 MaxDP=1.84D-06 DE=-3.80D-10 OVMax= 2.72D-06

 Cycle  12  Pass 1  IDiag  1:
 RMSU=  5.54D-08    CP:  1.00D+00  3.36D-01  9.49D-01  7.34D-01
 E= -195.331152127023     Delta-E=       -0.000000000063 Rises=F Damp=F
 DIIS: error= 2.48D-07 at cycle   5 NSaved=   5.
 NSaved= 5 IEnMin= 5 EnMin= -195.331152127023     IErMin= 5 ErrMin= 2.48D-07
 ErrMax= 2.48D-07  0.00D+00 EMaxC= 1.00D-01 BMatC= 7.05D-12 BMatP= 6.55D-11
 IDIUse=1 WtCom= 1.00D+00 WtEn= 0.00D+00
 Coeff-Com: -0.760D-02-0.271D-02 0.161D+00 0.432D+00 0.418D+00
 Coeff:     -0.760D-02-0.271D-02 0.161D+00 0.432D+00 0.418D+00
 Gap=     0.181 Goal=   None    Shift=    0.000
 RMSDP=3.17D-08 MaxDP=6.15D-07 DE=-6.27D-11 OVMax= 1.35D-06

 Cycle  13  Pass 1  IDiag  1:
 RMSU=  1.99D-08    CP:  1.00D+00  3.35D-01  9.53D-01  7.67D-01  5.97D-01
 E= -195.331152127030     Delta-E=       -0.000000000007 Rises=F Damp=F
 DIIS: error= 7.05D-08 at cycle   6 NSaved=   6.
 NSaved= 6 IEnMin= 6 EnMin= -195.331152127030     IErMin= 6 ErrMin= 7.05D-08
 ErrMax= 7.05D-08  0.00D+00 EMaxC= 1.00D-01 BMatC= 4.31D-13 BMatP= 7.05D-12
 IDIUse=1 WtCom= 1.00D+00 WtEn= 0.00D+00
 Coeff-Com: -0.407D-02-0.174D-02 0.542D-01 0.154D+00 0.235D+00 0.563D+00
 Coeff:     -0.407D-02-0.174D-02 0.542D-01 0.154D+00 0.235D+00 0.563D+00
 Gap=     0.181 Goal=   None    Shift=    0.000
 RMSDP=8.48D-09 MaxDP=1.32D-07 DE=-7.33D-12 OVMax= 2.98D-07

 SCF Done:  E(RTPSSh) =  -195.331152127     A.U. after   13 cycles
            NFock= 13  Conv=0.85D-08     -V/T= 2.0060
 KE= 1.941651104620D+02 PE=-7.636793472068D+02 EE= 2.183784427975D+02
 Leave Link  502 at Wed Oct  7 14:40:00 2020, MaxMem=  2684354560 cpu:             155.0 elap:              13.3
 (Enter /udrive/faculty/rpeverati/g16/g16/l508.exe)
 QCSCF skips out because SCF is already converged.
 Leave Link  508 at Wed Oct  7 14:40:01 2020, MaxMem=  2684354560 cpu:               0.6 elap:               0.4
 (Enter /udrive/faculty/rpeverati/g16/g16/l601.exe)
 Copying SCF densities to generalized density rwf, IOpCl= 0 IROHF=0.

 **********************************************************************

            Population analysis using the SCF density.

 **********************************************************************

 Orbital symmetries:
       Occupied  (A) (A) (A) (A) (A) (A) (A) (A) (A) (A) (A) (A)
                 (A) (A) (A) (A) (A) (A) (A)
       Virtual   (A) (A) (A) (A) (A) (A) (A) (A) (A) (A) (A) (A)
                 (A) (A) (A) (A) (A) (A) (A) (A) (A) (A) (A) (A)
                 (A) (A) (A) (A) (A) (A) (A) (A) (A) (A) (A) (A)
                 (A) (A) (A) (A) (A) (A) (A) (A) (A) (A) (A) (A)
                 (A) (A) (A) (A) (A) (A) (A) (A) (A) (A) (A) (A)
                 (A) (A) (A) (A) (A) (A) (A)
 The electronic state is 1-A.
 Alpha  occ. eigenvalues --  -10.11843 -10.11820 -10.11327 -10.11296 -10.10840
 Alpha  occ. eigenvalues --   -0.78358  -0.73144  -0.66186  -0.57069  -0.51178
 Alpha  occ. eigenvalues --   -0.45600  -0.42638  -0.39619  -0.38166  -0.36242
 Alpha  occ. eigenvalues --   -0.34823  -0.31319  -0.29367  -0.20586
 Alpha virt. eigenvalues --   -0.02461   0.08086   0.10726   0.11341   0.13735
 Alpha virt. eigenvalues --    0.16623   0.17474   0.17804   0.19796   0.23085
 Alpha virt. eigenvalues --    0.25305   0.33218   0.37827   0.43831   0.47820
 Alpha virt. eigenvalues --    0.52071   0.52596   0.58143   0.59055   0.62494
 Alpha virt. eigenvalues --    0.63170   0.63738   0.68517   0.68639   0.69557
 Alpha virt. eigenvalues --    0.72629   0.78844   0.86510   0.87815   0.89065
 Alpha virt. eigenvalues --    0.90500   0.91446   0.94789   0.96820   0.98382
 Alpha virt. eigenvalues --    1.01370   1.09248   1.12863   1.16824   1.29861
 Alpha virt. eigenvalues --    1.31564   1.36318   1.41165   1.51025   1.53043
 Alpha virt. eigenvalues --    1.54010   1.71589   1.75943   1.84052   1.88727
 Alpha virt. eigenvalues --    1.98333   2.00454   2.03707   2.06941   2.09919
 Alpha virt. eigenvalues --    2.20485   2.27394   2.33290   2.34973   2.42240
 Alpha virt. eigenvalues --    2.49225   2.52861   2.53204   2.68052   2.78010
 Alpha virt. eigenvalues --    2.99116   3.09829
          Condensed to atoms (all electrons):
               1          2          3          4          5          6
     1  C    5.137082   0.374252  -0.043115  -0.014376   0.000622   0.372767
     2  C    0.374252   4.920948   0.655961  -0.034449   0.003280  -0.033516
     3  C   -0.043115   0.655961   4.821221   0.454920  -0.030390  -0.000004
     4  C   -0.014376  -0.034449   0.454920   4.796758   0.623807   0.000320
     5  C    0.000622   0.003280  -0.030390   0.623807   5.099125  -0.000001
     6  H    0.372767  -0.033516  -0.000004   0.000320  -0.000001   0.550335
     7  H    0.372767  -0.033516  -0.000004   0.000320  -0.000001  -0.034509
     8  H    0.375741  -0.033007  -0.006593   0.003291  -0.000072  -0.028409
     9  H   -0.056437   0.368227  -0.031806   0.005126  -0.000206  -0.001214
    10  H    0.005761  -0.043491   0.370664  -0.054346  -0.004998  -0.000147
    11  H    0.002217  -0.005945  -0.046903   0.371695  -0.048890  -0.000088
    12  H    0.000001  -0.000205   0.003467  -0.026943   0.371272  -0.000000
    13  H   -0.000001   0.000289  -0.008661  -0.041270   0.376929   0.000000
               7          8          9         10         11         12
     1  C    0.372767   0.375741  -0.056437   0.005761   0.002217   0.000001
     2  C   -0.033516  -0.033007   0.368227  -0.043491  -0.005945  -0.000205
     3  C   -0.000004  -0.006593  -0.031806   0.370664  -0.046903   0.003467
     4  C    0.000320   0.003291   0.005126  -0.054346   0.371695  -0.026943
     5  C   -0.000001  -0.000072  -0.000206  -0.004998  -0.048890   0.371272
     6  H   -0.034509  -0.028409  -0.001214  -0.000147  -0.000088  -0.000000
     7  H    0.550336  -0.028409  -0.001214  -0.000147  -0.000088  -0.000000
     8  H   -0.028409   0.538157   0.004342   0.000009   0.005092   0.000010
     9  H   -0.001214   0.004342   0.572294  -0.008953  -0.000042   0.000003
    10  H   -0.000147   0.000009  -0.008953   0.580279   0.004755   0.000014
    11  H   -0.000088   0.005092  -0.000042   0.004755   0.570375  -0.005965
    12  H   -0.000000   0.000010   0.000003   0.000014  -0.005965   0.536456
    13  H    0.000000   0.000002  -0.000014   0.005484   0.005156  -0.037805
              13
     1  C   -0.000001
     2  C    0.000289
     3  C   -0.008661
     4  C   -0.041270
     5  C    0.376929
     6  H    0.000000
     7  H    0.000000
     8  H    0.000002
     9  H   -0.000014
    10  H    0.005484
    11  H    0.005156
    12  H   -0.037805
    13  H    0.541803
 Mulliken charges:
               1
     1  C   -0.527282
     2  C   -0.138828
     3  C   -0.138757
     4  C   -0.084854
     5  C   -0.390478
     6  H    0.174466
     7  H    0.174466
     8  H    0.169845
     9  H    0.149895
    10  H    0.145116
    11  H    0.148630
    12  H    0.159695
    13  H    0.158085
 Sum of Mulliken charges =  -0.00000
 Mulliken charges with hydrogens summed into heavy atoms:
               1
     1  C   -0.008505
     2  C    0.011067
     3  C    0.006359
     4  C    0.063776
     5  C   -0.072698
 Electronic spatial extent (au):  <R**2>=            554.3971
 Charge=              0.0000 electrons
 Dipole moment (field-independent basis, Debye):
    X=             -0.4830    Y=             -0.1291    Z=              0.0000  Tot=              0.5000
 Quadrupole moment (field-independent basis, Debye-Ang):
   XX=            -28.6910   YY=            -29.2085   ZZ=            -34.1111
   XY=              0.0584   XZ=             -0.0001   YZ=              0.0003
 Traceless Quadrupole moment (field-independent basis, Debye-Ang):
   XX=              1.9792   YY=              1.4617   ZZ=             -3.4409
   XY=              0.0584   XZ=             -0.0001   YZ=              0.0003
 Octapole moment (field-independent basis, Debye-Ang**2):
  XXX=              0.0437  YYY=              0.8776  ZZZ=              0.0001  XYY=              1.7324
  XXY=              0.4693  XXZ=              0.0001  XZZ=             -3.4976  YZZ=             -0.7455
  YYZ=              0.0000  XYZ=              0.0003
 Hexadecapole moment (field-independent basis, Debye-Ang**3):
 XXXX=           -559.3848 YYYY=           -123.2908 ZZZZ=            -41.6393 XXXY=             -4.2196
 XXXZ=              0.0036 YYYX=             -2.7284 YYYZ=             -0.0013 ZZZX=              0.0044
 ZZZY=             -0.0024 XXYY=           -112.3784 XXZZ=           -108.3319 YYZZ=            -30.6321
 XXYZ=              0.0000 YYXZ=              0.0009 ZZXY=              1.9418
 N-N= 1.558046418203D+02 E-N=-7.636793443430D+02  KE= 1.941651104620D+02
 No NMR shielding tensors so no spin-rotation constants.
 Leave Link  601 at Wed Oct  7 14:40:02 2020, MaxMem=  2684354560 cpu:               4.1 elap:               0.7
 (Enter /udrive/faculty/rpeverati/g16/g16/l701.exe)
 ... and contract with generalized density number  0.
 Compute integral first derivatives.
 R6Disp: Adding Grimme-D3(BJ) dispersion energy 1st derivatives to the gradient.
 Leave Link  701 at Wed Oct  7 14:40:03 2020, MaxMem=  2684354560 cpu:               4.2 elap:               0.7
 (Enter /udrive/faculty/rpeverati/g16/g16/l702.exe)
 L702 exits ... SP integral derivatives will be done elsewhere.
 Leave Link  702 at Wed Oct  7 14:40:04 2020, MaxMem=  2684354560 cpu:               1.3 elap:               0.4
 (Enter /udrive/faculty/rpeverati/g16/g16/l703.exe)
 Integral derivatives from FoFJK, PRISM(SPDF).
 Compute integral first derivatives, UseDBF=F ICtDFT=           0.
 Calling FoFJK, ICntrl=      2127 FMM=F ISym2X=0 I1Cent= 0 IOpClX= 0 NMat=1 NMatS=1 NMatT=0.
 FoFJK:  IHMeth= 1 ICntrl=    2127 DoSepK=F KAlg= 0 I1Cent=           0 FoldK=F
 IRaf=         0 NMat=       1 IRICut=       1 DoRegI=T DoRafI=F ISym2E= 0 IDoP0=0 IntGTp=1.
 FoFCou: FMM=F IPFlag=           0 FMFlag=      100000 FMFlg1=         800
         NFxFlg=           0 DoJE=F BraDBF=F KetDBF=F FulRan=T
         wScrn=  0.000000 ICntrl=      2127 IOpCl=  0 I1Cent=           0 NGrid=           0
         NMat0=    1 NMatS0=      1 NMatT0=    0 NMatD0=    1 NMtDS0=    0 NMtDT0=    0
 Symmetry not used in FoFCou.
 Leave Link  703 at Wed Oct  7 14:40:07 2020, MaxMem=  2684354560 cpu:              30.1 elap:               2.8
 (Enter /udrive/faculty/rpeverati/g16/g16/l716.exe)
 Dipole        =-1.90038470D-01-5.07976218D-02 6.92355684D-07
 ***** Axes restored to original set *****
 -------------------------------------------------------------------
 Center     Atomic                   Forces (Hartrees/Bohr)
 Number     Number              X              Y              Z
 -------------------------------------------------------------------
      1        6           0.001994044    0.002816286   -0.000000238
      2        6          -0.006220607   -0.002233444   -0.000000104
      3        6           0.008755316   -0.005585243   -0.000000425
      4        6          -0.006833941    0.005888881    0.000000368
      5        6           0.003343732   -0.000049300   -0.000000176
      6        1          -0.002867783   -0.000299166    0.003175353
      7        1          -0.002868095   -0.000298892   -0.003175184
      8        1           0.002209916   -0.003130120   -0.000000069
      9        1          -0.002596703    0.002711885    0.000000248
     10        1           0.001992188    0.002985946    0.000000232
     11        1          -0.002094150   -0.003394044   -0.000000035
     12        1           0.003057063   -0.002313370   -0.000000155
     13        1           0.002129018    0.002900580    0.000000184
 -------------------------------------------------------------------
 Cartesian Forces:  Max     0.008755316 RMS     0.003113298
 Leave Link  716 at Wed Oct  7 14:40:08 2020, MaxMem=  2684354560 cpu:               1.6 elap:               0.7
 (Enter /udrive/faculty/rpeverati/g16/g16/l103.exe)

 GradGradGradGradGradGradGradGradGradGradGradGradGradGradGradGradGradGrad
 Berny optimization.
 Optmz: redundant internal coordinate code flag= 1
 FormGI is forming the generalized inverse of G from B-inverse, IUseBI=4.
 Internal  Forces:  Max     0.010354170 RMS     0.002572833
 Search for a local minimum.
 Step number   1 out of a maximum of  100
 All quantities printed in internal units (Hartrees-Bohrs-Radians)
 RMS Force = .25728D-02 SwitMx=.10000D-02 MixMth= 1
 Mixed Optimization -- RFO/linear search
 Second derivative matrix not updated -- first step.
 The second derivative matrix:
                          R1        R2        R3        R4        R5
           R1           0.32406
           R2           0.00000   0.34607
           R3           0.00000   0.00000   0.34607
           R4           0.00000   0.00000   0.00000   0.35136
           R5           0.00000   0.00000   0.00000   0.00000   0.57200
           R6           0.00000   0.00000   0.00000   0.00000   0.00000
           R7           0.00000   0.00000   0.00000   0.00000   0.00000
           R8           0.00000   0.00000   0.00000   0.00000   0.00000
           R9           0.00000   0.00000   0.00000   0.00000   0.00000
           R10          0.00000   0.00000   0.00000   0.00000   0.00000
           R11          0.00000   0.00000   0.00000   0.00000   0.00000
           R12          0.00000   0.00000   0.00000   0.00000   0.00000
           A1           0.00000   0.00000   0.00000   0.00000   0.00000
           A2           0.00000   0.00000   0.00000   0.00000   0.00000
           A3           0.00000   0.00000   0.00000   0.00000   0.00000
           A4           0.00000   0.00000   0.00000   0.00000   0.00000
           A5           0.00000   0.00000   0.00000   0.00000   0.00000
           A6           0.00000   0.00000   0.00000   0.00000   0.00000
           A7           0.00000   0.00000   0.00000   0.00000   0.00000
           A8           0.00000   0.00000   0.00000   0.00000   0.00000
           A9           0.00000   0.00000   0.00000   0.00000   0.00000
           A10          0.00000   0.00000   0.00000   0.00000   0.00000
           A11          0.00000   0.00000   0.00000   0.00000   0.00000
           A12          0.00000   0.00000   0.00000   0.00000   0.00000
           A13          0.00000   0.00000   0.00000   0.00000   0.00000
           A14          0.00000   0.00000   0.00000   0.00000   0.00000
           A15          0.00000   0.00000   0.00000   0.00000   0.00000
           A16          0.00000   0.00000   0.00000   0.00000   0.00000
           A17          0.00000   0.00000   0.00000   0.00000   0.00000
           A18          0.00000   0.00000   0.00000   0.00000   0.00000
           D1           0.00000   0.00000   0.00000   0.00000   0.00000
           D2           0.00000   0.00000   0.00000   0.00000   0.00000
           D3           0.00000   0.00000   0.00000   0.00000   0.00000
           D4           0.00000   0.00000   0.00000   0.00000   0.00000
           D5           0.00000   0.00000   0.00000   0.00000   0.00000
           D6           0.00000   0.00000   0.00000   0.00000   0.00000
           D7           0.00000   0.00000   0.00000   0.00000   0.00000
           D8           0.00000   0.00000   0.00000   0.00000   0.00000
           D9           0.00000   0.00000   0.00000   0.00000   0.00000
           D10          0.00000   0.00000   0.00000   0.00000   0.00000
           D11          0.00000   0.00000   0.00000   0.00000   0.00000
           D12          0.00000   0.00000   0.00000   0.00000   0.00000
           D13          0.00000   0.00000   0.00000   0.00000   0.00000
           D14          0.00000   0.00000   0.00000   0.00000   0.00000
           D15          0.00000   0.00000   0.00000   0.00000   0.00000
           D16          0.00000   0.00000   0.00000   0.00000   0.00000
           D17          0.00000   0.00000   0.00000   0.00000   0.00000
           D18          0.00000   0.00000   0.00000   0.00000   0.00000
                          R6        R7        R8        R9        R10
           R6           0.35460
           R7           0.00000   0.36805
           R8           0.00000   0.00000   0.35436
           R9           0.00000   0.00000   0.00000   0.57749
           R10          0.00000   0.00000   0.00000   0.00000   0.35703
           R11          0.00000   0.00000   0.00000   0.00000   0.00000
           R12          0.00000   0.00000   0.00000   0.00000   0.00000
           A1           0.00000   0.00000   0.00000   0.00000   0.00000
           A2           0.00000   0.00000   0.00000   0.00000   0.00000
           A3           0.00000   0.00000   0.00000   0.00000   0.00000
           A4           0.00000   0.00000   0.00000   0.00000   0.00000
           A5           0.00000   0.00000   0.00000   0.00000   0.00000
           A6           0.00000   0.00000   0.00000   0.00000   0.00000
           A7           0.00000   0.00000   0.00000   0.00000   0.00000
           A8           0.00000   0.00000   0.00000   0.00000   0.00000
           A9           0.00000   0.00000   0.00000   0.00000   0.00000
           A10          0.00000   0.00000   0.00000   0.00000   0.00000
           A11          0.00000   0.00000   0.00000   0.00000   0.00000
           A12          0.00000   0.00000   0.00000   0.00000   0.00000
           A13          0.00000   0.00000   0.00000   0.00000   0.00000
           A14          0.00000   0.00000   0.00000   0.00000   0.00000
           A15          0.00000   0.00000   0.00000   0.00000   0.00000
           A16          0.00000   0.00000   0.00000   0.00000   0.00000
           A17          0.00000   0.00000   0.00000   0.00000   0.00000
           A18          0.00000   0.00000   0.00000   0.00000   0.00000
           D1           0.00000   0.00000   0.00000   0.00000   0.00000
           D2           0.00000   0.00000   0.00000   0.00000   0.00000
           D3           0.00000   0.00000   0.00000   0.00000   0.00000
           D4           0.00000   0.00000   0.00000   0.00000   0.00000
           D5           0.00000   0.00000   0.00000   0.00000   0.00000
           D6           0.00000   0.00000   0.00000   0.00000   0.00000
           D7           0.00000   0.00000   0.00000   0.00000   0.00000
           D8           0.00000   0.00000   0.00000   0.00000   0.00000
           D9           0.00000   0.00000   0.00000   0.00000   0.00000
           D10          0.00000   0.00000   0.00000   0.00000   0.00000
           D11          0.00000   0.00000   0.00000   0.00000   0.00000
           D12          0.00000   0.00000   0.00000   0.00000   0.00000
           D13          0.00000   0.00000   0.00000   0.00000   0.00000
           D14          0.00000   0.00000   0.00000   0.00000   0.00000
           D15          0.00000   0.00000   0.00000   0.00000   0.00000
           D16          0.00000   0.00000   0.00000   0.00000   0.00000
           D17          0.00000   0.00000   0.00000   0.00000   0.00000
           D18          0.00000   0.00000   0.00000   0.00000   0.00000
                          R11       R12       A1        A2        A3
           R11          0.35934
           R12          0.00000   0.35664
           A1           0.00000   0.00000   0.16000
           A2           0.00000   0.00000   0.00000   0.16000
           A3           0.00000   0.00000   0.00000   0.00000   0.16000
           A4           0.00000   0.00000   0.00000   0.00000   0.00000
           A5           0.00000   0.00000   0.00000   0.00000   0.00000
           A6           0.00000   0.00000   0.00000   0.00000   0.00000
           A7           0.00000   0.00000   0.00000   0.00000   0.00000
           A8           0.00000   0.00000   0.00000   0.00000   0.00000
           A9           0.00000   0.00000   0.00000   0.00000   0.00000
           A10          0.00000   0.00000   0.00000   0.00000   0.00000
           A11          0.00000   0.00000   0.00000   0.00000   0.00000
           A12          0.00000   0.00000   0.00000   0.00000   0.00000
           A13          0.00000   0.00000   0.00000   0.00000   0.00000
           A14          0.00000   0.00000   0.00000   0.00000   0.00000
           A15          0.00000   0.00000   0.00000   0.00000   0.00000
           A16          0.00000   0.00000   0.00000   0.00000   0.00000
           A17          0.00000   0.00000   0.00000   0.00000   0.00000
           A18          0.00000   0.00000   0.00000   0.00000   0.00000
           D1           0.00000   0.00000   0.00000   0.00000   0.00000
           D2           0.00000   0.00000   0.00000   0.00000   0.00000
           D3           0.00000   0.00000   0.00000   0.00000   0.00000
           D4           0.00000   0.00000   0.00000   0.00000   0.00000
           D5           0.00000   0.00000   0.00000   0.00000   0.00000
           D6           0.00000   0.00000   0.00000   0.00000   0.00000
           D7           0.00000   0.00000   0.00000   0.00000   0.00000
           D8           0.00000   0.00000   0.00000   0.00000   0.00000
           D9           0.00000   0.00000   0.00000   0.00000   0.00000
           D10          0.00000   0.00000   0.00000   0.00000   0.00000
           D11          0.00000   0.00000   0.00000   0.00000   0.00000
           D12          0.00000   0.00000   0.00000   0.00000   0.00000
           D13          0.00000   0.00000   0.00000   0.00000   0.00000
           D14          0.00000   0.00000   0.00000   0.00000   0.00000
           D15          0.00000   0.00000   0.00000   0.00000   0.00000
           D16          0.00000   0.00000   0.00000   0.00000   0.00000
           D17          0.00000   0.00000   0.00000   0.00000   0.00000
           D18          0.00000   0.00000   0.00000   0.00000   0.00000
                          A4        A5        A6        A7        A8
           A4           0.16000
           A5           0.00000   0.16000
           A6           0.00000   0.00000   0.16000
           A7           0.00000   0.00000   0.00000   0.25000
           A8           0.00000   0.00000   0.00000   0.00000   0.16000
           A9           0.00000   0.00000   0.00000   0.00000   0.00000
           A10          0.00000   0.00000   0.00000   0.00000   0.00000
           A11          0.00000   0.00000   0.00000   0.00000   0.00000
           A12          0.00000   0.00000   0.00000   0.00000   0.00000
           A13          0.00000   0.00000   0.00000   0.00000   0.00000
           A14          0.00000   0.00000   0.00000   0.00000   0.00000
           A15          0.00000   0.00000   0.00000   0.00000   0.00000
           A16          0.00000   0.00000   0.00000   0.00000   0.00000
           A17          0.00000   0.00000   0.00000   0.00000   0.00000
           A18          0.00000   0.00000   0.00000   0.00000   0.00000
           D1           0.00000   0.00000   0.00000   0.00000   0.00000
           D2           0.00000   0.00000   0.00000   0.00000   0.00000
           D3           0.00000   0.00000   0.00000   0.00000   0.00000
           D4           0.00000   0.00000   0.00000   0.00000   0.00000
           D5           0.00000   0.00000   0.00000   0.00000   0.00000
           D6           0.00000   0.00000   0.00000   0.00000   0.00000
           D7           0.00000   0.00000   0.00000   0.00000   0.00000
           D8           0.00000   0.00000   0.00000   0.00000   0.00000
           D9           0.00000   0.00000   0.00000   0.00000   0.00000
           D10          0.00000   0.00000   0.00000   0.00000   0.00000
           D11          0.00000   0.00000   0.00000   0.00000   0.00000
           D12          0.00000   0.00000   0.00000   0.00000   0.00000
           D13          0.00000   0.00000   0.00000   0.00000   0.00000
           D14          0.00000   0.00000   0.00000   0.00000   0.00000
           D15          0.00000   0.00000   0.00000   0.00000   0.00000
           D16          0.00000   0.00000   0.00000   0.00000   0.00000
           D17          0.00000   0.00000   0.00000   0.00000   0.00000
           D18          0.00000   0.00000   0.00000   0.00000   0.00000
                          A9        A10       A11       A12       A13
           A9           0.16000
           A10          0.00000   0.25000
           A11          0.00000   0.00000   0.16000
           A12          0.00000   0.00000   0.00000   0.16000
           A13          0.00000   0.00000   0.00000   0.00000   0.25000
           A14          0.00000   0.00000   0.00000   0.00000   0.00000
           A15          0.00000   0.00000   0.00000   0.00000   0.00000
           A16          0.00000   0.00000   0.00000   0.00000   0.00000
           A17          0.00000   0.00000   0.00000   0.00000   0.00000
           A18          0.00000   0.00000   0.00000   0.00000   0.00000
           D1           0.00000   0.00000   0.00000   0.00000   0.00000
           D2           0.00000   0.00000   0.00000   0.00000   0.00000
           D3           0.00000   0.00000   0.00000   0.00000   0.00000
           D4           0.00000   0.00000   0.00000   0.00000   0.00000
           D5           0.00000   0.00000   0.00000   0.00000   0.00000
           D6           0.00000   0.00000   0.00000   0.00000   0.00000
           D7           0.00000   0.00000   0.00000   0.00000   0.00000
           D8           0.00000   0.00000   0.00000   0.00000   0.00000
           D9           0.00000   0.00000   0.00000   0.00000   0.00000
           D10          0.00000   0.00000   0.00000   0.00000   0.00000
           D11          0.00000   0.00000   0.00000   0.00000   0.00000
           D12          0.00000   0.00000   0.00000   0.00000   0.00000
           D13          0.00000   0.00000   0.00000   0.00000   0.00000
           D14          0.00000   0.00000   0.00000   0.00000   0.00000
           D15          0.00000   0.00000   0.00000   0.00000   0.00000
           D16          0.00000   0.00000   0.00000   0.00000   0.00000
           D17          0.00000   0.00000   0.00000   0.00000   0.00000
           D18          0.00000   0.00000   0.00000   0.00000   0.00000
                          A14       A15       A16       A17       A18
           A14          0.16000
           A15          0.00000   0.16000
           A16          0.00000   0.00000   0.16000
           A17          0.00000   0.00000   0.00000   0.16000
           A18          0.00000   0.00000   0.00000   0.00000   0.16000
           D1           0.00000   0.00000   0.00000   0.00000   0.00000
           D2           0.00000   0.00000   0.00000   0.00000   0.00000
           D3           0.00000   0.00000   0.00000   0.00000   0.00000
           D4           0.00000   0.00000   0.00000   0.00000   0.00000
           D5           0.00000   0.00000   0.00000   0.00000   0.00000
           D6           0.00000   0.00000   0.00000   0.00000   0.00000
           D7           0.00000   0.00000   0.00000   0.00000   0.00000
           D8           0.00000   0.00000   0.00000   0.00000   0.00000
           D9           0.00000   0.00000   0.00000   0.00000   0.00000
           D10          0.00000   0.00000   0.00000   0.00000   0.00000
           D11          0.00000   0.00000   0.00000   0.00000   0.00000
           D12          0.00000   0.00000   0.00000   0.00000   0.00000
           D13          0.00000   0.00000   0.00000   0.00000   0.00000
           D14          0.00000   0.00000   0.00000   0.00000   0.00000
           D15          0.00000   0.00000   0.00000   0.00000   0.00000
           D16          0.00000   0.00000   0.00000   0.00000   0.00000
           D17          0.00000   0.00000   0.00000   0.00000   0.00000
           D18          0.00000   0.00000   0.00000   0.00000   0.00000
                          D1        D2        D3        D4        D5
           D1           0.00770
           D2           0.00000   0.00770
           D3           0.00000   0.00000   0.00770
           D4           0.00000   0.00000   0.00000   0.00770
           D5           0.00000   0.00000   0.00000   0.00000   0.00770
           D6           0.00000   0.00000   0.00000   0.00000   0.00000
           D7           0.00000   0.00000   0.00000   0.00000   0.00000
           D8           0.00000   0.00000   0.00000   0.00000   0.00000
           D9           0.00000   0.00000   0.00000   0.00000   0.00000
           D10          0.00000   0.00000   0.00000   0.00000   0.00000
           D11          0.00000   0.00000   0.00000   0.00000   0.00000
           D12          0.00000   0.00000   0.00000   0.00000   0.00000
           D13          0.00000   0.00000   0.00000   0.00000   0.00000
           D14          0.00000   0.00000   0.00000   0.00000   0.00000
           D15          0.00000   0.00000   0.00000   0.00000   0.00000
           D16          0.00000   0.00000   0.00000   0.00000   0.00000
           D17          0.00000   0.00000   0.00000   0.00000   0.00000
           D18          0.00000   0.00000   0.00000   0.00000   0.00000
                          D6        D7        D8        D9        D10
           D6           0.00770
           D7           0.00000   0.02882
           D8           0.00000   0.00000   0.02882
           D9           0.00000   0.00000   0.00000   0.02882
           D10          0.00000   0.00000   0.00000   0.00000   0.02882
           D11          0.00000   0.00000   0.00000   0.00000   0.00000
           D12          0.00000   0.00000   0.00000   0.00000   0.00000
           D13          0.00000   0.00000   0.00000   0.00000   0.00000
           D14          0.00000   0.00000   0.00000   0.00000   0.00000
           D15          0.00000   0.00000   0.00000   0.00000   0.00000
           D16          0.00000   0.00000   0.00000   0.00000   0.00000
           D17          0.00000   0.00000   0.00000   0.00000   0.00000
           D18          0.00000   0.00000   0.00000   0.00000   0.00000
                          D11       D12       D13       D14       D15
           D11          0.01278
           D12          0.00000   0.01278
           D13          0.00000   0.00000   0.01278
           D14          0.00000   0.00000   0.00000   0.01278
           D15          0.00000   0.00000   0.00000   0.00000   0.02914
           D16          0.00000   0.00000   0.00000   0.00000   0.00000
           D17          0.00000   0.00000   0.00000   0.00000   0.00000
           D18          0.00000   0.00000   0.00000   0.00000   0.00000
                          D16       D17       D18
           D16          0.02914
           D17          0.00000   0.02914
           D18          0.00000   0.00000   0.02914
 ITU=  0
 Eigenvectors of the second derivative matrix:
                           1         2         3         4         5
     Eigenvalues --     0.00770   0.01278   0.01631   0.02098   0.02102
   1         R1         0.00000   0.00000  -0.00000   0.00000  -0.00000
   2         R2         0.00000   0.00000   0.00000   0.00000  -0.00000
   3         R3         0.00000  -0.00000   0.00000   0.00000   0.00000
   4         R4         0.00000   0.00000  -0.00000   0.00000   0.00000
   5         R5         0.00000   0.00000   0.00000   0.00000   0.00000
   6         R6         0.00000  -0.00000  -0.00000  -0.00000  -0.00000
   7         R7         0.00000   0.00000  -0.00000   0.00000  -0.00000
   8         R8        -0.00000   0.00000   0.00000   0.00000  -0.00000
   9         R9        -0.00000   0.00000  -0.00000  -0.00000  -0.00000
  10         R10        0.00000  -0.00000   0.00000   0.00000   0.00000
  11         R11        0.00000   0.00000   0.00000  -0.00000  -0.00000
  12         R12       -0.00000  -0.00000   0.00000  -0.00000   0.00000
  13         A1         0.00000   0.00000  -0.00000  -0.00000  -0.00000
  14         A2        -0.00000  -0.00000   0.00000   0.00000   0.00000
  15         A3         0.00000  -0.00000   0.00000   0.00000  -0.00000
  16         A4         0.00000   0.00000  -0.00000  -0.00000  -0.00000
  17         A5         0.00000  -0.00000   0.00000  -0.00000  -0.00000
  18         A6        -0.00000   0.00000  -0.00000   0.00000   0.00000
  19         A7        -0.00000   0.00000   0.00000  -0.00000   0.00000
  20         A8        -0.00000  -0.00000   0.00000  -0.00000  -0.00000
  21         A9         0.00000  -0.00000   0.00000   0.00000   0.00000
  22         A10        0.00000  -0.00000  -0.00000   0.00000  -0.00000
  23         A11        0.00000   0.00000  -0.00000   0.00000   0.00000
  24         A12       -0.00000   0.00000   0.00000   0.00000  -0.00000
  25         A13       -0.00000   0.00000   0.00000  -0.00000  -0.00000
  26         A14        0.00000   0.00000  -0.00000   0.00000  -0.00000
  27         A15       -0.00000  -0.00000   0.00000  -0.00000  -0.00000
  28         A16       -0.00000   0.00000  -0.00000   0.00000   0.00000
  29         A17       -0.00000  -0.00000  -0.00000   0.00000  -0.00000
  30         A18        0.00000  -0.00000   0.00000  -0.00000   0.00000
  31         D1         0.40825   0.00000  -0.31421   0.00000   0.00000
  32         D2         0.40825   0.00000   0.31421  -0.00000  -0.00000
  33         D3         0.40825   0.00000  -0.31421   0.00000   0.00000
  34         D4         0.40825   0.00000   0.31421  -0.00000  -0.00000
  35         D5         0.40825   0.00000  -0.31421   0.00000   0.00000
  36         D6         0.40825   0.00000   0.31421  -0.00000  -0.00000
  37         D7         0.00000   0.00000   0.31923   0.35747   0.00000
  38         D8        -0.00000   0.00000   0.31923  -0.35747  -0.00000
  39         D9        -0.00000   0.00000  -0.31923   0.35747   0.00000
  40         D10       -0.00000   0.00000  -0.31923  -0.35747  -0.00000
  41         D11        0.00000  -0.50000  -0.00000  -0.34959   0.35241
  42         D12        0.00000  -0.50000  -0.00000  -0.34959  -0.35241
  43         D13        0.00000  -0.50000   0.00000   0.34959   0.35241
  44         D14        0.00000  -0.50000  -0.00000   0.34959  -0.35241
  45         D15        0.00000  -0.00000  -0.00000   0.00000  -0.35470
  46         D16        0.00000  -0.00000  -0.00000   0.00000  -0.35470
  47         D17        0.00000  -0.00000   0.00000  -0.00000   0.35470
  48         D18        0.00000   0.00000   0.00000  -0.00000   0.35470
                           6         7         8         9        10
     Eigenvalues --     0.02882   0.02914   0.02914   0.07004   0.07359
   1         R1        -0.00000  -0.00000  -0.00000   0.00000   0.00000
   2         R2        -0.00000   0.00000  -0.00000   0.00000  -0.00000
   3         R3        -0.00000  -0.00000  -0.00000  -0.00000  -0.00000
   4         R4         0.00000   0.00000   0.00000  -0.00000   0.00000
   5         R5         0.00000  -0.00000   0.00000   0.00000  -0.00000
   6         R6         0.00000  -0.00000   0.00000  -0.00000   0.00000
   7         R7         0.00000  -0.00000   0.00000  -0.00000   0.00000
   8         R8        -0.00000  -0.00000  -0.00000  -0.00000  -0.00000
   9         R9        -0.00000   0.00000   0.00000  -0.00000  -0.00000
  10         R10        0.00000  -0.00000   0.00000   0.00000   0.00000
  11         R11       -0.00000  -0.00000  -0.00000  -0.00000   0.00000
  12         R12        0.00000  -0.00000  -0.00000  -0.00000  -0.00000
  13         A1        -0.00000   0.00000   0.00000  -0.22017  -0.11924
  14         A2        -0.00000   0.00000  -0.00000   0.22018  -0.11923
  15         A3        -0.00000  -0.00000   0.00000  -0.00001   0.24467
  16         A4         0.00000  -0.00000  -0.00000   0.00001  -0.48989
  17         A5         0.00000  -0.00000   0.00000  -0.39522   0.22843
  18         A6         0.00000   0.00000  -0.00000   0.39521   0.22845
  19         A7        -0.00000  -0.00000   0.00000  -0.00000   0.00000
  20         A8         0.00000   0.00000  -0.00000  -0.00000  -0.00000
  21         A9        -0.00000  -0.00000   0.00000   0.00000   0.00000
  22         A10        0.00000   0.00000  -0.00000  -0.00000  -0.00000
  23         A11        0.00000   0.00000  -0.00000  -0.00000   0.00000
  24         A12       -0.00000  -0.00000   0.00000   0.00000  -0.00000
  25         A13        0.00000  -0.00000   0.00000  -0.00000  -0.00000
  26         A14       -0.00000  -0.00000  -0.00000  -0.00000   0.00000
  27         A15        0.00000  -0.00000  -0.00000   0.00000   0.00000
  28         A16       -0.00000   0.00000  -0.00000  -0.00000   0.00000
  29         A17        0.00000   0.00000  -0.00000  -0.00000  -0.00000
  30         A18       -0.00000   0.00000  -0.00000   0.00000  -0.00000
  31         D1        -0.00000   0.00000   0.00000  -0.22187   0.37661
  32         D2        -0.00000   0.00000   0.00000  -0.22187   0.37661
  33         D3        -0.00000   0.00000   0.00000  -0.22185  -0.37662
  34         D4        -0.00000   0.00000   0.00000  -0.22185  -0.37662
  35         D5        -0.00000   0.00000   0.00000   0.44372   0.00001
  36         D6        -0.00000   0.00000   0.00000   0.44372   0.00001
  37         D7        -0.50000  -0.00000   0.00000  -0.00000  -0.00000
  38         D8        -0.50000  -0.00000   0.00000   0.00000  -0.00000
  39         D9        -0.50000  -0.00000   0.00000  -0.00000   0.00000
  40         D10       -0.50000  -0.00000   0.00000   0.00000   0.00000
  41         D11       -0.00000   0.00000   0.00000   0.00000  -0.00000
  42         D12       -0.00000   0.00000   0.00000   0.00000  -0.00000
  43         D13       -0.00000   0.00000  -0.00000  -0.00000  -0.00000
  44         D14       -0.00000   0.00000  -0.00000  -0.00000  -0.00000
  45         D15        0.00000  -0.68954  -0.15666   0.00000   0.00000
  46         D16       -0.00000   0.15666  -0.68954  -0.00000  -0.00000
  47         D17        0.00000  -0.68954  -0.15666   0.00000   0.00000
  48         D18       -0.00000   0.15666  -0.68954  -0.00000  -0.00000
                          11        12        13        14        15
     Eigenvalues --     0.16000   0.16000   0.16000   0.16000   0.16000
   1         R1        -0.00000  -0.00000  -0.00000  -0.00000  -0.00000
   2         R2         0.00000   0.00000   0.00000  -0.00000  -0.00000
   3         R3         0.00000   0.00000  -0.00000  -0.00000  -0.00000
   4         R4        -0.00000  -0.00000   0.00000   0.00000   0.00000
   5         R5        -0.00000   0.00000   0.00000  -0.00000   0.00000
   6         R6        -0.00000   0.00000   0.00000  -0.00000   0.00000
   7         R7        -0.00000   0.00000   0.00000   0.00000   0.00000
   8         R8        -0.00000   0.00000   0.00000  -0.00000  -0.00000
   9         R9        -0.00000   0.00000  -0.00000   0.00000  -0.00000
  10         R10       -0.00000   0.00000  -0.00000  -0.00000   0.00000
  11         R11        0.00000  -0.00000   0.00000   0.00000  -0.00000
  12         R12        0.00000   0.00000   0.00000  -0.00000   0.00000
  13         A1        -0.00052  -0.00249   0.63647  -0.11152  -0.15991
  14         A2        -0.00125  -0.00260   0.29715  -0.12512  -0.14249
  15         A3         0.00078  -0.00411  -0.03508   0.00618   0.51476
  16         A4         0.00089   0.00256  -0.46978   0.11907   0.15216
  17         A5        -0.00013   0.00359  -0.33580   0.05882  -0.18657
  18         A6         0.00028   0.00365  -0.14676   0.06640  -0.19628
  19         A7         0.00000  -0.00000  -0.00000   0.00000  -0.00000
  20         A8        -0.00186  -0.70706  -0.00140   0.00486  -0.00040
  21         A9         0.00186   0.70706   0.00140  -0.00486   0.00040
  22         A10       -0.00000   0.00000  -0.00000  -0.00000   0.00000
  23         A11        0.70710  -0.00186   0.00064   0.00032  -0.00099
  24         A12       -0.70710   0.00186  -0.00064  -0.00032   0.00099
  25         A13       -0.00000  -0.00000  -0.00000  -0.00000  -0.00000
  26         A14        0.00075  -0.00261  -0.05471  -0.59228   0.29835
  27         A15       -0.00075   0.00261   0.05471   0.59228  -0.29835
  28         A16        0.00004   0.00295   0.16015   0.39805   0.50893
  29         A17       -0.00069  -0.00621  -0.31021  -0.27157  -0.36874
  30         A18        0.00065   0.00326   0.15007  -0.12648  -0.14019
  31         D1        -0.00000  -0.00000  -0.00000   0.00000  -0.00000
  32         D2         0.00000   0.00000   0.00000  -0.00000   0.00000
  33         D3        -0.00000  -0.00000  -0.00000   0.00000  -0.00000
  34         D4         0.00000   0.00000   0.00000  -0.00000   0.00000
  35         D5        -0.00000  -0.00000  -0.00000   0.00000  -0.00000
  36         D6         0.00000   0.00000   0.00000  -0.00000   0.00000
  37         D7        -0.00000  -0.00000  -0.00000   0.00000   0.00000
  38         D8         0.00000  -0.00000  -0.00000   0.00000  -0.00000
  39         D9        -0.00000   0.00000   0.00000  -0.00000   0.00000
  40         D10        0.00000   0.00000   0.00000  -0.00000  -0.00000
  41         D11       -0.00000   0.00000  -0.00000  -0.00000   0.00000
  42         D12       -0.00000   0.00000   0.00000   0.00000  -0.00000
  43         D13        0.00000  -0.00000  -0.00000  -0.00000   0.00000
  44         D14        0.00000  -0.00000   0.00000   0.00000  -0.00000
  45         D15        0.00000  -0.00000  -0.00000  -0.00000   0.00000
  46         D16        0.00000  -0.00000  -0.00000  -0.00000   0.00000
  47         D17       -0.00000   0.00000   0.00000   0.00000  -0.00000
  48         D18       -0.00000   0.00000   0.00000   0.00000  -0.00000
                          16        17        18        19        20
     Eigenvalues --     0.16000   0.16000   0.16000   0.22000   0.22000
   1         R1         0.00000  -0.00000  -0.00000  -0.00000   0.00000
   2         R2        -0.00000  -0.00000  -0.00000   0.00000  -0.00000
   3         R3         0.00000  -0.00000   0.00000   0.00000   0.00000
   4         R4         0.00000   0.00000   0.00000   0.00000  -0.00000
   5         R5         0.00000  -0.00000   0.00000  -0.00000   0.00000
   6         R6        -0.00000   0.00000  -0.00000   0.00000  -0.00000
   7         R7        -0.00000   0.00000   0.00000  -0.00000   0.00000
   8         R8        -0.00000  -0.00000   0.00000   0.00000   0.00000
   9         R9        -0.00000   0.00000   0.00000  -0.00000   0.00000
  10         R10       -0.00000  -0.00000   0.00000   0.00000   0.00000
  11         R11        0.00000   0.00000  -0.00000  -0.00000  -0.00000
  12         R12       -0.00000   0.00000  -0.00000   0.00000  -0.00000
  13         A1         0.38833   0.28476   0.00850  -0.00000   0.00000
  14         A2        -0.39840  -0.56715   0.26535  -0.00000   0.00000
  15         A3        -0.34335   0.43774   0.31929  -0.00000   0.00000
  16         A4         0.00507   0.14210  -0.13780   0.00000  -0.00000
  17         A5        -0.03247  -0.39306  -0.17572   0.00000  -0.00000
  18         A6         0.40582   0.08155  -0.31881   0.00000  -0.00000
  19         A7         0.00000  -0.00000  -0.00000  -0.00668   0.81647
  20         A8         0.00029  -0.00158  -0.00622   0.00334  -0.40823
  21         A9        -0.00029   0.00158   0.00622   0.00334  -0.40823
  22         A10       -0.00000   0.00000   0.00000  -0.00357  -0.00239
  23         A11        0.00003  -0.00066   0.00085   0.00179   0.00119
  24         A12       -0.00003   0.00066  -0.00085   0.00179   0.00119
  25         A13        0.00000   0.00000   0.00000  -0.81646  -0.00667
  26         A14        0.14559  -0.13675  -0.13153   0.40823   0.00333
  27         A15       -0.14559   0.13675   0.13153   0.40823   0.00333
  28         A16        0.31778  -0.34992   0.01088  -0.00000  -0.00000
  29         A17        0.16742   0.13482   0.56078   0.00000   0.00000
  30         A18       -0.48520   0.21510  -0.57166  -0.00000  -0.00000
  31         D1         0.00000  -0.00000  -0.00000   0.00000  -0.00000
  32         D2        -0.00000   0.00000   0.00000  -0.00000   0.00000
  33         D3         0.00000  -0.00000  -0.00000   0.00000  -0.00000
  34         D4        -0.00000   0.00000   0.00000  -0.00000   0.00000
  35         D5         0.00000  -0.00000  -0.00000   0.00000  -0.00000
  36         D6        -0.00000   0.00000   0.00000  -0.00000   0.00000
  37         D7         0.00000  -0.00000  -0.00000  -0.00000   0.00000
  38         D8         0.00000  -0.00000  -0.00000   0.00000   0.00000
  39         D9        -0.00000   0.00000   0.00000  -0.00000  -0.00000
  40         D10       -0.00000   0.00000   0.00000   0.00000  -0.00000
  41         D11        0.00000  -0.00000  -0.00000   0.00000   0.00000
  42         D12       -0.00000   0.00000   0.00000  -0.00000   0.00000
  43         D13        0.00000  -0.00000  -0.00000   0.00000  -0.00000
  44         D14       -0.00000   0.00000   0.00000  -0.00000  -0.00000
  45         D15        0.00000  -0.00000  -0.00000  -0.00000  -0.00000
  46         D16        0.00000  -0.00000  -0.00000  -0.00000  -0.00000
  47         D17       -0.00000   0.00000   0.00000   0.00000   0.00000
  48         D18       -0.00000   0.00000   0.00000   0.00000   0.00000
                          21        22        23        24        25
     Eigenvalues --     0.22000   0.32406   0.34607   0.34607   0.35136
   1         R1         0.00000   1.00000   0.00000  -0.00000   0.00000
   2         R2         0.00000  -0.00000   0.00000  -1.00000  -0.00000
   3         R3        -0.00000  -0.00000   1.00000   0.00000  -0.00000
   4         R4         0.00000   0.00000  -0.00000   0.00000  -1.00000
   5         R5         0.00000   0.00000   0.00000   0.00000  -0.00000
   6         R6         0.00000   0.00000   0.00000   0.00000  -0.00000
   7         R7        -0.00000   0.00000   0.00000  -0.00000   0.00000
   8         R8        -0.00000  -0.00000  -0.00000  -0.00000  -0.00000
   9         R9         0.00000  -0.00000   0.00000  -0.00000  -0.00000
  10         R10       -0.00000  -0.00000   0.00000  -0.00000  -0.00000
  11         R11        0.00000  -0.00000   0.00000   0.00000  -0.00000
  12         R12        0.00000   0.00000   0.00000   0.00000  -0.00000
  13         A1        -0.00000   0.00000   0.00000  -0.00000   0.00000
  14         A2         0.00000  -0.00000  -0.00000   0.00000  -0.00000
  15         A3        -0.00000   0.00000  -0.00000  -0.00000   0.00000
  16         A4         0.00000   0.00000  -0.00000  -0.00000  -0.00000
  17         A5         0.00000  -0.00000  -0.00000   0.00000  -0.00000
  18         A6         0.00000  -0.00000   0.00000  -0.00000  -0.00000
  19         A7         0.00236  -0.00000  -0.00000   0.00000  -0.00000
  20         A8        -0.00118  -0.00000   0.00000  -0.00000   0.00000
  21         A9        -0.00118   0.00000  -0.00000   0.00000   0.00000
  22         A10        0.81649  -0.00000   0.00000   0.00000   0.00000
  23         A11       -0.40824   0.00000  -0.00000   0.00000   0.00000
  24         A12       -0.40824  -0.00000   0.00000  -0.00000   0.00000
  25         A13       -0.00359  -0.00000   0.00000  -0.00000  -0.00000
  26         A14        0.00180  -0.00000  -0.00000   0.00000   0.00000
  27         A15        0.00180   0.00000  -0.00000   0.00000   0.00000
  28         A16        0.00000   0.00000   0.00000  -0.00000   0.00000
  29         A17       -0.00000  -0.00000  -0.00000  -0.00000  -0.00000
  30         A18        0.00000   0.00000   0.00000   0.00000  -0.00000
  31         D1        -0.00000  -0.00000   0.00000  -0.00000   0.00000
  32         D2         0.00000  -0.00000  -0.00000  -0.00000   0.00000
  33         D3        -0.00000   0.00000  -0.00000   0.00000   0.00000
  34         D4         0.00000   0.00000  -0.00000   0.00000  -0.00000
  35         D5        -0.00000  -0.00000  -0.00000  -0.00000  -0.00000
  36         D6         0.00000  -0.00000  -0.00000  -0.00000  -0.00000
  37         D7         0.00000  -0.00000  -0.00000   0.00000  -0.00000
  38         D8        -0.00000   0.00000  -0.00000  -0.00000   0.00000
  39         D9         0.00000  -0.00000  -0.00000  -0.00000   0.00000
  40         D10       -0.00000  -0.00000  -0.00000   0.00000  -0.00000
  41         D11       -0.00000   0.00000   0.00000   0.00000  -0.00000
  42         D12       -0.00000   0.00000  -0.00000   0.00000  -0.00000
  43         D13        0.00000  -0.00000  -0.00000  -0.00000  -0.00000
  44         D14        0.00000  -0.00000  -0.00000   0.00000  -0.00000
  45         D15       -0.00000  -0.00000  -0.00000  -0.00000  -0.00000
  46         D16       -0.00000  -0.00000  -0.00000   0.00000   0.00000
  47         D17        0.00000  -0.00000  -0.00000  -0.00000  -0.00000
  48         D18        0.00000   0.00000  -0.00000   0.00000   0.00000
                          26        27        28        29        30
     Eigenvalues --     0.35436   0.35460   0.35664   0.35703   0.35934
   1         R1        -0.00000  -0.00000   0.00000  -0.00000  -0.00000
   2         R2         0.00000   0.00000  -0.00000  -0.00000  -0.00000
   3         R3        -0.00000  -0.00000   0.00000  -0.00000   0.00000
   4         R4         0.00000  -0.00000   0.00000  -0.00000   0.00000
   5         R5        -0.00000  -0.00000  -0.00000  -0.00000   0.00000
   6         R6         0.00000   1.00000  -0.00000   0.00000  -0.00000
   7         R7        -0.00000  -0.00000   0.00000   0.00000   0.00000
   8         R8        -1.00000   0.00000  -0.00000  -0.00000   0.00000
   9         R9        -0.00000  -0.00000  -0.00000   0.00000  -0.00000
  10         R10       -0.00000  -0.00000  -0.00000   1.00000   0.00000
  11         R11       -0.00000  -0.00000   0.00000   0.00000  -1.00000
  12         R12        0.00000  -0.00000  -1.00000  -0.00000  -0.00000
  13         A1        -0.00000  -0.00000   0.00000   0.00000   0.00000
  14         A2         0.00000   0.00000  -0.00000  -0.00000  -0.00000
  15         A3         0.00000  -0.00000   0.00000  -0.00000  -0.00000
  16         A4        -0.00000  -0.00000   0.00000  -0.00000   0.00000
  17         A5        -0.00000   0.00000  -0.00000   0.00000   0.00000
  18         A6        -0.00000   0.00000  -0.00000   0.00000   0.00000
  19         A7         0.00000   0.00000  -0.00000  -0.00000  -0.00000
  20         A8        -0.00000  -0.00000  -0.00000   0.00000   0.00000
  21         A9        -0.00000  -0.00000   0.00000  -0.00000  -0.00000
  22         A10       -0.00000  -0.00000   0.00000   0.00000   0.00000
  23         A11       -0.00000   0.00000  -0.00000  -0.00000   0.00000
  24         A12        0.00000   0.00000   0.00000  -0.00000  -0.00000
[...]
   A15        2.07205  -0.00001  -0.00009   0.00001  -0.00008   2.07197
   A16        2.12640  -0.00002   0.00002  -0.00013  -0.00011   2.12629
   A17        2.11964   0.00002   0.00001   0.00015   0.00016   2.11980
   A18        2.03715  -0.00000  -0.00003  -0.00002  -0.00005   2.03710
    D1        2.11294  -0.00000   0.00002  -0.00003  -0.00001   2.11293
    D2       -1.02865  -0.00000   0.00002  -0.00003  -0.00001  -1.02866
    D3       -2.11295   0.00000  -0.00002   0.00003   0.00001  -2.11293
    D4        1.02865   0.00000  -0.00002   0.00003   0.00001   1.02866
    D5       -0.00000   0.00000   0.00000   0.00000   0.00000  -0.00000
    D6        3.14159   0.00000   0.00000   0.00000   0.00000   3.14159
    D7        0.00000   0.00000   0.00000   0.00000   0.00000   0.00000
    D8       -3.14159  -0.00000  -0.00000  -0.00000  -0.00000  -3.14159
    D9        3.14159   0.00000   0.00000   0.00000   0.00000   3.14159
   D10       -0.00000  -0.00000  -0.00000  -0.00000  -0.00000  -0.00000
   D11       -3.14159  -0.00000  -0.00000  -0.00000  -0.00000  -3.14159
   D12        0.00000  -0.00000  -0.00000  -0.00000  -0.00000   0.00000
   D13        0.00000  -0.00000  -0.00000  -0.00000  -0.00000   0.00000
   D14       -3.14159  -0.00000  -0.00000  -0.00000  -0.00000  -3.14159
   D15        3.14159   0.00000   0.00000  -0.00000   0.00000   3.14159
   D16       -0.00000   0.00000   0.00000   0.00000   0.00000   0.00000
   D17       -0.00000   0.00000   0.00000   0.00000   0.00000  -0.00000
   D18        3.14159   0.00000   0.00000   0.00000   0.00000  -3.14159
         Item               Value     Threshold  Converged?
 Maximum Force            0.000051     0.000450     YES
 RMS     Force            0.000013     0.000300     YES
 Maximum Displacement     0.000740     0.001800     YES
 RMS     Displacement     0.000213     0.001200     YES
 Predicted change in Energy=-1.673684D-08
 Optimization completed.
    -- Stationary point found.
                           ----------------------------
                           !   Optimized Parameters   !
                           ! (Angstroms and Degrees)  !
 --------------------------                            --------------------------
 ! Name  Definition              Value          Derivative Info.                !
 --------------------------------------------------------------------------------
 ! R1    R(1,2)                  1.5012         -DE/DX =    0.0                 !
 ! R2    R(1,6)                  1.0984         -DE/DX =    0.0                 !
 ! R3    R(1,7)                  1.0984         -DE/DX =    0.0                 !
 ! R4    R(1,8)                  1.093          -DE/DX =    0.0                 !
 ! R5    R(2,3)                  1.3491         -DE/DX =    0.0                 !
 ! R6    R(2,9)                  1.0896         -DE/DX =    0.0                 !
 ! R7    R(3,4)                  1.4553         -DE/DX =    0.0                 !
 ! R8    R(3,10)                 1.09           -DE/DX =    0.0                 !
 ! R9    R(4,5)                  1.3447         -DE/DX =    0.0001              !
 ! R10   R(4,11)                 1.0883         -DE/DX =    0.0                 !
 ! R11   R(5,12)                 1.0857         -DE/DX =    0.0                 !
 ! R12   R(5,13)                 1.0878         -DE/DX =    0.0                 !
 ! A1    A(2,1,6)              110.6136         -DE/DX =    0.0                 !
 ! A2    A(2,1,7)              110.6136         -DE/DX =    0.0                 !
 ! A3    A(2,1,8)              112.9018         -DE/DX =    0.0                 !
 ! A4    A(6,1,7)              106.5972         -DE/DX =    0.0                 !
 ! A5    A(6,1,8)              107.9306         -DE/DX =    0.0                 !
 ! A6    A(7,1,8)              107.9306         -DE/DX =    0.0                 !
 ! A7    A(1,2,3)              127.4256         -DE/DX =    0.0                 !
 ! A8    A(1,2,9)              115.1322         -DE/DX =    0.0                 !
 ! A9    A(3,2,9)              117.4421         -DE/DX =    0.0                 !
 ! A10   A(2,3,4)              126.7892         -DE/DX =    0.0                 !
 ! A11   A(2,3,10)             117.8894         -DE/DX =    0.0                 !
 ! A12   A(4,3,10)             115.3214         -DE/DX =    0.0                 !
 ! A13   A(3,4,5)              123.5572         -DE/DX =    0.0                 !
 ! A14   A(3,4,11)             117.723          -DE/DX =    0.0                 !
 ! A15   A(5,4,11)             118.7199         -DE/DX =    0.0                 !
 ! A16   A(4,5,12)             121.8337         -DE/DX =    0.0                 !
 ! A17   A(4,5,13)             121.4464         -DE/DX =    0.0                 !
 ! A18   A(12,5,13)            116.72           -DE/DX =    0.0                 !
 ! D1    D(6,1,2,3)            121.0624         -DE/DX =    0.0                 !
 ! D2    D(6,1,2,9)            -58.9376         -DE/DX =    0.0                 !
 ! D3    D(7,1,2,3)           -121.0628         -DE/DX =    0.0                 !
 ! D4    D(7,1,2,9)             58.9372         -DE/DX =    0.0                 !
 ! D5    D(8,1,2,3)             -0.0002         -DE/DX =    0.0                 !
 ! D6    D(8,1,2,9)            179.9998         -DE/DX =    0.0                 !
 ! D7    D(1,2,3,4)              0.0            -DE/DX =    0.0                 !
 ! D8    D(1,2,3,10)          -180.0            -DE/DX =    0.0                 !
 ! D9    D(9,2,3,4)            180.0            -DE/DX =    0.0                 !
 ! D10   D(9,2,3,10)             0.0            -DE/DX =    0.0                 !
 ! D11   D(2,3,4,5)           -179.9999         -DE/DX =    0.0                 !
 ! D12   D(2,3,4,11)             0.0001         -DE/DX =    0.0                 !
 ! D13   D(10,3,4,5)             0.0001         -DE/DX =    0.0                 !
 ! D14   D(10,3,4,11)         -179.9999         -DE/DX =    0.0                 !
 ! D15   D(3,4,5,12)           180.0            -DE/DX =    0.0                 !
 ! D16   D(3,4,5,13)             0.0            -DE/DX =    0.0                 !
 ! D17   D(11,4,5,12)            0.0            -DE/DX =    0.0                 !
 ! D18   D(11,4,5,13)         -180.0            -DE/DX =    0.0                 !
 --------------------------------------------------------------------------------
 Lowest energy point so far.  Saving SCF results.
 Largest change from initial coordinates is atom   13       0.022 Angstoms.
 GradGradGradGradGradGradGradGradGradGradGradGradGradGradGradGradGradGrad

 Leave Link  103 at Wed Oct  7 14:41:20 2020, MaxMem=  2684354560 cpu:               3.6 elap:               0.7
 (Enter /udrive/faculty/rpeverati/g16/g16/l202.exe)
                          Input orientation:                          
 ---------------------------------------------------------------------
 Center     Atomic      Atomic             Coordinates (Angstroms)
 Number     Number       Type             X           Y           Z
 ---------------------------------------------------------------------
      1          6           0       -2.062888   -0.613271    0.000002
      2          6           0       -1.235983    0.639698    0.000050
      3          6           0        0.109780    0.733864    0.000035
      4          6           0        1.060539   -0.367921   -0.000034
      5          6           0        2.394494   -0.198585   -0.000043
      6          1           0       -2.718623   -0.643885    0.880680
      7          1           0       -2.718656   -0.643795   -0.880656
      8          1           0       -1.456847   -1.522847   -0.000056
      9          1           0       -1.804416    1.569309    0.000105
     10          1           0        0.551135    1.730458    0.000077
     11          1           0        0.661919   -1.380642   -0.000079
     12          1           0        3.078725   -1.041484   -0.000095
     13          1           0        2.840632    0.793573    0.000000
 ---------------------------------------------------------------------
                    Distance matrix (angstroms):
                    1          2          3          4          5
     1  C    0.000000
     2  C    1.501234   0.000000
     3  C    2.556415   1.349054   0.000000
     4  C    3.133049   2.507850   1.455291   0.000000
     5  C    4.476631   3.726001   2.467667   1.344660   0.000000
     6  H    1.098417   2.149724   3.267046   3.890229   5.207488
     7  H    1.098417   2.149724   3.267048   3.890233   5.207494
     8  H    1.092984   2.173794   2.747192   2.769673   4.072653
     9  H    2.197831   1.089629   2.088567   3.458443   4.555908
    10  H    3.510867   2.093693   1.089952   2.159326   2.668179
    11  H    2.830800   2.771968   2.185404   1.088348   2.097398
    12  H    5.159414   4.630667   3.459262   2.127619   1.085657
    13  H    5.101345   4.079518   2.731505   2.125511   1.087849
                    6          7          8          9         10
     6  H    0.000000
     7  H    1.761336   0.000000
     8  H    1.772103   1.772103   0.000000
     9  H    2.551355   2.551353   3.111628   0.000000
    10  H    4.135733   4.135734   3.823086   2.361057   0.000000
    11  H    3.570240   3.570244   2.123533   3.845129   3.113072
    12  H    5.877337   5.877343   4.561044   5.537265   3.751316
    13  H    5.809234   5.809239   4.882021   4.709377   2.473773
                   11         12         13
    11  H    0.000000
    12  H    2.440488   0.000000
    13  H    3.077987   1.850438   0.000000
 Stoichiometry    C5H8
 Framework group  C1[X(C5H8)]
 Deg. of freedom    33
 Full point group                 C1      NOp   1
 RotChk:  IX=0 Diff= 3.59D-17
 Largest Abelian subgroup         C1      NOp   1
 Largest concise Abelian subgroup C1      NOp   1
                         Standard orientation:                         
 ---------------------------------------------------------------------
 Center     Atomic      Atomic             Coordinates (Angstroms)
 Number     Number       Type             X           Y           Z
 ---------------------------------------------------------------------
      1          6           0       -2.064396   -0.611425    0.000001
      2          6           0       -1.235997    0.640557    0.000050
      3          6           0        0.109878    0.733117    0.000034
      4          6           0        1.059322   -0.369801   -0.000035
      5          6           0        2.393478   -0.202055   -0.000044
      6          1           0       -2.720167   -0.641257    0.880679
      7          1           0       -2.720199   -0.641167   -0.880657
      8          1           0       -1.459440   -1.521723   -0.000057
      9          1           0       -1.803320    1.570845    0.000104
     10          1           0        0.552421    1.729185    0.000076
     11          1           0        0.659494   -1.382046   -0.000080
     12          1           0        3.076703   -1.045770   -0.000096
     13          1           0        2.840799    0.789569   -0.000000
 ---------------------------------------------------------------------
 Rotational constants (GHZ):          15.8778487           2.6302913           2.2884330
 Leave Link  202 at Wed Oct  7 14:41:20 2020, MaxMem=  2684354560 cpu:               0.8 elap:               0.3
 (Enter /udrive/faculty/rpeverati/g16/g16/l601.exe)
 Copying SCF densities to generalized density rwf, IOpCl= 0 IROHF=0.

 **********************************************************************

            Population analysis using the SCF density.

 **********************************************************************

 Orbital symmetries:
       Occupied  (A) (A) (A) (A) (A) (A) (A) (A) (A) (A) (A) (A)
                 (A) (A) (A) (A) (A) (A) (A)
       Virtual   (A) (A) (A) (A) (A) (A) (A) (A) (A) (A) (A) (A)
                 (A) (A) (A) (A) (A) (A) (A) (A) (A) (A) (A) (A)
                 (A) (A) (A) (A) (A) (A) (A) (A) (A) (A) (A) (A)
                 (A) (A) (A) (A) (A) (A) (A) (A) (A) (A) (A) (A)
                 (A) (A) (A) (A) (A) (A) (A) (A) (A) (A) (A) (A)
                 (A) (A) (A) (A) (A) (A) (A)
 The electronic state is 1-A.
 Alpha  occ. eigenvalues --  -10.12101 -10.11992 -10.11553 -10.11526 -10.11078
 Alpha  occ. eigenvalues --   -0.78252  -0.73005  -0.66045  -0.57086  -0.51073
 Alpha  occ. eigenvalues --   -0.45537  -0.42490  -0.39477  -0.38195  -0.36151
 Alpha  occ. eigenvalues --   -0.34798  -0.31361  -0.29347  -0.20479
 Alpha virt. eigenvalues --   -0.02723   0.07985   0.10554   0.11181   0.13597
 Alpha virt. eigenvalues --    0.16435   0.17314   0.17607   0.19554   0.22955
 Alpha virt. eigenvalues --    0.25165   0.33034   0.37777   0.43553   0.47903
 Alpha virt. eigenvalues --    0.52040   0.52684   0.58130   0.58906   0.62216
 Alpha virt. eigenvalues --    0.63318   0.63678   0.68362   0.68402   0.69504
 Alpha virt. eigenvalues --    0.72596   0.78415   0.86154   0.87539   0.88562
 Alpha virt. eigenvalues --    0.90140   0.91101   0.94364   0.96443   0.98175
 Alpha virt. eigenvalues --    1.00841   1.08719   1.12762   1.16443   1.29577
 Alpha virt. eigenvalues --    1.31431   1.35814   1.40928   1.50651   1.53050
 Alpha virt. eigenvalues --    1.54177   1.71592   1.76015   1.84003   1.88065
 Alpha virt. eigenvalues --    1.97290   2.00018   2.03346   2.06328   2.09482
 Alpha virt. eigenvalues --    2.19428   2.26622   2.32443   2.34214   2.41495
 Alpha virt. eigenvalues --    2.48525   2.51744   2.52892   2.67468   2.77447
 Alpha virt. eigenvalues --    2.98686   3.08996
          Condensed to atoms (all electrons):
               1          2          3          4          5          6
     1  C    5.139727   0.372707  -0.042597  -0.013897   0.000570   0.371695
     2  C    0.372707   4.926413   0.650809  -0.034262   0.003196  -0.033441
     3  C   -0.042597   0.650809   4.824204   0.456718  -0.030486   0.000003
     4  C   -0.013897  -0.034262   0.456718   4.798557   0.620300   0.000308
     5  C    0.000570   0.003196  -0.030486   0.620300   5.103951  -0.000000
     6  H    0.371695  -0.033441   0.000003   0.000308  -0.000000   0.551988
     7  H    0.371695  -0.033441   0.000003   0.000308  -0.000000  -0.034714
     8  H    0.374895  -0.033057  -0.006401   0.003121  -0.000072  -0.028148
     9  H   -0.056173   0.367947  -0.031364   0.004916  -0.000195  -0.001205
    10  H    0.005552  -0.042848   0.370079  -0.054476  -0.005007  -0.000139
    11  H    0.002302  -0.006035  -0.047366   0.370821  -0.048048  -0.000092
    12  H    0.000001  -0.000193   0.003314  -0.026478   0.370734  -0.000000
    13  H   -0.000001   0.000256  -0.008158  -0.040829   0.375983   0.000000
               7          8          9         10         11         12
     1  C    0.371695   0.374895  -0.056173   0.005552   0.002302   0.000001
     2  C   -0.033441  -0.033057   0.367947  -0.042848  -0.006035  -0.000193
     3  C    0.000003  -0.006401  -0.031364   0.370079  -0.047366   0.003314
     4  C    0.000308   0.003121   0.004916  -0.054476   0.370821  -0.026478
     5  C   -0.000000  -0.000072  -0.000195  -0.005007  -0.048048   0.370734
     6  H   -0.034714  -0.028148  -0.001205  -0.000139  -0.000092  -0.000000
     7  H    0.551988  -0.028148  -0.001205  -0.000139  -0.000091  -0.000000
     8  H   -0.028148   0.538987   0.004264   0.000010   0.005162   0.000009
     9  H   -0.001205   0.004264   0.571016  -0.008505  -0.000037   0.000003
    10  H   -0.000139   0.000010  -0.008505   0.579796   0.004797   0.000012
    11  H   -0.000091   0.005162  -0.000037   0.004797   0.570969  -0.005704
    12  H   -0.000000   0.000009   0.000003   0.000012  -0.005704   0.535949
    13  H    0.000000   0.000002  -0.000012   0.005413   0.004974  -0.037799
              13
     1  C   -0.000001
     2  C    0.000256
     3  C   -0.008158
     4  C   -0.040829
     5  C    0.375983
     6  H    0.000000
     7  H    0.000000
     8  H    0.000002
     9  H   -0.000012
    10  H    0.005413
    11  H    0.004974
    12  H   -0.037799
    13  H    0.542224
 Mulliken charges:
               1
     1  C   -0.526477
     2  C   -0.138051
     3  C   -0.138758
     4  C   -0.085106
     5  C   -0.390927
     6  H    0.173745
     7  H    0.173745
     8  H    0.169376
     9  H    0.150550
    10  H    0.145456
    11  H    0.148349
    12  H    0.160152
    13  H    0.157947
 Sum of Mulliken charges =  -0.00000
 Mulliken charges with hydrogens summed into heavy atoms:
               1
     1  C   -0.009611
     2  C    0.012499
     3  C    0.006698
     4  C    0.063243
     5  C   -0.072828
 Electronic spatial extent (au):  <R**2>=            558.2100
 Charge=             -0.0000 electrons
 Dipole moment (field-independent basis, Debye):
    X=             -0.4902    Y=             -0.1265    Z=              0.0000  Tot=              0.5063
 Quadrupole moment (field-independent basis, Debye-Ang):
   XX=            -28.6333   YY=            -29.2668   ZZ=            -34.1981
   XY=              0.0647   XZ=             -0.0001   YZ=              0.0002
 Traceless Quadrupole moment (field-independent basis, Debye-Ang):
   XX=              2.0661   YY=              1.4326   ZZ=             -3.4987
   XY=              0.0647   XZ=             -0.0001   YZ=              0.0002
 Octapole moment (field-independent basis, Debye-Ang**2):
  XXX=              0.1547  YYY=              0.8958  ZZZ=              0.0001  XYY=              1.7233
  XXY=              0.4791  XXZ=             -0.0001  XZZ=             -3.5253  YZZ=             -0.7423
  YYZ=              0.0001  XYZ=              0.0002
 Hexadecapole moment (field-independent basis, Debye-Ang**3):
 XXXX=           -563.6103 YYYY=           -123.6801 ZZZZ=            -41.8840 XXXY=             -4.2767
 XXXZ=              0.0033 YYYX=             -2.7560 YYYZ=             -0.0015 ZZZX=              0.0045
 ZZZY=             -0.0026 XXYY=           -113.2672 XXZZ=           -109.4789 YYZZ=            -30.7720
 XXYZ=             -0.0001 YYXZ=              0.0009 ZZXY=              1.9614
 N-N= 1.552821942305D+02 E-N=-7.625448190065D+02  KE= 1.940616467875D+02
 No NMR shielding tensors so no spin-rotation constants.
 Leave Link  601 at Wed Oct  7 14:41:21 2020, MaxMem=  2684354560 cpu:               3.8 elap:               0.6
 (Enter /udrive/faculty/rpeverati/g16/g16/l9999.exe)

 Test job not archived.
 1\1\GINC-NODE40\FOpt\RTPSSh\6-31G(d)\C5H8\RPEVERATI\07-Oct-2020\0\\#P 
 Opt(MaxCyc=100) TPSSh/6-31G* 5D 7F Integral=UltraFineGrid SCF=(NoSymm,
 XQC,MaxCyc=120) IOp(1/33=1,3/174=1000000,3/175=2238200,3/177=0452900,3
 /178=4655000) EmpiricalDispersion=GD3BJ\\TS search on BH76.\\0,1\C,-2.
 0628880008,-0.6132712671,0.0000016234\C,-1.2359832867,0.6396980902,0.0
 000504912\C,0.109779842,0.7338635183,0.0000347172\C,1.0605390127,-0.36
 7921266,-0.000033717\C,2.3944942852,-0.1985848654,-0.0000433672\H,-2.7
 18623122,-0.643885095,0.8806800023\H,-2.7186555107,-0.6437950615,-0.88
 06556897\H,-1.4568472284,-1.5228470145,-0.0000558815\H,-1.8044158728,1
 .5693086855,0.0001049629\H,0.551135114,1.7304581657,0.0000771251\H,0.6
 619188356,-1.3806423526,-0.0000793223\H,3.0787249742,-1.0414837437,-0.
 0000950691\H,2.8406320216,0.7935725993,0.0000004592\\Version=ES64L-G16
 RevA.03\State=1-A\HF=-195.3315054\RMSD=3.717e-09\RMSF=1.500e-05\Dipole
 =-0.192813,-0.0499871,0.0000007\Quadrupole=1.5359967,1.0652025,-2.6011
 993,0.0486376,-0.0000581,0.000182\PG=C01 [X(C5H8)]\\@



 WE LOSE BECAUSE WE WIN

 GAMBLERS,

 RECOLLECTING WHICH,

 TOSS THEIR DICE AGAIN....


                          EMILY DICKINSON  BOLTS OF MELODY NO. 533
 Job cpu time:       0 days  0 hours 14 minutes 16.6 seconds.
 Elapsed time:       0 days  0 hours  1 minutes 29.7 seconds.
 File lengths (MBytes):  RWF=      9 Int=      0 D2E=      0 Chk=      2 Scr=      1
 Normal termination of Gaussian 16 at Wed Oct  7 14:41:22 2020.
