 Entering Gaussian System, Link 0=g16
 Input=MN_13_c2h5ts_BH76_TPSShDBJ_631Gs.in
 Output=MN_13_c2h5ts_BH76_TPSShDBJ_631Gs.log
 Initial command:
 /udrive/faculty/rpeverati/g16/g16/l1.exe "/udrive/scratch-directories/gaussian09/rpeverati/Gau-29255.inp" -scrdir="/udrive/scratch-directories/gaussian09/rpeverati/"
 Entering Link 1 = /udrive/faculty/rpeverati/g16/g16/l1.exe PID=     29272.
  
 Copyright (c) 1988,1990,1992,1993,1995,1998,2003,2009,2016,
            Gaussian, Inc.  All Rights Reserved.
  
 This is part of the Gaussian(R) 16 program.  It is based on
 the Gaussian(R) 09 system (copyright 2009, Gaussian, Inc.),
 the Gaussian(R) 03 system (copyright 2003, Gaussian, Inc.),
 the Gaussian(R) 98 system (copyright 1998, Gaussian, Inc.),
 the Gaussian(R) 94 system (copyright 1995, Gaussian, Inc.),
 the Gaussian 92(TM) system (copyright 1992, Gaussian, Inc.),
 the Gaussian 90(TM) system (copyright 1990, Gaussian, Inc.),
 the Gaussian 88(TM) system (copyright 1988, Gaussian, Inc.),
 the Gaussian 86(TM) system (copyright 1986, Carnegie Mellon
 University), and the Gaussian 82(TM) system (copyright 1983,
 Carnegie Mellon University). Gaussian is a federally registered
 trademark of Gaussian, Inc.
  
 This software contains proprietary and confidential information,
 including trade secrets, belonging to Gaussian, Inc.
  
 This software is provided under written license and may be
 used, copied, transmitted, or stored only in accord with that
 written license.
  
 The following legend is applicable only to US Government
 contracts under FAR:
  
                    RESTRICTED RIGHTS LEGEND
  
 Use, reproduction and disclosure by the US Government is
 subject to restrictions as set forth in subparagraphs (a)
 and (c) of the Commercial Computer Software - Restricted
 Rights clause in FAR 52.227-19.
  
 Gaussian, Inc.
 340 Quinnipiac St., Bldg. 40, Wallingford CT 06492
  
  
 ---------------------------------------------------------------
 Warning -- This program may not be used in any manner that
 competes with the business of Gaussian, Inc. or will provide
 assistance to any competitor of Gaussian, Inc.  The licensee
 of this program is prohibited from giving any competitor of
 Gaussian, Inc. access to this program.  By using this program,
 the user acknowledges that Gaussian, Inc. is engaged in the
 business of creating and licensing software in the field of
 computational chemistry and represents and warrants to the
 licensee that it is not a competitor of Gaussian, Inc. and that
 it will not use this program in any manner prohibited above.
 ---------------------------------------------------------------
  

 Cite this work as:
 Gaussian 16, Revision A.03,
 M. J. Frisch, G. W. Trucks, H. B. Schlegel, G. E. Scuseria, 
 M. A. Robb, J. R. Cheeseman, G. Scalmani, V. Barone, 
 G. A. Petersson, H. Nakatsuji, X. Li, M. Caricato, A. V. Marenich, 
 J. Bloino, B. G. Janesko, R. Gomperts, B. Mennucci, H. P. Hratchian, 
 J. V. Ortiz, A. F. Izmaylov, J. L. Sonnenberg, D. Williams-Young, 
 F. Ding, F. Lipparini, F. Egidi, J. Goings, B. Peng, A. Petrone, 
 T. Henderson, D. Ranasinghe, V. G. Zakrzewski, J. Gao, N. Rega, 
 G. Zheng, W. Liang, M. Hada, M. Ehara, K. Toyota, R. Fukuda, 
 J. Hasegawa, M. Ishida, T. Nakajima, Y. Honda, O. Kitao, H. Nakai, 
 T. Vreven, K. Throssell, J. A. Montgomery, Jr., J. E. Peralta, 
 F. Ogliaro, M. J. Bearpark, J. J. Heyd, E. N. Brothers, K. N. Kudin, 
 V. N. Staroverov, T. A. Keith, R. Kobayashi, J. Normand, 
 K. Raghavachari, A. P. Rendell, J. C. Burant, S. S. Iyengar, 
 J. Tomasi, M. Cossi, J. M. Millam, M. Klene, C. Adamo, R. Cammi, 
 J. W. Ochterski, R. L. Martin, K. Morokuma, O. Farkas, 
 J. B. Foresman, and D. J. Fox, Gaussian, Inc., Wallingford CT, 2016.
 
 ******************************************
 Gaussian 16:  ES64L-G16RevA.03 25-Dec-2016
                 7-Oct-2020 
 ******************************************
 %NoSave
 %nproc=12
 Will use up to   12 processors via shared memory.
 %mem=20GB
 %chk=MN_13_c2h5ts_BH76_TPSShDBJ_631Gs
 ----------------------------------------------------------------------
 #P Opt(TS,MaxCyc=50,NoEigenTest,MaxStep=10,AddRedundant) TPSSh/6-31G* 
 5D 7F Integral=UltraFineGrid SCF=(NoSymm,XQC,MaxCyc=120) IOp(1/33=1,3/
 174=1000000,3/175=2238200,3/177=0452900,3/178=4655000) EmpiricalDisper
 sion=GD3BJ
 ----------------------------------------------------------------------
 1/5=1,6=50,8=10,11=1,18=120,26=4,33=1,38=1/1,3;
 2/9=110,12=2,17=6,18=5,40=1/2;
 3/5=1,6=6,7=1,8=11,11=2,25=1,30=1,71=1,74=-35,75=-5,124=41,174=1000000,175=2238200,177=452900,178=4655000/1,2,3;
 4/9=2/1;
 5/5=2,7=120,8=3,13=1,38=5/2,8;
 6/7=2,8=2,9=2,10=2,28=1/1;
 7//1,2,3,16;
 1/5=1,6=50,8=10,11=1,18=20,26=4,33=1/3(2);
 2/9=110/2;
 99//99;
 2/9=110/2;
 3/5=1,6=6,7=1,8=11,11=2,25=1,30=1,71=1,74=-35,75=-5,124=41,174=1000000,175=2238200,177=452900,178=4655000/1,2,3;
 4/5=5,9=2,16=3,69=1/1;
 5/5=2,7=120,8=3,13=1,38=5/2,8;
 7//1,2,3,16;
 1/5=1,6=50,8=10,11=1,18=20,26=4,33=1/3(-5);
 2/9=110/2;
 6/7=2,8=2,9=2,10=2,19=2,28=1/1;
 99/9=1/99;
 Leave Link    1 at Wed Oct  7 14:39:10 2020, MaxMem=  2684354560 cpu:               6.0 elap:               0.6
 (Enter /udrive/faculty/rpeverati/g16/g16/l101.exe)
 ONIOM data not found on unit 2.
 ------------------
 TS search on BH76.
 ------------------
 TstMul:  ICh=     0
 TstMul:  Mul=     2
 TstMul:  ICh=     0
 TstMul:  Mul=     2
 Symbolic Z-matrix:
 Charge =  0 Multiplicity = 2
 C                    -0.56788   0.00005  -0.21896 
 C                     0.75114  -0.00004   0.04193 
 H                    -1.49388  -0.00049   1.53177 
 H                    -1.10169   0.92065  -0.40863 
 H                    -1.10202  -0.92023  -0.40911 
 H                     1.29913  -0.92235   0.17376 
 H                     1.2989    0.92232   0.17436 
 
 RdStrC is calling ZToCFu for IStruc=1 NZ=     7.
 PrtBox:  NBox=     1 Levels=  1 BoxLen=    8.00 SMaxX=        5.28
          Shift=            2.823030            1.742980            0.773106
 Box      1 Number                   0 centers from      1 to      7:
 After GenITR:
 ITRead=  0  0  0  0  0  0  0
 MicOpt= -1 -1 -1 -1 -1 -1 -1
 Add virtual bond connecting atoms H3         and C1         Dist= 3.74D+00.
 The following ModRedundant input section has been read:
 B       1       3 D                                                           
 
 ITRead=  0  0  0  0  0  0  0
 MicOpt= -1 -1 -1 -1 -1 -1 -1
 NAtoms=      7 NQM=        7 NQMF=       0 NMMI=      0 NMMIF=      0
                NMic=       0 NMicF=      0.
                    Isotopes and Nuclear Properties:
 (Nuclear quadrupole moments (NQMom) in fm**2, nuclear magnetic moments (NMagM)
  in nuclear magnetons)

  Atom         1           2           3           4           5           6           7
 IAtWgt=          12          12           1           1           1           1           1
 AtmWgt=  12.0000000  12.0000000   1.0078250   1.0078250   1.0078250   1.0078250   1.0078250
 NucSpn=           0           0           1           1           1           1           1
 AtZEff=   0.0000000   0.0000000   0.0000000   0.0000000   0.0000000   0.0000000   0.0000000
 NQMom=    0.0000000   0.0000000   0.0000000   0.0000000   0.0000000   0.0000000   0.0000000
 NMagM=    0.0000000   0.0000000   2.7928460   2.7928460   2.7928460   2.7928460   2.7928460
 AtZNuc=   6.0000000   6.0000000   1.0000000   1.0000000   1.0000000   1.0000000   1.0000000
 No MM parameters found.
 Leave Link  101 at Wed Oct  7 14:39:11 2020, MaxMem=  2684354560 cpu:               4.3 elap:               0.5
 (Enter /udrive/faculty/rpeverati/g16/g16/l103.exe)

 GradGradGradGradGradGradGradGradGradGradGradGradGradGradGradGradGradGrad
 Berny optimization.
 Optmz: redundant internal coordinate code flag= 1
 Initialization pass.
                           ----------------------------
                           !    Initial Parameters    !
                           ! (Angstroms and Degrees)  !
 --------------------------                            --------------------------
 ! Name  Definition              Value          Derivative Info.                !
 --------------------------------------------------------------------------------
 ! R1    R(1,2)                  1.3446         estimate D2E/DX2                !
 ! R2    R(1,3)                  1.9805         calc D2E/DXDY, step=    0.0026  !
 ! R3    R(1,4)                  1.0809         estimate D2E/DX2                !
 ! R4    R(1,5)                  1.0809         estimate D2E/DX2                !
 ! R5    R(2,6)                  1.0809         estimate D2E/DX2                !
 ! R6    R(2,7)                  1.0809         estimate D2E/DX2                !
 ! A1    A(2,1,3)              106.6874         estimate D2E/DX2                !
 ! A2    A(2,1,4)              121.2357         estimate D2E/DX2                !
 ! A3    A(2,1,5)              121.2548         estimate D2E/DX2                !
 ! A4    A(3,1,4)               85.6665         estimate D2E/DX2                !
 ! A5    A(3,1,5)               85.6544         estimate D2E/DX2                !
 ! A6    A(4,1,5)              116.756          estimate D2E/DX2                !
 ! A7    A(1,2,6)              121.4037         estimate D2E/DX2                !
 ! A8    A(1,2,7)              121.3894         estimate D2E/DX2                !
 ! A9    A(6,2,7)              117.147          estimate D2E/DX2                !
 ! D1    D(3,1,2,6)             88.5542         estimate D2E/DX2                !
 ! D2    D(3,1,2,7)            -88.5498         estimate D2E/DX2                !
 ! D3    D(4,1,2,6)           -176.3082         estimate D2E/DX2                !
 ! D4    D(4,1,2,7)              6.5878         estimate D2E/DX2                !
 ! D5    D(5,1,2,6)             -6.5754         estimate D2E/DX2                !
 ! D6    D(5,1,2,7)            176.3206         estimate D2E/DX2                !
 --------------------------------------------------------------------------------
 Maximum allowed force set to 1.00D+20.
 Trust Radius=1.00D-01 FncErr=1.00D-07 GrdErr=1.00D-06 EigMax=2.50D+02 EigMin=1.00D-04
 Number of steps in this run=     50 maximum allowed number of steps=    100.
 Search for a saddle point of order  1.
 GradGradGradGradGradGradGradGradGradGradGradGradGradGradGradGradGradGrad

 Leave Link  103 at Wed Oct  7 14:39:11 2020, MaxMem=  2684354560 cpu:               1.4 elap:               0.4
 (Enter /udrive/faculty/rpeverati/g16/g16/l202.exe)
                          Input orientation:                          
 ---------------------------------------------------------------------
 Center     Atomic      Atomic             Coordinates (Angstroms)
 Number     Number       Type             X           Y           Z
 ---------------------------------------------------------------------
      1          6           0       -0.567876    0.000051   -0.218958
      2          6           0        0.751141   -0.000036    0.041932
      3          1           0       -1.493883   -0.000488    1.531767
      4          1           0       -1.101694    0.920652   -0.408626
      5          1           0       -1.102022   -0.920234   -0.409110
      6          1           0        1.299130   -0.922345    0.173763
      7          1           0        1.298897    0.922324    0.174363
 ---------------------------------------------------------------------
                    Distance matrix (angstroms):
                    1          2          3          4          5
     1  C    0.000000
     2  C    1.344570   0.000000
     3  H    1.980537   2.694390   0.000000
     4  H    1.080945   2.117467   2.183446   0.000000
     5  H    1.080923   2.117644   2.183230   1.840886   0.000000
     6  H    2.119140   1.080891   3.239586   3.082170   2.470886
     7  H    2.118993   1.080890   3.239406   2.470368   3.082187
                    6          7
     6  H    0.000000
     7  H    1.844670   0.000000
 Stoichiometry    C2H5(2)
 Framework group  C1[X(C2H5)]
 Deg. of freedom    15
 Full point group                 C1      NOp   1
 Largest Abelian subgroup         C1      NOp   1
 Largest concise Abelian subgroup C1      NOp   1
                         Standard orientation:                         
 ---------------------------------------------------------------------
 Center     Atomic      Atomic             Coordinates (Angstroms)
 Number     Number       Type             X           Y           Z
 ---------------------------------------------------------------------
      1          6           0       -0.567877    0.000051   -0.218958
      2          6           0        0.751140   -0.000035    0.041932
      3          1           0       -1.493884   -0.000489    1.531767
      4          1           0       -1.101696    0.920651   -0.408626
      5          1           0       -1.102022   -0.920235   -0.409110
      6          1           0        1.299130   -0.922344    0.173763
      7          1           0        1.298896    0.922325    0.174363
 ---------------------------------------------------------------------
 Rotational constants (GHZ):          75.6253969          22.9531614          22.7853600
 Leave Link  202 at Wed Oct  7 14:39:12 2020, MaxMem=  2684354560 cpu:               1.3 elap:               0.5
 (Enter /udrive/faculty/rpeverati/g16/g16/l301.exe)
 Standard basis: 6-31G(d) (5D, 7F)
 Ernie: Thresh=  0.10000D-02 Tol=  0.10000D-05 Strict=F.
 There are    40 symmetry adapted cartesian basis functions of A   symmetry.
 There are    38 symmetry adapted basis functions of A   symmetry.
    38 basis functions,    76 primitive gaussians,    40 cartesian basis functions
     9 alpha electrons        8 beta electrons
       nuclear repulsion energy        36.8524668585 Hartrees.
 IExCor= 2523 DFT=T Ex+Corr=TPSSh ExCW=0 ScaHFX=  0.100000
 ScaDFX=  0.900000  0.900000  1.000000  1.000000 ScalE2=  1.000000  1.000000
 IRadAn=      5 IRanWt=     -1 IRanGd=            0 ICorTp=0 IEmpDi=141
 NAtoms=    7 NActive=    7 NUniq=    7 SFac= 1.00D+00 NAtFMM=   60 NAOKFM=F Big=F
 Integral buffers will be    131072 words long.
 Raffenetti 2 integral format.
 Two-electron integral symmetry is turned on.
 R6DIni: Non-standard D2/D3 S6 parameter, value=     1.000000
 R6DIni: Non-standard D2/D3 S8 parameter, value=     2.238200
 R6DIni: Non-standard D3BJ A1 parameter, value=     0.452900
 R6DIni: Non-standard D3BJ A2 parameter, value=     4.655000
 R6Disp:  Grimme-D3(BJ) Dispersion energy=       -0.0035269269 Hartrees.
 Nuclear repulsion after empirical dispersion term =       36.8489399315 Hartrees.
 Leave Link  301 at Wed Oct  7 14:39:12 2020, MaxMem=  2684354560 cpu:               1.6 elap:               0.4
 (Enter /udrive/faculty/rpeverati/g16/g16/l302.exe)
 NPDir=0 NMtPBC=     1 NCelOv=     1 NCel=       1 NClECP=     1 NCelD=      1
         NCelK=      1 NCelE2=     1 NClLst=     1 CellRange=     0.0.
 One-electron integrals computed using PRISM.
 One-electron integral symmetry used in STVInt
 NBasis=    38 RedAO= T EigKep=  8.31D-03  NBF=    38
 NBsUse=    38 1.00D-06 EigRej= -1.00D+00 NBFU=    38
 Precomputing XC quadrature grid using
 IXCGrd= 4 IRadAn=           5 IRanWt=          -1 IRanGd=           0 AccXCQ= 0.00D+00.
 Generated NRdTot=       0 NPtTot=           0 NUsed=           0 NTot=          32
 NSgBfM=    40    40    40    40    40 MxSgAt=     7 MxSgA2=     7.
 Leave Link  302 at Wed Oct  7 14:39:13 2020, MaxMem=  2684354560 cpu:               3.6 elap:               0.7
 (Enter /udrive/faculty/rpeverati/g16/g16/l303.exe)
 DipDrv:  MaxL=1.
 Leave Link  303 at Wed Oct  7 14:39:14 2020, MaxMem=  2684354560 cpu:               1.2 elap:               0.5
 (Enter /udrive/faculty/rpeverati/g16/g16/l401.exe)
 SCF N**3 symmetry information disabled.
 ExpMin= 1.61D-01 ExpMax= 3.05D+03 ExpMxC= 4.57D+02 IAcc=3 IRadAn=         5 AccDes= 0.00D+00
 Harris functional with IExCor= 1009 and IRadAn=       5 diagonalized for initial guess.
 HarFok:  IExCor= 1009 AccDes= 0.00D+00 IRadAn=         5 IDoV= 1 UseB2=F ITyADJ=14
 ICtDFT=  3500011 ScaDFX=  1.000000  1.000000  1.000000  1.000000
 FoFCou: FMM=F IPFlag=           0 FMFlag=      100000 FMFlg1=           0
         NFxFlg=           0 DoJE=T BraDBF=F KetDBF=T FulRan=T
         wScrn=  0.000000 ICntrl=       500 IOpCl=  0 I1Cent=   200000004 NGrid=           0
         NMat0=    1 NMatS0=      1 NMatT0=    0 NMatD0=    1 NMtDS0=    0 NMtDT0=    0
 Petite list used in FoFCou.
 Harris En= -79.0126112527033    
 JPrj=0 DoOrth=F DoCkMO=F.
 Initial guess <Sx>= 0.0000 <Sy>= 0.0000 <Sz>= 0.5000 <S**2>= 0.7500 S= 0.5000
 Leave Link  401 at Wed Oct  7 14:39:15 2020, MaxMem=  2684354560 cpu:               6.2 elap:               0.9
 (Enter /udrive/faculty/rpeverati/g16/g16/l502.exe)
 Keep R1 and R2 ints in memory in canonical form, NReq=10915733.
 FoFCou: FMM=F IPFlag=           0 FMFlag=           0 FMFlg1=           0
         NFxFlg=           0 DoJE=F BraDBF=F KetDBF=F FulRan=T
         wScrn=  0.000000 ICntrl=       600 IOpCl=  0 I1Cent=           0 NGrid=           0
         NMat0=    1 NMatS0=    741 NMatT0=    0 NMatD0=    1 NMtDS0=    0 NMtDT0=    0
 Symmetry not used in FoFCou.
 Two-electron integral symmetry not used.
 UHF open shell SCF:
 Using DIIS extrapolation, IDIIS=  1040.
 NGot=  2684354560 LenX=  2683800373 LenY=  2683798332
 Requested convergence on RMS density matrix=1.00D-08 within 120 cycles.
 Requested convergence on MAX density matrix=1.00D-06.
 Requested convergence on             energy=1.00D-06.
 No special actions if energy rises.
 Integral accuracy reduced to 1.0D-05 until final iterations.

 Cycle   1  Pass 0  IDiag  1:
 E= -78.9771607584587    
 DIIS: error= 5.39D-02 at cycle   1 NSaved=   1.
 NSaved= 1 IEnMin= 1 EnMin= -78.9771607584587     IErMin= 1 ErrMin= 5.39D-02
 ErrMax= 5.39D-02  0.00D+00 EMaxC= 1.00D-01 BMatC= 3.65D-01 BMatP= 3.65D-01
 IDIUse=3 WtCom= 4.61D-01 WtEn= 5.39D-01
 Coeff-Com:  0.100D+01
 Coeff-En:   0.100D+01
 Coeff:      0.100D+01
 Gap=     0.273 Goal=   None    Shift=    0.000
 Gap=     0.070 Goal=   None    Shift=    0.000
 GapD=    0.070 DampG=0.500 DampE=0.500 DampFc=0.2500 IDamp=-1.
 Damping current iteration by 2.50D-01
 RMSDP=1.98D-02 MaxDP=2.84D-01              OVMax= 6.02D-01

 Cycle   2  Pass 0  IDiag  1:
 E= -79.0203061224483     Delta-E=       -0.043145363990 Rises=F Damp=T
 DIIS: error= 2.20D-02 at cycle   2 NSaved=   2.
 NSaved= 2 IEnMin= 2 EnMin= -79.0203061224483     IErMin= 2 ErrMin= 2.20D-02
 ErrMax= 2.20D-02  0.00D+00 EMaxC= 1.00D-01 BMatC= 6.11D-02 BMatP= 3.65D-01
 IDIUse=3 WtCom= 7.80D-01 WtEn= 2.20D-01
 Coeff-Com: -0.595D+00 0.160D+01
 Coeff-En:   0.000D+00 0.100D+01
 Coeff:     -0.464D+00 0.146D+01
 Gap=     0.239 Goal=   None    Shift=    0.000
 Gap=     0.093 Goal=   None    Shift=    0.000
 RMSDP=5.02D-03 MaxDP=9.94D-02 DE=-4.31D-02 OVMax= 5.12D-01

 Cycle   3  Pass 0  IDiag  1:
 E= -79.0969555023003     Delta-E=       -0.076649379852 Rises=F Damp=F
 DIIS: error= 8.05D-03 at cycle   3 NSaved=   3.
 NSaved= 3 IEnMin= 3 EnMin= -79.0969555023003     IErMin= 3 ErrMin= 8.05D-03
 ErrMax= 8.05D-03  0.00D+00 EMaxC= 1.00D-01 BMatC= 4.66D-03 BMatP= 6.11D-02
 IDIUse=3 WtCom= 9.19D-01 WtEn= 8.05D-02
 Coeff-Com: -0.127D+00 0.417D+00 0.711D+00
 Coeff-En:   0.000D+00 0.000D+00 0.100D+01
 Coeff:     -0.117D+00 0.383D+00 0.734D+00
 Gap=     0.211 Goal=   None    Shift=    0.000
 Gap=     0.189 Goal=   None    Shift=    0.000
 RMSDP=1.77D-03 MaxDP=2.26D-02 DE=-7.66D-02 OVMax= 4.56D-02

 Cycle   4  Pass 0  IDiag  1:
 E= -79.0984611442335     Delta-E=       -0.001505641933 Rises=F Damp=F
 DIIS: error= 5.61D-03 at cycle   4 NSaved=   4.
 NSaved= 4 IEnMin= 4 EnMin= -79.0984611442335     IErMin= 4 ErrMin= 5.61D-03
 ErrMax= 5.61D-03  0.00D+00 EMaxC= 1.00D-01 BMatC= 2.87D-03 BMatP= 4.66D-03
 IDIUse=3 WtCom= 9.44D-01 WtEn= 5.61D-02
 Coeff-Com: -0.109D-01 0.459D-01 0.430D+00 0.535D+00
 Coeff-En:   0.000D+00 0.000D+00 0.997D-01 0.900D+00
 Coeff:     -0.103D-01 0.433D-01 0.411D+00 0.556D+00
 Gap=     0.220 Goal=   None    Shift=    0.000
 Gap=     0.190 Goal=   None    Shift=    0.000
 RMSDP=7.91D-04 MaxDP=1.25D-02 DE=-1.51D-03 OVMax= 2.51D-02

 Cycle   5  Pass 0  IDiag  1:
 E= -79.0992954679751     Delta-E=       -0.000834323742 Rises=F Damp=F
 DIIS: error= 2.00D-03 at cycle   5 NSaved=   5.
 NSaved= 5 IEnMin= 5 EnMin= -79.0992954679751     IErMin= 5 ErrMin= 2.00D-03
 ErrMax= 2.00D-03  0.00D+00 EMaxC= 1.00D-01 BMatC= 4.39D-04 BMatP= 2.87D-03
 IDIUse=3 WtCom= 9.80D-01 WtEn= 2.00D-02
 Coeff-Com: -0.227D-01 0.178D-01-0.351D-01 0.246D+00 0.794D+00
 Coeff-En:   0.000D+00 0.000D+00 0.000D+00 0.000D+00 0.100D+01
 Coeff:     -0.223D-01 0.175D-01-0.344D-01 0.241D+00 0.798D+00
 Gap=     0.221 Goal=   None    Shift=    0.000
 Gap=     0.194 Goal=   None    Shift=    0.000
 RMSDP=3.04D-04 MaxDP=5.84D-03 DE=-8.34D-04 OVMax= 1.21D-02

 Cycle   6  Pass 0  IDiag  1:
 E= -79.0994525470224     Delta-E=       -0.000157079047 Rises=F Damp=F
 DIIS: error= 5.49D-04 at cycle   6 NSaved=   6.
 NSaved= 6 IEnMin= 6 EnMin= -79.0994525470224     IErMin= 6 ErrMin= 5.49D-04
 ErrMax= 5.49D-04  0.00D+00 EMaxC= 1.00D-01 BMatC= 2.95D-05 BMatP= 4.39D-04
 IDIUse=3 WtCom= 9.95D-01 WtEn= 5.49D-03
 Coeff-Com: -0.182D-01 0.279D-01-0.600D-01-0.306D-01 0.123D+00 0.958D+00
 Coeff-En:   0.000D+00 0.000D+00 0.000D+00 0.000D+00 0.000D+00 0.100D+01
 Coeff:     -0.181D-01 0.278D-01-0.596D-01-0.304D-01 0.123D+00 0.958D+00
 Gap=     0.222 Goal=   None    Shift=    0.000
 Gap=     0.193 Goal=   None    Shift=    0.000
 RMSDP=1.25D-04 MaxDP=1.80D-03 DE=-1.57D-04 OVMax= 4.10D-03

 Cycle   7  Pass 0  IDiag  1:
 E= -79.0994737070173     Delta-E=       -0.000021159995 Rises=F Damp=F
 DIIS: error= 1.98D-04 at cycle   7 NSaved=   7.
 NSaved= 7 IEnMin= 7 EnMin= -79.0994737070173     IErMin= 7 ErrMin= 1.98D-04
 ErrMax= 1.98D-04  0.00D+00 EMaxC= 1.00D-01 BMatC= 2.87D-06 BMatP= 2.95D-05
 IDIUse=3 WtCom= 9.98D-01 WtEn= 1.98D-03
 Coeff-Com:  0.539D-02-0.855D-02 0.165D-02-0.333D-01-0.115D+00-0.848D-01
 Coeff-Com:  0.123D+01
 Coeff-En:   0.000D+00 0.000D+00 0.000D+00 0.000D+00 0.000D+00 0.000D+00
 Coeff-En:   0.100D+01
 Coeff:      0.538D-02-0.853D-02 0.165D-02-0.332D-01-0.115D+00-0.846D-01
 Coeff:      0.123D+01
 Gap=     0.223 Goal=   None    Shift=    0.000
 Gap=     0.194 Goal=   None    Shift=    0.000
 RMSDP=8.64D-05 MaxDP=1.32D-03 DE=-2.12D-05 OVMax= 3.04D-03

 Cycle   8  Pass 0  IDiag  1:
 E= -79.0994789690189     Delta-E=       -0.000005262002 Rises=F Damp=F
 DIIS: error= 8.94D-05 at cycle   8 NSaved=   8.
 NSaved= 8 IEnMin= 8 EnMin= -79.0994789690189     IErMin= 8 ErrMin= 8.94D-05
 ErrMax= 8.94D-05  0.00D+00 EMaxC= 1.00D-01 BMatC= 6.44D-07 BMatP= 2.87D-06
 IDIUse=1 WtCom= 1.00D+00 WtEn= 0.00D+00
 Coeff-Com:  0.526D-02-0.859D-02 0.134D-01 0.115D-01-0.110D-01-0.130D+00
 Coeff-Com: -0.213D+00 0.133D+01
 Coeff:      0.526D-02-0.859D-02 0.134D-01 0.115D-01-0.110D-01-0.130D+00
 Coeff:     -0.213D+00 0.133D+01
 Gap=     0.223 Goal=   None    Shift=    0.000
 Gap=     0.194 Goal=   None    Shift=    0.000
 RMSDP=4.64D-05 MaxDP=7.36D-04 DE=-5.26D-06 OVMax= 1.47D-03

 Cycle   9  Pass 0  IDiag  1:
 E= -79.0994799231913     Delta-E=       -0.000000954172 Rises=F Damp=F
 DIIS: error= 2.64D-05 at cycle   9 NSaved=   9.
 NSaved= 9 IEnMin= 9 EnMin= -79.0994799231913     IErMin= 9 ErrMin= 2.64D-05
 ErrMax= 2.64D-05  0.00D+00 EMaxC= 1.00D-01 BMatC= 6.37D-08 BMatP= 6.44D-07
 IDIUse=1 WtCom= 1.00D+00 WtEn= 0.00D+00
 Coeff-Com:  0.162D-03-0.147D-03 0.185D-02 0.592D-02 0.790D-02 0.927D-02
 Coeff-Com: -0.135D+00-0.439D-02 0.111D+01
 Coeff:      0.162D-03-0.147D-03 0.185D-02 0.592D-02 0.790D-02 0.927D-02
 Coeff:     -0.135D+00-0.439D-02 0.111D+01
 Gap=     0.223 Goal=   None    Shift=    0.000
 Gap=     0.194 Goal=   None    Shift=    0.000
 RMSDP=1.23D-05 MaxDP=1.78D-04 DE=-9.54D-07 OVMax= 4.01D-04

 Cycle  10  Pass 0  IDiag  1:
 E= -79.0994799857146     Delta-E=       -0.000000062523 Rises=F Damp=F
 DIIS: error= 2.63D-06 at cycle  10 NSaved=  10.
 NSaved=10 IEnMin=10 EnMin= -79.0994799857146     IErMin=10 ErrMin= 2.63D-06
 ErrMax= 2.63D-06  0.00D+00 EMaxC= 1.00D-01 BMatC= 1.15D-09 BMatP= 6.37D-08
 IDIUse=1 WtCom= 1.00D+00 WtEn= 0.00D+00
 Coeff-Com: -0.764D-04 0.864D-04-0.591D-03-0.132D-02-0.171D-02 0.279D-02
 Coeff-Com:  0.292D-01-0.537D-01-0.994D-01 0.112D+01
 Coeff:     -0.764D-04 0.864D-04-0.591D-03-0.132D-02-0.171D-02 0.279D-02
 Coeff:      0.292D-01-0.537D-01-0.994D-01 0.112D+01
 Gap=     0.223 Goal=   None    Shift=    0.000
 Gap=     0.194 Goal=   None    Shift=    0.000
 RMSDP=1.07D-06 MaxDP=1.67D-05 DE=-6.25D-08 OVMax= 2.68D-05

 Initial convergence to 1.0D-05 achieved.  Increase integral accuracy.
 Cycle  11  Pass 1  IDiag  1:
 E= -79.0994799592092     Delta-E=        0.000000026505 Rises=F Damp=F
 DIIS: error= 1.84D-06 at cycle   1 NSaved=   1.
 NSaved= 1 IEnMin= 1 EnMin= -79.0994799592092     IErMin= 1 ErrMin= 1.84D-06
 ErrMax= 1.84D-06  0.00D+00 EMaxC= 1.00D-01 BMatC= 3.99D-10 BMatP= 3.99D-10
 IDIUse=1 WtCom= 1.00D+00 WtEn= 0.00D+00
 Coeff-Com:  0.100D+01
 Coeff:      0.100D+01
 Gap=     0.223 Goal=   None    Shift=    0.000
 Gap=     0.194 Goal=   None    Shift=    0.000
 RMSDP=1.07D-06 MaxDP=1.67D-05 DE= 2.65D-08 OVMax= 6.39D-06

 Cycle  12  Pass 1  IDiag  1:
 E= -79.0994799593544     Delta-E=       -0.000000000145 Rises=F Damp=F
 DIIS: error= 3.76D-07 at cycle   2 NSaved=   2.
 NSaved= 2 IEnMin= 2 EnMin= -79.0994799593544     IErMin= 2 ErrMin= 3.76D-07
 ErrMax= 3.76D-07  0.00D+00 EMaxC= 1.00D-01 BMatC= 3.35D-11 BMatP= 3.99D-10
 IDIUse=1 WtCom= 1.00D+00 WtEn= 0.00D+00
 Coeff-Com: -0.102D-02 0.100D+01
 Coeff:     -0.102D-02 0.100D+01
 Gap=     0.223 Goal=   None    Shift=    0.000
 Gap=     0.194 Goal=   None    Shift=    0.000
 RMSDP=1.46D-07 MaxDP=1.71D-06 DE=-1.45D-10 OVMax= 4.23D-06

 Cycle  13  Pass 1  IDiag  1:
 E= -79.0994799593539     Delta-E=        0.000000000001 Rises=F Damp=F
 DIIS: error= 5.34D-07 at cycle   3 NSaved=   3.
 NSaved= 3 IEnMin= 2 EnMin= -79.0994799593544     IErMin= 2 ErrMin= 3.76D-07
 ErrMax= 5.34D-07  0.00D+00 EMaxC= 1.00D-01 BMatC= 5.49D-11 BMatP= 3.35D-11
 IDIUse=1 WtCom= 1.00D+00 WtEn= 0.00D+00
 Coeff-Com: -0.635D-01 0.617D+00 0.446D+00
 Coeff:     -0.635D-01 0.617D+00 0.446D+00
 Gap=     0.223 Goal=   None    Shift=    0.000
 Gap=     0.194 Goal=   None    Shift=    0.000
 RMSDP=1.01D-07 MaxDP=1.65D-06 DE= 5.26D-13 OVMax= 2.77D-06

 Cycle  14  Pass 1  IDiag  1:
 E= -79.0994799593690     Delta-E=       -0.000000000015 Rises=F Damp=F
 DIIS: error= 1.30D-07 at cycle   4 NSaved=   4.
 NSaved= 4 IEnMin= 4 EnMin= -79.0994799593690     IErMin= 4 ErrMin= 1.30D-07
 ErrMax= 1.30D-07  0.00D+00 EMaxC= 1.00D-01 BMatC= 2.91D-12 BMatP= 3.35D-11
 IDIUse=1 WtCom= 1.00D+00 WtEn= 0.00D+00
 Coeff-Com: -0.166D-01-0.991D-01 0.124D+00 0.991D+00
 Coeff:     -0.166D-01-0.991D-01 0.124D+00 0.991D+00
 Gap=     0.223 Goal=   None    Shift=    0.000
 Gap=     0.194 Goal=   None    Shift=    0.000
 RMSDP=3.76D-08 MaxDP=4.34D-07 DE=-1.51D-11 OVMax= 1.38D-06

 Cycle  15  Pass 1  IDiag  1:
 E= -79.0994799593703     Delta-E=       -0.000000000001 Rises=F Damp=F
 DIIS: error= 4.18D-08 at cycle   5 NSaved=   5.
 NSaved= 5 IEnMin= 5 EnMin= -79.0994799593703     IErMin= 5 ErrMin= 4.18D-08
 ErrMax= 4.18D-08  0.00D+00 EMaxC= 1.00D-01 BMatC= 3.14D-13 BMatP= 2.91D-12
 IDIUse=1 WtCom= 1.00D+00 WtEn= 0.00D+00
 Coeff-Com:  0.512D-02-0.107D+00-0.579D-01 0.240D+00 0.919D+00
 Coeff:      0.512D-02-0.107D+00-0.579D-01 0.240D+00 0.919D+00
 Gap=     0.223 Goal=   None    Shift=    0.000
 Gap=     0.194 Goal=   None    Shift=    0.000
 RMSDP=1.54D-08 MaxDP=1.92D-07 DE=-1.28D-12 OVMax= 4.33D-07

 Cycle  16  Pass 1  IDiag  1:
 E= -79.0994799593703     Delta-E=       -0.000000000000 Rises=F Damp=F
 DIIS: error= 1.78D-08 at cycle   6 NSaved=   6.
 NSaved= 6 IEnMin= 6 EnMin= -79.0994799593703     IErMin= 6 ErrMin= 1.78D-08
 ErrMax= 1.78D-08  0.00D+00 EMaxC= 1.00D-01 BMatC= 3.25D-14 BMatP= 3.14D-13
 IDIUse=1 WtCom= 1.00D+00 WtEn= 0.00D+00
 Coeff-Com:  0.231D-02-0.268D-01-0.267D-01 0.699D-02 0.316D+00 0.728D+00
 Coeff:      0.231D-02-0.268D-01-0.267D-01 0.699D-02 0.316D+00 0.728D+00
 Gap=     0.223 Goal=   None    Shift=    0.000
 Gap=     0.194 Goal=   None    Shift=    0.000
 RMSDP=4.51D-09 MaxDP=6.82D-08 DE=-4.26D-14 OVMax= 1.24D-07

 SCF Done:  E(UTPSSh) =  -79.0994799594     A.U. after   16 cycles
            NFock= 16  Conv=0.45D-08     -V/T= 2.0061
 <Sx>= 0.0000 <Sy>= 0.0000 <Sz>= 0.5000 <S**2>= 0.7794 S= 0.5146
 <L.S>= 0.000000000000E+00
 KE= 7.861932801161D+01 PE=-2.562915767077D+02 EE= 6.172382880517D+01
 Annihilation of the first spin contaminant:
 S**2 before annihilation     0.7794,   after     0.7501
 Leave Link  502 at Wed Oct  7 14:39:20 2020, MaxMem=  2684354560 cpu:              50.5 elap:               4.6
 (Enter /udrive/faculty/rpeverati/g16/g16/l508.exe)
 QCSCF skips out because SCF is already converged.
 Leave Link  508 at Wed Oct  7 14:39:21 2020, MaxMem=  2684354560 cpu:               0.3 elap:               0.5
 (Enter /udrive/faculty/rpeverati/g16/g16/l601.exe)
 Copying SCF densities to generalized density rwf, IOpCl= 1 IROHF=0.

 **********************************************************************

            Population analysis using the SCF density.

 **********************************************************************

 Orbital symmetries:
 Alpha Orbitals:
       Occupied  (A) (A) (A) (A) (A) (A) (A) (A) (A)
       Virtual   (A) (A) (A) (A) (A) (A) (A) (A) (A) (A) (A) (A)
                 (A) (A) (A) (A) (A) (A) (A) (A) (A) (A) (A) (A)
                 (A) (A) (A) (A) (A)
 Beta  Orbitals:
       Occupied  (A) (A) (A) (A) (A) (A) (A) (A)
       Virtual   (A) (A) (A) (A) (A) (A) (A) (A) (A) (A) (A) (A)
                 (A) (A) (A) (A) (A) (A) (A) (A) (A) (A) (A) (A)
                 (A) (A) (A) (A) (A) (A)
 The electronic state is 2-A.
 Alpha  occ. eigenvalues --  -10.13076 -10.12696  -0.74785  -0.57483  -0.45788
 Alpha  occ. eigenvalues --   -0.40549  -0.34931  -0.31565  -0.21489
 Alpha virt. eigenvalues --    0.00839   0.11854   0.13625   0.15406   0.24111
 Alpha virt. eigenvalues --    0.31562   0.47336   0.55472   0.56288   0.61348
 Alpha virt. eigenvalues --    0.67253   0.76300   0.81946   0.85469   0.87045
 Alpha virt. eigenvalues --    0.94671   0.96287   1.14913   1.20201   1.42863
 Alpha virt. eigenvalues --    1.54589   1.80261   1.89308   2.02284   2.07549
 Alpha virt. eigenvalues --    2.29786   2.37024   2.68978   2.71224
  Beta  occ. eigenvalues --  -10.13337 -10.12072  -0.74236  -0.56992  -0.45609
  Beta  occ. eigenvalues --   -0.40247  -0.34799  -0.27201
  Beta virt. eigenvalues --   -0.07789   0.03024   0.12095   0.13764   0.15712
  Beta virt. eigenvalues --    0.24222   0.31892   0.47626   0.56493   0.57349
  Beta virt. eigenvalues --    0.62840   0.68377   0.76816   0.85596   0.87657
  Beta virt. eigenvalues --    0.90217   0.96155   0.97687   1.17039   1.20661
  Beta virt. eigenvalues --    1.43951   1.55775   1.81268   1.90500   2.02926
  Beta virt. eigenvalues --    2.08201   2.31064   2.38214   2.69736   2.72036
          Condensed to atoms (all electrons):
               1          2          3          4          5          6
     1  C    5.017907   0.605236   0.029914   0.385839   0.385838  -0.038040
     2  C    0.605236   5.012014  -0.013524  -0.038136  -0.038123   0.383953
     3  H    0.029914  -0.013524   1.065166  -0.007835  -0.007840  -0.000008
     4  H    0.385839  -0.038136  -0.007835   0.512199  -0.035789   0.004236
     5  H    0.385838  -0.038123  -0.007840  -0.035789   0.512167  -0.006583
     6  H   -0.038040   0.383953  -0.000008   0.004236  -0.006583   0.524053
     7  H   -0.038047   0.383957  -0.000008  -0.006590   0.004235  -0.036473
               7
     1  C   -0.038047
     2  C    0.383957
     3  H   -0.000008
     4  H   -0.006590
     5  H    0.004235
     6  H   -0.036473
     7  H    0.524070
          Atomic-Atomic Spin Densities.
               1          2          3          4          5          6
     1  C   -0.191422   0.011812  -0.065266   0.007594   0.007595  -0.000014
     2  C    0.011812   0.442662  -0.028199  -0.001042  -0.001040  -0.002889
     3  H   -0.065266  -0.028199   0.938281  -0.007169  -0.007172  -0.000128
     4  H    0.007594  -0.001042  -0.007169   0.011309   0.000387  -0.000041
     5  H    0.007595  -0.001040  -0.007172   0.000387   0.011309   0.000155
     6  H   -0.000014  -0.002889  -0.000128  -0.000041   0.000155  -0.018551
     7  H   -0.000015  -0.002888  -0.000128   0.000155  -0.000041   0.000817
               7
     1  C   -0.000015
     2  C   -0.002888
     3  H   -0.000128
     4  H    0.000155
     5  H   -0.000041
     6  H    0.000817
     7  H   -0.018553
 Mulliken charges and spin densities:
               1          2
     1  C   -0.348647  -0.229716
     2  C   -0.295377   0.418415
     3  H   -0.065866   0.830218
     4  H    0.186076   0.011194
     5  H    0.186095   0.011193
     6  H    0.168863  -0.020651
     7  H    0.168856  -0.020653
 Sum of Mulliken charges =  -0.00000   1.00000
 Mulliken charges and spin densities with hydrogens summed into heavy atoms:
               1          2
     1  C   -0.042342   0.622889
     2  C    0.042342   0.377111
 Electronic spatial extent (au):  <R**2>=            103.4294
 Charge=              0.0000 electrons
 Dipole moment (field-independent basis, Debye):
    X=              0.4843    Y=              0.0002    Z=             -0.6468  Tot=              0.8081
 Quadrupole moment (field-independent basis, Debye-Ang):
   XX=            -14.0439   YY=            -13.1656   ZZ=            -16.8502
   XY=             -0.0004   XZ=              1.6614   YZ=              0.0011
 Traceless Quadrupole moment (field-independent basis, Debye-Ang):
   XX=              0.6427   YY=              1.5210   ZZ=             -2.1637
   XY=             -0.0004   XZ=              1.6614   YZ=              0.0011
 Octapole moment (field-independent basis, Debye-Ang**2):
  XXX=              4.1539  YYY=              0.0016  ZZZ=             -3.8244  XYY=              0.9360
  XXY=             -0.0004  XXZ=             -2.3425  XZZ=              1.9220  YZZ=              0.0006
  YYZ=             -1.1341  XYZ=             -0.0003
 Hexadecapole moment (field-independent basis, Debye-Ang**3):
 XXXX=            -86.4357 YYYY=            -26.3645 ZZZZ=            -41.9948 XXXY=             -0.0021
 XXXZ=              7.5926 YYYX=             -0.0021 YYYZ=              0.0025 ZZZX=              6.5836
 ZZZY=              0.0026 XXYY=            -16.0871 XXZZ=            -23.4381 YYZZ=            -11.4022
 XXYZ=              0.0025 YYXZ=              2.4106 ZZXY=             -0.0005
 N-N= 3.684893993153D+01 E-N=-2.562915776544D+02  KE= 7.861932801161D+01
                          Isotropic Fermi Contact Couplings
        Atom                 a.u.       MegaHertz       Gauss      10(-4) cm-1
     1  C(13)             -0.00706      -7.93870      -2.83273      -2.64807
     2  C(13)              0.05867      65.95827      23.53555      22.00131
     3  H(1)               0.25088    1121.38325     400.13743     374.05319
     4  H(1)               0.00659      29.47876      10.51875       9.83306
     5  H(1)               0.00660      29.48256      10.52011       9.83432
     6  H(1)              -0.00672     -30.03098     -10.71580     -10.01726
     7  H(1)              -0.00672     -30.03162     -10.71603     -10.01747
 --------------------------------------------------------
       Center         ----  Spin Dipole Couplings  ----
                      3XX-RR        3YY-RR        3ZZ-RR
 --------------------------------------------------------
     1   Atom        0.085958      0.068538     -0.154496
     2   Atom       -0.183127     -0.211221      0.394348
     3   Atom        0.003587      0.007723     -0.011309
     4   Atom        0.001739     -0.010976      0.009237
     5   Atom        0.001730     -0.010983      0.009253
     6   Atom       -0.009819      0.013154     -0.003334
     7   Atom       -0.009832      0.013161     -0.003329
 --------------------------------------------------------
                        XY            XZ            YZ
 --------------------------------------------------------
     1   Atom       -0.000005      0.051104      0.000044
     2   Atom        0.000049     -0.135607     -0.000213
     3   Atom       -0.000003      0.009768      0.000006
     4   Atom        0.006684     -0.001261     -0.008885
     5   Atom       -0.006686     -0.001264      0.008873
     6   Atom       -0.024915     -0.005389     -0.003916
     7   Atom        0.024912     -0.005375      0.003926
 --------------------------------------------------------


 ---------------------------------------------------------------------------------
              Anisotropic Spin Dipole Couplings in Principal Axis System
 ---------------------------------------------------------------------------------

       Atom             a.u.   MegaHertz   Gauss  10(-4) cm-1        Axes

              Baa    -0.1649   -22.129    -7.896    -7.381 -0.1996 -0.0002  0.9799
     1 C(13)  Bbb     0.0685     9.197     3.282     3.068 -0.0002  1.0000  0.0002
              Bcc     0.0964    12.932     4.614     4.314  0.9799  0.0001  0.1996
 
              Baa    -0.2134   -28.634   -10.217    -9.551  0.9760 -0.0006  0.2178
     2 C(13)  Bbb    -0.2112   -28.344   -10.114    -9.455  0.0005  1.0000  0.0005
              Bcc     0.4246    56.978    20.331    19.006 -0.2178 -0.0003  0.9760
 
              Baa    -0.0161    -8.614    -3.074    -2.873 -0.4437 -0.0003  0.8962
     3 H(1)   Bbb     0.0077     4.120     1.470     1.374  0.0001  1.0000  0.0004
              Bcc     0.0084     4.494     1.604     1.499  0.8962 -0.0003  0.4437
 
              Baa    -0.0162    -8.670    -3.094    -2.892 -0.3139  0.9012  0.2987
     4 H(1)   Bbb     0.0025     1.336     0.477     0.445  0.8972  0.1787  0.4038
              Bcc     0.0137     7.334     2.617     2.446 -0.3106 -0.3948  0.8647
 
              Baa    -0.0162    -8.669    -3.093    -2.892  0.3143  0.9013 -0.2980
     5 H(1)   Bbb     0.0025     1.333     0.476     0.445  0.8972 -0.1794  0.4035
              Bcc     0.0138     7.336     2.618     2.447 -0.3102  0.3942  0.8651
 
              Baa    -0.0276   -14.721    -5.253    -4.911  0.8113  0.5215  0.2644
     6 H(1)   Bbb    -0.0015    -0.809    -0.289    -0.270 -0.2294 -0.1322  0.9643
              Bcc     0.0291    15.530     5.542     5.180 -0.5378  0.8430 -0.0124
 
              Baa    -0.0276   -14.721    -5.253    -4.911  0.8114 -0.5214  0.2641
     7 H(1)   Bbb    -0.0015    -0.808    -0.288    -0.270 -0.2294  0.1315  0.9644
              Bcc     0.0291    15.530     5.541     5.180  0.5376  0.8431  0.0130
 

 ---------------------------------------------------------------------------------

 No NMR shielding tensors so no spin-rotation constants.
 Leave Link  601 at Wed Oct  7 14:39:22 2020, MaxMem=  2684354560 cpu:               5.8 elap:               1.0
 (Enter /udrive/faculty/rpeverati/g16/g16/l701.exe)
 ... and contract with generalized density number  0.
 Compute integral first derivatives.
 R6Disp: Adding Grimme-D3(BJ) dispersion energy 1st derivatives to the gradient.
 Leave Link  701 at Wed Oct  7 14:39:23 2020, MaxMem=  2684354560 cpu:               4.2 elap:               0.8
 (Enter /udrive/faculty/rpeverati/g16/g16/l702.exe)
 L702 exits ... SP integral derivatives will be done elsewhere.
 Leave Link  702 at Wed Oct  7 14:39:24 2020, MaxMem=  2684354560 cpu:               0.9 elap:               0.4
 (Enter /udrive/faculty/rpeverati/g16/g16/l703.exe)
 Integral derivatives from FoFJK, PRISM(SPDF).
 Compute integral first derivatives, UseDBF=F ICtDFT=           0.
 Calling FoFJK, ICntrl=      2127 FMM=F ISym2X=0 I1Cent= 0 IOpClX= 1 NMat=1 NMatS=1 NMatT=0.
 FoFJK:  IHMeth= 1 ICntrl=    2127 DoSepK=F KAlg= 0 I1Cent=           0 FoldK=F
 IRaf=         0 NMat=       1 IRICut=       1 DoRegI=T DoRafI=F ISym2E= 0 IDoP0=0 IntGTp=1.
 FoFCou: FMM=F IPFlag=           0 FMFlag=      100000 FMFlg1=         800
         NFxFlg=           0 DoJE=F BraDBF=F KetDBF=F FulRan=T
         wScrn=  0.000000 ICntrl=      2127 IOpCl=  1 I1Cent=           0 NGrid=           0
         NMat0=    1 NMatS0=      1 NMatT0=    0 NMatD0=    1 NMtDS0=    0 NMtDT0=    0
 Symmetry not used in FoFCou.
 Leave Link  703 at Wed Oct  7 14:39:25 2020, MaxMem=  2684354560 cpu:              10.9 elap:               1.3
 (Enter /udrive/faculty/rpeverati/g16/g16/l716.exe)
 Dipole        = 1.90557860D-01 8.85061060D-05-2.54481252D-01
 ***** Axes restored to original set *****
 -------------------------------------------------------------------
 Center     Atomic                   Forces (Hartrees/Bohr)
 Number     Number              X              Y              Z
 -------------------------------------------------------------------
      1        6          -0.010183340    0.000019320    0.007747551
      2        6           0.005848952   -0.000001141    0.000992103
      3        1           0.003522541    0.000003327   -0.005528195
      4        1          -0.002148031    0.002954919   -0.002092484
      5        1          -0.002136459   -0.002972377   -0.002105020
      6        1           0.002541916   -0.002879651    0.000494819
      7        1           0.002554422    0.002875603    0.000491227
 -------------------------------------------------------------------
 Cartesian Forces:  Max     0.010183340 RMS     0.003826460
 Leave Link  716 at Wed Oct  7 14:39:26 2020, MaxMem=  2684354560 cpu:               1.6 elap:               0.5
 (Enter /udrive/faculty/rpeverati/g16/g16/l103.exe)

 GradGradGradGradGradGradGradGradGradGradGradGradGradGradGradGradGradGrad
 Berny optimization.
 Optmz: redundant internal coordinate code flag= 1
 FormGI is forming the generalized inverse of G from B-inverse, IUseBI=4.
 Internal  Forces:  Max     0.011121075 RMS     0.003340124
 Numerically estimating second derivatives.
 Iteration  1 RMS(Cart)=  0.00099463 RMS(Int)=  0.00000005
 Iteration  2 RMS(Cart)=  0.00000010 RMS(Int)=  0.00000000
 Largest change from initial coordinates is atom    3       0.000 Angstoms.
 GradGradGradGradGradGradGradGradGradGradGradGradGradGradGradGradGradGrad

 Leave Link  103 at Wed Oct  7 14:39:27 2020, MaxMem=  2684354560 cpu:               3.7 elap:               0.7
 (Enter /udrive/faculty/rpeverati/g16/g16/l202.exe)
                          Input orientation:                          
 ---------------------------------------------------------------------
 Center     Atomic      Atomic             Coordinates (Angstroms)
 Number     Number       Type             X           Y           Z
 ---------------------------------------------------------------------
      1          6           0       -0.568096    0.000051   -0.218569
      2          6           0        0.750953   -0.000036    0.042155
      3          1           0       -1.492646   -0.000487    1.529934
      4          1           0       -1.101938    0.920652   -0.408170
      5          1           0       -1.102266   -0.920234   -0.408653
      6          1           0        1.298959   -0.922345    0.173917
      7          1           0        1.298727    0.922324    0.174516
 ---------------------------------------------------------------------
                    Distance matrix (angstroms):
                    1          2          3          4          5
     1  C    0.000000
     2  C    1.344570   0.000000
     3  H    1.977891   2.692067   0.000000
     4  H    1.080945   2.117467   2.181146   0.000000
     5  H    1.080923   2.117644   2.180929   1.840886   0.000000
     6  H    2.119140   1.080891   3.237540   3.082170   2.470886
     7  H    2.118993   1.080890   3.237359   2.470368   3.082187
                    6          7
     6  H    0.000000
     7  H    1.844670   0.000000
 Stoichiometry    C2H5(2)
 Framework group  C1[X(C2H5)]
 Deg. of freedom    15
 Full point group                 C1      NOp   1
 RotChk:  IX=0 Diff= 5.59D-04
 Largest Abelian subgroup         C1      NOp   1
 Largest concise Abelian subgroup C1      NOp   1
                         Standard orientation:                         
 ---------------------------------------------------------------------
 Center     Atomic      Atomic             Coordinates (Angstroms)
 Number     Number       Type             X           Y           Z
 ---------------------------------------------------------------------
      1          6           0       -0.568064    0.000049   -0.218524
      2          6           0        0.751089   -0.000035    0.041678
      3          1           0       -1.491922   -0.000479    1.530344
      4          1           0       -1.101982    0.920648   -0.407920
      5          1           0       -1.102308   -0.920237   -0.408392
      6          1           0        1.299148   -0.922343    0.173229
      7          1           0        1.298913    0.922326    0.173817
 ---------------------------------------------------------------------
 Rotational constants (GHZ):          75.7168240          22.9648476          22.7885811
 Leave Link  202 at Wed Oct  7 14:39:28 2020, MaxMem=  2684354560 cpu:               1.5 elap:               0.5
 (Enter /udrive/faculty/rpeverati/g16/g16/l301.exe)
 Standard basis: 6-31G(d) (5D, 7F)
 Ernie: Thresh=  0.10000D-02 Tol=  0.10000D-05 Strict=F.
 There are    40 symmetry adapted cartesian basis functions of A   symmetry.
 There are    38 symmetry adapted basis functions of A   symmetry.
    38 basis functions,    76 primitive gaussians,    40 cartesian basis functions
     9 alpha electrons        8 beta electrons
       nuclear repulsion energy        36.8563464057 Hartrees.
 IExCor= 2523 DFT=T Ex+Corr=TPSSh ExCW=0 ScaHFX=  0.100000
 ScaDFX=  0.900000  0.900000  1.000000  1.000000 ScalE2=  1.000000  1.000000
 IRadAn=      5 IRanWt=     -1 IRanGd=            0 ICorTp=0 IEmpDi=141
 NAtoms=    7 NActive=    7 NUniq=    7 SFac= 1.00D+00 NAtFMM=   60 NAOKFM=F Big=F
 Integral buffers will be    131072 words long.
 Raffenetti 2 integral format.
 Two-electron integral symmetry is turned on.
 R6DIni: Non-standard D2/D3 S6 parameter, value=     1.000000
 R6DIni: Non-standard D2/D3 S8 parameter, value=     2.238200
 R6DIni: Non-standard D3BJ A1 parameter, value=     0.452900
 R6DIni: Non-standard D3BJ A2 parameter, value=     4.655000
 R6Disp:  Grimme-D3(BJ) Dispersion energy=       -0.0035275809 Hartrees.
 Nuclear repulsion after empirical dispersion term =       36.8528188247 Hartrees.
 Leave Link  301 at Wed Oct  7 14:39:28 2020, MaxMem=  2684354560 cpu:               2.1 elap:               0.6
 (Enter /udrive/faculty/rpeverati/g16/g16/l302.exe)
 NPDir=0 NMtPBC=     1 NCelOv=     1 NCel=       1 NClECP=     1 NCelD=      1
         NCelK=      1 NCelE2=     1 NClLst=     1 CellRange=     0.0.
 One-electron integrals computed using PRISM.
 One-electron integral symmetry used in STVInt
 NBasis=    38 RedAO= T EigKep=  8.31D-03  NBF=    38
 NBsUse=    38 1.00D-06 EigRej= -1.00D+00 NBFU=    38
 Precomputing XC quadrature grid using
 IXCGrd= 4 IRadAn=           5 IRanWt=          -1 IRanGd=           0 AccXCQ= 0.00D+00.
 Generated NRdTot=       0 NPtTot=           0 NUsed=           0 NTot=          32
 NSgBfM=    40    40    40    40    40 MxSgAt=     7 MxSgA2=     7.
 Leave Link  302 at Wed Oct  7 14:39:29 2020, MaxMem=  2684354560 cpu:               3.5 elap:               0.7
 (Enter /udrive/faculty/rpeverati/g16/g16/l303.exe)
 DipDrv:  MaxL=1.
 Leave Link  303 at Wed Oct  7 14:39:30 2020, MaxMem=  2684354560 cpu:               1.1 elap:               0.5
 (Enter /udrive/faculty/rpeverati/g16/g16/l401.exe)
 Initial guess from the checkpoint file:  "MN_13_c2h5ts_BH76_TPSShDBJ_631Gs.chk"
 SCF N**3 symmetry information disabled.
 B after Tr=     0.000000    0.000000    0.000000
         Rot=    1.000000    0.000003   -0.000212   -0.000000 Ang=   0.02 deg.
 Guess basis will be translated and rotated to current coordinates.
 JPrj=2 DoOrth=T DoCkMO=T.
 Initial guess <Sx>= 0.0000 <Sy>= 0.0000 <Sz>= 0.5000 <S**2>= 0.7794 S= 0.5146
 Generating alternative initial guess.
 ExpMin= 1.61D-01 ExpMax= 3.05D+03 ExpMxC= 4.57D+02 IAcc=2 IRadAn=         4 AccDes= 0.00D+00
 Harris functional with IExCor= 1009 and IRadAn=       4 diagonalized for initial guess.
 HarFok:  IExCor= 1009 AccDes= 0.00D+00 IRadAn=         4 IDoV= 1 UseB2=F ITyADJ=14
 ICtDFT=  3500011 ScaDFX=  1.000000  1.000000  1.000000  1.000000
 FoFCou: FMM=F IPFlag=           0 FMFlag=      100000 FMFlg1=           0
         NFxFlg=           0 DoJE=T BraDBF=F KetDBF=T FulRan=T
         wScrn=  0.000000 ICntrl=       500 IOpCl=  0 I1Cent=   200000004 NGrid=           0
         NMat0=    1 NMatS0=      1 NMatT0=    0 NMatD0=    1 NMtDS0=    0 NMtDT0=    0
 Petite list used in FoFCou.
 Harris En= -79.0124857295603    
 Leave Link  401 at Wed Oct  7 14:39:31 2020, MaxMem=  2684354560 cpu:               8.0 elap:               1.0
 (Enter /udrive/faculty/rpeverati/g16/g16/l502.exe)
 Keep R1 and R2 ints in memory in canonical form, NReq=10915733.
 FoFCou: FMM=F IPFlag=           0 FMFlag=           0 FMFlg1=           0
         NFxFlg=           0 DoJE=F BraDBF=F KetDBF=F FulRan=T
         wScrn=  0.000000 ICntrl=       600 IOpCl=  0 I1Cent=           0 NGrid=           0
         NMat0=    1 NMatS0=    741 NMatT0=    0 NMatD0=    1 NMtDS0=    0 NMtDT0=    0
 Symmetry not used in FoFCou.
 Two-electron integral symmetry not used.
 UHF open shell SCF:
 Using DIIS extrapolation, IDIIS=  1040.
 NGot=  2684354560 LenX=  2683800373 LenY=  2683798332
 Requested convergence on RMS density matrix=1.00D-08 within 120 cycles.
 Requested convergence on MAX density matrix=1.00D-06.
 Requested convergence on             energy=1.00D-06.
 No special actions if energy rises.
 Integral accuracy reduced to 1.0D-05 until final iterations.

 Cycle   1  Pass 0  IDiag  1:
 E= -79.0995124815343    
 DIIS: error= 6.96D-05 at cycle   1 NSaved=   1.
 NSaved= 1 IEnMin= 1 EnMin= -79.0995124815343     IErMin= 1 ErrMin= 6.96D-05
 ErrMax= 6.96D-05  0.00D+00 EMaxC= 1.00D-01 BMatC= 2.87D-07 BMatP= 2.87D-07
 IDIUse=1 WtCom= 1.00D+00 WtEn= 0.00D+00
 Coeff-Com:  0.100D+01
 Coeff:      0.100D+01
 Gap=     0.599 Goal=   None    Shift=    0.000
 Gap=     0.570 Goal=   None    Shift=    0.000
 RMSDP=2.06D-05 MaxDP=2.50D-04              OVMax= 5.68D-04

 Cycle   2  Pass 0  IDiag  1:
 E= -79.0995127569026     Delta-E=       -0.000000275368 Rises=F Damp=F
 DIIS: error= 2.31D-05 at cycle   2 NSaved=   2.
 NSaved= 2 IEnMin= 2 EnMin= -79.0995127569026     IErMin= 2 ErrMin= 2.31D-05
 ErrMax= 2.31D-05  0.00D+00 EMaxC= 1.00D-01 BMatC= 3.49D-08 BMatP= 2.87D-07
 IDIUse=1 WtCom= 1.00D+00 WtEn= 0.00D+00
 Coeff-Com:  0.109D+00 0.891D+00
 Coeff:      0.109D+00 0.891D+00
 Gap=     0.223 Goal=   None    Shift=    0.000
 Gap=     0.194 Goal=   None    Shift=    0.000
 RMSDP=7.08D-06 MaxDP=1.24D-04 DE=-2.75D-07 OVMax= 2.72D-04

 Initial convergence to 1.0D-05 achieved.  Increase integral accuracy.
 Cycle   3  Pass 1  IDiag  1:
 E= -79.0995126998902     Delta-E=        0.000000057012 Rises=F Damp=F
 DIIS: error= 2.22D-05 at cycle   1 NSaved=   1.
 NSaved= 1 IEnMin= 1 EnMin= -79.0995126998902     IErMin= 1 ErrMin= 2.22D-05
 ErrMax= 2.22D-05  0.00D+00 EMaxC= 1.00D-01 BMatC= 5.66D-08 BMatP= 5.66D-08
 IDIUse=1 WtCom= 1.00D+00 WtEn= 0.00D+00
 Coeff-Com:  0.100D+01
 Coeff:      0.100D+01
 Gap=     0.223 Goal=   None    Shift=    0.000
 Gap=     0.194 Goal=   None    Shift=    0.000
 RMSDP=7.08D-06 MaxDP=1.24D-04 DE= 5.70D-08 OVMax= 3.27D-04

 Cycle   4  Pass 1  IDiag  1:
 E= -79.0995126676927     Delta-E=        0.000000032198 Rises=F Damp=F
 DIIS: error= 3.41D-05 at cycle   2 NSaved=   2.
 NSaved= 2 IEnMin= 1 EnMin= -79.0995126998902     IErMin= 1 ErrMin= 2.22D-05
 ErrMax= 3.41D-05  0.00D+00 EMaxC= 1.00D-01 BMatC= 1.90D-07 BMatP= 5.66D-08
 IDIUse=1 WtCom= 1.00D+00 WtEn= 0.00D+00
 Coeff-Com:  0.651D+00 0.349D+00
 Coeff:      0.651D+00 0.349D+00
 Gap=     0.223 Goal=   None    Shift=    0.000
 Gap=     0.194 Goal=   None    Shift=    0.000
 RMSDP=5.27D-06 MaxDP=8.43D-05 DE= 3.22D-08 OVMax= 1.49D-04

 Cycle   5  Pass 1  IDiag  1:
 E= -79.0995127236131     Delta-E=       -0.000000055920 Rises=F Damp=F
 DIIS: error= 4.07D-06 at cycle   3 NSaved=   3.
 NSaved= 3 IEnMin= 3 EnMin= -79.0995127236131     IErMin= 3 ErrMin= 4.07D-06
 ErrMax= 4.07D-06  0.00D+00 EMaxC= 1.00D-01 BMatC= 1.21D-09 BMatP= 5.66D-08
 IDIUse=1 WtCom= 1.00D+00 WtEn= 0.00D+00
 Coeff-Com: -0.446D+00-0.209D+00 0.166D+01
 Coeff:     -0.446D+00-0.209D+00 0.166D+01
 Gap=     0.223 Goal=   None    Shift=    0.000
 Gap=     0.194 Goal=   None    Shift=    0.000
 RMSDP=2.19D-06 MaxDP=3.35D-05 DE=-5.59D-08 OVMax= 7.19D-05

 Cycle   6  Pass 1  IDiag  1:
 E= -79.0995127261171     Delta-E=       -0.000000002504 Rises=F Damp=F
 DIIS: error= 2.75D-06 at cycle   4 NSaved=   4.
 NSaved= 4 IEnMin= 4 EnMin= -79.0995127261171     IErMin= 4 ErrMin= 2.75D-06
 ErrMax= 2.75D-06  0.00D+00 EMaxC= 1.00D-01 BMatC= 4.75D-10 BMatP= 1.21D-09
 IDIUse=1 WtCom= 1.00D+00 WtEn= 0.00D+00
 Coeff-Com: -0.377D+00-0.184D+00 0.842D+00 0.719D+00
 Coeff:     -0.377D+00-0.184D+00 0.842D+00 0.719D+00
 Gap=     0.223 Goal=   None    Shift=    0.000
 Gap=     0.194 Goal=   None    Shift=    0.000
 RMSDP=8.04D-07 MaxDP=1.10D-05 DE=-2.50D-09 OVMax= 3.15D-05

 Cycle   7  Pass 1  IDiag  1:
 E= -79.0995127265287     Delta-E=       -0.000000000412 Rises=F Damp=F
 DIIS: error= 5.85D-07 at cycle   5 NSaved=   5.
 NSaved= 5 IEnMin= 5 EnMin= -79.0995127265287     IErMin= 5 ErrMin= 5.85D-07
 ErrMax= 5.85D-07  0.00D+00 EMaxC= 1.00D-01 BMatC= 5.64D-11 BMatP= 4.75D-10
 IDIUse=1 WtCom= 1.00D+00 WtEn= 0.00D+00
 Coeff-Com: -0.904D-01-0.463D-01 0.947D-01 0.267D+00 0.775D+00
 Coeff:     -0.904D-01-0.463D-01 0.947D-01 0.267D+00 0.775D+00
 Gap=     0.223 Goal=   None    Shift=    0.000
 Gap=     0.194 Goal=   None    Shift=    0.000
 RMSDP=2.45D-07 MaxDP=3.88D-06 DE=-4.12D-10 OVMax= 7.52D-06

 Cycle   8  Pass 1  IDiag  1:
 E= -79.0995127265611     Delta-E=       -0.000000000032 Rises=F Damp=F
 DIIS: error= 1.77D-07 at cycle   6 NSaved=   6.
 NSaved= 6 IEnMin= 6 EnMin= -79.0995127265611     IErMin= 6 ErrMin= 1.77D-07
 ErrMax= 1.77D-07  0.00D+00 EMaxC= 1.00D-01 BMatC= 5.89D-12 BMatP= 5.64D-11
 IDIUse=1 WtCom= 1.00D+00 WtEn= 0.00D+00
 Coeff-Com:  0.367D-01 0.167D-01-0.992D-01-0.568D-01 0.206D+00 0.897D+00
 Coeff:      0.367D-01 0.167D-01-0.992D-01-0.568D-01 0.206D+00 0.897D+00
 Gap=     0.223 Goal=   None    Shift=    0.000
 Gap=     0.194 Goal=   None    Shift=    0.000
 RMSDP=5.00D-08 MaxDP=6.80D-07 DE=-3.24D-11 OVMax= 1.09D-06

 Cycle   9  Pass 1  IDiag  1:
 E= -79.0995127265635     Delta-E=       -0.000000000002 Rises=F Damp=F
 DIIS: error= 3.13D-08 at cycle   7 NSaved=   7.
 NSaved= 7 IEnMin= 7 EnMin= -79.0995127265635     IErMin= 7 ErrMin= 3.13D-08
 ErrMax= 3.13D-08  0.00D+00 EMaxC= 1.00D-01 BMatC= 1.70D-13 BMatP= 5.89D-12
 IDIUse=1 WtCom= 1.00D+00 WtEn= 0.00D+00
 Coeff-Com:  0.177D-03 0.705D-03 0.713D-02-0.913D-02-0.517D-01-0.802D-01
 Coeff-Com:  0.113D+01
 Coeff:      0.177D-03 0.705D-03 0.713D-02-0.913D-02-0.517D-01-0.802D-01
 Coeff:      0.113D+01
 Gap=     0.223 Goal=   None    Shift=    0.000
 Gap=     0.194 Goal=   None    Shift=    0.000
 RMSDP=1.10D-08 MaxDP=1.19D-07 DE=-2.39D-12 OVMax= 2.18D-07

 Cycle  10  Pass 1  IDiag  1:
 E= -79.0995127265634     Delta-E=        0.000000000000 Rises=F Damp=F
 DIIS: error= 7.98D-09 at cycle   8 NSaved=   8.
 NSaved= 8 IEnMin= 7 EnMin= -79.0995127265635     IErMin= 8 ErrMin= 7.98D-09
 ErrMax= 7.98D-09  0.00D+00 EMaxC= 1.00D-01 BMatC= 1.19D-14 BMatP= 1.70D-13
 IDIUse=1 WtCom= 1.00D+00 WtEn= 0.00D+00
 Coeff-Com: -0.251D-02-0.106D-02 0.789D-02 0.306D-02-0.195D-01-0.730D-01
 Coeff-Com:  0.781D-01 0.101D+01
 Coeff:     -0.251D-02-0.106D-02 0.789D-02 0.306D-02-0.195D-01-0.730D-01
 Coeff:      0.781D-01 0.101D+01
 Gap=     0.223 Goal=   None    Shift=    0.000
 Gap=     0.194 Goal=   None    Shift=    0.000
 RMSDP=3.26D-09 MaxDP=3.29D-08 DE= 5.68D-14 OVMax= 6.28D-08

 SCF Done:  E(UTPSSh) =  -79.0995127266     A.U. after   10 cycles
            NFock= 10  Conv=0.33D-08     -V/T= 2.0061
 <Sx>= 0.0000 <Sy>= 0.0000 <Sz>= 0.5000 <S**2>= 0.7796 S= 0.5147
 <L.S>= 0.000000000000E+00
 KE= 7.861959776311D+01 PE=-2.562994312865D+02 EE= 6.172750197211D+01
 Annihilation of the first spin contaminant:
 S**2 before annihilation     0.7796,   after     0.7501
 Leave Link  502 at Wed Oct  7 14:39:36 2020, MaxMem=  2684354560 cpu:              45.7 elap:               4.3
 (Enter /udrive/faculty/rpeverati/g16/g16/l508.exe)
 QCSCF skips out because SCF is already converged.
 Leave Link  508 at Wed Oct  7 14:39:36 2020, MaxMem=  2684354560 cpu:               0.3 elap:               0.3
 (Enter /udrive/faculty/rpeverati/g16/g16/l701.exe)
 ... and contract with generalized density number  0.
 Compute integral first derivatives.
 R6Disp: Adding Grimme-D3(BJ) dispersion energy 1st derivatives to the gradient.
 Leave Link  701 at Wed Oct  7 14:39:37 2020, MaxMem=  2684354560 cpu:               3.3 elap:               0.6
 (Enter /udrive/faculty/rpeverati/g16/g16/l702.exe)
 L702 exits ... SP integral derivatives will be done elsewhere.
 Leave Link  702 at Wed Oct  7 14:39:38 2020, MaxMem=  2684354560 cpu:               1.0 elap:               0.4
 (Enter /udrive/faculty/rpeverati/g16/g16/l703.exe)
 Integral derivatives from FoFJK, PRISM(SPDF).
 Compute integral first derivatives, UseDBF=F ICtDFT=           0.
 Calling FoFJK, ICntrl=      2127 FMM=F ISym2X=0 I1Cent= 0 IOpClX= 1 NMat=1 NMatS=1 NMatT=0.
 FoFJK:  IHMeth= 1 ICntrl=    2127 DoSepK=F KAlg= 0 I1Cent=           0 FoldK=F
 IRaf=         0 NMat=       1 IRICut=       1 DoRegI=T DoRafI=F ISym2E= 0 IDoP0=0 IntGTp=1.
 FoFCou: FMM=F IPFlag=           0 FMFlag=      100000 FMFlg1=         800
         NFxFlg=           0 DoJE=F BraDBF=F KetDBF=F FulRan=T
         wScrn=  0.000000 ICntrl=      2127 IOpCl=  1 I1Cent=           0 NGrid=           0
         NMat0=    1 NMatS0=      1 NMatT0=    0 NMatD0=    1 NMtDS0=    0 NMtDT0=    0
 Symmetry not used in FoFCou.
 Leave Link  703 at Wed Oct  7 14:39:39 2020, MaxMem=  2684354560 cpu:              10.8 elap:               1.2
 (Enter /udrive/faculty/rpeverati/g16/g16/l716.exe)
 Dipole        = 1.90197063D-01 8.68942490D-05-2.54429789D-01
 ***** Axes restored to original set *****
 -------------------------------------------------------------------
 Center     Atomic                   Forces (Hartrees/Bohr)
 Number     Number              X              Y              Z
 -------------------------------------------------------------------
      1        6          -0.010387051    0.000019280    0.007874102
      2        6           0.006015960   -0.000001141    0.000981973
      3        1           0.003542317    0.000003351   -0.005562731
      4        1          -0.002138767    0.002954390   -0.002135355
      5        1          -0.002127188   -0.002971831   -0.002147913
      6        1           0.002541112   -0.002878230    0.000496754
      7        1           0.002553617    0.002874182    0.000493170
 -------------------------------------------------------------------
 Cartesian Forces:  Max     0.010387051 RMS     0.003881499
 Leave Link  716 at Wed Oct  7 14:39:40 2020, MaxMem=  2684354560 cpu:               1.2 elap:               0.4
 (Enter /udrive/faculty/rpeverati/g16/g16/l103.exe)

 GradGradGradGradGradGradGradGradGradGradGradGradGradGradGradGradGradGrad
 Berny optimization.
 Optmz: redundant internal coordinate code flag= 1
 Red2BG:  D1=  1.77D-01 OD1=  9.83D-04 B2RMS=  0.00D+00 IAprox=0
 FormGI is forming the generalized inverse of G from B-inverse, IUseBI=4.
 Internal  Forces:  Max     0.011282143 RMS     0.003371175
 Search for a saddle point.
 Step number   1 out of a maximum of   50
 All quantities printed in internal units (Hartrees-Bohrs-Radians)
 Swapping is turned off.
 Second derivative matrix not updated -- first step.
 The second derivative matrix:
                          R1        R2        R3        R4        R5
           R1           0.56193
           R2           0.03221  -0.00794
           R3           0.00000   0.00048   0.35880
           R4           0.00000   0.00048   0.00000   0.35883
           R5           0.00000  -0.00028   0.00000   0.00000   0.35887
           R6           0.00000  -0.00028   0.00000   0.00000  -0.00000
           A1           0.00000   0.00279   0.00000   0.00000   0.00000
           A2           0.00000  -0.00059  -0.00000  -0.00000  -0.00000
           A3           0.00000  -0.00059  -0.00000  -0.00000  -0.00000
           A4           0.00000   0.00373   0.00000   0.00000   0.00000
           A5           0.00000   0.00373   0.00000   0.00000   0.00000
           A6          -0.00000  -0.00062  -0.00000  -0.00000  -0.00000
           A7           0.00000   0.00004   0.00000   0.00000  -0.00000
           A8           0.00000   0.00004   0.00000   0.00000  -0.00000
           A9          -0.00000  -0.00010  -0.00000  -0.00000   0.00000
           D1           0.00000  -0.00028  -0.00000  -0.00000  -0.00000
           D2          -0.00000   0.00028  -0.00000  -0.00000   0.00000
           D3           0.00000   0.00584   0.00000   0.00000   0.00000
           D4           0.00000   0.00640   0.00000   0.00000   0.00000
           D5          -0.00000  -0.00640  -0.00000  -0.00000  -0.00000
           D6          -0.00000  -0.00584  -0.00000  -0.00000  -0.00000
                          R6        A1        A2        A3        A4
           R6           0.35887
           A1           0.00000   0.16000
           A2          -0.00000  -0.00000   0.16000
           A3          -0.00000  -0.00000  -0.00000   0.16000
           A4           0.00000   0.00000   0.00000   0.00000   0.16000
           A5           0.00000   0.00000   0.00000   0.00000  -0.00000
           A6          -0.00000  -0.00000   0.00000   0.00000  -0.00000
           A7          -0.00000   0.00000  -0.00000  -0.00000   0.00000
           A8          -0.00000   0.00000  -0.00000  -0.00000   0.00000
           A9           0.00000  -0.00000   0.00000   0.00000  -0.00000
           D1          -0.00000   0.00000  -0.00000  -0.00000   0.00000
           D2           0.00000  -0.00000   0.00000   0.00000  -0.00000
           D3           0.00000   0.00000  -0.00000   0.00000   0.00000
           D4           0.00000   0.00000   0.00000   0.00000   0.00000
           D5          -0.00000  -0.00000  -0.00000  -0.00000  -0.00000
           D6          -0.00000  -0.00000   0.00000  -0.00000  -0.00000
                          A5        A6        A7        A8        A9
           A5           0.16000
           A6          -0.00000   0.16000
           A7           0.00000  -0.00000   0.16000
           A8           0.00000  -0.00000   0.00000   0.16000
           A9          -0.00000   0.00000  -0.00000  -0.00000   0.16000
           D1           0.00000  -0.00000  -0.00000  -0.00000   0.00000
           D2          -0.00000   0.00000   0.00000   0.00000  -0.00000
           D3           0.00000  -0.00000   0.00000   0.00000  -0.00000
           D4          -0.00000  -0.00000   0.00000   0.00000  -0.00000
           D5           0.00000   0.00000  -0.00000  -0.00000   0.00000
           D6          -0.00000   0.00000  -0.00000  -0.00000   0.00000
                          D1        D2        D3        D4        D5
           D1           0.02822
           D2           0.00000   0.02822
           D3           0.00000  -0.00000   0.02822
           D4           0.00000  -0.00000   0.00000   0.02822
           D5          -0.00000   0.00000  -0.00000   0.00000   0.02822
           D6          -0.00000   0.00000  -0.00000  -0.00000   0.00000
                          D6
           D6           0.02822
 ITU=  0
 Eigenvectors of the second derivative matrix:
                           1         2         3         4         5
     Eigenvalues --    -0.01258   0.02822   0.02828   0.05613   0.09156
   1         R1        -0.05482   0.00000  -0.00091  -0.01284  -0.00000
   2         R2         0.97771  -0.00003   0.01501   0.20157   0.00002
   3         R3        -0.00127   0.00000  -0.00002  -0.00032  -0.00000
   4         R4        -0.00127   0.00000  -0.00002  -0.00032  -0.00000
   5         R5         0.00072  -0.00000   0.00001   0.00018   0.00000
   6         R6         0.00072  -0.00000   0.00001   0.00018   0.00000
   7         A1        -0.04728   0.00000  -0.00198   0.24840   0.00002
   8         A2         0.00585  -0.00000   0.00020  -0.01897  -0.13689
   9         A3         0.00586  -0.00000   0.00020  -0.01896   0.13687
  10         A4        -0.05137   0.00000  -0.00203   0.23662  -0.47082
  11         A5        -0.05141   0.00000  -0.00203   0.23670   0.47063
  12         A6         0.01497  -0.00000   0.00068  -0.09119   0.00004
  13         A7        -0.00009  -0.00000  -0.01127  -0.00015  -0.00000
  14         A8        -0.00009  -0.00000  -0.01127  -0.00015  -0.00000
  15         A9         0.00073  -0.00000  -0.01126   0.00013   0.00000
  16         D1         0.00664  -0.40841  -0.40795  -0.00193   0.41608
  17         D2        -0.00672  -0.40809   0.40827   0.00211   0.41608
  18         D3        -0.08413  -0.40840  -0.41162   0.43852  -0.20810
  19         D4        -0.09750  -0.40808   0.40460   0.44256  -0.20810
  20         D5         0.09750  -0.40841  -0.40429  -0.44263  -0.20798
  21         D6         0.08413  -0.40810   0.41194  -0.43859  -0.20798
                           6         7         8         9        10
     Eigenvalues --     0.16000   0.16000   0.16000   0.16000   0.16001
   1         R1         0.00000   0.00000  -0.00000   0.00000  -0.00056
   2         R2         0.00000  -0.00000   0.00000   0.00000   0.00703
   3         R3        -0.00000  -0.00000  -0.00000   0.00000  -0.00002
   4         R4         0.00000  -0.00000   0.00000   0.00000  -0.00002
   5         R5        -0.00000  -0.00000   0.00000   0.00000   0.00001
   6         R6        -0.00000  -0.00000  -0.00000   0.00000   0.00001
   7         A1        -0.56474  -0.09227   0.17248   0.00331  -0.54562
   8         A2         0.36950   0.19776   0.26384   0.55701  -0.26899
   9         A3         0.17775   0.00224  -0.45405  -0.56268  -0.27114
  10         A4         0.18631  -0.00952  -0.16646  -0.16372   0.36239
  11         A5         0.24223   0.04737   0.04225   0.16188   0.36312
  12         A6        -0.53923  -0.19706   0.18742   0.00559   0.53209
  13         A7        -0.26787   0.27818  -0.60604   0.38578   0.04096
  14         A8         0.03078   0.49199   0.50172  -0.41294   0.04102
  15         A9         0.23681  -0.76926   0.10420   0.02713  -0.08188
  16         D1        -0.00000  -0.00000  -0.00000  -0.00000  -0.00001
  17         D2        -0.00000  -0.00000  -0.00000  -0.00000   0.00002
  18         D3        -0.00000  -0.00000  -0.00000   0.00000   0.00039
  19         D4        -0.00000  -0.00000  -0.00000   0.00000   0.00042
  20         D5         0.00000   0.00000  -0.00000  -0.00000  -0.00042
  21         D6         0.00000  -0.00000  -0.00000   0.00000  -0.00039
                          11        12        13        14        15
     Eigenvalues --     0.35880   0.35883   0.35887   0.35887   0.56375
   1         R1        -0.00020   0.00021  -0.00010  -0.00013   0.99841
   2         R2         0.00126  -0.00132   0.00066   0.00085   0.05630
   3         R3         0.99970  -0.02334   0.00494   0.00620   0.00013
   4         R4        -0.02344  -0.99964   0.00840   0.01036   0.00013
   5         R5         0.00545  -0.00977  -0.99200  -0.12571  -0.00008
   6         R6         0.00531  -0.00935   0.12583  -0.99199  -0.00008
   7         A1         0.00001  -0.00001   0.00001   0.00001   0.00029
   8         A2        -0.00000   0.00000  -0.00000  -0.00000  -0.00007
   9         A3        -0.00000   0.00000  -0.00000  -0.00000  -0.00007
  10         A4         0.00002  -0.00002   0.00001   0.00001   0.00042
  11         A5         0.00002  -0.00002   0.00001   0.00001   0.00042
  12         A6        -0.00000   0.00000  -0.00000  -0.00000  -0.00005
  13         A7         0.00000  -0.00000   0.00000   0.00000   0.00001
  14         A8         0.00000  -0.00000   0.00000   0.00000   0.00001
  15         A9        -0.00000   0.00000  -0.00000  -0.00000  -0.00001
  16         D1        -0.00000   0.00000  -0.00000  -0.00000  -0.00003
  17         D2         0.00000  -0.00000   0.00000   0.00000   0.00003
  18         D3         0.00002  -0.00003   0.00001   0.00002   0.00065
  19         D4         0.00003  -0.00003   0.00001   0.00002   0.00070
  20         D5        -0.00003   0.00003  -0.00001  -0.00002  -0.00070
  21         D6        -0.00002   0.00003  -0.00001  -0.00002  -0.00065
 RLam0= 3.37D-03.
 Iter=   1 RLamda= 0.00000000D+00 Sum=-4.06456659D-04.
 Iter=   2 RLamda=-4.06456659D-04 Sum=-4.06000864D-04.
 Iter=   3 RLamda=-4.06000864D-04 Sum=-4.06001374D-04.
 RFO step:  Lambda0=3.368415605D-03 Lambda=-4.06000864D-04.
 Linear search not attempted -- option 19 set.
 Maximum step size (   0.100) exceeded in Quadratic search.
    -- Step size scaled by   0.221
 Iteration  1 RMS(Cart)=  0.01810239 RMS(Int)=  0.00002302
 Iteration  2 RMS(Cart)=  0.00001755 RMS(Int)=  0.00001724
 Iteration  3 RMS(Cart)=  0.00000000 RMS(Int)=  0.00001724
 ITry= 1 IFail=0 DXMaxC= 6.47D-02 DCOld= 1.00D+10 DXMaxT= 1.00D-01 DXLimC= 3.00D+00 Rises=F
 Variable       Old X    -DE/DX   Delta X   Delta X   Delta X     New X
                                 (Linear)    (Quad)   (Total)
    R1        2.54087   0.01112   0.00000  -0.00137  -0.00137   2.53950
    R2        3.74267  -0.00653   0.00000   0.09944   0.09944   3.84211
    R3        2.04269   0.00394   0.00000   0.00229   0.00229   2.04498
    R4        2.04265   0.00396   0.00000   0.00229   0.00229   2.04494
    R5        2.04259   0.00381   0.00000   0.00241   0.00241   2.04500
    R6        2.04259   0.00381   0.00000   0.00242   0.00242   2.04500
    A1        1.86205  -0.00096   0.00000  -0.00652  -0.00652   1.85553
    A2        2.11596   0.00042   0.00000   0.00122   0.00118   2.11714
    A3        2.11630   0.00038   0.00000   0.00117   0.00113   2.11742
    A4        1.49516   0.00097   0.00000  -0.00432  -0.00432   1.49084
    A5        1.49495   0.00098   0.00000  -0.00431  -0.00431   1.49064
    A6        2.03778  -0.00100   0.00000   0.00027   0.00022   2.03800
    A7        2.11889   0.00048   0.00000   0.00067   0.00066   2.11956
    A8        2.11864   0.00050   0.00000   0.00070   0.00070   2.11934
    A9        2.04460  -0.00097   0.00000  -0.00124  -0.00124   2.04336
    D1        1.54556   0.00006   0.00000   0.00151   0.00151   1.54707
    D2       -1.54549  -0.00006   0.00000  -0.00156  -0.00156  -1.54704
    D3       -3.07716   0.00078   0.00000  -0.00748  -0.00749  -3.08465
    D4        0.11498   0.00066   0.00000  -0.01055  -0.01056   0.10442
    D5       -0.11476  -0.00067   0.00000   0.01052   0.01052  -0.10424
    D6        3.07738  -0.00079   0.00000   0.00745   0.00745   3.08483
         Item               Value     Threshold  Converged?
 Maximum Force            0.011121     0.000450     NO 
 RMS     Force            0.003340     0.000300     NO 
 Maximum Displacement     0.064697     0.001800     NO 
 RMS     Displacement     0.018101     0.001200     NO 
 Predicted change in Energy= 5.987343D-04
 Lowest energy point so far.  Saving SCF results.
 Largest change from initial coordinates is atom    3       0.004 Angstoms.
 GradGradGradGradGradGradGradGradGradGradGradGradGradGradGradGradGradGrad

 Leave Link  103 at Wed Oct  7 14:39:40 2020, MaxMem=  2684354560 cpu:               2.6 elap:               0.4
 (Enter /udrive/faculty/rpeverati/g16/g16/l202.exe)
                          Input orientation:                          
 ---------------------------------------------------------------------
 Center     Atomic      Atomic             Coordinates (Angstroms)
 Number     Number       Type             X           Y           Z
 ---------------------------------------------------------------------
      1          6           0       -0.562897    0.000065   -0.231175
      2          6           0        0.753664   -0.000028    0.038247
      3          1           0       -1.513620   -0.000504    1.566003
      4          1           0       -1.098788    0.921748   -0.416596
      5          1           0       -1.099076   -0.921329   -0.417090
      6          1           0        1.302301   -0.923089    0.172580
      7          1           0        1.302110    0.923061    0.173162
 ---------------------------------------------------------------------
                    Distance matrix (angstroms):
                    1          2          3          4          5
     1  C    0.000000
     2  C    1.343845   0.000000
     3  H    2.033156   2.733975   0.000000
     4  H    1.082156   2.118521   2.225609   0.000000
     5  H    1.082137   2.118672   2.225404   1.843077   0.000000
     6  H    2.119951   1.082169   3.274478   3.084766   2.472716
     7  H    2.119825   1.082168   3.274342   2.472272   3.084780
                    6          7
     6  H    0.000000
     7  H    1.846150   0.000000
 Stoichiometry    C2H5(2)
 Framework group  C1[X(C2H5)]
 Deg. of freedom    15
 Full point group                 C1      NOp   1
 RotChk:  IX=0 Diff= 7.50D-03
 Largest Abelian subgroup         C1      NOp   1
 Largest concise Abelian subgroup C1      NOp   1
                         Standard orientation:                         
 ---------------------------------------------------------------------
 Center     Atomic      Atomic             Coordinates (Angstroms)
 Number     Number       Type             X           Y           Z
 ---------------------------------------------------------------------
      1          6           0       -0.563988    0.000137   -0.229263
      2          6           0        0.751237   -0.000051    0.046604
      3          1           0       -1.523503   -0.001040    1.563236
      4          1           0       -1.098964    0.921884   -0.416994
      5          1           0       -1.099251   -0.921193   -0.418115
      6          1           0        1.299209   -0.923159    0.183309
      7          1           0        1.299016    0.922991    0.184517
 ---------------------------------------------------------------------
 Rotational constants (GHZ):          73.6733072          22.7446159          22.7432821
 Leave Link  202 at Wed Oct  7 14:39:41 2020, MaxMem=  2684354560 cpu:               1.1 elap:               0.4
 (Enter /udrive/faculty/rpeverati/g16/g16/l301.exe)
 Standard basis: 6-31G(d) (5D, 7F)
 Ernie: Thresh=  0.10000D-02 Tol=  0.10000D-05 Strict=F.
 There are    40 symmetry adapted cartesian basis functions of A   symmetry.
 There are    38 symmetry adapted basis functions of A   symmetry.
    38 basis functions,    76 primitive gaussians,    40 cartesian basis functions
     9 alpha electrons        8 beta electrons
       nuclear repulsion energy        36.7715548314 Hartrees.
 IExCor= 2523 DFT=T Ex+Corr=TPSSh ExCW=0 ScaHFX=  0.100000
 ScaDFX=  0.900000  0.900000  1.000000  1.000000 ScalE2=  1.000000  1.000000
 IRadAn=      5 IRanWt=     -1 IRanGd=            0 ICorTp=0 IEmpDi=141
 NAtoms=    7 NActive=    7 NUniq=    7 SFac= 1.00D+00 NAtFMM=   60 NAOKFM=F Big=F
 Integral buffers will be    131072 words long.
 Raffenetti 2 integral format.
 Two-electron integral symmetry is turned on.
 R6DIni: Non-standard D2/D3 S6 parameter, value=     1.000000
 R6DIni: Non-standard D2/D3 S8 parameter, value=     2.238200
 R6DIni: Non-standard D3BJ A1 parameter, value=     0.452900
 R6DIni: Non-standard D3BJ A2 parameter, value=     4.655000
 R6Disp:  Grimme-D3(BJ) Dispersion energy=       -0.0035148093 Hartrees.
 Nuclear repulsion after empirical dispersion term =       36.7680400221 Hartrees.
 Leave Link  301 at Wed Oct  7 14:39:42 2020, MaxMem=  2684354560 cpu:               1.9 elap:               0.5
 (Enter /udrive/faculty/rpeverati/g16/g16/l302.exe)
 NPDir=0 NMtPBC=     1 NCelOv=     1 NCel=       1 NClECP=     1 NCelD=      1
         NCelK=      1 NCelE2=     1 NClLst=     1 CellRange=     0.0.
 One-electron integrals computed using PRISM.
 One-electron integral symmetry used in STVInt
 NBasis=    38 RedAO= T EigKep=  8.32D-03  NBF=    38
 NBsUse=    38 1.00D-06 EigRej= -1.00D+00 NBFU=    38
 Precomputing XC quadrature grid using
 IXCGrd= 4 IRadAn=           5 IRanWt=          -1 IRanGd=           0 AccXCQ= 0.00D+00.
 Generated NRdTot=       0 NPtTot=           0 NUsed=           0 NTot=          32
 NSgBfM=    40    40    40    40    40 MxSgAt=     7 MxSgA2=     7.
 Leave Link  302 at Wed Oct  7 14:39:42 2020, MaxMem=  2684354560 cpu:               3.0 elap:               0.6
 (Enter /udrive/faculty/rpeverati/g16/g16/l303.exe)
 DipDrv:  MaxL=1.
 Leave Link  303 at Wed Oct  7 14:39:43 2020, MaxMem=  2684354560 cpu:               1.0 elap:               0.5
 (Enter /udrive/faculty/rpeverati/g16/g16/l401.exe)
 Initial guess from the checkpoint file:  "MN_13_c2h5ts_BH76_TPSShDBJ_631Gs.chk"
 SCF N**3 symmetry information disabled.
 B after Tr=     0.000000    0.000000   -0.000000
         Rot=    0.999994   -0.000174    0.003443    0.000002 Ang=  -0.40 deg.
 Guess basis will be translated and rotated to current coordinates.
 JPrj=2 DoOrth=T DoCkMO=T.
 Initial guess <Sx>= 0.0000 <Sy>= 0.0000 <Sz>= 0.5000 <S**2>= 0.7801 S= 0.5149
 Generating alternative initial guess.
 ExpMin= 1.61D-01 ExpMax= 3.05D+03 ExpMxC= 4.57D+02 IAcc=2 IRadAn=         4 AccDes= 0.00D+00
 Harris functional with IExCor= 1009 and IRadAn=       4 diagonalized for initial guess.
 HarFok:  IExCor= 1009 AccDes= 0.00D+00 IRadAn=         4 IDoV= 1 UseB2=F ITyADJ=14
 ICtDFT=  3500011 ScaDFX=  1.000000  1.000000  1.000000  1.000000
 FoFCou: FMM=F IPFlag=           0 FMFlag=      100000 FMFlg1=           0
         NFxFlg=           0 DoJE=T BraDBF=F KetDBF=T FulRan=T
         wScrn=  0.000000 ICntrl=       500 IOpCl=  0 I1Cent=   200000004 NGrid=           0
         NMat0=    1 NMatS0=      1 NMatT0=    0 NMatD0=    1 NMtDS0=    0 NMtDT0=    0
 Petite list used in FoFCou.
 Harris En= -79.0101442076122    
 Leave Link  401 at Wed Oct  7 14:39:44 2020, MaxMem=  2684354560 cpu:               7.8 elap:               1.1
 (Enter /udrive/faculty/rpeverati/g16/g16/l502.exe)
 Keep R1 and R2 ints in memory in canonical form, NReq=10915733.
 FoFCou: FMM=F IPFlag=           0 FMFlag=           0 FMFlg1=           0
         NFxFlg=           0 DoJE=F BraDBF=F KetDBF=F FulRan=T
         wScrn=  0.000000 ICntrl=       600 IOpCl=  0 I1Cent=           0 NGrid=           0
         NMat0=    1 NMatS0=    741 NMatT0=    0 NMatD0=    1 NMtDS0=    0 NMtDT0=    0
 Symmetry not used in FoFCou.
 Two-electron integral symmetry not used.
 UHF open shell SCF:
 Using DIIS extrapolation, IDIIS=  1040.
 NGot=  2684354560 LenX=  2683800373 LenY=  2683798332
 Requested convergence on RMS density matrix=1.00D-08 within 120 cycles.
 Requested convergence on MAX density matrix=1.00D-06.
 Requested convergence on             energy=1.00D-06.
 No special actions if energy rises.
 Integral accuracy reduced to 1.0D-05 until final iterations.

 Cycle   1  Pass 0  IDiag  1:
 E= -79.0987296871846    
 DIIS: error= 1.59D-03 at cycle   1 NSaved=   1.
 NSaved= 1 IEnMin= 1 EnMin= -79.0987296871846     IErMin= 1 ErrMin= 1.59D-03
 ErrMax= 1.59D-03  0.00D+00 EMaxC= 1.00D-01 BMatC= 1.36D-04 BMatP= 1.36D-04
 IDIUse=3 WtCom= 9.84D-01 WtEn= 1.59D-02
 Coeff-Com:  0.100D+01
 Coeff-En:   0.100D+01
 Coeff:      0.100D+01
 Gap=     0.603 Goal=   None    Shift=    0.000
 Gap=     0.577 Goal=   None    Shift=    0.000
 GapD=    0.577 DampG=2.000 DampE=1.000 DampFc=2.0000 IDamp=-1.
 RMSDP=4.47D-04 MaxDP=5.41D-03              OVMax= 1.23D-02

 Cycle   2  Pass 0  IDiag  1:
[...]
  13         A7        -0.00009  -0.00013   0.00006   0.00013  -0.00007
  14         A8        -0.00009  -0.00013   0.00006   0.00013  -0.00009
  15         A9         0.00018   0.00026  -0.00012  -0.00026   0.00016
  16         D1        -0.00004  -0.00006   0.00001   0.00002  -0.00072
  17         D2         0.00004   0.00006  -0.00001  -0.00002   0.00072
  18         D3         0.00017   0.00024   0.00001   0.00002   0.00430
  19         D4         0.00025   0.00035  -0.00001  -0.00003   0.00574
  20         D5        -0.00025  -0.00035   0.00001   0.00003  -0.00573
  21         D6        -0.00017  -0.00024  -0.00001  -0.00002  -0.00429
 RLam0= 1.84D-05.
 Iter=   1 RLamda= 0.00000000D+00 Sum=-2.10335514D-06.
 Iter=   2 RLamda=-2.10335514D-06 Sum=-2.05049382D-06.
 Iter=   3 RLamda=-2.05049382D-06 Sum=-2.05177509D-06.
 RFO step:  Lambda0=1.838020491D-05 Lambda=-2.05049382D-06.
 Linear search not attempted -- option 19 set.
 Maximum step size (   0.100) exceeded in Quadratic search.
    -- Step size scaled by   0.618
 Iteration  1 RMS(Cart)=  0.05834410 RMS(Int)=  0.00069582
 Iteration  2 RMS(Cart)=  0.00113221 RMS(Int)=  0.00011726
 Iteration  3 RMS(Cart)=  0.00000043 RMS(Int)=  0.00011726
 ITry= 1 IFail=0 DXMaxC= 1.36D-01 DCOld= 1.00D+10 DXMaxT= 1.00D-01 DXLimC= 3.00D+00 Rises=F
 Variable       Old X    -DE/DX   Delta X   Delta X   Delta X     New X
                                 (Linear)    (Quad)   (Total)
    R1        2.51966   0.00013   0.00000  -0.00006  -0.00006   2.51961
    R2        8.14198  -0.00020   0.00000  -0.07081  -0.07081   8.07117
    R3        2.05448  -0.00003   0.00000  -0.00008  -0.00008   2.05440
    R4        2.05448  -0.00003   0.00000  -0.00008  -0.00008   2.05440
    R5        2.05449  -0.00005   0.00000  -0.00005  -0.00005   2.05444
    R6        2.05449  -0.00005   0.00000  -0.00005  -0.00005   2.05444
    A1        0.90514  -0.00035   0.00000   0.05864   0.05838   0.96352
    A2        2.12641  -0.00006   0.00000  -0.00050  -0.00046   2.12595
    A3        2.12641  -0.00006   0.00000  -0.00050  -0.00046   2.12595
    A4        1.90326   0.00008   0.00000  -0.02780  -0.02809   1.87517
    A5        1.90294   0.00008   0.00000  -0.02780  -0.02809   1.87485
    A6        2.03036   0.00012   0.00000   0.00101   0.00091   2.03127
    A7        2.12650  -0.00004   0.00000  -0.00022  -0.00022   2.12628
    A8        2.12650  -0.00004   0.00000  -0.00022  -0.00022   2.12628
    A9        2.03018   0.00008   0.00000   0.00045   0.00045   2.03063
    D1        1.56944   0.00002   0.00000   0.00070   0.00070   1.57014
    D2       -1.56990  -0.00002   0.00000  -0.00069  -0.00069  -1.57058
    D3        3.14116  -0.00004   0.00000  -0.00186  -0.00176   3.13940
    D4        0.00183  -0.00007   0.00000  -0.00325  -0.00315  -0.00132
    D5       -0.00183   0.00007   0.00000   0.00325   0.00315   0.00132
    D6       -3.14116   0.00004   0.00000   0.00186   0.00176  -3.13941
         Item               Value     Threshold  Converged?
 Maximum Force            0.000350     0.000450     YES
 RMS     Force            0.000108     0.000300     YES
 Maximum Displacement     0.135703     0.001800     NO 
 RMS     Displacement     0.057833     0.001200     NO 
 Predicted change in Energy= 6.903263D-06
 Optimization stopped.
    -- Number of steps exceeded,  NStep=  50
    -- Flag reset to prevent archiving.
                           ----------------------------
                           ! Non-Optimized Parameters !
                           ! (Angstroms and Degrees)  !
 --------------------------                            --------------------------
 ! Name  Definition              Value          Derivative Info.                !
 --------------------------------------------------------------------------------
 ! R1    R(1,2)                  1.3333         -DE/DX =    0.0001              !
 ! R2    R(1,3)                  4.2711         -DE/DX =   -0.0002              !
 ! R3    R(1,4)                  1.0871         -DE/DX =    0.0                 !
 ! R4    R(1,5)                  1.0871         -DE/DX =    0.0                 !
 ! R5    R(2,6)                  1.0872         -DE/DX =    0.0                 !
 ! R6    R(2,7)                  1.0872         -DE/DX =    0.0                 !
 ! A1    A(2,1,3)               55.2055         -DE/DX =   -0.0003              !
 ! A2    A(2,1,4)              121.8082         -DE/DX =   -0.0001              !
 ! A3    A(2,1,5)              121.8082         -DE/DX =   -0.0001              !
 ! A4    A(3,1,4)              107.4395         -DE/DX =    0.0001              !
 ! A5    A(3,1,5)              107.421          -DE/DX =    0.0001              !
 ! A6    A(4,1,5)              116.3834         -DE/DX =    0.0001              !
 ! A7    A(1,2,6)              121.8267         -DE/DX =    0.0                 !
 ! A8    A(1,2,7)              121.8267         -DE/DX =    0.0                 !
 ! A9    A(6,2,7)              116.3466         -DE/DX =    0.0001              !
 ! D1    D(3,1,2,6)             89.9624         -DE/DX =    0.0                 !
 ! D2    D(3,1,2,7)            -89.9878         -DE/DX =    0.0                 !
 ! D3    D(4,1,2,6)            179.8746         -DE/DX =    0.0                 !
 ! D4    D(4,1,2,7)             -0.0756         -DE/DX =   -0.0001              !
 ! D5    D(5,1,2,6)              0.0755         -DE/DX =    0.0001              !
 ! D6    D(5,1,2,7)           -179.8747         -DE/DX =    0.0                 !
 --------------------------------------------------------------------------------
 Largest change from initial coordinates is atom    3       0.907 Angstoms.
 GradGradGradGradGradGradGradGradGradGradGradGradGradGradGradGradGradGrad

 Leave Link  103 at Wed Oct  7 14:52:34 2020, MaxMem=  2684354560 cpu:               2.4 elap:               0.7
 (Enter /udrive/faculty/rpeverati/g16/g16/l202.exe)
                          Input orientation:                          
 ---------------------------------------------------------------------
 Center     Atomic      Atomic             Coordinates (Angstroms)
 Number     Number       Type             X           Y           Z
 ---------------------------------------------------------------------
      1          6           0       -0.409798    0.000371   -0.904179
      2          6           0        0.484313    0.000031    0.084954
      3          1           0       -1.139379   -0.001282    3.342149
      4          1           0       -0.793742    0.924161   -1.329813
      5          1           0       -0.793979   -0.923126   -1.330235
      6          1           0        0.868020   -0.923712    0.510917
      7          1           0        0.868258    0.923481    0.511338
 ---------------------------------------------------------------------
                    Distance matrix (angstroms):
                    1          2          3          4          5
     1  C    0.000000
     2  C    1.333349   0.000000
     3  H    4.308549   3.639464   0.000000
     4  H    1.087182   2.118728   4.775263   0.000000
     5  H    1.087182   2.118728   4.774962   1.847287   0.000000
     6  H    2.118785   1.087188   3.591156   3.092633   2.480339
     7  H    2.118785   1.087188   3.591557   2.480339   3.092633
                    6          7
     6  H    0.000000
     7  H    1.847193   0.000000
 Stoichiometry    C2H5(2)
 Framework group  C1[X(C2H5)]
 Deg. of freedom    15
 Full point group                 C1      NOp   1
 RotChk:  IX=1 Diff= 1.99D-15
 Largest Abelian subgroup         C1      NOp   1
 Largest concise Abelian subgroup C1      NOp   1
                         Standard orientation:                         
 ---------------------------------------------------------------------
 Center     Atomic      Atomic             Coordinates (Angstroms)
 Number     Number       Type             X           Y           Z
 ---------------------------------------------------------------------
      1          6           0       -0.754430   -0.291940    0.000044
      2          6           0        0.332100    0.480893   -0.000098
      3          1           0        3.378038   -1.511080    0.000431
      4          1           0       -1.222253   -0.623416    0.923748
      5          1           0       -1.221956   -0.624174   -0.923538
      6          1           0        0.800223    0.812096   -0.923755
      7          1           0        0.799925    0.812855    0.923438
 ---------------------------------------------------------------------
 Rotational constants (GHZ):          44.8839239          18.3602982          15.8389585
 Leave Link  202 at Wed Oct  7 14:52:34 2020, MaxMem=  2684354560 cpu:               1.1 elap:               0.4
 (Enter /udrive/faculty/rpeverati/g16/g16/l601.exe)
 Copying SCF densities to generalized density rwf, IOpCl= 1 IROHF=0.

 **********************************************************************

            Population analysis using the SCF density.

 **********************************************************************

 Orbital symmetries:
 Alpha Orbitals:
       Occupied  (A) (A) (A) (A) (A) (A) (A) (A) (A)
       Virtual   (A) (A) (A) (A) (A) (A) (A) (A) (A) (A) (A) (A)
                 (A) (A) (A) (A) (A) (A) (A) (A) (A) (A) (A) (A)
                 (A) (A) (A) (A) (A)
 Beta  Orbitals:
       Occupied  (A) (A) (A) (A) (A) (A) (A) (A)
       Virtual   (A) (A) (A) (A) (A) (A) (A) (A) (A) (A) (A) (A)
                 (A) (A) (A) (A) (A) (A) (A) (A) (A) (A) (A) (A)
                 (A) (A) (A) (A) (A) (A)
 The electronic state is 2-A.
 Alpha  occ. eigenvalues --  -10.11568 -10.11497  -0.73325  -0.56050  -0.44622
 Alpha  occ. eigenvalues --   -0.39489  -0.33740  -0.29867  -0.25084
 Alpha virt. eigenvalues --    0.00820   0.12457   0.13984   0.15866   0.24737
 Alpha virt. eigenvalues --    0.32998   0.48403   0.54649   0.57492   0.62723
 Alpha virt. eigenvalues --    0.65976   0.69662   0.74938   0.85745   0.88238
 Alpha virt. eigenvalues --    0.94942   0.95925   1.11410   1.23920   1.44788
 Alpha virt. eigenvalues --    1.53937   1.82912   1.90368   2.01983   2.09788
 Alpha virt. eigenvalues --    2.31018   2.38766   2.71448   2.73968
  Beta  occ. eigenvalues --  -10.11565 -10.11494  -0.73320  -0.56046  -0.44620
  Beta  occ. eigenvalues --   -0.39485  -0.33739  -0.25129
  Beta virt. eigenvalues --    0.00579   0.04287   0.12480   0.13982   0.15895
  Beta virt. eigenvalues --    0.24735   0.32998   0.48415   0.55198   0.57490
  Beta virt. eigenvalues --    0.64029   0.66567   0.70252   0.85746   0.88242
  Beta virt. eigenvalues --    0.94844   0.95911   0.99967   1.11602   1.23915
  Beta virt. eigenvalues --    1.44797   1.53945   1.82919   1.90380   2.01988
  Beta virt. eigenvalues --    2.09792   2.31030   2.38777   2.71453   2.73973
          Condensed to atoms (all electrons):
               1          2          3          4          5          6
     1  C    4.969535   0.661912   0.000013   0.382396   0.382396  -0.037607
     2  C    0.661912   4.969124   0.000592  -0.037609  -0.037609   0.382365
     3  H    0.000013   0.000592   0.999096  -0.000001  -0.000001   0.000106
     4  H    0.382396  -0.037609  -0.000001   0.536327  -0.038929   0.004475
     5  H    0.382396  -0.037609  -0.000001  -0.038929   0.536327  -0.007187
     6  H   -0.037607   0.382365   0.000106   0.004475  -0.007187   0.536264
     7  H   -0.037607   0.382365   0.000106  -0.007187   0.004475  -0.038934
               7
     1  C   -0.037607
     2  C    0.382365
     3  H    0.000106
     4  H   -0.007187
     5  H    0.004475
     6  H   -0.038934
     7  H    0.536264
          Atomic-Atomic Spin Densities.
               1          2          3          4          5          6
     1  C    0.004631  -0.000226  -0.000085  -0.000041  -0.000040  -0.000004
     2  C   -0.000226  -0.002566   0.000005   0.000012   0.000012   0.000008
     3  H   -0.000085   0.000005   0.998515  -0.000001  -0.000001   0.000084
     4  H   -0.000041   0.000012  -0.000001  -0.000163   0.000006  -0.000001
     5  H   -0.000040   0.000012  -0.000001   0.000006  -0.000163   0.000000
     6  H   -0.000004   0.000008   0.000084  -0.000001   0.000000   0.000050
     7  H   -0.000004   0.000008   0.000084   0.000000  -0.000001   0.000008
               7
     1  C   -0.000004
     2  C    0.000008
     3  H    0.000084
     4  H    0.000000
     5  H   -0.000001
     6  H    0.000008
     7  H    0.000050
 Mulliken charges and spin densities:
               1          2
     1  C   -0.321038   0.004231
     2  C   -0.321141  -0.002746
     3  H    0.000088   0.998601
     4  H    0.160528  -0.000188
     5  H    0.160528  -0.000188
     6  H    0.160518   0.000145
     7  H    0.160518   0.000145
 Sum of Mulliken charges =  -0.00000   1.00000
 Mulliken charges and spin densities with hydrogens summed into heavy atoms:
               1          2
     1  C    0.000017   0.003855
     2  C   -0.000017   0.996145
 Electronic spatial extent (au):  <R**2>=            136.9652
 Charge=             -0.0000 electrons
 Dipole moment (field-independent basis, Debye):
    X=              0.0010    Y=             -0.0013    Z=              0.0000  Tot=              0.0016
 Quadrupole moment (field-independent basis, Debye-Ang):
   XX=            -14.1990   YY=            -15.2549   ZZ=            -13.3230
   XY=              1.4823   XZ=             -0.0008   YZ=              0.0010
 Traceless Quadrupole moment (field-independent basis, Debye-Ang):
   XX=              0.0600   YY=             -0.9959   ZZ=              0.9359
   XY=              1.4823   XZ=             -0.0008   YZ=              0.0010
 Octapole moment (field-independent basis, Debye-Ang**2):
  XXX=             -4.6334  YYY=              1.8091  ZZZ=             -0.0007  XYY=             -1.0495
  XXY=              0.0205  XXZ=              0.0001  XZZ=             -1.7686  YZZ=              0.7904
  YYZ=              0.0000  XYZ=             -0.0003
 Hexadecapole moment (field-independent basis, Debye-Ang**3):
 XXXX=           -142.1115 YYYY=            -53.3361 ZZZZ=            -27.0300 XXXY=              8.8003
 XXXZ=             -0.0039 YYYX=              8.0008 YYYZ=              0.0030 ZZZX=             -0.0038
 ZZZY=              0.0023 XXYY=            -31.9786 XXZZ=            -26.6388 YYZZ=            -12.7736
 XXYZ=              0.0008 YYXZ=              0.0003 ZZXY=              4.1752
 N-N= 3.542824950468D+01 E-N=-2.535812057789D+02  KE= 7.859950498390D+01
                          Isotropic Fermi Contact Couplings
        Atom                 a.u.       MegaHertz       Gauss      10(-4) cm-1
     1  C(13)              0.00057       0.63981       0.22830       0.21342
     2  C(13)              0.00015       0.16860       0.06016       0.05624
     3  H(1)               0.30231    1351.28572     482.17235     450.74040
     4  H(1)              -0.00006      -0.26919      -0.09605      -0.08979
     5  H(1)              -0.00006      -0.26921      -0.09606      -0.08980
     6  H(1)               0.00011       0.48547       0.17323       0.16193
     7  H(1)               0.00011       0.48492       0.17303       0.16175
 --------------------------------------------------------
       Center         ----  Spin Dipole Couplings  ----
                      3XX-RR        3YY-RR        3ZZ-RR
 --------------------------------------------------------
     1   Atom        0.002948      0.000828     -0.003776
     2   Atom        0.004110     -0.001650     -0.002460
     3   Atom        0.000007      0.000000     -0.000007
     4   Atom        0.002325     -0.001262     -0.001063
     5   Atom        0.002325     -0.001263     -0.001063
     6   Atom        0.001735      0.000800     -0.002535
     7   Atom        0.001734      0.000801     -0.002536
 --------------------------------------------------------
                        XY            XZ            YZ
 --------------------------------------------------------
     1   Atom       -0.004150      0.000002     -0.000002
     2   Atom       -0.003116      0.000000      0.000000
     3   Atom       -0.000011      0.000000     -0.000000
     4   Atom       -0.000782     -0.000936      0.000032
     5   Atom       -0.000781      0.000937     -0.000032
     6   Atom       -0.004332      0.001788     -0.001639
     7   Atom       -0.004332     -0.001785      0.001637
 --------------------------------------------------------


 ---------------------------------------------------------------------------------
              Anisotropic Spin Dipole Couplings in Principal Axis System
 ---------------------------------------------------------------------------------

       Atom             a.u.   MegaHertz   Gauss  10(-4) cm-1        Axes

              Baa    -0.0038    -0.507    -0.181    -0.169  0.0001  0.0006  1.0000
     1 C(13)  Bbb    -0.0024    -0.321    -0.115    -0.107  0.6134  0.7898 -0.0005
              Bcc     0.0062     0.828     0.295     0.276  0.7898 -0.6134  0.0003
 
              Baa    -0.0030    -0.404    -0.144    -0.135  0.4008  0.9162 -0.0009
     2 C(13)  Bbb    -0.0025    -0.330    -0.118    -0.110  0.0004  0.0008  1.0000
              Bcc     0.0055     0.734     0.262     0.245  0.9162 -0.4008 -0.0000
 
              Baa    -0.0000    -0.004    -0.001    -0.001  0.5888  0.8083  0.0024
     3 H(1)   Bbb    -0.0000    -0.004    -0.001    -0.001 -0.0017 -0.0017  1.0000
              Bcc     0.0000     0.008     0.003     0.003  0.8083 -0.5888  0.0004
 
              Baa    -0.0015    -0.814    -0.291    -0.272  0.2908  0.7955  0.5316
     4 H(1)   Bbb    -0.0012    -0.634    -0.226    -0.211  0.0886 -0.5756  0.8129
              Bcc     0.0027     1.448     0.517     0.483  0.9527 -0.1893 -0.2378
 
              Baa    -0.0015    -0.815    -0.291    -0.272  0.2908  0.7952 -0.5321
     5 H(1)   Bbb    -0.0012    -0.634    -0.226    -0.211 -0.0886  0.5761  0.8125
              Bcc     0.0027     1.448     0.517     0.483  0.9527 -0.1891  0.2380
 
              Baa    -0.0032    -1.711    -0.610    -0.571 -0.0543  0.3273  0.9433
     6 H(1)   Bbb    -0.0031    -1.646    -0.587    -0.549  0.6950  0.6908 -0.1997
              Bcc     0.0063     3.357     1.198     1.120  0.7170 -0.6448  0.2650
 
              Baa    -0.0032    -1.710    -0.610    -0.570  0.0549 -0.3262  0.9437
     7 H(1)   Bbb    -0.0031    -1.645    -0.587    -0.549  0.6949  0.6912  0.1984
              Bcc     0.0063     3.356     1.197     1.119  0.7170 -0.6449 -0.2646
 

 ---------------------------------------------------------------------------------

 No NMR shielding tensors so no spin-rotation constants.
 Leave Link  601 at Wed Oct  7 14:52:35 2020, MaxMem=  2684354560 cpu:               5.8 elap:               0.9
 (Enter /udrive/faculty/rpeverati/g16/g16/l9999.exe)


 I MET A TRAVELLER FROM AN ANTIQUE LAND
 WHO SAID... TWO VAST AND TRUNKLESS LEGS OF STONE
 STAND IN THE DESERT..... NEAR THEM,  ON THE SAND,
 HALF SUNK,  A SHATTERED VISAGE LIES,  WHOSE FROWN,
 AND WRINKLED LIP,  AND SNEER OF COLD COMMAND
 TELL THAT ITS SCULPTOR WELL THOSE PASSIONS READ
 WHICH YET SURVIVE,  STAMPED ON THESE LIFELESS THINGS
 THE HAND THAT MOCKED THEM,  AND THE HEART THAT FED-
 AND ON THE PEDESTAL THESE WORDS APPEAR 
 MY NAME IS OZYMANDIAS, KING OF KINGS--   
 LOOK ON MY WORKS YE MIGHTY AND DESPAIR. 
 NOTHING BESIDE REMAINS,  ROUND THE DECAY 
 OF THAT COLOSSAL WRECK,  BOUNDLESS AND BARE
 THE LONE AND LEVEL SANDS STRETCH FAR AWAY.
                                    SHELLEY
 Error termination request processed by link 9999.
 Error termination via Lnk1e in /udrive/faculty/rpeverati/g16/g16/l9999.exe at Wed Oct  7 14:52:36 2020.
 Job cpu time:       0 days  1 hours 28 minutes 55.7 seconds.
 Elapsed time:       0 days  0 hours 11 minutes 14.0 seconds.
 File lengths (MBytes):  RWF=      5 Int=      0 D2E=      0 Chk=      1 Scr=      1
