 Entering Gaussian System, Link 0=g16
 Input=MN_16_c3h7_BH76_TPSShDBJ_631Gs.in
 Output=MN_16_c3h7_BH76_TPSShDBJ_631Gs.log
 Initial command:
 /udrive/faculty/rpeverati/g16/g16/l1.exe "/udrive/scratch-directories/gaussian09/rpeverati/Gau-30103.inp" -scrdir="/udrive/scratch-directories/gaussian09/rpeverati/"
 Entering Link 1 = /udrive/faculty/rpeverati/g16/g16/l1.exe PID=     30105.
  
 Copyright (c) 1988,1990,1992,1993,1995,1998,2003,2009,2016,
            Gaussian, Inc.  All Rights Reserved.
  
 This is part of the Gaussian(R) 16 program.  It is based on
 the Gaussian(R) 09 system (copyright 2009, Gaussian, Inc.),
 the Gaussian(R) 03 system (copyright 2003, Gaussian, Inc.),
 the Gaussian(R) 98 system (copyright 1998, Gaussian, Inc.),
 the Gaussian(R) 94 system (copyright 1995, Gaussian, Inc.),
 the Gaussian 92(TM) system (copyright 1992, Gaussian, Inc.),
 the Gaussian 90(TM) system (copyright 1990, Gaussian, Inc.),
 the Gaussian 88(TM) system (copyright 1988, Gaussian, Inc.),
 the Gaussian 86(TM) system (copyright 1986, Carnegie Mellon
 University), and the Gaussian 82(TM) system (copyright 1983,
 Carnegie Mellon University). Gaussian is a federally registered
 trademark of Gaussian, Inc.
  
 This software contains proprietary and confidential information,
 including trade secrets, belonging to Gaussian, Inc.
  
 This software is provided under written license and may be
 used, copied, transmitted, or stored only in accord with that
 written license.
  
 The following legend is applicable only to US Government
 contracts under FAR:
  
                    RESTRICTED RIGHTS LEGEND
  
 Use, reproduction and disclosure by the US Government is
 subject to restrictions as set forth in subparagraphs (a)
 and (c) of the Commercial Computer Software - Restricted
 Rights clause in FAR 52.227-19.
  
 Gaussian, Inc.
 340 Quinnipiac St., Bldg. 40, Wallingford CT 06492
  
  
 ---------------------------------------------------------------
 Warning -- This program may not be used in any manner that
 competes with the business of Gaussian, Inc. or will provide
 assistance to any competitor of Gaussian, Inc.  The licensee
 of this program is prohibited from giving any competitor of
 Gaussian, Inc. access to this program.  By using this program,
 the user acknowledges that Gaussian, Inc. is engaged in the
 business of creating and licensing software in the field of
 computational chemistry and represents and warrants to the
 licensee that it is not a competitor of Gaussian, Inc. and that
 it will not use this program in any manner prohibited above.
 ---------------------------------------------------------------
  

 Cite this work as:
 Gaussian 16, Revision A.03,
 M. J. Frisch, G. W. Trucks, H. B. Schlegel, G. E. Scuseria, 
 M. A. Robb, J. R. Cheeseman, G. Scalmani, V. Barone, 
 G. A. Petersson, H. Nakatsuji, X. Li, M. Caricato, A. V. Marenich, 
 J. Bloino, B. G. Janesko, R. Gomperts, B. Mennucci, H. P. Hratchian, 
 J. V. Ortiz, A. F. Izmaylov, J. L. Sonnenberg, D. Williams-Young, 
 F. Ding, F. Lipparini, F. Egidi, J. Goings, B. Peng, A. Petrone, 
 T. Henderson, D. Ranasinghe, V. G. Zakrzewski, J. Gao, N. Rega, 
 G. Zheng, W. Liang, M. Hada, M. Ehara, K. Toyota, R. Fukuda, 
 J. Hasegawa, M. Ishida, T. Nakajima, Y. Honda, O. Kitao, H. Nakai, 
 T. Vreven, K. Throssell, J. A. Montgomery, Jr., J. E. Peralta, 
 F. Ogliaro, M. J. Bearpark, J. J. Heyd, E. N. Brothers, K. N. Kudin, 
 V. N. Staroverov, T. A. Keith, R. Kobayashi, J. Normand, 
 K. Raghavachari, A. P. Rendell, J. C. Burant, S. S. Iyengar, 
 J. Tomasi, M. Cossi, J. M. Millam, M. Klene, C. Adamo, R. Cammi, 
 J. W. Ochterski, R. L. Martin, K. Morokuma, O. Farkas, 
 J. B. Foresman, and D. J. Fox, Gaussian, Inc., Wallingford CT, 2016.
 
 ******************************************
 Gaussian 16:  ES64L-G16RevA.03 25-Dec-2016
                 7-Oct-2020 
 ******************************************
 %NoSave
 %nproc=12
 Will use up to   12 processors via shared memory.
 %mem=20GB
 %chk=MN_16_c3h7_BH76_TPSShDBJ_631Gs
 ----------------------------------------------------------------------
 #P Opt(MaxCyc=100) TPSSh/6-31G* 5D 7F Integral=UltraFineGrid SCF=(NoSy
 mm,XQC,MaxCyc=120) IOp(1/33=1,3/174=1000000,3/175=2238200,3/177=045290
 0,3/178=4655000) EmpiricalDispersion=GD3BJ
 ----------------------------------------------------------------------
 1/6=100,18=20,19=15,26=4,33=1,38=1/1,3;
 2/9=110,12=2,17=6,18=5,40=1/2;
 3/5=1,6=6,7=1,8=11,11=2,25=1,30=1,71=1,74=-35,75=-5,124=41,174=1000000,175=2238200,177=452900,178=4655000/1,2,3;
 4/9=2/1;
 5/5=2,7=120,8=3,13=1,38=5/2,8;
 6/7=2,8=2,9=2,10=2,28=1/1;
 7//1,2,3,16;
 1/6=100,18=20,19=15,26=4,33=1/3(2);
 2/9=110/2;
 99//99;
 2/9=110/2;
 3/5=1,6=6,7=1,8=11,11=2,25=1,30=1,71=1,74=-35,75=-5,124=41,174=1000000,175=2238200,177=452900,178=4655000/1,2,3;
 4/5=5,9=2,16=3,69=1/1;
 5/5=2,7=120,8=3,13=1,38=5/2,8;
 7//1,2,3,16;
 1/6=100,18=20,19=15,26=4,33=1/3(-5);
 2/9=110/2;
 6/7=2,8=2,9=2,10=2,19=2,28=1/1;
 99/9=1/99;
 Leave Link    1 at Wed Oct  7 14:39:10 2020, MaxMem=  2684354560 cpu:               6.1 elap:               0.6
 (Enter /udrive/faculty/rpeverati/g16/g16/l101.exe)
 ONIOM data not found on unit 2.
 ------------------
 TS search on BH76.
 ------------------
 TstMul:  ICh=     0
 TstMul:  Mul=     2
 TstMul:  ICh=     0
 TstMul:  Mul=     2
 Symbolic Z-matrix:
 Charge =  0 Multiplicity = 2
 C                     1.20844  -0.28719   0.00006 
 C                    -0.06536   0.57613  -0.00006 
 C                    -1.31479  -0.23952  -0.00001 
 H                     1.24137  -0.92839   0.88123 
 H                     1.2414   -0.92858  -0.88098 
 H                     2.10187   0.33873   0. 
 H                    -0.04822   1.22685  -0.87709 
 H                    -0.04827   1.22703   0.87684 
 H                    -1.72914  -0.61577   0.92444 
 H                    -1.72876  -0.61642  -0.92437 
 
 RdStrC is calling ZToCFu for IStruc=1 NZ=    10.
 PrtBox:  NBox=     1 Levels=  1 BoxLen=    8.00 SMaxX=        7.24
          Shift=            3.267610            1.754770            1.746800
 Box      1 Number                   0 centers from      1 to     10:
 After GenITR:
 ITRead=  0  0  0  0  0  0  0  0  0  0
 MicOpt= -1 -1 -1 -1 -1 -1 -1 -1 -1 -1
 ITRead=  0  0  0  0  0  0  0  0  0  0
 MicOpt= -1 -1 -1 -1 -1 -1 -1 -1 -1 -1
 NAtoms=     10 NQM=       10 NQMF=       0 NMMI=      0 NMMIF=      0
                NMic=       0 NMicF=      0.
                    Isotopes and Nuclear Properties:
 (Nuclear quadrupole moments (NQMom) in fm**2, nuclear magnetic moments (NMagM)
  in nuclear magnetons)

  Atom         1           2           3           4           5           6           7           8           9          10
 IAtWgt=          12          12          12           1           1           1           1           1           1           1
 AtmWgt=  12.0000000  12.0000000  12.0000000   1.0078250   1.0078250   1.0078250   1.0078250   1.0078250   1.0078250   1.0078250
 NucSpn=           0           0           0           1           1           1           1           1           1           1
 AtZEff=   0.0000000   0.0000000   0.0000000   0.0000000   0.0000000   0.0000000   0.0000000   0.0000000   0.0000000   0.0000000
 NQMom=    0.0000000   0.0000000   0.0000000   0.0000000   0.0000000   0.0000000   0.0000000   0.0000000   0.0000000   0.0000000
 NMagM=    0.0000000   0.0000000   0.0000000   2.7928460   2.7928460   2.7928460   2.7928460   2.7928460   2.7928460   2.7928460
 AtZNuc=   6.0000000   6.0000000   6.0000000   1.0000000   1.0000000   1.0000000   1.0000000   1.0000000   1.0000000   1.0000000
 No MM parameters found.
 Leave Link  101 at Wed Oct  7 14:39:11 2020, MaxMem=  2684354560 cpu:               3.8 elap:               0.4
 (Enter /udrive/faculty/rpeverati/g16/g16/l103.exe)

 GradGradGradGradGradGradGradGradGradGradGradGradGradGradGradGradGradGrad
 Berny optimization.
 Optmz: redundant internal coordinate code flag= 1
 Initialization pass.
                           ----------------------------
                           !    Initial Parameters    !
                           ! (Angstroms and Degrees)  !
 --------------------------                            --------------------------
 ! Name  Definition              Value          Derivative Info.                !
 --------------------------------------------------------------------------------
 ! R1    R(1,2)                  1.5388         estimate D2E/DX2                !
 ! R2    R(1,4)                  1.0903         estimate D2E/DX2                !
 ! R3    R(1,5)                  1.0903         estimate D2E/DX2                !
 ! R4    R(1,6)                  1.0909         estimate D2E/DX2                !
 ! R5    R(2,3)                  1.4921         estimate D2E/DX2                !
 ! R6    R(2,7)                  1.0922         estimate D2E/DX2                !
 ! R7    R(2,8)                  1.0922         estimate D2E/DX2                !
 ! R8    R(3,9)                  1.0807         estimate D2E/DX2                !
 ! R9    R(3,10)                 1.0807         estimate D2E/DX2                !
 ! A1    A(2,1,4)              110.7944         estimate D2E/DX2                !
 ! A2    A(2,1,5)              110.7943         estimate D2E/DX2                !
 ! A3    A(2,1,6)              110.8583         estimate D2E/DX2                !
 ! A4    A(4,1,5)              107.8313         estimate D2E/DX2                !
 ! A5    A(4,1,6)              108.2251         estimate D2E/DX2                !
 ! A6    A(5,1,6)              108.2249         estimate D2E/DX2                !
 ! A7    A(1,2,3)              112.7352         estimate D2E/DX2                !
 ! A8    A(1,2,7)              108.7431         estimate D2E/DX2                !
 ! A9    A(1,2,8)              108.7441         estimate D2E/DX2                !
 ! A10   A(3,2,7)              109.8068         estimate D2E/DX2                !
 ! A11   A(3,2,8)              109.8069         estimate D2E/DX2                !
 ! A12   A(7,2,8)              106.8214         estimate D2E/DX2                !
 ! A13   A(2,3,9)              120.7581         estimate D2E/DX2                !
 ! A14   A(2,3,10)             120.7566         estimate D2E/DX2                !
 ! A15   A(9,3,10)             117.6061         estimate D2E/DX2                !
 ! D1    D(4,1,2,3)            -59.8222         estimate D2E/DX2                !
 ! D2    D(4,1,2,7)            178.1619         estimate D2E/DX2                !
 ! D3    D(4,1,2,8)             62.1947         estimate D2E/DX2                !
 ! D4    D(5,1,2,3)             59.8203         estimate D2E/DX2                !
 ! D5    D(5,1,2,7)            -62.1957         estimate D2E/DX2                !
 ! D6    D(5,1,2,8)           -178.1628         estimate D2E/DX2                !
 ! D7    D(6,1,2,3)            179.9989         estimate D2E/DX2                !
 ! D8    D(6,1,2,7)             57.9829         estimate D2E/DX2                !
 ! D9    D(6,1,2,8)            -57.9842         estimate D2E/DX2                !
 ! D10   D(1,2,3,9)             84.5228         estimate D2E/DX2                !
 ! D11   D(1,2,3,10)           -84.4871         estimate D2E/DX2                !
 ! D12   D(7,2,3,9)           -154.0632         estimate D2E/DX2                !
 ! D13   D(7,2,3,10)            36.9269         estimate D2E/DX2                !
 ! D14   D(8,2,3,9)            -36.8927         estimate D2E/DX2                !
 ! D15   D(8,2,3,10)           154.0974         estimate D2E/DX2                !
 --------------------------------------------------------------------------------
 Maximum allowed force set to 1.00D+20.
 Trust Radius=3.00D-01 FncErr=1.00D-07 GrdErr=1.00D-06 EigMax=2.50D+02 EigMin=1.00D-04
 Number of steps in this run=    100 maximum allowed number of steps=    100.
 GradGradGradGradGradGradGradGradGradGradGradGradGradGradGradGradGradGrad

 Leave Link  103 at Wed Oct  7 14:39:11 2020, MaxMem=  2684354560 cpu:               1.3 elap:               0.5
 (Enter /udrive/faculty/rpeverati/g16/g16/l202.exe)
                          Input orientation:                          
 ---------------------------------------------------------------------
 Center     Atomic      Atomic             Coordinates (Angstroms)
 Number     Number       Type             X           Y           Z
 ---------------------------------------------------------------------
      1          6           0        1.208440   -0.287189    0.000057
      2          6           0       -0.065359    0.576131   -0.000057
      3          6           0       -1.314788   -0.239518   -0.000011
      4          1           0        1.241370   -0.928394    0.881234
      5          1           0        1.241397   -0.928584   -0.880980
      6          1           0        2.101871    0.338727    0.000000
      7          1           0       -0.048218    1.226850   -0.877090
      8          1           0       -0.048272    1.227035    0.876836
      9          1           0       -1.729145   -0.615772    0.924436
     10          1           0       -1.728764   -0.616417   -0.924367
 ---------------------------------------------------------------------
                    Distance matrix (angstroms):
                    1          2          3          4          5
     1  C    0.000000
     2  C    1.538794   0.000000
     3  C    2.523678   1.492098   0.000000
     4  H    1.090275   2.178947   2.790177   0.000000
     5  H    1.090275   2.178946   2.790161   1.762213   0.000000
     6  H    1.090867   2.180194   3.465246   1.767096   1.767093
     7  H    2.154272   1.092207   2.126900   3.065912   2.511776
     8  H    2.154284   1.092204   2.126900   2.511786   3.065918
     9  H    3.097070   2.245774   1.080675   2.987233   3.490199
    10  H    3.096791   2.245759   1.080677   3.489874   2.986835
                    6          7          8          9         10
     6  H    0.000000
     7  H    2.486148   0.000000
     8  H    2.486171   1.753926   0.000000
     9  H    4.054914   3.076729   2.494701   0.000000
    10  H    4.054691   2.494815   3.076800   1.848802   0.000000
 Stoichiometry    C3H7(2)
 Framework group  C1[X(C3H7)]
 Deg. of freedom    24
 Full point group                 C1      NOp   1
 Largest Abelian subgroup         C1      NOp   1
 Largest concise Abelian subgroup C1      NOp   1
                         Standard orientation:                         
 ---------------------------------------------------------------------
 Center     Atomic      Atomic             Coordinates (Angstroms)
 Number     Number       Type             X           Y           Z
 ---------------------------------------------------------------------
      1          6           0        1.208440   -0.287189    0.000057
      2          6           0       -0.065359    0.576132   -0.000057
      3          6           0       -1.314788   -0.239517   -0.000011
      4          1           0        1.241370   -0.928394    0.881233
      5          1           0        1.241397   -0.928584   -0.880980
      6          1           0        2.101871    0.338727   -0.000000
      7          1           0       -0.048217    1.226850   -0.877090
      8          1           0       -0.048271    1.227036    0.876836
      9          1           0       -1.729145   -0.615771    0.924435
     10          1           0       -1.728764   -0.616416   -0.924367
 ---------------------------------------------------------------------
 Rotational constants (GHZ):          31.3019043           8.9092631           7.9970612
 Leave Link  202 at Wed Oct  7 14:39:12 2020, MaxMem=  2684354560 cpu:               0.9 elap:               0.5
 (Enter /udrive/faculty/rpeverati/g16/g16/l301.exe)
 Standard basis: 6-31G(d) (5D, 7F)
 Ernie: Thresh=  0.10000D-02 Tol=  0.10000D-05 Strict=F.
 There are    59 symmetry adapted cartesian basis functions of A   symmetry.
 There are    56 symmetry adapted basis functions of A   symmetry.
    56 basis functions,   112 primitive gaussians,    59 cartesian basis functions
    13 alpha electrons       12 beta electrons
       nuclear repulsion energy        75.8616206006 Hartrees.
 IExCor= 2523 DFT=T Ex+Corr=TPSSh ExCW=0 ScaHFX=  0.100000
 ScaDFX=  0.900000  0.900000  1.000000  1.000000 ScalE2=  1.000000  1.000000
 IRadAn=      5 IRanWt=     -1 IRanGd=            0 ICorTp=0 IEmpDi=141
 NAtoms=   10 NActive=   10 NUniq=   10 SFac= 1.00D+00 NAtFMM=   60 NAOKFM=F Big=F
 Integral buffers will be    131072 words long.
 Raffenetti 2 integral format.
 Two-electron integral symmetry is turned on.
 R6DIni: Non-standard D2/D3 S6 parameter, value=     1.000000
 R6DIni: Non-standard D2/D3 S8 parameter, value=     2.238200
 R6DIni: Non-standard D3BJ A1 parameter, value=     0.452900
 R6DIni: Non-standard D3BJ A2 parameter, value=     4.655000
 R6Disp:  Grimme-D3(BJ) Dispersion energy=       -0.0059954116 Hartrees.
 Nuclear repulsion after empirical dispersion term =       75.8556251890 Hartrees.
 Leave Link  301 at Wed Oct  7 14:39:13 2020, MaxMem=  2684354560 cpu:               1.8 elap:               0.6
 (Enter /udrive/faculty/rpeverati/g16/g16/l302.exe)
 NPDir=0 NMtPBC=     1 NCelOv=     1 NCel=       1 NClECP=     1 NCelD=      1
         NCelK=      1 NCelE2=     1 NClLst=     1 CellRange=     0.0.
 One-electron integrals computed using PRISM.
 One-electron integral symmetry used in STVInt
 NBasis=    56 RedAO= T EigKep=  7.29D-03  NBF=    56
 NBsUse=    56 1.00D-06 EigRej= -1.00D+00 NBFU=    56
 Precomputing XC quadrature grid using
 IXCGrd= 4 IRadAn=           5 IRanWt=          -1 IRanGd=           0 AccXCQ= 0.00D+00.
 Generated NRdTot=       0 NPtTot=           0 NUsed=           0 NTot=          32
 NSgBfM=    59    59    59    59    59 MxSgAt=    10 MxSgA2=    10.
 Leave Link  302 at Wed Oct  7 14:39:14 2020, MaxMem=  2684354560 cpu:               3.8 elap:               0.7
 (Enter /udrive/faculty/rpeverati/g16/g16/l303.exe)
 DipDrv:  MaxL=1.
 Leave Link  303 at Wed Oct  7 14:39:15 2020, MaxMem=  2684354560 cpu:               1.8 elap:               0.7
 (Enter /udrive/faculty/rpeverati/g16/g16/l401.exe)
 SCF N**3 symmetry information disabled.
 ExpMin= 1.61D-01 ExpMax= 3.05D+03 ExpMxC= 4.57D+02 IAcc=3 IRadAn=         5 AccDes= 0.00D+00
 Harris functional with IExCor= 1009 and IRadAn=       5 diagonalized for initial guess.
 HarFok:  IExCor= 1009 AccDes= 0.00D+00 IRadAn=         5 IDoV= 1 UseB2=F ITyADJ=14
 ICtDFT=  3500011 ScaDFX=  1.000000  1.000000  1.000000  1.000000
 FoFCou: FMM=F IPFlag=           0 FMFlag=      100000 FMFlg1=           0
         NFxFlg=           0 DoJE=T BraDBF=F KetDBF=T FulRan=T
         wScrn=  0.000000 ICntrl=       500 IOpCl=  0 I1Cent=   200000004 NGrid=           0
         NMat0=    1 NMatS0=      1 NMatT0=    0 NMatD0=    1 NMtDS0=    0 NMtDT0=    0
 Petite list used in FoFCou.
 Harris En= -118.377497340894    
 JPrj=0 DoOrth=F DoCkMO=F.
 Initial guess <Sx>= 0.0000 <Sy>= 0.0000 <Sz>= 0.5000 <S**2>= 0.7500 S= 0.5000
 Leave Link  401 at Wed Oct  7 14:39:16 2020, MaxMem=  2684354560 cpu:               6.0 elap:               0.8
 (Enter /udrive/faculty/rpeverati/g16/g16/l502.exe)
 Keep R1 and R2 ints in memory in canonical form, NReq=13116790.
 FoFCou: FMM=F IPFlag=           0 FMFlag=           0 FMFlg1=           0
         NFxFlg=           0 DoJE=F BraDBF=F KetDBF=F FulRan=T
         wScrn=  0.000000 ICntrl=       600 IOpCl=  0 I1Cent=           0 NGrid=           0
         NMat0=    1 NMatS0=   1596 NMatT0=    0 NMatD0=    1 NMtDS0=    0 NMtDT0=    0
 Symmetry not used in FoFCou.
 Two-electron integral symmetry not used.
 UHF open shell SCF:
 Using DIIS extrapolation, IDIIS=  1040.
 NGot=  2684354560 LenX=  2681797160 LenY=  2681793238
 Requested convergence on RMS density matrix=1.00D-08 within 120 cycles.
 Requested convergence on MAX density matrix=1.00D-06.
 Requested convergence on             energy=1.00D-06.
 No special actions if energy rises.
 Integral accuracy reduced to 1.0D-05 until final iterations.

 Cycle   1  Pass 0  IDiag  1:
 E= -118.363627878575    
 DIIS: error= 5.35D-02 at cycle   1 NSaved=   1.
 NSaved= 1 IEnMin= 1 EnMin= -118.363627878575     IErMin= 1 ErrMin= 5.35D-02
 ErrMax= 5.35D-02  0.00D+00 EMaxC= 1.00D-01 BMatC= 4.18D-01 BMatP= 4.18D-01
 IDIUse=3 WtCom= 4.65D-01 WtEn= 5.35D-01
 Coeff-Com:  0.100D+01
 Coeff-En:   0.100D+01
 Coeff:      0.100D+01
 Gap=     0.236 Goal=   None    Shift=    0.000
 Gap=     0.288 Goal=   None    Shift=    0.000
 GapD=    0.236 DampG=1.000 DampE=0.500 DampFc=0.5000 IDamp=-1.
 Damping current iteration by 5.00D-01
 RMSDP=1.30D-02 MaxDP=1.36D-01              OVMax= 1.72D-01

 Cycle   2  Pass 0  IDiag  1:
 E= -118.418447135153     Delta-E=       -0.054819256578 Rises=F Damp=T
 DIIS: error= 6.63D-03 at cycle   2 NSaved=   2.
 NSaved= 2 IEnMin= 2 EnMin= -118.418447135153     IErMin= 2 ErrMin= 6.63D-03
 ErrMax= 6.63D-03  0.00D+00 EMaxC= 1.00D-01 BMatC= 1.73D-02 BMatP= 4.18D-01
 IDIUse=3 WtCom= 9.34D-01 WtEn= 6.63D-02
 Coeff-Com:  0.737D-01 0.926D+00
 Coeff-En:   0.117D+00 0.883D+00
 Coeff:      0.765D-01 0.923D+00
 Gap=     0.287 Goal=   None    Shift=    0.000
 Gap=     0.306 Goal=   None    Shift=    0.000
 RMSDP=1.78D-03 MaxDP=2.17D-02 DE=-5.48D-02 OVMax= 9.00D-02

 Cycle   3  Pass 0  IDiag  1:
 E= -118.485559653036     Delta-E=       -0.067112517883 Rises=F Damp=F
 DIIS: error= 3.30D-03 at cycle   3 NSaved=   3.
 NSaved= 3 IEnMin= 3 EnMin= -118.485559653036     IErMin= 3 ErrMin= 3.30D-03
 ErrMax= 3.30D-03  0.00D+00 EMaxC= 1.00D-01 BMatC= 2.38D-03 BMatP= 1.73D-02
 IDIUse=3 WtCom= 9.67D-01 WtEn= 3.30D-02
 Coeff-Com: -0.566D-03 0.202D+00 0.799D+00
 Coeff-En:   0.000D+00 0.000D+00 0.100D+01
 Coeff:     -0.547D-03 0.195D+00 0.806D+00
 Gap=     0.295 Goal=   None    Shift=    0.000
 Gap=     0.270 Goal=   None    Shift=    0.000
 RMSDP=7.26D-04 MaxDP=1.16D-02 DE=-6.71D-02 OVMax= 1.38D-02

 Cycle   4  Pass 0  IDiag  1:
 E= -118.486002803229     Delta-E=       -0.000443150194 Rises=F Damp=F
 DIIS: error= 1.75D-03 at cycle   4 NSaved=   4.
 NSaved= 4 IEnMin= 4 EnMin= -118.486002803229     IErMin= 4 ErrMin= 1.75D-03
 ErrMax= 1.75D-03  0.00D+00 EMaxC= 1.00D-01 BMatC= 7.97D-04 BMatP= 2.38D-03
 IDIUse=3 WtCom= 9.83D-01 WtEn= 1.75D-02
 Coeff-Com: -0.466D-02 0.107D-01 0.363D+00 0.631D+00
 Coeff-En:   0.000D+00 0.000D+00 0.173D+00 0.827D+00
 Coeff:     -0.457D-02 0.105D-01 0.360D+00 0.634D+00
 Gap=     0.291 Goal=   None    Shift=    0.000
 Gap=     0.276 Goal=   None    Shift=    0.000
 RMSDP=2.62D-04 MaxDP=4.24D-03 DE=-4.43D-04 OVMax= 6.35D-03

 Cycle   5  Pass 0  IDiag  1:
 E= -118.486213352145     Delta-E=       -0.000210548916 Rises=F Damp=F
 DIIS: error= 3.49D-04 at cycle   5 NSaved=   5.
 NSaved= 5 IEnMin= 5 EnMin= -118.486213352145     IErMin= 5 ErrMin= 3.49D-04
 ErrMax= 3.49D-04  0.00D+00 EMaxC= 1.00D-01 BMatC= 4.26D-05 BMatP= 7.97D-04
 IDIUse=3 WtCom= 9.97D-01 WtEn= 3.49D-03
 Coeff-Com: -0.160D-02-0.130D-01 0.461D-01 0.206D+00 0.763D+00
 Coeff-En:   0.000D+00 0.000D+00 0.000D+00 0.000D+00 0.100D+01
 Coeff:     -0.159D-02-0.130D-01 0.459D-01 0.205D+00 0.763D+00
 Gap=     0.292 Goal=   None    Shift=    0.000
 Gap=     0.276 Goal=   None    Shift=    0.000
 RMSDP=7.55D-05 MaxDP=1.47D-03 DE=-2.11D-04 OVMax= 1.40D-03

 Cycle   6  Pass 0  IDiag  1:
 E= -118.486227327638     Delta-E=       -0.000013975493 Rises=F Damp=F
 DIIS: error= 1.13D-04 at cycle   6 NSaved=   6.
 NSaved= 6 IEnMin= 6 EnMin= -118.486227327638     IErMin= 6 ErrMin= 1.13D-04
 ErrMax= 1.13D-04  0.00D+00 EMaxC= 1.00D-01 BMatC= 3.04D-06 BMatP= 4.26D-05
 IDIUse=3 WtCom= 9.99D-01 WtEn= 1.13D-03
 Coeff-Com:  0.408D-03-0.233D-03-0.473D-01-0.873D-01-0.117D-01 0.115D+01
 Coeff-En:   0.000D+00 0.000D+00 0.000D+00 0.000D+00 0.000D+00 0.100D+01
 Coeff:      0.408D-03-0.232D-03-0.473D-01-0.872D-01-0.117D-01 0.115D+01
 Gap=     0.292 Goal=   None    Shift=    0.000
 Gap=     0.276 Goal=   None    Shift=    0.000
 RMSDP=3.31D-05 MaxDP=5.82D-04 DE=-1.40D-05 OVMax= 5.32D-04

 Cycle   7  Pass 0  IDiag  1:
 E= -118.486229035643     Delta-E=       -0.000001708005 Rises=F Damp=F
 DIIS: error= 3.99D-05 at cycle   7 NSaved=   7.
 NSaved= 7 IEnMin= 7 EnMin= -118.486229035643     IErMin= 7 ErrMin= 3.99D-05
 ErrMax= 3.99D-05  0.00D+00 EMaxC= 1.00D-01 BMatC= 4.97D-07 BMatP= 3.04D-06
 IDIUse=1 WtCom= 1.00D+00 WtEn= 0.00D+00
 Coeff-Com:  0.243D-03 0.119D-02-0.196D-01-0.478D-01-0.725D-01 0.390D+00
 Coeff-Com:  0.749D+00
 Coeff:      0.243D-03 0.119D-02-0.196D-01-0.478D-01-0.725D-01 0.390D+00
 Coeff:      0.749D+00
 Gap=     0.292 Goal=   None    Shift=    0.000
 Gap=     0.276 Goal=   None    Shift=    0.000
 RMSDP=9.20D-06 MaxDP=1.23D-04 DE=-1.71D-06 OVMax= 1.70D-04

 Initial convergence to 1.0D-05 achieved.  Increase integral accuracy.
 Cycle   8  Pass 1  IDiag  1:
 E= -118.486221333869     Delta-E=        0.000007701773 Rises=F Damp=F
 DIIS: error= 1.78D-05 at cycle   1 NSaved=   1.
 NSaved= 1 IEnMin= 1 EnMin= -118.486221333869     IErMin= 1 ErrMin= 1.78D-05
 ErrMax= 1.78D-05  0.00D+00 EMaxC= 1.00D-01 BMatC= 9.11D-08 BMatP= 9.11D-08
 IDIUse=1 WtCom= 1.00D+00 WtEn= 0.00D+00
 Coeff-Com:  0.100D+01
 Coeff:      0.100D+01
 Gap=     0.292 Goal=   None    Shift=    0.000
 Gap=     0.276 Goal=   None    Shift=    0.000
 RMSDP=9.20D-06 MaxDP=1.23D-04 DE= 7.70D-06 OVMax= 1.04D-04

 Cycle   9  Pass 1  IDiag  1:
 E= -118.486221328475     Delta-E=        0.000000005395 Rises=F Damp=F
 DIIS: error= 2.11D-05 at cycle   2 NSaved=   2.
 NSaved= 2 IEnMin= 1 EnMin= -118.486221333869     IErMin= 1 ErrMin= 1.78D-05
 ErrMax= 2.11D-05  0.00D+00 EMaxC= 1.00D-01 BMatC= 1.24D-07 BMatP= 9.11D-08
 IDIUse=1 WtCom= 1.00D+00 WtEn= 0.00D+00
 Coeff-Com:  0.541D+00 0.459D+00
 Coeff:      0.541D+00 0.459D+00
 Gap=     0.292 Goal=   None    Shift=    0.000
 Gap=     0.276 Goal=   None    Shift=    0.000
 RMSDP=2.75D-06 MaxDP=3.84D-05 DE= 5.39D-09 OVMax= 6.81D-05

 Cycle  10  Pass 1  IDiag  1:
 E= -118.486221360374     Delta-E=       -0.000000031899 Rises=F Damp=F
 DIIS: error= 1.93D-06 at cycle   3 NSaved=   3.
 NSaved= 3 IEnMin= 3 EnMin= -118.486221360374     IErMin= 3 ErrMin= 1.93D-06
 ErrMax= 1.93D-06  0.00D+00 EMaxC= 1.00D-01 BMatC= 8.38D-10 BMatP= 9.11D-08
 IDIUse=1 WtCom= 1.00D+00 WtEn= 0.00D+00
 Coeff-Com: -0.177D+00-0.102D+00 0.128D+01
 Coeff:     -0.177D+00-0.102D+00 0.128D+01
 Gap=     0.292 Goal=   None    Shift=    0.000
 Gap=     0.276 Goal=   None    Shift=    0.000
 RMSDP=5.79D-07 MaxDP=8.79D-06 DE=-3.19D-08 OVMax= 1.07D-05

 Cycle  11  Pass 1  IDiag  1:
 E= -118.486221360889     Delta-E=       -0.000000000516 Rises=F Damp=F
 DIIS: error= 7.47D-07 at cycle   4 NSaved=   4.
 NSaved= 4 IEnMin= 4 EnMin= -118.486221360889     IErMin= 4 ErrMin= 7.47D-07
 ErrMax= 7.47D-07  0.00D+00 EMaxC= 1.00D-01 BMatC= 1.58D-10 BMatP= 8.38D-10
 IDIUse=1 WtCom= 1.00D+00 WtEn= 0.00D+00
 Coeff-Com: -0.109D+00-0.769D-01 0.414D+00 0.772D+00
 Coeff:     -0.109D+00-0.769D-01 0.414D+00 0.772D+00
 Gap=     0.292 Goal=   None    Shift=    0.000
 Gap=     0.276 Goal=   None    Shift=    0.000
 RMSDP=2.10D-07 MaxDP=2.24D-06 DE=-5.16D-10 OVMax= 2.90D-06

 Cycle  12  Pass 1  IDiag  1:
 E= -118.486221360949     Delta-E=       -0.000000000060 Rises=F Damp=F
 DIIS: error= 3.11D-07 at cycle   5 NSaved=   5.
 NSaved= 5 IEnMin= 5 EnMin= -118.486221360949     IErMin= 5 ErrMin= 3.11D-07
 ErrMax= 3.11D-07  0.00D+00 EMaxC= 1.00D-01 BMatC= 2.45D-11 BMatP= 1.58D-10
 IDIUse=1 WtCom= 1.00D+00 WtEn= 0.00D+00
 Coeff-Com: -0.218D-01-0.184D-01 0.106D-01 0.280D+00 0.749D+00
 Coeff:     -0.218D-01-0.184D-01 0.106D-01 0.280D+00 0.749D+00
 Gap=     0.292 Goal=   None    Shift=    0.000
 Gap=     0.276 Goal=   None    Shift=    0.000
 RMSDP=6.01D-08 MaxDP=1.04D-06 DE=-5.99D-11 OVMax= 1.32D-06

 Cycle  13  Pass 1  IDiag  1:
 E= -118.486221360957     Delta-E=       -0.000000000008 Rises=F Damp=F
 DIIS: error= 1.22D-07 at cycle   6 NSaved=   6.
 NSaved= 6 IEnMin= 6 EnMin= -118.486221360957     IErMin= 6 ErrMin= 1.22D-07
 ErrMax= 1.22D-07  0.00D+00 EMaxC= 1.00D-01 BMatC= 4.64D-12 BMatP= 2.45D-11
 IDIUse=1 WtCom= 1.00D+00 WtEn= 0.00D+00
 Coeff-Com:  0.139D-01 0.846D-02-0.832D-01-0.389D-01 0.321D+00 0.779D+00
 Coeff:      0.139D-01 0.846D-02-0.832D-01-0.389D-01 0.321D+00 0.779D+00
 Gap=     0.292 Goal=   None    Shift=    0.000
 Gap=     0.276 Goal=   None    Shift=    0.000
 RMSDP=2.74D-08 MaxDP=4.16D-07 DE=-7.70D-12 OVMax= 4.61D-07

 Cycle  14  Pass 1  IDiag  1:
 E= -118.486221360959     Delta-E=       -0.000000000002 Rises=F Damp=F
 DIIS: error= 2.07D-08 at cycle   7 NSaved=   7.
 NSaved= 7 IEnMin= 7 EnMin= -118.486221360959     IErMin= 7 ErrMin= 2.07D-08
 ErrMax= 2.07D-08  0.00D+00 EMaxC= 1.00D-01 BMatC= 1.02D-13 BMatP= 4.64D-12
 IDIUse=1 WtCom= 1.00D+00 WtEn= 0.00D+00
 Coeff-Com:  0.344D-02 0.236D-02-0.148D-01-0.199D-01 0.184D-01 0.140D+00
 Coeff-Com:  0.870D+00
 Coeff:      0.344D-02 0.236D-02-0.148D-01-0.199D-01 0.184D-01 0.140D+00
 Coeff:      0.870D+00
 Gap=     0.292 Goal=   None    Shift=    0.000
 Gap=     0.276 Goal=   None    Shift=    0.000
 RMSDP=4.86D-09 MaxDP=5.92D-08 DE=-1.85D-12 OVMax= 8.03D-08

 SCF Done:  E(UTPSSh) =  -118.486221361     A.U. after   14 cycles
            NFock= 14  Conv=0.49D-08     -V/T= 2.0058
 <Sx>= 0.0000 <Sy>= 0.0000 <Sz>= 0.5000 <S**2>= 0.7552 S= 0.5026
 <L.S>= 0.000000000000E+00
 KE= 1.178067049633D+02 PE=-4.255551417987D+02 EE= 1.134065902855D+02
 Annihilation of the first spin contaminant:
 S**2 before annihilation     0.7552,   after     0.7500
 Leave Link  502 at Wed Oct  7 14:39:23 2020, MaxMem=  2684354560 cpu:              81.7 elap:               7.2
 (Enter /udrive/faculty/rpeverati/g16/g16/l508.exe)
 QCSCF skips out because SCF is already converged.
 Leave Link  508 at Wed Oct  7 14:39:24 2020, MaxMem=  2684354560 cpu:               0.3 elap:               0.3
 (Enter /udrive/faculty/rpeverati/g16/g16/l601.exe)
 Copying SCF densities to generalized density rwf, IOpCl= 1 IROHF=0.

 **********************************************************************

            Population analysis using the SCF density.

 **********************************************************************

 Orbital symmetries:
 Alpha Orbitals:
       Occupied  (A) (A) (A) (A) (A) (A) (A) (A) (A) (A) (A) (A)
                 (A)
       Virtual   (A) (A) (A) (A) (A) (A) (A) (A) (A) (A) (A) (A)
                 (A) (A) (A) (A) (A) (A) (A) (A) (A) (A) (A) (A)
                 (A) (A) (A) (A) (A) (A) (A) (A) (A) (A) (A) (A)
                 (A) (A) (A) (A) (A) (A) (A)
 Beta  Orbitals:
       Occupied  (A) (A) (A) (A) (A) (A) (A) (A) (A) (A) (A) (A)
       Virtual   (A) (A) (A) (A) (A) (A) (A) (A) (A) (A) (A) (A)
                 (A) (A) (A) (A) (A) (A) (A) (A) (A) (A) (A) (A)
                 (A) (A) (A) (A) (A) (A) (A) (A) (A) (A) (A) (A)
                 (A) (A) (A) (A) (A) (A) (A) (A)
 The electronic state is 2-A.
 Alpha  occ. eigenvalues --  -10.11530 -10.11394 -10.10495  -0.75869  -0.65341
 Alpha  occ. eigenvalues --   -0.56159  -0.44456  -0.40926  -0.37556  -0.35812
 Alpha  occ. eigenvalues --   -0.32971  -0.31643  -0.18399
 Alpha virt. eigenvalues --    0.10800   0.14108   0.14307   0.16137   0.17992
 Alpha virt. eigenvalues --    0.18081   0.22500   0.22886   0.26941   0.51974
 Alpha virt. eigenvalues --    0.53856   0.54342   0.55510   0.59328   0.61298
 Alpha virt. eigenvalues --    0.66281   0.70616   0.82546   0.83920   0.88637
 Alpha virt. eigenvalues --    0.90846   0.91595   0.94907   0.97611   0.99899
 Alpha virt. eigenvalues --    1.05171   1.24029   1.43389   1.50271   1.60692
 Alpha virt. eigenvalues --    1.69294   1.74319   1.90920   1.97218   1.98969
 Alpha virt. eigenvalues --    2.11295   2.17248   2.23743   2.35270   2.40861
 Alpha virt. eigenvalues --    2.50133   2.58173   2.67992
  Beta  occ. eigenvalues --  -10.11510 -10.10333 -10.09944  -0.74888  -0.63459
  Beta  occ. eigenvalues --   -0.54797  -0.44045  -0.40428  -0.37163  -0.34662
  Beta  occ. eigenvalues --   -0.32456  -0.31470
  Beta virt. eigenvalues --   -0.03843   0.11330   0.14678   0.15808   0.16438
  Beta virt. eigenvalues --    0.18312   0.18549   0.23174   0.23498   0.28279
  Beta virt. eigenvalues --    0.52712   0.54658   0.56032   0.57906   0.61828
  Beta virt. eigenvalues --    0.64119   0.67972   0.72272   0.83414   0.85746
  Beta virt. eigenvalues --    0.89666   0.92063   0.92435   0.96507   0.99782
  Beta virt. eigenvalues --    1.01719   1.06155   1.25527   1.45408   1.50973
  Beta virt. eigenvalues --    1.64195   1.76242   1.77932   1.92933   1.98142
  Beta virt. eigenvalues --    2.01236   2.18662   2.21314   2.25733   2.35665
  Beta virt. eigenvalues --    2.42711   2.53961   2.59995   2.70130
          Condensed to atoms (all electrons):
               1          2          3          4          5          6
     1  C    5.140251   0.355782  -0.063601   0.380267   0.380269   0.366226
     2  C    0.355782   4.970267   0.381323  -0.035663  -0.035664  -0.029913
     3  C   -0.063601   0.381323   5.335173  -0.001941  -0.001943   0.005890
     4  H    0.380267  -0.035663  -0.001941   0.555820  -0.031266  -0.029889
     5  H    0.380269  -0.035664  -0.001943  -0.031266   0.555823  -0.029890
     6  H    0.366226  -0.029913   0.005890  -0.029889  -0.029890   0.566016
     7  H   -0.042934   0.386705  -0.039977   0.005059  -0.004137  -0.002355
     8  H   -0.042929   0.386706  -0.039970  -0.004137   0.005059  -0.002356
     9  H    0.000500  -0.036666   0.378059   0.001709  -0.000161  -0.000106
    10  H    0.000497  -0.036670   0.378057  -0.000161   0.001712  -0.000106
               7          8          9         10
     1  C   -0.042934  -0.042929   0.000500   0.000497
     2  C    0.386705   0.386706  -0.036666  -0.036670
     3  C   -0.039977  -0.039970   0.378059   0.378057
     4  H    0.005059  -0.004137   0.001709  -0.000161
     5  H   -0.004137   0.005059  -0.000161   0.001712
     6  H   -0.002355  -0.002356  -0.000106  -0.000106
     7  H    0.573488  -0.034774   0.004182  -0.005393
     8  H   -0.034774   0.573481  -0.005397   0.004182
     9  H    0.004182  -0.005397   0.536522  -0.035870
    10  H   -0.005393   0.004182  -0.035870   0.536531
          Atomic-Atomic Spin Densities.
               1          2          3          4          5          6
     1  C    0.123669   0.017796  -0.038513  -0.005075  -0.005069  -0.020059
     2  C    0.017796  -0.075045  -0.041264  -0.000071  -0.000070  -0.000667
     3  C   -0.038513  -0.041264   1.213402   0.002946   0.002942   0.002533
     4  H   -0.005075  -0.000071   0.002946  -0.002404   0.000820   0.001897
     5  H   -0.005069  -0.000070   0.002942   0.000820  -0.002406   0.001895
     6  H   -0.020059  -0.000667   0.002533   0.001897   0.001895   0.024371
     7  H   -0.010362   0.006185  -0.006885   0.000178   0.000416   0.001837
     8  H   -0.010349   0.006178  -0.006873   0.000416   0.000177   0.001834
     9  H   -0.000296  -0.000676  -0.008458  -0.000012   0.000031   0.000019
    10  H   -0.000295  -0.000676  -0.008458   0.000031  -0.000012   0.000019
               7          8          9         10
     1  C   -0.010362  -0.010349  -0.000296  -0.000295
     2  C    0.006185   0.006178  -0.000676  -0.000676
     3  C   -0.006885  -0.006873  -0.008458  -0.008458
     4  H    0.000178   0.000416  -0.000012   0.000031
     5  H    0.000416   0.000177   0.000031  -0.000012
     6  H    0.001837   0.001834   0.000019   0.000019
     7  H    0.018140   0.002734   0.000031   0.000648
     8  H    0.002734   0.018097   0.000648   0.000031
     9  H    0.000031   0.000648  -0.049081   0.002067
    10  H    0.000648   0.000031   0.002067  -0.049080
 Mulliken charges and spin densities:
               1          2
     1  C   -0.474328   0.051447
     2  C   -0.306208  -0.088311
     3  C   -0.331070   1.111372
     4  H    0.160202  -0.001275
     5  H    0.160200  -0.001277
     6  H    0.156483   0.013679
     7  H    0.160138   0.012921
     8  H    0.160134   0.012893
     9  H    0.157228  -0.055726
    10  H    0.157223  -0.055725
 Sum of Mulliken charges =  -0.00000   1.00000
 Mulliken charges and spin densities with hydrogens summed into heavy atoms:
               1          2
     1  C    0.002556   0.062575
     2  C    0.014064  -0.062497
     3  C   -0.016619   0.999922
 Electronic spatial extent (au):  <R**2>=            210.1180
 Charge=             -0.0000 electrons
 Dipole moment (field-independent basis, Debye):
    X=              0.2224    Y=             -0.0070    Z=              0.0000  Tot=              0.2226
 Quadrupole moment (field-independent basis, Debye-Ang):
   XX=            -21.4382   YY=            -21.0036   ZZ=            -19.7931
   XY=              0.7313   XZ=             -0.0005   YZ=              0.0005
 Traceless Quadrupole moment (field-independent basis, Debye-Ang):
   XX=             -0.6932   YY=             -0.2586   ZZ=              0.9519
   XY=              0.7313   XZ=             -0.0005   YZ=              0.0005
 Octapole moment (field-independent basis, Debye-Ang**2):
  XXX=              1.9303  YYY=              0.7543  ZZZ=              0.0002  XYY=              0.6478
  XXY=             -0.9468  XXZ=              0.0012  XZZ=             -0.9380  YZZ=             -0.4316
  YYZ=             -0.0005  XYZ=             -0.0006
 Hexadecapole moment (field-independent basis, Debye-Ang**3):
 XXXX=           -187.9836 YYYY=            -62.7233 ZZZZ=            -40.2309 XXXY=              5.3139
 XXXZ=             -0.0044 YYYX=             -0.0487 YYYZ=              0.0012 ZZZX=             -0.0015
 ZZZY=              0.0001 XXYY=            -41.0872 XXZZ=            -35.7753 YYZZ=            -15.4744
 XXYZ=              0.0007 YYXZ=              0.0003 ZZXY=              0.5045
 N-N= 7.585562518899D+01 E-N=-4.255551434989D+02  KE= 1.178067049633D+02
                          Isotropic Fermi Contact Couplings
        Atom                 a.u.       MegaHertz       Gauss      10(-4) cm-1
     1  C(13)              0.07123      80.07176      28.57160      26.70906
     2  C(13)             -0.03358     -37.75184     -13.47080     -12.59266
     3  C(13)              0.16771     188.53423      67.27370      62.88825
     4  H(1)              -0.00108      -4.80976      -1.71624      -1.60436
     5  H(1)              -0.00108      -4.80903      -1.71598      -1.60412
     6  H(1)               0.00378      16.90015       6.03039       5.63728
     7  H(1)               0.00702      31.39329      11.20191      10.47167
     8  H(1)               0.00701      31.32600      11.17789      10.44923
     9  H(1)              -0.01773     -79.23054     -28.27143     -26.42846
    10  H(1)              -0.01772     -79.22860     -28.27074     -26.42782
 --------------------------------------------------------
       Center         ----  Spin Dipole Couplings  ----
                      3XX-RR        3YY-RR        3ZZ-RR
 --------------------------------------------------------
     1   Atom        0.061999     -0.023100     -0.038899
     2   Atom        0.011704      0.000378     -0.012081
     3   Atom        0.043766      0.493812     -0.537578
     4   Atom        0.007401     -0.004036     -0.003365
     5   Atom        0.007400     -0.004033     -0.003367
     6   Atom        0.008525     -0.001934     -0.006590
     7   Atom        0.003837      0.002077     -0.005915
     8   Atom        0.003834      0.002082     -0.005916
     9   Atom       -0.025599     -0.012219      0.037818
    10   Atom       -0.025639     -0.012159      0.037798
 --------------------------------------------------------
                        XY            XZ            YZ
 --------------------------------------------------------
     1   Atom       -0.041143      0.000002     -0.000001
     2   Atom       -0.002329      0.000005     -0.000005
     3   Atom       -0.772606      0.000390     -0.000519
     4   Atom       -0.005098      0.007752     -0.006157
     5   Atom       -0.005100     -0.007751      0.006157
     6   Atom        0.004370     -0.000000     -0.000001
     7   Atom        0.011684     -0.008044     -0.006374
     8   Atom        0.011685      0.008043      0.006372
     9   Atom       -0.013012     -0.048162     -0.042506
    10   Atom       -0.012996      0.048144      0.042536
 --------------------------------------------------------


 ---------------------------------------------------------------------------------
              Anisotropic Spin Dipole Couplings in Principal Axis System
 ---------------------------------------------------------------------------------

       Atom             a.u.   MegaHertz   Gauss  10(-4) cm-1        Axes

              Baa    -0.0397    -5.332    -1.903    -1.779  0.3749  0.9271 -0.0002
     1 C(13)  Bbb    -0.0389    -5.220    -1.863    -1.741  0.0001  0.0002  1.0000
              Bcc     0.0786    10.552     3.765     3.520  0.9271 -0.3749  0.0000
 
              Baa    -0.0121    -1.621    -0.578    -0.541 -0.0002  0.0003  1.0000
     2 C(13)  Bbb    -0.0001    -0.011    -0.004    -0.004  0.1938  0.9810 -0.0003
              Bcc     0.0122     1.632     0.582     0.544  0.9810 -0.1938  0.0002
 
              Baa    -0.5376   -72.138   -25.741   -24.063 -0.0004  0.0002  1.0000
     3 C(13)  Bbb    -0.5359   -71.915   -25.661   -23.988  0.7999  0.6002  0.0002
              Bcc     1.0735   144.053    51.402    48.051 -0.6002  0.7999 -0.0004
 
              Baa    -0.0101    -5.394    -1.925    -1.799 -0.1472  0.6405  0.7538
     4 H(1)   Bbb    -0.0044    -2.323    -0.829    -0.775  0.5891  0.6689 -0.4533
              Bcc     0.0145     7.717     2.754     2.574  0.7945 -0.3773  0.4758
 
              Baa    -0.0101    -5.394    -1.925    -1.799  0.1472 -0.6403  0.7539
     5 H(1)   Bbb    -0.0044    -2.323    -0.829    -0.775  0.5891  0.6690  0.4532
              Bcc     0.0145     7.717     2.754     2.574  0.7945 -0.3774 -0.4757
 
              Baa    -0.0066    -3.516    -1.255    -1.173 -0.0000  0.0002  1.0000
     6 H(1)   Bbb    -0.0035    -1.878    -0.670    -0.626 -0.3410  0.9400 -0.0002
              Bcc     0.0101     5.394     1.925     1.799  0.9400  0.3410 -0.0000
 
              Baa    -0.0105    -5.578    -1.991    -1.861  0.5250 -0.0576  0.8492
     7 H(1)   Bbb    -0.0084    -4.505    -1.607    -1.503 -0.5049  0.7821  0.3652
              Bcc     0.0189    10.083     3.598     3.363  0.6852  0.6205 -0.3815
 
              Baa    -0.0105    -5.579    -1.991    -1.861 -0.5252  0.0579  0.8490
     8 H(1)   Bbb    -0.0084    -4.503    -1.607    -1.502 -0.5048  0.7820 -0.3656
              Bcc     0.0189    10.083     3.598     3.363  0.6851  0.6206  0.3814
 
              Baa    -0.0710   -37.864   -13.511   -12.630  0.6876  0.5194  0.5074
     9 H(1)   Bbb    -0.0050    -2.648    -0.945    -0.883 -0.6297  0.7745  0.0606
              Bcc     0.0759    40.512    14.456    13.513 -0.3615 -0.3611  0.8596
 
              Baa    -0.0710   -37.864   -13.511   -12.630  0.6878  0.5191 -0.5074
    10 H(1)   Bbb    -0.0050    -2.648    -0.945    -0.883 -0.6297  0.7744 -0.0614
              Bcc     0.0759    40.512    14.456    13.513  0.3611  0.3618  0.8595
 

 ---------------------------------------------------------------------------------

 No NMR shielding tensors so no spin-rotation constants.
 Leave Link  601 at Wed Oct  7 14:39:25 2020, MaxMem=  2684354560 cpu:               4.5 elap:               0.7
 (Enter /udrive/faculty/rpeverati/g16/g16/l701.exe)
 ... and contract with generalized density number  0.
 Compute integral first derivatives.
 R6Disp: Adding Grimme-D3(BJ) dispersion energy 1st derivatives to the gradient.
 Leave Link  701 at Wed Oct  7 14:39:25 2020, MaxMem=  2684354560 cpu:               3.0 elap:               0.5
 (Enter /udrive/faculty/rpeverati/g16/g16/l702.exe)
 L702 exits ... SP integral derivatives will be done elsewhere.
 Leave Link  702 at Wed Oct  7 14:39:26 2020, MaxMem=  2684354560 cpu:               1.1 elap:               0.4
 (Enter /udrive/faculty/rpeverati/g16/g16/l703.exe)
 Integral derivatives from FoFJK, PRISM(SPDF).
 Compute integral first derivatives, UseDBF=F ICtDFT=           0.
 Calling FoFJK, ICntrl=      2127 FMM=F ISym2X=0 I1Cent= 0 IOpClX= 1 NMat=1 NMatS=1 NMatT=0.
 FoFJK:  IHMeth= 1 ICntrl=    2127 DoSepK=F KAlg= 0 I1Cent=           0 FoldK=F
 IRaf=         0 NMat=       1 IRICut=       1 DoRegI=T DoRafI=F ISym2E= 0 IDoP0=0 IntGTp=1.
 FoFCou: FMM=F IPFlag=           0 FMFlag=      100000 FMFlg1=         800
         NFxFlg=           0 DoJE=F BraDBF=F KetDBF=F FulRan=T
         wScrn=  0.000000 ICntrl=      2127 IOpCl=  1 I1Cent=           0 NGrid=           0
         NMat0=    1 NMatS0=      1 NMatT0=    0 NMatD0=    1 NMtDS0=    0 NMtDT0=    0
 Symmetry not used in FoFCou.
 Leave Link  703 at Wed Oct  7 14:39:28 2020, MaxMem=  2684354560 cpu:              12.6 elap:               1.4
 (Enter /udrive/faculty/rpeverati/g16/g16/l716.exe)
 Dipole        = 8.75174001D-02-2.75159684D-03 1.95747741D-05
 ***** Axes restored to original set *****
 -------------------------------------------------------------------
 Center     Atomic                   Forces (Hartrees/Bohr)
 Number     Number              X              Y              Z
 -------------------------------------------------------------------
      1        6           0.000442382   -0.000263329    0.000000542
      2        6          -0.002481523   -0.001347587    0.000000603
      3        6           0.000786797    0.002159822   -0.000000239
      4        1           0.000173518   -0.002115003    0.002915287
      5        1           0.000173547   -0.002115989   -0.002915240
      6        1           0.003335426    0.002205977   -0.000000158
      7        1           0.000380097    0.002439304   -0.003157643
      8        1           0.000379843    0.002439650    0.003156523
      9        1          -0.001595652   -0.001700360    0.003419127
     10        1          -0.001594436   -0.001702486   -0.003418802
 -------------------------------------------------------------------
 Cartesian Forces:  Max     0.003419127 RMS     0.002015808
 Leave Link  716 at Wed Oct  7 14:39:29 2020, MaxMem=  2684354560 cpu:               1.3 elap:               0.5
 (Enter /udrive/faculty/rpeverati/g16/g16/l103.exe)

 GradGradGradGradGradGradGradGradGradGradGradGradGradGradGradGradGradGrad
 Berny optimization.
 Optmz: redundant internal coordinate code flag= 1
 FormGI is forming the generalized inverse of G from B-inverse, IUseBI=4.
 Internal  Forces:  Max     0.004698548 RMS     0.001882411
 Search for a local minimum.
 Step number   1 out of a maximum of  100
 All quantities printed in internal units (Hartrees-Bohrs-Radians)
 RMS Force = .18824D-02 SwitMx=.10000D-02 MixMth= 1
 Mixed Optimization -- RFO/linear search
 Second derivative matrix not updated -- first step.
 The second derivative matrix:
                          R1        R2        R3        R4        R5
           R1           0.28626
           R2           0.00000   0.34781
           R3           0.00000   0.00000   0.34781
           R4           0.00000   0.00000   0.00000   0.34713
           R5           0.00000   0.00000   0.00000   0.00000   0.33221
           R6           0.00000   0.00000   0.00000   0.00000   0.00000
           R7           0.00000   0.00000   0.00000   0.00000   0.00000
           R8           0.00000   0.00000   0.00000   0.00000   0.00000
           R9           0.00000   0.00000   0.00000   0.00000   0.00000
           A1           0.00000   0.00000   0.00000   0.00000   0.00000
           A2           0.00000   0.00000   0.00000   0.00000   0.00000
           A3           0.00000   0.00000   0.00000   0.00000   0.00000
           A4           0.00000   0.00000   0.00000   0.00000   0.00000
           A5           0.00000   0.00000   0.00000   0.00000   0.00000
           A6           0.00000   0.00000   0.00000   0.00000   0.00000
           A7           0.00000   0.00000   0.00000   0.00000   0.00000
           A8           0.00000   0.00000   0.00000   0.00000   0.00000
           A9           0.00000   0.00000   0.00000   0.00000   0.00000
           A10          0.00000   0.00000   0.00000   0.00000   0.00000
           A11          0.00000   0.00000   0.00000   0.00000   0.00000
           A12          0.00000   0.00000   0.00000   0.00000   0.00000
           A13          0.00000   0.00000   0.00000   0.00000   0.00000
           A14          0.00000   0.00000   0.00000   0.00000   0.00000
           A15          0.00000   0.00000   0.00000   0.00000   0.00000
           D1           0.00000   0.00000   0.00000   0.00000   0.00000
           D2           0.00000   0.00000   0.00000   0.00000   0.00000
           D3           0.00000   0.00000   0.00000   0.00000   0.00000
           D4           0.00000   0.00000   0.00000   0.00000   0.00000
           D5           0.00000   0.00000   0.00000   0.00000   0.00000
           D6           0.00000   0.00000   0.00000   0.00000   0.00000
           D7           0.00000   0.00000   0.00000   0.00000   0.00000
           D8           0.00000   0.00000   0.00000   0.00000   0.00000
           D9           0.00000   0.00000   0.00000   0.00000   0.00000
           D10          0.00000   0.00000   0.00000   0.00000   0.00000
           D11          0.00000   0.00000   0.00000   0.00000   0.00000
           D12          0.00000   0.00000   0.00000   0.00000   0.00000
           D13          0.00000   0.00000   0.00000   0.00000   0.00000
           D14          0.00000   0.00000   0.00000   0.00000   0.00000
           D15          0.00000   0.00000   0.00000   0.00000   0.00000
                          R6        R7        R8        R9        A1
           R6           0.34559
           R7           0.00000   0.34559
           R8           0.00000   0.00000   0.35913
           R9           0.00000   0.00000   0.00000   0.35913
           A1           0.00000   0.00000   0.00000   0.00000   0.16000
           A2           0.00000   0.00000   0.00000   0.00000   0.00000
           A3           0.00000   0.00000   0.00000   0.00000   0.00000
           A4           0.00000   0.00000   0.00000   0.00000   0.00000
           A5           0.00000   0.00000   0.00000   0.00000   0.00000
           A6           0.00000   0.00000   0.00000   0.00000   0.00000
           A7           0.00000   0.00000   0.00000   0.00000   0.00000
           A8           0.00000   0.00000   0.00000   0.00000   0.00000
           A9           0.00000   0.00000   0.00000   0.00000   0.00000
           A10          0.00000   0.00000   0.00000   0.00000   0.00000
           A11          0.00000   0.00000   0.00000   0.00000   0.00000
           A12          0.00000   0.00000   0.00000   0.00000   0.00000
           A13          0.00000   0.00000   0.00000   0.00000   0.00000
           A14          0.00000   0.00000   0.00000   0.00000   0.00000
           A15          0.00000   0.00000   0.00000   0.00000   0.00000
           D1           0.00000   0.00000   0.00000   0.00000   0.00000
           D2           0.00000   0.00000   0.00000   0.00000   0.00000
           D3           0.00000   0.00000   0.00000   0.00000   0.00000
           D4           0.00000   0.00000   0.00000   0.00000   0.00000
           D5           0.00000   0.00000   0.00000   0.00000   0.00000
           D6           0.00000   0.00000   0.00000   0.00000   0.00000
           D7           0.00000   0.00000   0.00000   0.00000   0.00000
           D8           0.00000   0.00000   0.00000   0.00000   0.00000
           D9           0.00000   0.00000   0.00000   0.00000   0.00000
           D10          0.00000   0.00000   0.00000   0.00000   0.00000
           D11          0.00000   0.00000   0.00000   0.00000   0.00000
           D12          0.00000   0.00000   0.00000   0.00000   0.00000
           D13          0.00000   0.00000   0.00000   0.00000   0.00000
           D14          0.00000   0.00000   0.00000   0.00000   0.00000
           D15          0.00000   0.00000   0.00000   0.00000   0.00000
                          A2        A3        A4        A5        A6
           A2           0.16000
           A3           0.00000   0.16000
           A4           0.00000   0.00000   0.16000
           A5           0.00000   0.00000   0.00000   0.16000
           A6           0.00000   0.00000   0.00000   0.00000   0.16000
           A7           0.00000   0.00000   0.00000   0.00000   0.00000
           A8           0.00000   0.00000   0.00000   0.00000   0.00000
           A9           0.00000   0.00000   0.00000   0.00000   0.00000
           A10          0.00000   0.00000   0.00000   0.00000   0.00000
           A11          0.00000   0.00000   0.00000   0.00000   0.00000
           A12          0.00000   0.00000   0.00000   0.00000   0.00000
           A13          0.00000   0.00000   0.00000   0.00000   0.00000
           A14          0.00000   0.00000   0.00000   0.00000   0.00000
           A15          0.00000   0.00000   0.00000   0.00000   0.00000
           D1           0.00000   0.00000   0.00000   0.00000   0.00000
           D2           0.00000   0.00000   0.00000   0.00000   0.00000
           D3           0.00000   0.00000   0.00000   0.00000   0.00000
           D4           0.00000   0.00000   0.00000   0.00000   0.00000
           D5           0.00000   0.00000   0.00000   0.00000   0.00000
           D6           0.00000   0.00000   0.00000   0.00000   0.00000
           D7           0.00000   0.00000   0.00000   0.00000   0.00000
           D8           0.00000   0.00000   0.00000   0.00000   0.00000
           D9           0.00000   0.00000   0.00000   0.00000   0.00000
           D10          0.00000   0.00000   0.00000   0.00000   0.00000
           D11          0.00000   0.00000   0.00000   0.00000   0.00000
           D12          0.00000   0.00000   0.00000   0.00000   0.00000
           D13          0.00000   0.00000   0.00000   0.00000   0.00000
           D14          0.00000   0.00000   0.00000   0.00000   0.00000
           D15          0.00000   0.00000   0.00000   0.00000   0.00000
                          A7        A8        A9        A10       A11
           A7           0.25000
           A8           0.00000   0.16000
           A9           0.00000   0.00000   0.16000
           A10          0.00000   0.00000   0.00000   0.16000
           A11          0.00000   0.00000   0.00000   0.00000   0.16000
           A12          0.00000   0.00000   0.00000   0.00000   0.00000
           A13          0.00000   0.00000   0.00000   0.00000   0.00000
           A14          0.00000   0.00000   0.00000   0.00000   0.00000
           A15          0.00000   0.00000   0.00000   0.00000   0.00000
           D1           0.00000   0.00000   0.00000   0.00000   0.00000
           D2           0.00000   0.00000   0.00000   0.00000   0.00000
           D3           0.00000   0.00000   0.00000   0.00000   0.00000
           D4           0.00000   0.00000   0.00000   0.00000   0.00000
           D5           0.00000   0.00000   0.00000   0.00000   0.00000
           D6           0.00000   0.00000   0.00000   0.00000   0.00000
           D7           0.00000   0.00000   0.00000   0.00000   0.00000
           D8           0.00000   0.00000   0.00000   0.00000   0.00000
           D9           0.00000   0.00000   0.00000   0.00000   0.00000
           D10          0.00000   0.00000   0.00000   0.00000   0.00000
           D11          0.00000   0.00000   0.00000   0.00000   0.00000
           D12          0.00000   0.00000   0.00000   0.00000   0.00000
           D13          0.00000   0.00000   0.00000   0.00000   0.00000
           D14          0.00000   0.00000   0.00000   0.00000   0.00000
           D15          0.00000   0.00000   0.00000   0.00000   0.00000
                          A12       A13       A14       A15       D1
           A12          0.16000
           A13          0.00000   0.16000
           A14          0.00000   0.00000   0.16000
           A15          0.00000   0.00000   0.00000   0.16000
           D1           0.00000   0.00000   0.00000   0.00000   0.00253
           D2           0.00000   0.00000   0.00000   0.00000   0.00000
           D3           0.00000   0.00000   0.00000   0.00000   0.00000
           D4           0.00000   0.00000   0.00000   0.00000   0.00000
           D5           0.00000   0.00000   0.00000   0.00000   0.00000
           D6           0.00000   0.00000   0.00000   0.00000   0.00000
           D7           0.00000   0.00000   0.00000   0.00000   0.00000
           D8           0.00000   0.00000   0.00000   0.00000   0.00000
           D9           0.00000   0.00000   0.00000   0.00000   0.00000
           D10          0.00000   0.00000   0.00000   0.00000   0.00000
           D11          0.00000   0.00000   0.00000   0.00000   0.00000
           D12          0.00000   0.00000   0.00000   0.00000   0.00000
           D13          0.00000   0.00000   0.00000   0.00000   0.00000
           D14          0.00000   0.00000   0.00000   0.00000   0.00000
           D15          0.00000   0.00000   0.00000   0.00000   0.00000
                          D2        D3        D4        D5        D6
           D2           0.00253
           D3           0.00000   0.00253
           D4           0.00000   0.00000   0.00253
           D5           0.00000   0.00000   0.00000   0.00253
           D6           0.00000   0.00000   0.00000   0.00000   0.00253
           D7           0.00000   0.00000   0.00000   0.00000   0.00000
           D8           0.00000   0.00000   0.00000   0.00000   0.00000
           D9           0.00000   0.00000   0.00000   0.00000   0.00000
           D10          0.00000   0.00000   0.00000   0.00000   0.00000
           D11          0.00000   0.00000   0.00000   0.00000   0.00000
           D12          0.00000   0.00000   0.00000   0.00000   0.00000
           D13          0.00000   0.00000   0.00000   0.00000   0.00000
           D14          0.00000   0.00000   0.00000   0.00000   0.00000
           D15          0.00000   0.00000   0.00000   0.00000   0.00000
                          D7        D8        D9        D10       D11
           D7           0.00253
           D8           0.00000   0.00253
           D9           0.00000   0.00000   0.00253
           D10          0.00000   0.00000   0.00000   0.00870
           D11          0.00000   0.00000   0.00000   0.00000   0.00870
           D12          0.00000   0.00000   0.00000   0.00000   0.00000
           D13          0.00000   0.00000   0.00000   0.00000   0.00000
           D14          0.00000   0.00000   0.00000   0.00000   0.00000
           D15          0.00000   0.00000   0.00000   0.00000   0.00000
                          D12       D13       D14       D15
           D12          0.00870
           D13          0.00000   0.00870
           D14          0.00000   0.00000   0.00870
           D15          0.00000   0.00000   0.00000   0.00870
 ITU=  0
 Eigenvectors of the second derivative matrix:
                           1         2         3         4         5
     Eigenvalues --     0.00253   0.00870   0.00957   0.04110   0.05456
   1         R1        -0.00000   0.00000   0.00000   0.00000   0.00000
   2         R2        -0.00000   0.00000   0.00000   0.00000   0.00000
   3         R3         0.00000  -0.00000   0.00000   0.00000   0.00000
   4         R4         0.00000  -0.00000   0.00000   0.00000   0.00000
   5         R5         0.00000   0.00000   0.00000  -0.00000   0.00000
   6         R6         0.00000  -0.00000   0.00000  -0.00000  -0.00000
   7         R7        -0.00000   0.00000   0.00000  -0.00000   0.00000
   8         R8        -0.00000  -0.00000   0.00000  -0.00000  -0.00000
   9         R9         0.00000   0.00000   0.00000   0.00000  -0.00000
  10         A1        -0.00000   0.00000   0.00000  -0.00000  -0.00000
  11         A2         0.00000  -0.00000   0.00000  -0.00000  -0.00000
  12         A3         0.00000  -0.00000  -0.00000   0.00000   0.00000
  13         A4         0.00000   0.00000   0.00000  -0.00000  -0.00000
  14         A5        -0.00000   0.00000  -0.00000   0.00000   0.00000
  15         A6         0.00000  -0.00000  -0.00000  -0.00000   0.00000
  16         A7         0.00000   0.00000  -0.00000  -0.00001   0.14281
  17         A8        -0.00000  -0.00000  -0.00000   0.22024   0.01940
  18         A9         0.00000   0.00000   0.00000  -0.22024   0.01939
  19         A10       -0.00000   0.00000   0.00000   0.26124   0.14038
  20         A11        0.00000  -0.00000  -0.00000  -0.26124   0.14035
  21         A12        0.00000  -0.00000  -0.00000   0.00002  -0.50051
  22         A13       -0.00000  -0.00000  -0.04336  -0.00000   0.00000
  23         A14       -0.00000  -0.00000  -0.04336   0.00000  -0.00000
  24         A15       -0.00000  -0.00000  -0.04412   0.00000   0.00000
  25         D1         0.33333  -0.00000  -0.00000   0.32498   0.00001
  26         D2         0.33333  -0.00000  -0.00000  -0.16248  -0.28661
  27         D3         0.33333  -0.00000  -0.00000  -0.16250   0.28659
  28         D4         0.33333  -0.00000  -0.00000   0.32498   0.00001
  29         D5         0.33333  -0.00000  -0.00000  -0.16248  -0.28661
  30         D6         0.33333  -0.00000  -0.00000  -0.16250   0.28659
  31         D7         0.33333  -0.00000  -0.00000   0.32498   0.00001
  32         D8         0.33333  -0.00000  -0.00000  -0.16248  -0.28661
  33         D9         0.33333  -0.00000  -0.00000  -0.16250   0.28659
  34         D10        0.00000   0.40825  -0.40708  -0.31158  -0.00001
  35         D11        0.00000   0.40825   0.40708  -0.31158  -0.00001
  36         D12        0.00000   0.40825  -0.40708   0.15578   0.22142
  37         D13        0.00000   0.40825   0.40708   0.15578   0.22142
  38         D14       -0.00000   0.40825  -0.40708   0.15580  -0.22141
  39         D15        0.00000   0.40825   0.40708   0.15580  -0.22141
                           6         7         8         9        10
     Eigenvalues --     0.05468   0.05495   0.09404   0.12872   0.16000
   1         R1        -0.00000   0.00000   0.00000  -0.00000  -0.00000
   2         R2         0.00000   0.00000   0.00000   0.00000   0.00000
   3         R3        -0.00000   0.00000  -0.00000   0.00000   0.00000
   4         R4        -0.00000  -0.00000  -0.00000   0.00000  -0.00000
   5         R5         0.00000   0.00000  -0.00000   0.00000   0.00000
   6         R6        -0.00000  -0.00000   0.00000   0.00000   0.00000
   7         R7         0.00000  -0.00000  -0.00000  -0.00000  -0.00000
   8         R8         0.00000   0.00000   0.00000  -0.00000   0.00000
   9         R9         0.00000   0.00000  -0.00000   0.00000   0.00000
  10         A1         0.18940   0.10896   0.00000   0.00000   0.60702
  11         A2        -0.18948   0.10882  -0.00000  -0.00000   0.20381
  12         A3         0.00008  -0.21827   0.00000   0.00000  -0.40186
  13         A4        -0.00015   0.41864  -0.00000  -0.00000  -0.42250
  14         A5         0.36021  -0.20757  -0.00000  -0.00000  -0.10815
  15         A6        -0.36006  -0.20783   0.00000   0.00000   0.10395
  16         A7        -0.00000   0.00000   0.03694  -0.00000  -0.00000
  17         A8        -0.00000   0.00000   0.39368  -0.47513   0.00000
  18         A9        -0.00000   0.00000   0.39367   0.47515  -0.00000
  19         A10       -0.00000   0.00000  -0.34660   0.41517  -0.00000
  20         A11       -0.00000   0.00000  -0.34659  -0.41518   0.00000
  21         A12        0.00000  -0.00000  -0.12775   0.00000   0.00000
  22         A13       -0.00000   0.00000  -0.00000  -0.00000   0.22156
  23         A14       -0.00000  -0.00000  -0.00000   0.00000   0.17129
  24         A15        0.00000   0.00000   0.00000  -0.00000  -0.38608
  25         D1         0.19289  -0.33337  -0.00000   0.12790  -0.00000
  26         D2         0.19289  -0.33337   0.13780  -0.06395   0.00000
  27         D3         0.19289  -0.33337  -0.13780  -0.06395   0.00000
  28         D4         0.19264   0.33351  -0.00000   0.12790  -0.00000
  29         D5         0.19264   0.33351   0.13780  -0.06395   0.00000
  30         D6         0.19264   0.33351  -0.13780  -0.06395  -0.00000
  31         D7        -0.38553  -0.00014  -0.00000   0.12790  -0.00000
  32         D8        -0.38553  -0.00014   0.13780  -0.06395   0.00000
  33         D9        -0.38553  -0.00014  -0.13780  -0.06395   0.00000
  34         D10        0.00000  -0.00000  -0.00000   0.20827  -0.00000
  35         D11        0.00000  -0.00000  -0.00000   0.20827  -0.00000
  36         D12       -0.00000   0.00000   0.28203  -0.10413   0.00000
  37         D13       -0.00000   0.00000   0.28203  -0.10413   0.00000
  38         D14        0.00000  -0.00000  -0.28203  -0.10414   0.00000
  39         D15        0.00000  -0.00000  -0.28203  -0.10414   0.00000
                          11        12        13        14        15
     Eigenvalues --     0.16000   0.16000   0.16000   0.16000   0.21954
   1         R1         0.00000   0.00000  -0.00000   0.00000   0.00000
   2         R2         0.00000  -0.00000  -0.00000  -0.00000   0.00000
   3         R3        -0.00000   0.00000  -0.00000   0.00000  -0.00000
   4         R4         0.00000   0.00000  -0.00000   0.00000   0.00000
   5         R5        -0.00000   0.00000   0.00000  -0.00000   0.00000
   6         R6         0.00000   0.00000  -0.00000  -0.00000   0.00000
   7         R7        -0.00000   0.00000   0.00000  -0.00000  -0.00000
   8         R8         0.00000  -0.00000  -0.00000   0.00000   0.00000
   9         R9        -0.00000   0.00000   0.00000   0.00000  -0.00000
  10         A1        -0.38259   0.11859  -0.03196   0.39010   0.00000
  11         A2         0.11233  -0.05348   0.68555  -0.39385  -0.00000
  12         A3        -0.48072  -0.53318   0.03664   0.05377  -0.00000
  13         A4         0.14082  -0.03393  -0.34056   0.00195   0.00000
  14         A5         0.45384   0.21777  -0.00244  -0.23346  -0.00000
  15         A6         0.19350   0.30828  -0.37986   0.17892   0.00000
  16         A7         0.00000  -0.00000   0.00000  -0.00000   0.82115
  17         A8         0.00000  -0.00000  -0.00000   0.00000  -0.26240
  18         A9         0.00000   0.00000   0.00000  -0.00000  -0.26240
  19         A10       -0.00000   0.00000   0.00000  -0.00000  -0.26436
  20         A11       -0.00000  -0.00000  -0.00000   0.00000  -0.26437
  21         A12       -0.00000  -0.00000   0.00000   0.00000   0.20189
  22         A13       -0.26657  -0.01704  -0.38702  -0.63272   0.00000
  23         A14        0.48089  -0.52285   0.04054   0.36735  -0.00000
  24         A15       -0.21062   0.53059   0.34051   0.26079   0.00000
  25         D1        -0.00000   0.00000   0.00000  -0.00000  -0.00000
  26         D2         0.00000  -0.00000  -0.00000   0.00000  -0.02255
  27         D3        -0.00000  -0.00000  -0.00000   0.00000   0.02255
  28         D4         0.00000   0.00000   0.00000  -0.00000  -0.00000
  29         D5         0.00000  -0.00000  -0.00000   0.00000  -0.02255
  30         D6         0.00000  -0.00000  -0.00000   0.00000   0.02255
  31         D7        -0.00000   0.00000   0.00000  -0.00000  -0.00000
  32         D8        -0.00000   0.00000   0.00000   0.00000  -0.02255
  33         D9        -0.00000   0.00000   0.00000   0.00000   0.02255
  34         D10        0.00000   0.00000   0.00000  -0.00000  -0.00000
  35         D11        0.00000   0.00000  -0.00000  -0.00000  -0.00000
  36         D12        0.00000  -0.00000  -0.00000   0.00000   0.03320
  37         D13        0.00000  -0.00000  -0.00000  -0.00000   0.03320
  38         D14       -0.00000  -0.00000  -0.00000   0.00000  -0.03319
  39         D15       -0.00000  -0.00000  -0.00000   0.00000  -0.03319
                          16        17        18        19        20
     Eigenvalues --     0.28626   0.33221   0.34559   0.34559   0.34713
   1         R1        -1.00000   0.00000  -0.00000   0.00000  -0.00000
   2         R2        -0.00000   0.00000  -0.00000  -0.00000  -0.00000
   3         R3         0.00000   0.00000  -0.00000  -0.00000  -0.00000
   4         R4         0.00000  -0.00000   0.00000   0.00000  -1.00000
   5         R5         0.00000   1.00000  -0.00000   0.00000  -0.00000
   6         R6        -0.00000   0.00000   1.00000  -0.00000   0.00000
   7         R7        -0.00000   0.00000  -0.00000  -1.00000  -0.00000
   8         R8         0.00000  -0.00000   0.00000  -0.00000   0.00000
   9         R9         0.00000  -0.00000   0.00000  -0.00000   0.00000
  10         A1        -0.00000  -0.00000   0.00000   0.00000   0.00000
  11         A2        -0.00000  -0.00000  -0.00000   0.00000  -0.00000
  12         A3        -0.00000   0.00000   0.00000   0.00000  -0.00000
  13         A4         0.00000   0.00000  -0.00000   0.00000   0.00000
  14         A5         0.00000   0.00000   0.00000   0.00000   0.00000
  15         A6         0.00000   0.00000  -0.00000  -0.00000   0.00000
  16         A7         0.00000  -0.00000   0.00000  -0.00000   0.00000
  17         A8         0.00000   0.00000  -0.00000  -0.00000  -0.00000
  18         A9        -0.00000  -0.00000   0.00000  -0.00000  -0.00000
  19         A10       -0.00000  -0.00000   0.00000   0.00000   0.00000
  20         A11        0.00000   0.00000  -0.00000   0.00000   0.00000
  21         A12       -0.00000  -0.00000  -0.00000   0.00000   0.00000
  22         A13        0.00000   0.00000  -0.00000  -0.00000  -0.00000
  23         A14        0.00000   0.00000   0.00000  -0.00000   0.00000
  24         A15       -0.00000  -0.00000   0.00000   0.00000   0.00000
  25         D1        -0.00000  -0.00000   0.00000   0.00000   0.00000
  26         D2        -0.00000   0.00000  -0.00000  -0.00000   0.00000
  27         D3        -0.00000  -0.00000   0.00000   0.00000   0.00000
  28         D4        -0.00000  -0.00000   0.00000   0.00000  -0.00000
  29         D5         0.00000  -0.00000   0.00000   0.00000  -0.00000
  30         D6         0.00000   0.00000   0.00000   0.00000   0.00000
  31         D7        -0.00000   0.00000  -0.00000  -0.00000   0.00000
  32         D8        -0.00000   0.00000  -0.00000  -0.00000  -0.00000
  33         D9         0.00000   0.00000  -0.00000  -0.00000   0.00000
  34         D10       -0.00000   0.00000   0.00000  -0.00000  -0.00000
  35         D11        0.00000  -0.00000  -0.00000  -0.00000  -0.00000
  36         D12        0.00000   0.00000   0.00000  -0.00000  -0.00000
  37         D13        0.00000  -0.00000   0.00000  -0.00000  -0.00000
  38         D14        0.00000   0.00000   0.00000   0.00000   0.00000
  39         D15        0.00000  -0.00000  -0.00000   0.00000   0.00000
                          21        22        23        24
     Eigenvalues --     0.34781   0.34781   0.35913   0.35913
   1         R1        -0.00000  -0.00000   0.00000   0.00000
   2         R2         1.00000  -0.00000   0.00000   0.00000
   3         R3        -0.00000  -1.00000  -0.00000   0.00000
   4         R4        -0.00000   0.00000   0.00000   0.00000
   5         R5        -0.00000   0.00000   0.00000   0.00000
   6         R6         0.00000  -0.00000  -0.00000  -0.00000
   7         R7        -0.00000   0.00000  -0.00000  -0.00000
   8         R8        -0.00000   0.00000   0.00000   1.00000
   9         R9        -0.00000  -0.00000   1.00000  -0.00000
  10         A1         0.00000   0.00000  -0.00000  -0.00000
  11         A2        -0.00000  -0.00000  -0.00000   0.00000
  12         A3         0.00000   0.00000   0.00000   0.00000
  13         A4        -0.00000   0.00000   0.00000  -0.00000
  14         A5        -0.00000  -0.00000  -0.00000   0.00000
  15         A6         0.00000   0.00000   0.00000  -0.00000
  16         A7        -0.00000  -0.00000   0.00000  -0.00000
  17         A8         0.00000   0.00000   0.00000  -0.00000
  18         A9        -0.00000   0.00000   0.00000   0.00000
  19         A10       -0.00000  -0.00000   0.00000   0.00000
  20         A11        0.00000  -0.00000   0.00000  -0.00000
  21         A12        0.00000  -0.00000  -0.00000  -0.00000
  22         A13       -0.00000  -0.00000   0.00000   0.00000
  23         A14       -0.00000  -0.00000   0.00000  -0.00000
  24         A15        0.00000   0.00000  -0.00000   0.00000
  25         D1         0.00000   0.00000  -0.00000   0.00000
  26         D2        -0.00000  -0.00000  -0.00000   0.00000
  27         D3         0.00000   0.00000   0.00000   0.00000
  28         D4         0.00000  -0.00000  -0.00000   0.00000
  29         D5         0.00000  -0.00000  -0.00000   0.00000
  30         D6         0.00000  -0.00000  -0.00000  -0.00000
  31         D7         0.00000   0.00000  -0.00000   0.00000
  32         D8         0.00000   0.00000  -0.00000   0.00000
  33         D9         0.00000   0.00000   0.00000   0.00000
  34         D10       -0.00000  -0.00000  -0.00000   0.00000
  35         D11       -0.00000   0.00000  -0.00000   0.00000
  36         D12       -0.00000   0.00000   0.00000   0.00000
  37         D13       -0.00000  -0.00000  -0.00000  -0.00000
  38         D14        0.00000  -0.00000  -0.00000   0.00000
  39         D15        0.00000  -0.00000  -0.00000   0.00000
 Iter=   1 RLamda= 0.00000000D+00 Sum=-4.22051928D-04.
 Iter=   2 RLamda=-4.22051928D-04 Sum=-4.21150020D-04.
 Iter=   3 RLamda=-4.21150020D-04 Sum=-4.21151913D-04.
 RFO step:  Lambda=-4.21150020D-04 EMin= 2.52783275D-03
 Linear search not attempted -- first point.
 Iteration  1 RMS(Cart)=  0.00788229 RMS(Int)=  0.00003788
 Iteration  2 RMS(Cart)=  0.00002592 RMS(Int)=  0.00002093
 Iteration  3 RMS(Cart)=  0.00000000 RMS(Int)=  0.00002093
 ITry= 1 IFail=0 DXMaxC= 1.79D-02 DCOld= 1.00D+10 DXMaxT= 3.00D-01 DXLimC= 3.00D+00 Rises=F
 Variable       Old X    -DE/DX   Delta X   Delta X   Delta X     New X
                                 (Linear)    (Quad)   (Total)
    R1        2.90790   0.00470   0.00000   0.01639   0.01639   2.92429
    R2        2.06032   0.00361   0.00000   0.01035   0.01035   2.07067
    R3        2.06032   0.00361   0.00000   0.01035   0.01035   2.07068
    R4        2.06144   0.00400   0.00000   0.01150   0.01150   2.07294
    R5        2.81966   0.00269   0.00000   0.00809   0.00809   2.82775
    R6        2.06397   0.00399   0.00000   0.01155   0.01155   2.07552
    R7        2.06397   0.00399   0.00000   0.01154   0.01154   2.07551
    R8        2.04218   0.00413   0.00000   0.01148   0.01148   2.05366
    R9        2.04218   0.00413   0.00000   0.01148   0.01148   2.05367
    A1        1.93373   0.00004   0.00000   0.00030   0.00030   1.93403
    A2        1.93373   0.00004   0.00000   0.00030   0.00030   1.93403
    A3        1.93484   0.00012   0.00000   0.00071   0.00071   1.93555
    A4        1.88201  -0.00003   0.00000  -0.00011  -0.00011   1.88190
    A5        1.88888  -0.00009   0.00000  -0.00064  -0.00064   1.88825
    A6        1.88888  -0.00009   0.00000  -0.00064  -0.00064   1.88824
    A7        1.96760   0.00051   0.00000   0.00274   0.00275   1.97035
    A8        1.89792  -0.00035   0.00000  -0.00268  -0.00269   1.89524
    A9        1.89794  -0.00035   0.00000  -0.00268  -0.00269   1.89525
   A10        1.91649   0.00006   0.00000   0.00183   0.00183   1.91832
   A11        1.91649   0.00006   0.00000   0.00183   0.00183   1.91833
   A12        1.86439   0.00004   0.00000  -0.00133  -0.00134   1.86304
   A13        2.10763   0.00011   0.00000  -0.00046  -0.00054   2.10709
   A14        2.10760   0.00011   0.00000  -0.00046  -0.00054   2.10706
   A15        2.05261  -0.00026   0.00000  -0.00280  -0.00287   2.04974
    D1       -1.04409  -0.00001   0.00000  -0.00013  -0.00013  -1.04423
    D2        3.10951  -0.00017   0.00000  -0.00238  -0.00238   3.10713
    D3        1.08550   0.00016   0.00000   0.00211   0.00211   1.08761
    D4        1.04406   0.00001   0.00000   0.00013   0.00013   1.04419
    D5       -1.08552  -0.00016   0.00000  -0.00212  -0.00212  -1.08764
    D6       -3.10953   0.00017   0.00000   0.00238   0.00237  -3.10715
    D7        3.14157   0.00000   0.00000  -0.00000  -0.00000   3.14157
    D8        1.01199  -0.00016   0.00000  -0.00225  -0.00225   1.00975
    D9       -1.01202   0.00016   0.00000   0.00225   0.00224  -1.00977
   D10        1.47520  -0.00012   0.00000  -0.01168  -0.01168   1.46352
   D11       -1.47458   0.00012   0.00000   0.01166   0.01165  -1.46292
   D12       -2.68891  -0.00018   0.00000  -0.01195  -0.01194  -2.70085
   D13        0.64450   0.00006   0.00000   0.01139   0.01139   0.65588
   D14       -0.64390  -0.00006   0.00000  -0.01141  -0.01141  -0.65531
   D15        2.68951   0.00018   0.00000   0.01193   0.01192   2.70143
         Item               Value     Threshold  Converged?
 Maximum Force            0.004699     0.000450     NO 
 RMS     Force            0.001882     0.000300     NO 
 Maximum Displacement     0.017856     0.001800     NO 
 RMS     Displacement     0.007872     0.001200     NO 
 Predicted change in Energy=-2.109662D-04
 Lowest energy point so far.  Saving SCF results.
 Largest change from initial coordinates is atom    3       0.009 Angstoms.
 GradGradGradGradGradGradGradGradGradGradGradGradGradGradGradGradGradGrad

 Leave Link  103 at Wed Oct  7 14:39:29 2020, MaxMem=  2684354560 cpu:               3.8 elap:               0.6
 (Enter /udrive/faculty/rpeverati/g16/g16/l202.exe)
                          Input orientation:                          
 ---------------------------------------------------------------------
 Center     Atomic      Atomic             Coordinates (Angstroms)
 Number     Number       Type             X           Y           Z
 ---------------------------------------------------------------------
      1          6           0        1.212519   -0.288826    0.000058
      2          6           0       -0.068544    0.579235   -0.000058
      3          6           0       -1.323721   -0.235435   -0.000013
      4          1           0        1.246034   -0.933276    0.885630
      5          1           0        1.246060   -0.933473   -0.885370
      6          1           0        2.111320    0.340033   -0.000001
      7          1           0       -0.047663    1.234080   -0.881558
      8          1           0       -0.047718    1.234266    0.881299
      9          1           0       -1.735064   -0.621551    0.928825
     10          1           0       -1.734691   -0.622185   -0.928755
 ---------------------------------------------------------------------
                    Distance matrix (angstroms):
                    1          2          3          4          5
     1  C    0.000000
     2  C    1.547466   0.000000
     3  C    2.536802   1.496381   0.000000
     4  H    1.095754   2.190947   2.806240   0.000000
     5  H    1.095754   2.190946   2.806223   1.771000   0.000000
     6  H    1.096953   2.192949   3.482911   1.776057   1.776055
     7  H    2.164381   1.098316   2.136567   3.081239   2.524285
     8  H    2.164392   1.098312   2.136566   2.524292   3.081245
     9  H    3.108305   2.254329   1.086752   2.997663   3.503669
    10  H    3.108033   2.254314   1.086753   3.503355   2.997275
                    6          7          8          9         10
     6  H    0.000000
     7  H    2.497532   0.000000
     8  H    2.497556   1.762857   0.000000
     9  H    4.072104   3.093247   2.508675   0.000000
    10  H    4.071885   2.508787   3.093312   1.857579   0.000000
 Stoichiometry    C3H7(2)
 Framework group  C1[X(C3H7)]
 Deg. of freedom    24
 Full point group                 C1      NOp   1
 RotChk:  IX=0 Diff= 2.18D-03
 Largest Abelian subgroup         C1      NOp   1
 Largest concise Abelian subgroup C1      NOp   1
                         Standard orientation:                         
[...]
 ! D8    D(6,1,2,7)             57.843          -DE/DX =    0.0                 !
 ! D9    D(6,1,2,8)            -57.8444         -DE/DX =    0.0                 !
 ! D10   D(1,2,3,9)             83.324          -DE/DX =    0.0                 !
 ! D11   D(1,2,3,10)           -83.2933         -DE/DX =    0.0                 !
 ! D12   D(7,2,3,9)           -155.339          -DE/DX =    0.0                 !
 ! D13   D(7,2,3,10)            38.0437         -DE/DX =    0.0                 !
 ! D14   D(8,2,3,9)            -38.0144         -DE/DX =    0.0                 !
 ! D15   D(8,2,3,10)           155.3683         -DE/DX =    0.0                 !
 --------------------------------------------------------------------------------
 Lowest energy point so far.  Saving SCF results.
 Largest change from initial coordinates is atom    9       0.015 Angstoms.
 GradGradGradGradGradGradGradGradGradGradGradGradGradGradGradGradGradGrad

 Leave Link  103 at Wed Oct  7 14:40:19 2020, MaxMem=  2684354560 cpu:               2.9 elap:               0.6
 (Enter /udrive/faculty/rpeverati/g16/g16/l202.exe)
                          Input orientation:                          
 ---------------------------------------------------------------------
 Center     Atomic      Atomic             Coordinates (Angstroms)
 Number     Number       Type             X           Y           Z
 ---------------------------------------------------------------------
      1          6           0        1.210730   -0.289437    0.000061
      2          6           0       -0.069335    0.580551   -0.000062
      3          6           0       -1.324317   -0.231889   -0.000015
      4          1           0        1.243031   -0.933324    0.885878
      5          1           0        1.243061   -0.933527   -0.885607
      6          1           0        2.109036    0.339755    0.000002
      7          1           0       -0.046218    1.234901   -0.881755
      8          1           0       -0.046275    1.235095    0.881485
      9          1           0       -1.730761   -0.624331    0.928274
     10          1           0       -1.730420   -0.624924   -0.928203
 ---------------------------------------------------------------------
                    Distance matrix (angstroms):
                    1          2          3          4          5
     1  C    0.000000
     2  C    1.547723   0.000000
     3  C    2.535701   1.495005   0.000000
     4  H    1.095584   2.190665   2.805012   0.000000
     5  H    1.095584   2.190664   2.804996   1.771485   0.000000
     6  H    1.096739   2.191639   3.480617   1.776364   1.776363
     7  H    2.163591   1.098222   2.135995   3.080242   2.522764
     8  H    2.163601   1.098218   2.135995   2.522770   3.080247
     9  H    3.102596   2.252529   1.086705   2.990102   3.497053
    10  H    3.102353   2.252515   1.086706   3.496772   2.989756
                    6          7          8          9         10
     6  H    0.000000
     7  H    2.494775   0.000000
     8  H    2.494797   1.763240   0.000000
     9  H    4.066349   3.093644   2.509411   0.000000
    10  H    4.066153   2.509511   3.093701   1.856477   0.000000
 Stoichiometry    C3H7(2)
 Framework group  C1[X(C3H7)]
 Deg. of freedom    24
 Full point group                 C1      NOp   1
 RotChk:  IX=0 Diff= 5.26D-16
 Largest Abelian subgroup         C1      NOp   1
 Largest concise Abelian subgroup C1      NOp   1
                         Standard orientation:                         
 ---------------------------------------------------------------------
 Center     Atomic      Atomic             Coordinates (Angstroms)
 Number     Number       Type             X           Y           Z
 ---------------------------------------------------------------------
      1          6           0        1.213661   -0.288520    0.000062
      2          6           0       -0.068464    0.578431   -0.000061
      3          6           0       -1.321516   -0.236983   -0.000014
      4          1           0        1.247488   -0.932328    0.885878
      5          1           0        1.247519   -0.932531   -0.885606
      6          1           0        2.110472    0.342801    0.000003
      7          1           0       -0.046899    1.232834   -0.881754
      8          1           0       -0.046956    1.233027    0.881486
      9          1           0       -1.727028   -0.630388    0.928274
     10          1           0       -1.726686   -0.630980   -0.928202
 ---------------------------------------------------------------------
 Rotational constants (GHZ):          31.0009427           8.8362431           7.9304499
 Leave Link  202 at Wed Oct  7 14:40:19 2020, MaxMem=  2684354560 cpu:               1.0 elap:               0.3
 (Enter /udrive/faculty/rpeverati/g16/g16/l601.exe)
 Copying SCF densities to generalized density rwf, IOpCl= 1 IROHF=0.

 **********************************************************************

            Population analysis using the SCF density.

 **********************************************************************

 Orbital symmetries:
 Alpha Orbitals:
       Occupied  (A) (A) (A) (A) (A) (A) (A) (A) (A) (A) (A) (A)
                 (A)
       Virtual   (A) (A) (A) (A) (A) (A) (A) (A) (A) (A) (A) (A)
                 (A) (A) (A) (A) (A) (A) (A) (A) (A) (A) (A) (A)
                 (A) (A) (A) (A) (A) (A) (A) (A) (A) (A) (A) (A)
                 (A) (A) (A) (A) (A) (A) (A)
 Beta  Orbitals:
       Occupied  (A) (A) (A) (A) (A) (A) (A) (A) (A) (A) (A) (A)
       Virtual   (A) (A) (A) (A) (A) (A) (A) (A) (A) (A) (A) (A)
                 (A) (A) (A) (A) (A) (A) (A) (A) (A) (A) (A) (A)
                 (A) (A) (A) (A) (A) (A) (A) (A) (A) (A) (A) (A)
                 (A) (A) (A) (A) (A) (A) (A) (A)
 The electronic state is 2-A.
 Alpha  occ. eigenvalues --  -10.11734 -10.11642 -10.10759  -0.75653  -0.65222
 Alpha  occ. eigenvalues --   -0.56055  -0.44279  -0.40767  -0.37454  -0.35721
 Alpha  occ. eigenvalues --   -0.32989  -0.31623  -0.18481
 Alpha virt. eigenvalues --    0.10690   0.13894   0.14139   0.15939   0.17783
 Alpha virt. eigenvalues --    0.17917   0.22240   0.22532   0.26813   0.52004
 Alpha virt. eigenvalues --    0.53793   0.54370   0.55761   0.59217   0.61347
 Alpha virt. eigenvalues --    0.66051   0.70489   0.81996   0.83551   0.88341
 Alpha virt. eigenvalues --    0.90547   0.91278   0.94315   0.97180   0.99329
 Alpha virt. eigenvalues --    1.04858   1.23806   1.43555   1.49994   1.59518
 Alpha virt. eigenvalues --    1.70585   1.73899   1.90253   1.96907   1.98271
 Alpha virt. eigenvalues --    2.10151   2.16883   2.23003   2.34144   2.39870
 Alpha virt. eigenvalues --    2.49094   2.57598   2.67530
  Beta  occ. eigenvalues --  -10.11760 -10.10595 -10.10146  -0.74664  -0.63348
  Beta  occ. eigenvalues --   -0.54700  -0.43868  -0.40274  -0.37063  -0.34546
  Beta  occ. eigenvalues --   -0.32484  -0.31451
  Beta virt. eigenvalues --   -0.03922   0.11213   0.14513   0.15634   0.16215
  Beta virt. eigenvalues --    0.18151   0.18331   0.22940   0.23154   0.28173
  Beta virt. eigenvalues --    0.52804   0.54686   0.56311   0.57689   0.61885
  Beta virt. eigenvalues --    0.64055   0.67616   0.72257   0.82888   0.85313
  Beta virt. eigenvalues --    0.89396   0.91748   0.92078   0.95981   0.99146
  Beta virt. eigenvalues --    1.01258   1.05854   1.25307   1.45581   1.50705
  Beta virt. eigenvalues --    1.63071   1.77406   1.77473   1.92207   1.97853
  Beta virt. eigenvalues --    2.00561   2.17749   2.20704   2.24968   2.34537
  Beta virt. eigenvalues --    2.41792   2.52914   2.59393   2.69709
          Condensed to atoms (all electrons):
               1          2          3          4          5          6
     1  C    5.143508   0.352766  -0.062184   0.379110   0.379111   0.365469
     2  C    0.352766   4.973656   0.381065  -0.035202  -0.035202  -0.029436
     3  C   -0.062184   0.381065   5.333199  -0.001842  -0.001844   0.005627
     4  H    0.379110  -0.035202  -0.001842   0.556542  -0.031023  -0.029688
     5  H    0.379111  -0.035202  -0.001844  -0.031023   0.556544  -0.029689
     6  H    0.365469  -0.029436   0.005627  -0.029688  -0.029689   0.566386
     7  H   -0.042582   0.385439  -0.039616   0.004885  -0.003979  -0.002267
     8  H   -0.042578   0.385440  -0.039610  -0.003980   0.004885  -0.002267
     9  H    0.000404  -0.036609   0.376779   0.001713  -0.000156  -0.000099
    10  H    0.000401  -0.036613   0.376778  -0.000156   0.001715  -0.000099
               7          8          9         10
     1  C   -0.042582  -0.042578   0.000404   0.000401
     2  C    0.385439   0.385440  -0.036609  -0.036613
     3  C   -0.039616  -0.039610   0.376779   0.376778
     4  H    0.004885  -0.003980   0.001713  -0.000156
     5  H   -0.003979   0.004885  -0.000156   0.001715
     6  H   -0.002267  -0.002267  -0.000099  -0.000099
     7  H    0.574149  -0.034449   0.004098  -0.005192
     8  H   -0.034449   0.574143  -0.005194   0.004098
     9  H    0.004098  -0.005194   0.538465  -0.035759
    10  H   -0.005192   0.004098  -0.035759   0.538473
          Atomic-Atomic Spin Densities.
               1          2          3          4          5          6
     1  C    0.124898   0.017246  -0.038042  -0.005048  -0.005043  -0.019747
     2  C    0.017246  -0.076208  -0.039982  -0.000032  -0.000031  -0.000635
     3  C   -0.038042  -0.039982   1.210360   0.002861   0.002858   0.002446
     4  H   -0.005048  -0.000032   0.002861  -0.002445   0.000816   0.001872
     5  H   -0.005043  -0.000031   0.002858   0.000816  -0.002447   0.001871
     6  H   -0.019747  -0.000635   0.002446   0.001872   0.001871   0.024230
     7  H   -0.010229   0.006113  -0.006763   0.000172   0.000406   0.001792
     8  H   -0.010218   0.006107  -0.006753   0.000406   0.000171   0.001790
     9  H   -0.000387  -0.000643  -0.008639   0.000000   0.000033   0.000022
    10  H   -0.000386  -0.000643  -0.008639   0.000033   0.000000   0.000022
               7          8          9         10
     1  C   -0.010229  -0.010218  -0.000387  -0.000386
     2  C    0.006113   0.006107  -0.000643  -0.000643
     3  C   -0.006763  -0.006753  -0.008639  -0.008639
     4  H    0.000172   0.000406   0.000000   0.000033
     5  H    0.000406   0.000171   0.000033   0.000000
     6  H    0.001792   0.001790   0.000022   0.000022
     7  H    0.017966   0.002670   0.000049   0.000677
     8  H    0.002670   0.017929   0.000677   0.000049
     9  H    0.000049   0.000677  -0.048587   0.002142
    10  H    0.000677   0.000049   0.002142  -0.048586
 Mulliken charges and spin densities:
               1          2
     1  C   -0.473425   0.053045
     2  C   -0.305303  -0.088708
     3  C   -0.328353   1.109707
     4  H    0.159640  -0.001364
     5  H    0.159638  -0.001366
     6  H    0.156063   0.013664
     7  H    0.159514   0.012854
     8  H    0.159511   0.012830
     9  H    0.156359  -0.055331
    10  H    0.156355  -0.055331
 Sum of Mulliken charges =  -0.00000   1.00000
 Mulliken charges and spin densities with hydrogens summed into heavy atoms:
               1          2
     1  C    0.001916   0.063980
     2  C    0.013722  -0.063024
     3  C   -0.015638   0.999045
 Electronic spatial extent (au):  <R**2>=            211.5672
 Charge=              0.0000 electrons
 Dipole moment (field-independent basis, Debye):
    X=              0.2402    Y=             -0.0275    Z=              0.0001  Tot=              0.2418
 Quadrupole moment (field-independent basis, Debye-Ang):
   XX=            -21.5197   YY=            -21.0071   ZZ=            -19.8306
   XY=              0.7693   XZ=             -0.0004   YZ=              0.0004
 Traceless Quadrupole moment (field-independent basis, Debye-Ang):
   XX=             -0.7339   YY=             -0.2213   ZZ=              0.9552
   XY=              0.7693   XZ=             -0.0004   YZ=              0.0004
 Octapole moment (field-independent basis, Debye-Ang**2):
  XXX=              2.1060  YYY=              0.7135  ZZZ=              0.0002  XYY=              0.6226
  XXY=             -0.9974  XXZ=              0.0011  XZZ=             -0.9222  YZZ=             -0.4617
  YYZ=             -0.0005  XYZ=             -0.0005
 Hexadecapole moment (field-independent basis, Debye-Ang**3):
 XXXX=           -189.9673 YYYY=            -63.2975 ZZZZ=            -40.5877 XXXY=              5.4644
 XXXZ=             -0.0044 YYYX=              0.0291 YYYZ=              0.0014 ZZZX=             -0.0018
 ZZZY=              0.0002 XXYY=            -41.4072 XXZZ=            -36.1373 YYZZ=            -15.5596
 XXYZ=              0.0007 YYXZ=              0.0001 ZZXY=              0.5342
 N-N= 7.552009000858D+01 E-N=-4.248271544804D+02  KE= 1.177330717613D+02
                          Isotropic Fermi Contact Couplings
        Atom                 a.u.       MegaHertz       Gauss      10(-4) cm-1
     1  C(13)              0.07152      80.40317      28.68985      26.81961
     2  C(13)             -0.03368     -37.86582     -13.51146     -12.63068
     3  C(13)              0.17181     193.14815      68.92006      64.42729
     4  H(1)              -0.00111      -4.94802      -1.76558      -1.65048
     5  H(1)              -0.00111      -4.94744      -1.76537      -1.65029
     6  H(1)               0.00380      16.99565       6.06447       5.66914
     7  H(1)               0.00694      31.03824      11.07522      10.35324
     8  H(1)               0.00693      30.98064      11.05466      10.33403
     9  H(1)              -0.01750     -78.22288     -27.91187     -26.09234
    10  H(1)              -0.01750     -78.22135     -27.91132     -26.09183
 --------------------------------------------------------
       Center         ----  Spin Dipole Couplings  ----
                      3XX-RR        3YY-RR        3ZZ-RR
 --------------------------------------------------------
     1   Atom        0.062419     -0.023028     -0.039390
     2   Atom        0.012261     -0.000743     -0.011518
     3   Atom        0.059479      0.476716     -0.536194
     4   Atom        0.007161     -0.003927     -0.003234
     5   Atom        0.007160     -0.003924     -0.003236
     6   Atom        0.008436     -0.001863     -0.006573
     7   Atom        0.003969      0.002012     -0.005981
     8   Atom        0.003966      0.002017     -0.005983
     9   Atom       -0.025594     -0.011826      0.037420
    10   Atom       -0.025628     -0.011771      0.037399
 --------------------------------------------------------
                        XY            XZ            YZ
 --------------------------------------------------------
     1   Atom       -0.042261      0.000004     -0.000001
     2   Atom       -0.001486      0.000005     -0.000004
     3   Atom       -0.775418      0.000357     -0.000465
     4   Atom       -0.005096      0.007563     -0.006173
     5   Atom       -0.005098     -0.007561      0.006173
     6   Atom        0.004354     -0.000000     -0.000001
     7   Atom        0.011581     -0.008048     -0.006329
     8   Atom        0.011582      0.008047      0.006328
     9   Atom       -0.012412     -0.046641     -0.043430
    10   Atom       -0.012398      0.046625      0.043456
 --------------------------------------------------------


 ---------------------------------------------------------------------------------
              Anisotropic Spin Dipole Couplings in Principal Axis System
 ---------------------------------------------------------------------------------

       Atom             a.u.   MegaHertz   Gauss  10(-4) cm-1        Axes

              Baa    -0.0404    -5.421    -1.934    -1.808  0.3802  0.9249 -0.0002
     1 C(13)  Bbb    -0.0394    -5.286    -1.886    -1.763  0.0000  0.0002  1.0000
              Bcc     0.0798    10.707     3.821     3.571  0.9249 -0.3802  0.0000
 
              Baa    -0.0115    -1.546    -0.551    -0.516 -0.0002  0.0003  1.0000
     2 C(13)  Bbb    -0.0009    -0.122    -0.044    -0.041  0.1121  0.9937 -0.0003
              Bcc     0.0124     1.668     0.595     0.556  0.9937 -0.1121  0.0002
 
              Baa    -0.5362   -71.952   -25.674   -24.001 -0.0005  0.0001  1.0000
     3 C(13)  Bbb    -0.5349   -71.778   -25.612   -23.942  0.7937  0.6084  0.0003
              Bcc     1.0711   143.730    51.286    47.943 -0.6084  0.7937 -0.0004
 
              Baa    -0.0100    -5.320    -1.898    -1.775 -0.1376  0.6486  0.7486
     4 H(1)   Bbb    -0.0042    -2.267    -0.809    -0.756  0.5979  0.6569 -0.4593
              Bcc     0.0142     7.587     2.707     2.531  0.7897 -0.3844  0.4781
 
              Baa    -0.0100    -5.320    -1.898    -1.775  0.1375 -0.6484  0.7488
     5 H(1)   Bbb    -0.0042    -2.267    -0.809    -0.756  0.5979  0.6570  0.4592
              Bcc     0.0142     7.587     2.707     2.531  0.7897 -0.3845 -0.4780
 
              Baa    -0.0066    -3.507    -1.251    -1.170 -0.0000  0.0002  1.0000
     6 H(1)   Bbb    -0.0035    -1.844    -0.658    -0.615 -0.3438  0.9391 -0.0002
              Bcc     0.0100     5.351     1.909     1.785  0.9391  0.3438 -0.0000
 
              Baa    -0.0105    -5.587    -1.994    -1.864  0.5072 -0.0339  0.8612
     7 H(1)   Bbb    -0.0083    -4.454    -1.589    -1.486 -0.5189  0.7858  0.3366
              Bcc     0.0188    10.041     3.583     3.349  0.6881  0.6176 -0.3809
 
              Baa    -0.0105    -5.588    -1.994    -1.864 -0.5074  0.0343  0.8610
     8 H(1)   Bbb    -0.0083    -4.453    -1.589    -1.485 -0.5188  0.7857 -0.3370
              Bcc     0.0188    10.040     3.583     3.349  0.6880  0.6177  0.3808
 
              Baa    -0.0700   -37.329   -13.320   -12.451  0.6818  0.5256  0.5087
     9 H(1)   Bbb    -0.0055    -2.957    -1.055    -0.986 -0.6426  0.7627  0.0733
              Bcc     0.0755    40.286    14.375    13.438 -0.3495 -0.3769  0.8578
 
              Baa    -0.0700   -37.328   -13.320   -12.451  0.6820  0.5253 -0.5088
    10 H(1)   Bbb    -0.0055    -2.957    -1.055    -0.986 -0.6426  0.7626 -0.0740
              Bcc     0.0755    40.286    14.375    13.438  0.3491  0.3775  0.8577
 

 ---------------------------------------------------------------------------------

 No NMR shielding tensors so no spin-rotation constants.
 Leave Link  601 at Wed Oct  7 14:40:20 2020, MaxMem=  2684354560 cpu:               5.0 elap:               0.7
 (Enter /udrive/faculty/rpeverati/g16/g16/l9999.exe)

 Test job not archived.
 1\1\GINC-NODE59\FOpt\UTPSSh\6-31G(d)\C3H7(2)\RPEVERATI\07-Oct-2020\0\\
 #P Opt(MaxCyc=100) TPSSh/6-31G* 5D 7F Integral=UltraFineGrid SCF=(NoSy
 mm,XQC,MaxCyc=120) IOp(1/33=1,3/174=1000000,3/175=2238200,3/177=045290
 0,3/178=4655000) EmpiricalDispersion=GD3BJ\\TS search on BH76.\\0,2\C,
 1.2107303091,-0.2894374424,0.000061162\C,-0.0693348891,0.5805512065,-0
 .000061794\C,-1.3243173143,-0.2318889315,-0.0000148236\H,1.2430309369,
 -0.9333240254,0.8858776947\H,1.2430609004,-0.9335274518,-0.8856069398\
 H,2.109036185,0.3397549823,0.0000022295\H,-0.0462182991,1.2349011894,-
 0.881755026\H,-0.0462754274,1.2350945177,0.8814848086\H,-1.7307607564,
 -0.624331365,0.9282736936\H,-1.7304202535,-0.6249242584,-0.9282032117\
 \Version=ES64L-G16RevA.03\State=2-A\HF=-118.4864294\S2=0.755208\S2-1=0
 .\S2A=0.750016\RMSD=6.363e-09\RMSF=8.769e-06\Dipole=0.0944742,-0.01104
 31,0.0000218\Quadrupole=-0.5429109,-0.1672548,0.7101656,0.5728794,-0.0
 003226,0.0003078\PG=C01 [X(C3H7)]\\@


 Where a calculator on the ENIAC is equipped with 18,000
 vacuum tubes and weighs 30 tons, computers inthe future
 may  have only 1,000 vacuum tubes and weigh only 1 1/2 tons.
              ---Popular Mechanics, March 1949
 Job cpu time:       0 days  0 hours  7 minutes 49.9 seconds.
 Elapsed time:       0 days  0 hours  0 minutes 58.0 seconds.
 File lengths (MBytes):  RWF=      9 Int=      0 D2E=      0 Chk=      2 Scr=      1
 Normal termination of Gaussian 16 at Wed Oct  7 14:40:21 2020.
