 Entering Gaussian System, Link 0=g16
 Input=MN_14_C2H5_upper_BH76_TPSShDBJ_631Gs.in
 Output=MN_14_C2H5_upper_BH76_TPSShDBJ_631Gs.log
 Initial command:
 /udrive/faculty/rpeverati/g16/g16/l1.exe "/udrive/scratch-directories/gaussian09/rpeverati/Gau-2523.inp" -scrdir="/udrive/scratch-directories/gaussian09/rpeverati/"
 Entering Link 1 = /udrive/faculty/rpeverati/g16/g16/l1.exe PID=      2538.
  
 Copyright (c) 1988,1990,1992,1993,1995,1998,2003,2009,2016,
            Gaussian, Inc.  All Rights Reserved.
  
 This is part of the Gaussian(R) 16 program.  It is based on
 the Gaussian(R) 09 system (copyright 2009, Gaussian, Inc.),
 the Gaussian(R) 03 system (copyright 2003, Gaussian, Inc.),
 the Gaussian(R) 98 system (copyright 1998, Gaussian, Inc.),
 the Gaussian(R) 94 system (copyright 1995, Gaussian, Inc.),
 the Gaussian 92(TM) system (copyright 1992, Gaussian, Inc.),
 the Gaussian 90(TM) system (copyright 1990, Gaussian, Inc.),
 the Gaussian 88(TM) system (copyright 1988, Gaussian, Inc.),
 the Gaussian 86(TM) system (copyright 1986, Carnegie Mellon
 University), and the Gaussian 82(TM) system (copyright 1983,
 Carnegie Mellon University). Gaussian is a federally registered
 trademark of Gaussian, Inc.
  
 This software contains proprietary and confidential information,
 including trade secrets, belonging to Gaussian, Inc.
  
 This software is provided under written license and may be
 used, copied, transmitted, or stored only in accord with that
 written license.
  
 The following legend is applicable only to US Government
 contracts under FAR:
  
                    RESTRICTED RIGHTS LEGEND
  
 Use, reproduction and disclosure by the US Government is
 subject to restrictions as set forth in subparagraphs (a)
 and (c) of the Commercial Computer Software - Restricted
 Rights clause in FAR 52.227-19.
  
 Gaussian, Inc.
 340 Quinnipiac St., Bldg. 40, Wallingford CT 06492
  
  
 ---------------------------------------------------------------
 Warning -- This program may not be used in any manner that
 competes with the business of Gaussian, Inc. or will provide
 assistance to any competitor of Gaussian, Inc.  The licensee
 of this program is prohibited from giving any competitor of
 Gaussian, Inc. access to this program.  By using this program,
 the user acknowledges that Gaussian, Inc. is engaged in the
 business of creating and licensing software in the field of
 computational chemistry and represents and warrants to the
 licensee that it is not a competitor of Gaussian, Inc. and that
 it will not use this program in any manner prohibited above.
 ---------------------------------------------------------------
  

 Cite this work as:
 Gaussian 16, Revision A.03,
 M. J. Frisch, G. W. Trucks, H. B. Schlegel, G. E. Scuseria, 
 M. A. Robb, J. R. Cheeseman, G. Scalmani, V. Barone, 
 G. A. Petersson, H. Nakatsuji, X. Li, M. Caricato, A. V. Marenich, 
 J. Bloino, B. G. Janesko, R. Gomperts, B. Mennucci, H. P. Hratchian, 
 J. V. Ortiz, A. F. Izmaylov, J. L. Sonnenberg, D. Williams-Young, 
 F. Ding, F. Lipparini, F. Egidi, J. Goings, B. Peng, A. Petrone, 
 T. Henderson, D. Ranasinghe, V. G. Zakrzewski, J. Gao, N. Rega, 
 G. Zheng, W. Liang, M. Hada, M. Ehara, K. Toyota, R. Fukuda, 
 J. Hasegawa, M. Ishida, T. Nakajima, Y. Honda, O. Kitao, H. Nakai, 
 T. Vreven, K. Throssell, J. A. Montgomery, Jr., J. E. Peralta, 
 F. Ogliaro, M. J. Bearpark, J. J. Heyd, E. N. Brothers, K. N. Kudin, 
 V. N. Staroverov, T. A. Keith, R. Kobayashi, J. Normand, 
 K. Raghavachari, A. P. Rendell, J. C. Burant, S. S. Iyengar, 
 J. Tomasi, M. Cossi, J. M. Millam, M. Klene, C. Adamo, R. Cammi, 
 J. W. Ochterski, R. L. Martin, K. Morokuma, O. Farkas, 
 J. B. Foresman, and D. J. Fox, Gaussian, Inc., Wallingford CT, 2016.
 
 ******************************************
 Gaussian 16:  ES64L-G16RevA.03 25-Dec-2016
                 7-Oct-2020 
 ******************************************
 %NoSave
 %nproc=12
 Will use up to   12 processors via shared memory.
 %mem=20GB
 %chk=MN_14_C2H5_upper_BH76_TPSShDBJ_631Gs
 ----------------------------------------------------------------------
 #P Opt(MaxCyc=100) TPSSh/6-31G* 5D 7F Integral=UltraFineGrid SCF=(NoSy
 mm,XQC,MaxCyc=120) IOp(1/33=1,3/174=1000000,3/175=2238200,3/177=045290
 0,3/178=4655000) EmpiricalDispersion=GD3BJ
 ----------------------------------------------------------------------
 1/6=100,18=20,19=15,26=4,33=1,38=1/1,3;
 2/9=110,12=2,17=6,18=5,40=1/2;
 3/5=1,6=6,7=1,8=11,11=2,25=1,30=1,71=1,74=-35,75=-5,124=41,174=1000000,175=2238200,177=452900,178=4655000/1,2,3;
 4/9=2/1;
 5/5=2,7=120,8=3,13=1,38=5/2,8;
 6/7=2,8=2,9=2,10=2,28=1/1;
 7//1,2,3,16;
 1/6=100,18=20,19=15,26=4,33=1/3(2);
 2/9=110/2;
 99//99;
 2/9=110/2;
 3/5=1,6=6,7=1,8=11,11=2,25=1,30=1,71=1,74=-35,75=-5,124=41,174=1000000,175=2238200,177=452900,178=4655000/1,2,3;
 4/5=5,9=2,16=3,69=1/1;
 5/5=2,7=120,8=3,13=1,38=5/2,8;
 7//1,2,3,16;
 1/6=100,18=20,19=15,26=4,33=1/3(-5);
 2/9=110/2;
 6/7=2,8=2,9=2,10=2,19=2,28=1/1;
 99/9=1/99;
 Leave Link    1 at Wed Oct  7 14:39:10 2020, MaxMem=  2684354560 cpu:               5.3 elap:               0.6
 (Enter /udrive/faculty/rpeverati/g16/g16/l101.exe)
 ONIOM data not found on unit 2.
 ------------------
 TS search on BH76.
 ------------------
 TstMul:  ICh=     0
 TstMul:  Mul=     2
 TstMul:  ICh=     0
 TstMul:  Mul=     2
 Symbolic Z-matrix:
 Charge =  0 Multiplicity = 2
 C                     0.79461   0.00001  -0.02239 
 C                    -0.69537   0.00017  -0.00046 
 H                    -1.1034    0.88959  -0.48106 
 H                     1.34848  -0.92405   0.04849 
 H                    -1.08604  -0.01333   1.02465 
 H                    -1.10383  -0.87672  -0.50357 
 H                     1.34939   0.92345   0.04863 
 
 RdStrC is calling ZToCFu for IStruc=1 NZ=     7.
 PrtBox:  NBox=     1 Levels=  1 BoxLen=    8.00 SMaxX=        4.64
          Shift=            2.085930            1.746200            0.951617
 Box      1 Number                   0 centers from      1 to      7:
 After GenITR:
 ITRead=  0  0  0  0  0  0  0
 MicOpt= -1 -1 -1 -1 -1 -1 -1
 ITRead=  0  0  0  0  0  0  0
 MicOpt= -1 -1 -1 -1 -1 -1 -1
 NAtoms=      7 NQM=        7 NQMF=       0 NMMI=      0 NMMIF=      0
                NMic=       0 NMicF=      0.
                    Isotopes and Nuclear Properties:
 (Nuclear quadrupole moments (NQMom) in fm**2, nuclear magnetic moments (NMagM)
  in nuclear magnetons)

  Atom         1           2           3           4           5           6           7
 IAtWgt=          12          12           1           1           1           1           1
 AtmWgt=  12.0000000  12.0000000   1.0078250   1.0078250   1.0078250   1.0078250   1.0078250
 NucSpn=           0           0           1           1           1           1           1
 AtZEff=   0.0000000   0.0000000   0.0000000   0.0000000   0.0000000   0.0000000   0.0000000
 NQMom=    0.0000000   0.0000000   0.0000000   0.0000000   0.0000000   0.0000000   0.0000000
 NMagM=    0.0000000   0.0000000   2.7928460   2.7928460   2.7928460   2.7928460   2.7928460
 AtZNuc=   6.0000000   6.0000000   1.0000000   1.0000000   1.0000000   1.0000000   1.0000000
 No MM parameters found.
 Leave Link  101 at Wed Oct  7 14:39:11 2020, MaxMem=  2684354560 cpu:               5.5 elap:               0.6
 (Enter /udrive/faculty/rpeverati/g16/g16/l103.exe)

 GradGradGradGradGradGradGradGradGradGradGradGradGradGradGradGradGradGrad
 Berny optimization.
 Optmz: redundant internal coordinate code flag= 1
 Initialization pass.
                           ----------------------------
                           !    Initial Parameters    !
                           ! (Angstroms and Degrees)  !
 --------------------------                            --------------------------
 ! Name  Definition              Value          Derivative Info.                !
 --------------------------------------------------------------------------------
 ! R1    R(1,2)                  1.4901         estimate D2E/DX2                !
 ! R2    R(1,4)                  1.0797         estimate D2E/DX2                !
 ! R3    R(1,7)                  1.0796         estimate D2E/DX2                !
 ! R4    R(2,3)                  1.0902         estimate D2E/DX2                !
 ! R5    R(2,5)                  1.0971         estimate D2E/DX2                !
 ! R6    R(2,6)                  1.0904         estimate D2E/DX2                !
 ! A1    A(2,1,4)              120.802          estimate D2E/DX2                !
 ! A2    A(2,1,7)              120.8472         estimate D2E/DX2                !
 ! A3    A(4,1,7)              117.654          estimate D2E/DX2                !
 ! A4    A(1,2,3)              111.5818         estimate D2E/DX2                !
 ! A5    A(1,2,5)              111.7036         estimate D2E/DX2                !
 ! A6    A(1,2,6)              111.5728         estimate D2E/DX2                !
 ! A7    A(3,2,5)              106.778          estimate D2E/DX2                !
 ! A8    A(3,2,6)              108.2098         estimate D2E/DX2                !
 ! A9    A(5,2,6)              106.7292         estimate D2E/DX2                !
 ! D1    D(4,1,2,3)           -156.2068         estimate D2E/DX2                !
 ! D2    D(4,1,2,5)             84.3504         estimate D2E/DX2                !
 ! D3    D(4,1,2,6)            -35.0241         estimate D2E/DX2                !
 ! D4    D(7,1,2,3)             33.5825         estimate D2E/DX2                !
 ! D5    D(7,1,2,5)            -85.8603         estimate D2E/DX2                !
 ! D6    D(7,1,2,6)            154.7652         estimate D2E/DX2                !
 --------------------------------------------------------------------------------
 Maximum allowed force set to 1.00D+20.
 Trust Radius=3.00D-01 FncErr=1.00D-07 GrdErr=1.00D-06 EigMax=2.50D+02 EigMin=1.00D-04
 Number of steps in this run=    100 maximum allowed number of steps=    100.
 GradGradGradGradGradGradGradGradGradGradGradGradGradGradGradGradGradGrad

 Leave Link  103 at Wed Oct  7 14:39:11 2020, MaxMem=  2684354560 cpu:               1.0 elap:               0.5
 (Enter /udrive/faculty/rpeverati/g16/g16/l202.exe)
                          Input orientation:                          
 ---------------------------------------------------------------------
 Center     Atomic      Atomic             Coordinates (Angstroms)
 Number     Number       Type             X           Y           Z
 ---------------------------------------------------------------------
      1          6           0        0.794607    0.000006   -0.022395
      2          6           0       -0.695371    0.000170   -0.000460
      3          1           0       -1.103398    0.889595   -0.481056
      4          1           0        1.348476   -0.924049    0.048485
      5          1           0       -1.086041   -0.013327    1.024646
      6          1           0       -1.103827   -0.876720   -0.503574
      7          1           0        1.349386    0.923446    0.048633
 ---------------------------------------------------------------------
                    Distance matrix (angstroms):
                    1          2          3          4          5
     1  C    0.000000
     2  C    1.490139   0.000000
     3  H    2.145731   1.090199   0.000000
     4  H    1.079663   2.243632   3.095384   0.000000
     5  H    2.152512   1.097109   1.755764   2.776540   0.000000
     6  H    2.145747   1.090365   1.766458   2.514119   1.755340
     7  H    1.079614   2.244076   2.509555   1.847495   2.785938
                    6          7
     6  H    0.000000
     7  H    3.092536   0.000000
 Stoichiometry    C2H5(2)
 Framework group  C1[X(C2H5)]
 Deg. of freedom    15
 Full point group                 C1      NOp   1
 Largest Abelian subgroup         C1      NOp   1
 Largest concise Abelian subgroup C1      NOp   1
                         Standard orientation:                         
 ---------------------------------------------------------------------
 Center     Atomic      Atomic             Coordinates (Angstroms)
 Number     Number       Type             X           Y           Z
 ---------------------------------------------------------------------
      1          6           0        0.794606    0.000007   -0.022395
      2          6           0       -0.695372    0.000169   -0.000460
      3          1           0       -1.103400    0.889593   -0.481056
      4          1           0        1.348476   -0.924048    0.048485
      5          1           0       -1.086042   -0.013328    1.024646
      6          1           0       -1.103827   -0.876721   -0.503574
      7          1           0        1.349384    0.923447    0.048633
 ---------------------------------------------------------------------
 Rotational constants (GHZ):         104.2257635          22.7282478          21.0824177
 Leave Link  202 at Wed Oct  7 14:39:12 2020, MaxMem=  2684354560 cpu:               1.1 elap:               0.5
 (Enter /udrive/faculty/rpeverati/g16/g16/l301.exe)
 Standard basis: 6-31G(d) (5D, 7F)
 Ernie: Thresh=  0.10000D-02 Tol=  0.10000D-05 Strict=F.
 There are    40 symmetry adapted cartesian basis functions of A   symmetry.
 There are    38 symmetry adapted basis functions of A   symmetry.
    38 basis functions,    76 primitive gaussians,    40 cartesian basis functions
     9 alpha electrons        8 beta electrons
       nuclear repulsion energy        36.9816189775 Hartrees.
 IExCor= 2523 DFT=T Ex+Corr=TPSSh ExCW=0 ScaHFX=  0.100000
 ScaDFX=  0.900000  0.900000  1.000000  1.000000 ScalE2=  1.000000  1.000000
 IRadAn=      5 IRanWt=     -1 IRanGd=            0 ICorTp=0 IEmpDi=141
 NAtoms=    7 NActive=    7 NUniq=    7 SFac= 1.00D+00 NAtFMM=   60 NAOKFM=F Big=F
 Integral buffers will be    131072 words long.
 Raffenetti 2 integral format.
 Two-electron integral symmetry is turned on.
 R6DIni: Non-standard D2/D3 S6 parameter, value=     1.000000
 R6DIni: Non-standard D2/D3 S8 parameter, value=     2.238200
 R6DIni: Non-standard D3BJ A1 parameter, value=     0.452900
 R6DIni: Non-standard D3BJ A2 parameter, value=     4.655000
 R6Disp:  Grimme-D3(BJ) Dispersion energy=       -0.0030157552 Hartrees.
 Nuclear repulsion after empirical dispersion term =       36.9786032223 Hartrees.
 Leave Link  301 at Wed Oct  7 14:39:13 2020, MaxMem=  2684354560 cpu:               1.7 elap:               0.4
 (Enter /udrive/faculty/rpeverati/g16/g16/l302.exe)
 NPDir=0 NMtPBC=     1 NCelOv=     1 NCel=       1 NClECP=     1 NCelD=      1
         NCelK=      1 NCelE2=     1 NClLst=     1 CellRange=     0.0.
 One-electron integrals computed using PRISM.
 One-electron integral symmetry used in STVInt
 NBasis=    38 RedAO= T EigKep=  1.05D-02  NBF=    38
 NBsUse=    38 1.00D-06 EigRej= -1.00D+00 NBFU=    38
 Precomputing XC quadrature grid using
 IXCGrd= 4 IRadAn=           5 IRanWt=          -1 IRanGd=           0 AccXCQ= 0.00D+00.
 Generated NRdTot=       0 NPtTot=           0 NUsed=           0 NTot=          32
 NSgBfM=    40    40    40    40    40 MxSgAt=     7 MxSgA2=     7.
 Leave Link  302 at Wed Oct  7 14:39:13 2020, MaxMem=  2684354560 cpu:               3.9 elap:               0.7
 (Enter /udrive/faculty/rpeverati/g16/g16/l303.exe)
 DipDrv:  MaxL=1.
 Leave Link  303 at Wed Oct  7 14:39:14 2020, MaxMem=  2684354560 cpu:               1.1 elap:               0.5
 (Enter /udrive/faculty/rpeverati/g16/g16/l401.exe)
 SCF N**3 symmetry information disabled.
 ExpMin= 1.61D-01 ExpMax= 3.05D+03 ExpMxC= 4.57D+02 IAcc=3 IRadAn=         5 AccDes= 0.00D+00
 Harris functional with IExCor= 1009 and IRadAn=       5 diagonalized for initial guess.
 HarFok:  IExCor= 1009 AccDes= 0.00D+00 IRadAn=         5 IDoV= 1 UseB2=F ITyADJ=14
 ICtDFT=  3500011 ScaDFX=  1.000000  1.000000  1.000000  1.000000
 FoFCou: FMM=F IPFlag=           0 FMFlag=      100000 FMFlg1=           0
         NFxFlg=           0 DoJE=T BraDBF=F KetDBF=T FulRan=T
         wScrn=  0.000000 ICntrl=       500 IOpCl=  0 I1Cent=   200000004 NGrid=           0
         NMat0=    1 NMatS0=      1 NMatT0=    0 NMatD0=    1 NMtDS0=    0 NMtDT0=    0
 Petite list used in FoFCou.
 Harris En= -79.0883830041417    
 JPrj=0 DoOrth=F DoCkMO=F.
 Initial guess <Sx>= 0.0000 <Sy>= 0.0000 <Sz>= 0.5000 <S**2>= 0.7500 S= 0.5000
 Leave Link  401 at Wed Oct  7 14:39:15 2020, MaxMem=  2684354560 cpu:               6.1 elap:               0.9
 (Enter /udrive/faculty/rpeverati/g16/g16/l502.exe)
 Keep R1 and R2 ints in memory in canonical form, NReq=10915733.
 FoFCou: FMM=F IPFlag=           0 FMFlag=           0 FMFlg1=           0
         NFxFlg=           0 DoJE=F BraDBF=F KetDBF=F FulRan=T
         wScrn=  0.000000 ICntrl=       600 IOpCl=  0 I1Cent=           0 NGrid=           0
         NMat0=    1 NMatS0=    741 NMatT0=    0 NMatD0=    1 NMtDS0=    0 NMtDT0=    0
 Symmetry not used in FoFCou.
 Two-electron integral symmetry not used.
 UHF open shell SCF:
 Using DIIS extrapolation, IDIIS=  1040.
 NGot=  2684354560 LenX=  2683800373 LenY=  2683798332
 Requested convergence on RMS density matrix=1.00D-08 within 120 cycles.
 Requested convergence on MAX density matrix=1.00D-06.
 Requested convergence on             energy=1.00D-06.
 No special actions if energy rises.
 Integral accuracy reduced to 1.0D-05 until final iterations.

 Cycle   1  Pass 0  IDiag  1:
 E= -79.0785222081912    
 DIIS: error= 5.83D-02 at cycle   1 NSaved=   1.
 NSaved= 1 IEnMin= 1 EnMin= -79.0785222081912     IErMin= 1 ErrMin= 5.83D-02
 ErrMax= 5.83D-02  0.00D+00 EMaxC= 1.00D-01 BMatC= 3.01D-01 BMatP= 3.01D-01
 IDIUse=3 WtCom= 4.17D-01 WtEn= 5.83D-01
 Coeff-Com:  0.100D+01
 Coeff-En:   0.100D+01
 Coeff:      0.100D+01
 Gap=     0.242 Goal=   None    Shift=    0.000
 Gap=     0.311 Goal=   None    Shift=    0.000
 GapD=    0.242 DampG=1.000 DampE=0.500 DampFc=0.5000 IDamp=-1.
 Damping current iteration by 5.00D-01
 RMSDP=1.49D-02 MaxDP=1.38D-01              OVMax= 1.84D-01

 Cycle   2  Pass 0  IDiag  1:
 E= -79.1193364490218     Delta-E=       -0.040814240831 Rises=F Damp=T
 DIIS: error= 8.75D-03 at cycle   2 NSaved=   2.
 NSaved= 2 IEnMin= 2 EnMin= -79.1193364490218     IErMin= 2 ErrMin= 8.75D-03
 ErrMax= 8.75D-03  0.00D+00 EMaxC= 1.00D-01 BMatC= 1.05D-02 BMatP= 3.01D-01
 IDIUse=3 WtCom= 9.12D-01 WtEn= 8.75D-02
 Coeff-Com:  0.569D-01 0.943D+00
 Coeff-En:   0.837D-01 0.916D+00
 Coeff:      0.593D-01 0.941D+00
 Gap=     0.296 Goal=   None    Shift=    0.000
 Gap=     0.324 Goal=   None    Shift=    0.000
 RMSDP=1.79D-03 MaxDP=1.65D-02 DE=-4.08D-02 OVMax= 9.51D-02

 Cycle   3  Pass 0  IDiag  1:
 E= -79.1667157314036     Delta-E=       -0.047379282382 Rises=F Damp=F
 DIIS: error= 2.10D-03 at cycle   3 NSaved=   3.
 NSaved= 3 IEnMin= 3 EnMin= -79.1667157314036     IErMin= 3 ErrMin= 2.10D-03
 ErrMax= 2.10D-03  0.00D+00 EMaxC= 1.00D-01 BMatC= 5.38D-04 BMatP= 1.05D-02
 IDIUse=3 WtCom= 9.79D-01 WtEn= 2.10D-02
 Coeff-Com: -0.553D-02 0.763D-01 0.929D+00
 Coeff-En:   0.000D+00 0.000D+00 0.100D+01
 Coeff:     -0.542D-02 0.747D-01 0.931D+00
 Gap=     0.303 Goal=   None    Shift=    0.000
 Gap=     0.298 Goal=   None    Shift=    0.000
 RMSDP=4.82D-04 MaxDP=7.22D-03 DE=-4.74D-02 OVMax= 6.77D-03

 Cycle   4  Pass 0  IDiag  1:
 E= -79.1668683215400     Delta-E=       -0.000152590136 Rises=F Damp=F
 DIIS: error= 1.12D-03 at cycle   4 NSaved=   4.
 NSaved= 4 IEnMin= 4 EnMin= -79.1668683215400     IErMin= 4 ErrMin= 1.12D-03
 ErrMax= 1.12D-03  0.00D+00 EMaxC= 1.00D-01 BMatC= 1.53D-04 BMatP= 5.38D-04
 IDIUse=3 WtCom= 9.89D-01 WtEn= 1.12D-02
 Coeff-Com: -0.311D-02-0.143D-01 0.305D+00 0.713D+00
 Coeff-En:   0.000D+00 0.000D+00 0.000D+00 0.100D+01
 Coeff:     -0.307D-02-0.141D-01 0.301D+00 0.716D+00
 Gap=     0.301 Goal=   None    Shift=    0.000
 Gap=     0.300 Goal=   None    Shift=    0.000
 RMSDP=1.92D-04 MaxDP=2.64D-03 DE=-1.53D-04 OVMax= 3.40D-03

 Cycle   5  Pass 0  IDiag  1:
 E= -79.1669092371573     Delta-E=       -0.000040915617 Rises=F Damp=F
 DIIS: error= 4.83D-04 at cycle   5 NSaved=   5.
 NSaved= 5 IEnMin= 5 EnMin= -79.1669092371573     IErMin= 5 ErrMin= 4.83D-04
 ErrMax= 4.83D-04  0.00D+00 EMaxC= 1.00D-01 BMatC= 2.84D-05 BMatP= 1.53D-04
 IDIUse=3 WtCom= 9.95D-01 WtEn= 4.83D-03
 Coeff-Com: -0.905D-03-0.149D-01 0.673D-02 0.278D+00 0.731D+00
 Coeff-En:   0.000D+00 0.000D+00 0.000D+00 0.000D+00 0.100D+01
 Coeff:     -0.901D-03-0.149D-01 0.670D-02 0.277D+00 0.732D+00
 Gap=     0.302 Goal=   None    Shift=    0.000
 Gap=     0.300 Goal=   None    Shift=    0.000
 RMSDP=8.00D-05 MaxDP=1.35D-03 DE=-4.09D-05 OVMax= 1.40D-03

 Cycle   6  Pass 0  IDiag  1:
 E= -79.1669185807903     Delta-E=       -0.000009343633 Rises=F Damp=F
 DIIS: error= 1.36D-04 at cycle   6 NSaved=   6.
 NSaved= 6 IEnMin= 6 EnMin= -79.1669185807903     IErMin= 6 ErrMin= 1.36D-04
 ErrMax= 1.36D-04  0.00D+00 EMaxC= 1.00D-01 BMatC= 2.30D-06 BMatP= 2.84D-05
 IDIUse=3 WtCom= 9.99D-01 WtEn= 1.36D-03
 Coeff-Com:  0.395D-03 0.338D-02-0.623D-01-0.138D+00 0.502D-01 0.115D+01
 Coeff-En:   0.000D+00 0.000D+00 0.000D+00 0.000D+00 0.000D+00 0.100D+01
 Coeff:      0.395D-03 0.338D-02-0.622D-01-0.138D+00 0.501D-01 0.115D+01
 Gap=     0.302 Goal=   None    Shift=    0.000
 Gap=     0.300 Goal=   None    Shift=    0.000
 RMSDP=3.71D-05 MaxDP=5.45D-04 DE=-9.34D-06 OVMax= 5.89D-04

 Cycle   7  Pass 0  IDiag  1:
 E= -79.1669198585275     Delta-E=       -0.000001277737 Rises=F Damp=F
 DIIS: error= 1.35D-05 at cycle   7 NSaved=   7.
 NSaved= 7 IEnMin= 7 EnMin= -79.1669198585275     IErMin= 7 ErrMin= 1.35D-05
 ErrMax= 1.35D-05  0.00D+00 EMaxC= 1.00D-01 BMatC= 2.66D-08 BMatP= 2.30D-06
 IDIUse=1 WtCom= 1.00D+00 WtEn= 0.00D+00
 Coeff-Com: -0.320D-04 0.895D-06 0.895D-02 0.123D-01-0.289D-01-0.180D+00
 Coeff-Com:  0.119D+01
 Coeff:     -0.320D-04 0.895D-06 0.895D-02 0.123D-01-0.289D-01-0.180D+00
 Coeff:      0.119D+01
 Gap=     0.302 Goal=   None    Shift=    0.000
 Gap=     0.300 Goal=   None    Shift=    0.000
 RMSDP=5.10D-06 MaxDP=5.92D-05 DE=-1.28D-06 OVMax= 7.89D-05

 Initial convergence to 1.0D-05 achieved.  Increase integral accuracy.
 Cycle   8  Pass 1  IDiag  1:
 E= -79.1669196338086     Delta-E=        0.000000224719 Rises=F Damp=F
 DIIS: error= 4.51D-06 at cycle   1 NSaved=   1.
 NSaved= 1 IEnMin= 1 EnMin= -79.1669196338086     IErMin= 1 ErrMin= 4.51D-06
 ErrMax= 4.51D-06  0.00D+00 EMaxC= 1.00D-01 BMatC= 2.51D-09 BMatP= 2.51D-09
 IDIUse=1 WtCom= 1.00D+00 WtEn= 0.00D+00
 Coeff-Com:  0.100D+01
 Coeff:      0.100D+01
 Gap=     0.302 Goal=   None    Shift=    0.000
 Gap=     0.300 Goal=   None    Shift=    0.000
 RMSDP=5.10D-06 MaxDP=5.92D-05 DE= 2.25D-07 OVMax= 1.43D-05

 Cycle   9  Pass 1  IDiag  1:
 E= -79.1669196347075     Delta-E=       -0.000000000899 Rises=F Damp=F
 DIIS: error= 1.77D-06 at cycle   2 NSaved=   2.
 NSaved= 2 IEnMin= 2 EnMin= -79.1669196347075     IErMin= 2 ErrMin= 1.77D-06
 ErrMax= 1.77D-06  0.00D+00 EMaxC= 1.00D-01 BMatC= 5.02D-10 BMatP= 2.51D-09
 IDIUse=1 WtCom= 1.00D+00 WtEn= 0.00D+00
 Coeff-Com:  0.219D+00 0.781D+00
 Coeff:      0.219D+00 0.781D+00
 Gap=     0.302 Goal=   None    Shift=    0.000
 Gap=     0.300 Goal=   None    Shift=    0.000
 RMSDP=5.28D-07 MaxDP=6.48D-06 DE=-8.99D-10 OVMax= 6.56D-06

 Cycle  10  Pass 1  IDiag  1:
 E= -79.1669196348615     Delta-E=       -0.000000000154 Rises=F Damp=F
 DIIS: error= 1.20D-06 at cycle   3 NSaved=   3.
 NSaved= 3 IEnMin= 3 EnMin= -79.1669196348615     IErMin= 3 ErrMin= 1.20D-06
 ErrMax= 1.20D-06  0.00D+00 EMaxC= 1.00D-01 BMatC= 1.25D-10 BMatP= 5.02D-10
 IDIUse=1 WtCom= 1.00D+00 WtEn= 0.00D+00
 Coeff-Com: -0.514D-01 0.246D+00 0.805D+00
 Coeff:     -0.514D-01 0.246D+00 0.805D+00
 Gap=     0.302 Goal=   None    Shift=    0.000
 Gap=     0.300 Goal=   None    Shift=    0.000
 RMSDP=1.92D-07 MaxDP=3.13D-06 DE=-1.54D-10 OVMax= 3.03D-06

 Cycle  11  Pass 1  IDiag  1:
 E= -79.1669196349018     Delta-E=       -0.000000000040 Rises=F Damp=F
 DIIS: error= 5.60D-07 at cycle   4 NSaved=   4.
 NSaved= 4 IEnMin= 4 EnMin= -79.1669196349018     IErMin= 4 ErrMin= 5.60D-07
 ErrMax= 5.60D-07  0.00D+00 EMaxC= 1.00D-01 BMatC= 2.73D-11 BMatP= 1.25D-10
 IDIUse=1 WtCom= 1.00D+00 WtEn= 0.00D+00
 Coeff-Com: -0.666D-01-0.446D-01 0.329D+00 0.782D+00
 Coeff:     -0.666D-01-0.446D-01 0.329D+00 0.782D+00
 Gap=     0.302 Goal=   None    Shift=    0.000
 Gap=     0.300 Goal=   None    Shift=    0.000
 RMSDP=9.10D-08 MaxDP=1.38D-06 DE=-4.03D-11 OVMax= 1.57D-06

 Cycle  12  Pass 1  IDiag  1:
 E= -79.1669196349116     Delta-E=       -0.000000000010 Rises=F Damp=F
 DIIS: error= 1.28D-07 at cycle   5 NSaved=   5.
 NSaved= 5 IEnMin= 5 EnMin= -79.1669196349116     IErMin= 5 ErrMin= 1.28D-07
 ErrMax= 1.28D-07  0.00D+00 EMaxC= 1.00D-01 BMatC= 1.40D-12 BMatP= 2.73D-11
 IDIUse=1 WtCom= 1.00D+00 WtEn= 0.00D+00
 Coeff-Com: -0.135D-02-0.357D-01-0.609D-01 0.958D-01 0.100D+01
 Coeff:     -0.135D-02-0.357D-01-0.609D-01 0.958D-01 0.100D+01
 Gap=     0.302 Goal=   None    Shift=    0.000
 Gap=     0.300 Goal=   None    Shift=    0.000
 RMSDP=3.23D-08 MaxDP=3.72D-07 DE=-9.78D-12 OVMax= 4.97D-07

 Cycle  13  Pass 1  IDiag  1:
 E= -79.1669196349126     Delta-E=       -0.000000000001 Rises=F Damp=F
 DIIS: error= 2.86D-08 at cycle   6 NSaved=   6.
 NSaved= 6 IEnMin= 6 EnMin= -79.1669196349126     IErMin= 6 ErrMin= 2.86D-08
 ErrMax= 2.86D-08  0.00D+00 EMaxC= 1.00D-01 BMatC= 9.23D-14 BMatP= 1.40D-12
 IDIUse=1 WtCom= 1.00D+00 WtEn= 0.00D+00
 Coeff-Com:  0.557D-02-0.201D-02-0.364D-01-0.556D-01 0.151D+00 0.938D+00
 Coeff:      0.557D-02-0.201D-02-0.364D-01-0.556D-01 0.151D+00 0.938D+00
 Gap=     0.302 Goal=   None    Shift=    0.000
 Gap=     0.300 Goal=   None    Shift=    0.000
 RMSDP=8.04D-09 MaxDP=7.79D-08 DE=-1.02D-12 OVMax= 1.15D-07

 SCF Done:  E(UTPSSh) =  -79.1669196349     A.U. after   13 cycles
            NFock= 13  Conv=0.80D-08     -V/T= 2.0057
 <Sx>= 0.0000 <Sy>= 0.0000 <Sz>= 0.5000 <S**2>= 0.7552 S= 0.5026
 <L.S>= 0.000000000000E+00
 KE= 7.872029104702D+01 PE=-2.568583483176D+02 EE= 6.199253441342D+01
 Annihilation of the first spin contaminant:
 S**2 before annihilation     0.7552,   after     0.7500
 Leave Link  502 at Wed Oct  7 14:39:20 2020, MaxMem=  2684354560 cpu:              45.2 elap:               4.2
 (Enter /udrive/faculty/rpeverati/g16/g16/l508.exe)
 QCSCF skips out because SCF is already converged.
 Leave Link  508 at Wed Oct  7 14:39:21 2020, MaxMem=  2684354560 cpu:               0.6 elap:               0.6
 (Enter /udrive/faculty/rpeverati/g16/g16/l601.exe)
 Copying SCF densities to generalized density rwf, IOpCl= 1 IROHF=0.

 **********************************************************************

            Population analysis using the SCF density.

 **********************************************************************

 Orbital symmetries:
 Alpha Orbitals:
       Occupied  (A) (A) (A) (A) (A) (A) (A) (A) (A)
       Virtual   (A) (A) (A) (A) (A) (A) (A) (A) (A) (A) (A) (A)
                 (A) (A) (A) (A) (A) (A) (A) (A) (A) (A) (A) (A)
                 (A) (A) (A) (A) (A)
 Beta  Orbitals:
       Occupied  (A) (A) (A) (A) (A) (A) (A) (A)
       Virtual   (A) (A) (A) (A) (A) (A) (A) (A) (A) (A) (A) (A)
                 (A) (A) (A) (A) (A) (A) (A) (A) (A) (A) (A) (A)
                 (A) (A) (A) (A) (A) (A)
 The electronic state is 2-A.
 Alpha  occ. eigenvalues --  -10.11696 -10.10913  -0.73189  -0.58862  -0.42937
 Alpha  occ. eigenvalues --   -0.39412  -0.36582  -0.33879  -0.18382
 Alpha virt. eigenvalues --    0.11852   0.14064   0.14856   0.17874   0.22237
 Alpha virt. eigenvalues --    0.25464   0.51434   0.54288   0.55227   0.61626
 Alpha virt. eigenvalues --    0.61771   0.74455   0.80207   0.88403   0.88642
 Alpha virt. eigenvalues --    0.96059   0.96424   0.98114   1.28860   1.45592
 Alpha virt. eigenvalues --    1.64236   1.76407   1.92451   2.00561   2.16726
 Alpha virt. eigenvalues --    2.21395   2.35657   2.48294   2.59797
  Beta  occ. eigenvalues --  -10.11037 -10.10097  -0.71555  -0.56425  -0.42351
  Beta  occ. eigenvalues --   -0.37923  -0.35864  -0.33550
  Beta virt. eigenvalues --   -0.03516   0.12438   0.15313   0.15929   0.18679
  Beta virt. eigenvalues --    0.22972   0.26824   0.52238   0.54756   0.60392
  Beta virt. eigenvalues --    0.64079   0.65903   0.75556   0.83194   0.89344
  Beta virt. eigenvalues --    0.90266   0.97937   0.98193   1.02057   1.30060
  Beta virt. eigenvalues --    1.49170   1.73187   1.78166   1.96853   2.06077
  Beta virt. eigenvalues --    2.23397   2.24313   2.37948   2.52442   2.63083
          Condensed to atoms (all electrons):
               1          2          3          4          5          6
     1  C    5.311607   0.372130  -0.035815   0.382144  -0.046587  -0.036153
     2  C    0.372130   5.060723   0.382865  -0.037911   0.373926   0.382743
     3  H   -0.035815   0.382865   0.547875   0.003684  -0.034634  -0.028052
     4  H    0.382144  -0.037911   0.003684   0.532355   0.000568  -0.004680
     5  H   -0.046587   0.373926  -0.034634   0.000568   0.570960  -0.034865
     6  H   -0.036153   0.382743  -0.028052  -0.004680  -0.034865   0.548330
     7  H    0.382217  -0.037825  -0.004822  -0.035246   0.000692   0.003667
               7
     1  C    0.382217
     2  C   -0.037825
     3  H   -0.004822
     4  H   -0.035246
     5  H    0.000692
     6  H    0.003667
     7  H    0.532058
          Atomic-Atomic Spin Densities.
               1          2          3          4          5          6
     1  C    1.223362  -0.041546  -0.008368  -0.009121  -0.031751  -0.008984
     2  C   -0.041546  -0.083264   0.006648   0.000089   0.015643   0.006966
     3  H   -0.008368   0.006648   0.021883   0.000043  -0.010968   0.004099
     4  H   -0.009121   0.000089   0.000043  -0.049101  -0.000419   0.000629
     5  H   -0.031751   0.015643  -0.010968  -0.000419   0.103235  -0.011458
     6  H   -0.008984   0.006966   0.004099   0.000629  -0.011458   0.023925
     7  H   -0.009122   0.000080   0.000624   0.001830  -0.000417   0.000051
               7
     1  C   -0.009122
     2  C    0.000080
     3  H    0.000624
     4  H    0.001830
     5  H   -0.000417
     6  H    0.000051
     7  H   -0.049134
 Mulliken charges and spin densities:
               1          2
     1  C   -0.329543   1.114469
     2  C   -0.496650  -0.095383
     3  H    0.168899   0.013961
     4  H    0.159086  -0.056050
     5  H    0.169940   0.063865
     6  H    0.169009   0.015228
     7  H    0.159259  -0.056089
 Sum of Mulliken charges =  -0.00000   1.00000
 Mulliken charges and spin densities with hydrogens summed into heavy atoms:
               1          2
     1  C   -0.011198   1.002330
     2  C    0.011198  -0.002330
 Electronic spatial extent (au):  <R**2>=             98.2826
 Charge=             -0.0000 electrons
 Dipole moment (field-independent basis, Debye):
    X=             -0.2018    Y=             -0.0004    Z=              0.1297  Tot=              0.2399
 Quadrupole moment (field-independent basis, Debye-Ang):
   XX=            -13.9096   YY=            -13.3555   ZZ=            -14.8503
   XY=              0.0010   XZ=              0.1662   YZ=              0.0002
 Traceless Quadrupole moment (field-independent basis, Debye-Ang):
   XX=              0.1289   YY=              0.6829   ZZ=             -0.8118
   XY=              0.0010   XZ=              0.1662   YZ=              0.0002
 Octapole moment (field-independent basis, Debye-Ang**2):
  XXX=              0.2843  YYY=              0.0206  ZZZ=              0.6694  XYY=              0.5012
  XXY=              0.0026  XXZ=              0.2031  XZZ=             -1.3317  YZZ=             -0.0196
  YYZ=             -0.4096  XYZ=             -0.0002
 Hexadecapole moment (field-independent basis, Debye-Ang**3):
 XXXX=            -82.8472 YYYY=            -26.8691 ZZZZ=            -21.8170 XXXY=              0.0043
 XXXZ=              0.4801 YYYX=             -0.0246 YYYZ=              0.0007 ZZZX=             -0.3748
 ZZZY=             -0.0004 XXYY=            -16.3096 XXZZ=            -17.9225 YYZZ=             -8.4195
 XXYZ=              0.0012 YYXZ=              0.7971 ZZXY=              0.0237
 N-N= 3.697860322228D+01 E-N=-2.568583475156D+02  KE= 7.872029104702D+01
                          Isotropic Fermi Contact Couplings
        Atom                 a.u.       MegaHertz       Gauss      10(-4) cm-1
     1  C(13)              0.16782     188.66119      67.31900      62.93060
     2  C(13)             -0.03667     -41.22755     -14.71101     -13.75203
     3  H(1)               0.00779      34.83624      12.43044      11.62012
     4  H(1)              -0.01785     -79.80830     -28.47759     -26.62118
     5  H(1)               0.03379     151.02799      53.89054      50.37751
     6  H(1)               0.00849      37.96042      13.54522      12.66223
     7  H(1)              -0.01788     -79.90063     -28.51053     -26.65198
 --------------------------------------------------------
       Center         ----  Spin Dipole Couplings  ----
                      3XX-RR        3YY-RR        3ZZ-RR
 --------------------------------------------------------
     1   Atom       -0.538740     -0.541791      1.080531
     2   Atom        0.007837     -0.011268      0.003431
     3   Atom        0.013462     -0.005362     -0.008100
     4   Atom       -0.033940      0.038395     -0.004455
     5   Atom        0.013431     -0.010099     -0.003332
     6   Atom        0.013538     -0.005384     -0.008154
     7   Atom       -0.033815      0.038242     -0.004427
 --------------------------------------------------------
                        XY            XZ            YZ
 --------------------------------------------------------
     1   Atom       -0.000010     -0.058315     -0.000147
     2   Atom       -0.000045     -0.002170      0.000048
     3   Atom       -0.010185      0.003200     -0.000483
     4   Atom       -0.064332      0.001712     -0.007310
     5   Atom        0.000145     -0.008899     -0.000118
     6   Atom        0.010086      0.003414      0.000578
     7   Atom        0.064431      0.001731      0.007315
 --------------------------------------------------------


 ---------------------------------------------------------------------------------
              Anisotropic Spin Dipole Couplings in Principal Axis System
 ---------------------------------------------------------------------------------

       Atom             a.u.   MegaHertz   Gauss  10(-4) cm-1        Axes

              Baa    -0.5418   -72.703   -25.942   -24.251  0.0163  0.9999  0.0007
     1 C(13)  Bbb    -0.5408   -72.575   -25.897   -24.208  0.9992 -0.0163  0.0359
              Bcc     1.0826   145.278    51.839    48.460 -0.0359 -0.0001  0.9994
 
              Baa    -0.0113    -1.512    -0.540    -0.504  0.0020  1.0000 -0.0030
     2 C(13)  Bbb     0.0025     0.341     0.122     0.114  0.3792  0.0020  0.9253
              Bcc     0.0087     1.171     0.418     0.391  0.9253 -0.0030 -0.3792
 
              Baa    -0.0102    -5.451    -1.945    -1.818  0.4053  0.8076 -0.4284
     3 H(1)   Bbb    -0.0081    -4.307    -1.537    -1.436  0.0741  0.4380  0.8959
              Bcc     0.0183     9.758     3.482     3.255  0.9112 -0.3948  0.1177
 
              Baa    -0.0716   -38.228   -13.641   -12.751  0.8619  0.5061  0.0331
     4 H(1)   Bbb    -0.0050    -2.677    -0.955    -0.893 -0.0731  0.0594  0.9956
              Bcc     0.0767    40.904    14.596    13.644 -0.5018  0.8605 -0.0881
 
              Baa    -0.0101    -5.389    -1.923    -1.798  0.0009  0.9998  0.0187
     5 H(1)   Bbb    -0.0072    -3.828    -1.366    -1.277  0.3965 -0.0175  0.9179
              Bcc     0.0173     9.217     3.289     3.074  0.9180  0.0066 -0.3965
 
              Baa    -0.0102    -5.428    -1.937    -1.811 -0.4033  0.7944  0.4542
     6 H(1)   Bbb    -0.0082    -4.353    -1.553    -1.452  0.0774 -0.4650  0.8819
              Bcc     0.0183     9.782     3.490     3.263  0.9118  0.3908  0.1260
 
              Baa    -0.0717   -38.244   -13.647   -12.757  0.8613 -0.5070  0.0330
     7 H(1)   Bbb    -0.0050    -2.663    -0.950    -0.888 -0.0731 -0.0595  0.9955
              Bcc     0.0767    40.908    14.597    13.645  0.5028  0.8599  0.0883
 

 ---------------------------------------------------------------------------------

 No NMR shielding tensors so no spin-rotation constants.
 Leave Link  601 at Wed Oct  7 14:39:22 2020, MaxMem=  2684354560 cpu:               6.7 elap:               1.0
 (Enter /udrive/faculty/rpeverati/g16/g16/l701.exe)
 ... and contract with generalized density number  0.
 Compute integral first derivatives.
 R6Disp: Adding Grimme-D3(BJ) dispersion energy 1st derivatives to the gradient.
 Leave Link  701 at Wed Oct  7 14:39:23 2020, MaxMem=  2684354560 cpu:               4.0 elap:               0.8
 (Enter /udrive/faculty/rpeverati/g16/g16/l702.exe)
 L702 exits ... SP integral derivatives will be done elsewhere.
 Leave Link  702 at Wed Oct  7 14:39:24 2020, MaxMem=  2684354560 cpu:               1.1 elap:               0.4
 (Enter /udrive/faculty/rpeverati/g16/g16/l703.exe)
 Integral derivatives from FoFJK, PRISM(SPDF).
 Compute integral first derivatives, UseDBF=F ICtDFT=           0.
 Calling FoFJK, ICntrl=      2127 FMM=F ISym2X=0 I1Cent= 0 IOpClX= 1 NMat=1 NMatS=1 NMatT=0.
 FoFJK:  IHMeth= 1 ICntrl=    2127 DoSepK=F KAlg= 0 I1Cent=           0 FoldK=F
 IRaf=         0 NMat=       1 IRICut=       1 DoRegI=T DoRafI=F ISym2E= 0 IDoP0=0 IntGTp=1.
 FoFCou: FMM=F IPFlag=           0 FMFlag=      100000 FMFlg1=         800
         NFxFlg=           0 DoJE=F BraDBF=F KetDBF=F FulRan=T
         wScrn=  0.000000 ICntrl=      2127 IOpCl=  1 I1Cent=           0 NGrid=           0
         NMat0=    1 NMatS0=      1 NMatT0=    0 NMatD0=    1 NMtDS0=    0 NMtDT0=    0
 Symmetry not used in FoFCou.
 Leave Link  703 at Wed Oct  7 14:39:25 2020, MaxMem=  2684354560 cpu:              11.5 elap:               1.3
 (Enter /udrive/faculty/rpeverati/g16/g16/l716.exe)
 Dipole        =-7.93988826D-02-1.42056636D-04 5.10249630D-02
 ***** Axes restored to original set *****
 -------------------------------------------------------------------
 Center     Atomic                   Forces (Hartrees/Bohr)
 Number     Number              X              Y              Z
 -------------------------------------------------------------------
      1        6          -0.002513300    0.000005468   -0.001047295
      2        6           0.003354691    0.000014196   -0.000347989
      3        1          -0.001724540    0.003395248   -0.001733312
      4        1           0.002375841   -0.003712256    0.000369207
      5        1          -0.002139742   -0.000050747    0.004188738
      6        1          -0.001733781   -0.003363433   -0.001815669
      7        1           0.002380830    0.003711523    0.000386320
 -------------------------------------------------------------------
 Cartesian Forces:  Max     0.004188738 RMS     0.002342075
 Leave Link  716 at Wed Oct  7 14:39:26 2020, MaxMem=  2684354560 cpu:               1.1 elap:               0.4
 (Enter /udrive/faculty/rpeverati/g16/g16/l103.exe)

 GradGradGradGradGradGradGradGradGradGradGradGradGradGradGradGradGradGrad
 Berny optimization.
 Optmz: redundant internal coordinate code flag= 1
 FormGI is forming the generalized inverse of G from B-inverse, IUseBI=4.
 Internal  Forces:  Max     0.004676435 RMS     0.002202446
 Search for a local minimum.
 Step number   1 out of a maximum of  100
 All quantities printed in internal units (Hartrees-Bohrs-Radians)
 RMS Force = .22024D-02 SwitMx=.10000D-02 MixMth= 1
 Mixed Optimization -- RFO/linear search
 Second derivative matrix not updated -- first step.
 The second derivative matrix:
                          R1        R2        R3        R4        R5
           R1           0.33434
           R2           0.00000   0.36035
           R3           0.00000   0.00000   0.36041
           R4           0.00000   0.00000   0.00000   0.34790
           R5           0.00000   0.00000   0.00000   0.00000   0.34004
           R6           0.00000   0.00000   0.00000   0.00000   0.00000
           A1           0.00000   0.00000   0.00000   0.00000   0.00000
           A2           0.00000   0.00000   0.00000   0.00000   0.00000
           A3           0.00000   0.00000   0.00000   0.00000   0.00000
           A4           0.00000   0.00000   0.00000   0.00000   0.00000
           A5           0.00000   0.00000   0.00000   0.00000   0.00000
           A6           0.00000   0.00000   0.00000   0.00000   0.00000
           A7           0.00000   0.00000   0.00000   0.00000   0.00000
           A8           0.00000   0.00000   0.00000   0.00000   0.00000
           A9           0.00000   0.00000   0.00000   0.00000   0.00000
           D1           0.00000   0.00000   0.00000   0.00000   0.00000
           D2           0.00000   0.00000   0.00000   0.00000   0.00000
           D3           0.00000   0.00000   0.00000   0.00000   0.00000
           D4           0.00000   0.00000   0.00000   0.00000   0.00000
           D5           0.00000   0.00000   0.00000   0.00000   0.00000
           D6           0.00000   0.00000   0.00000   0.00000   0.00000
                          R6        A1        A2        A3        A4
           R6           0.34771
           A1           0.00000   0.16000
           A2           0.00000   0.00000   0.16000
           A3           0.00000   0.00000   0.00000   0.16000
           A4           0.00000   0.00000   0.00000   0.00000   0.16000
           A5           0.00000   0.00000   0.00000   0.00000   0.00000
           A6           0.00000   0.00000   0.00000   0.00000   0.00000
           A7           0.00000   0.00000   0.00000   0.00000   0.00000
           A8           0.00000   0.00000   0.00000   0.00000   0.00000
           A9           0.00000   0.00000   0.00000   0.00000   0.00000
           D1           0.00000   0.00000   0.00000   0.00000   0.00000
           D2           0.00000   0.00000   0.00000   0.00000   0.00000
           D3           0.00000   0.00000   0.00000   0.00000   0.00000
           D4           0.00000   0.00000   0.00000   0.00000   0.00000
           D5           0.00000   0.00000   0.00000   0.00000   0.00000
           D6           0.00000   0.00000   0.00000   0.00000   0.00000
                          A5        A6        A7        A8        A9
           A5           0.16000
           A6           0.00000   0.16000
           A7           0.00000   0.00000   0.16000
           A8           0.00000   0.00000   0.00000   0.16000
           A9           0.00000   0.00000   0.00000   0.00000   0.16000
           D1           0.00000   0.00000   0.00000   0.00000   0.00000
           D2           0.00000   0.00000   0.00000   0.00000   0.00000
           D3           0.00000   0.00000   0.00000   0.00000   0.00000
           D4           0.00000   0.00000   0.00000   0.00000   0.00000
           D5           0.00000   0.00000   0.00000   0.00000   0.00000
           D6           0.00000   0.00000   0.00000   0.00000   0.00000
                          D1        D2        D3        D4        D5
           D1           0.00896
           D2           0.00000   0.00896
           D3           0.00000   0.00000   0.00896
           D4           0.00000   0.00000   0.00000   0.00896
           D5           0.00000   0.00000   0.00000   0.00000   0.00896
           D6           0.00000   0.00000   0.00000   0.00000   0.00000
                          D6
           D6           0.00896
 ITU=  0
 Eigenvectors of the second derivative matrix:
                           1         2         3         4         5
     Eigenvalues --     0.00896   0.00965   0.07156   0.07224   0.16000
   1         R1        -0.00000  -0.00000   0.00000  -0.00000   0.00000
   2         R2         0.00000   0.00000   0.00000  -0.00000   0.00000
   3         R3         0.00000   0.00000   0.00000   0.00000   0.00000
   4         R4        -0.00000   0.00000   0.00000   0.00000  -0.00000
   5         R5        -0.00000  -0.00000   0.00000  -0.00000  -0.00000
   6         R6        -0.00000   0.00000  -0.00000  -0.00000  -0.00000
   7         A1        -0.00000  -0.03861  -0.00000  -0.00000   0.18703
   8         A2         0.00000  -0.03861  -0.00000  -0.00000   0.38680
   9         A3         0.00000  -0.03915   0.00000   0.00000  -0.56598
  10         A4         0.00000  -0.00000   0.12005  -0.21872  -0.25061
  11         A5         0.00000   0.00000  -0.24994   0.00611   0.54992
  12         A6         0.00000  -0.00000   0.13077   0.21253  -0.10215
  13         A7         0.00000  -0.00000  -0.24426  -0.39756  -0.15940
  14         A8        -0.00000  -0.00000   0.45872  -0.01129   0.19275
  15         A9        -0.00000   0.00000  -0.22451   0.40950  -0.23847
  16         D1        -0.40825  -0.40733  -0.38794  -0.21058  -0.00000
  17         D2        -0.40825  -0.40733   0.01091   0.43997   0.00000
  18         D3        -0.40825  -0.40733   0.37703  -0.22940  -0.00000
  19         D4        -0.40825   0.40733  -0.38794  -0.21058  -0.00000
  20         D5        -0.40825   0.40733   0.01091   0.43997   0.00000
  21         D6        -0.40825   0.40733   0.37703  -0.22940  -0.00000
                           6         7         8         9        10
     Eigenvalues --     0.16000   0.16000   0.16000   0.16000   0.33434
   1         R1         0.00000  -0.00000  -0.00000  -0.00000  -1.00000
   2         R2         0.00000  -0.00000   0.00000  -0.00000  -0.00000
   3         R3         0.00000  -0.00000   0.00000  -0.00000   0.00000
   4         R4         0.00000  -0.00000   0.00000   0.00000   0.00000
   5         R5        -0.00000   0.00000  -0.00000   0.00000  -0.00000
   6         R6         0.00000  -0.00000  -0.00000   0.00000  -0.00000
   7         A1        -0.42123  -0.57138   0.03284  -0.36023   0.00000
   8         A2         0.44537   0.06524   0.23017   0.51433  -0.00000
   9         A3        -0.02381   0.49923  -0.25941  -0.15199  -0.00000
  10         A4         0.48189  -0.46534  -0.39784   0.00824   0.00000
  11         A5        -0.02197   0.30669  -0.47929  -0.21895   0.00000
  12         A6        -0.50203  -0.05626  -0.19414   0.60556  -0.00000
  13         A7        -0.24591   0.08517   0.46840   0.11240  -0.00000
  14         A8         0.01105   0.28500   0.32346  -0.33542  -0.00000
  15         A9         0.27983  -0.13337   0.35908  -0.20674  -0.00000
  16         D1         0.00000   0.00000  -0.00000   0.00000   0.00000
  17         D2        -0.00000   0.00000  -0.00000   0.00000  -0.00000
  18         D3         0.00000   0.00000  -0.00000  -0.00000   0.00000
  19         D4         0.00000  -0.00000   0.00000   0.00000  -0.00000
  20         D5        -0.00000  -0.00000   0.00000   0.00000  -0.00000
  21         D6         0.00000  -0.00000   0.00000   0.00000   0.00000
                          11        12        13        14        15
     Eigenvalues --     0.34004   0.34771   0.34790   0.36035   0.36041
   1         R1         0.00000  -0.00000  -0.00000   0.00000   0.00000
   2         R2        -0.00000   0.00000   0.00000  -1.00000   0.00000
   3         R3        -0.00000   0.00000  -0.00000   0.00000   1.00000
   4         R4         0.00000  -0.00000  -1.00000  -0.00000  -0.00000
   5         R5        -1.00000   0.00000  -0.00000   0.00000  -0.00000
   6         R6         0.00000   1.00000  -0.00000   0.00000  -0.00000
   7         A1        -0.00000  -0.00000  -0.00000   0.00000  -0.00000
   8         A2        -0.00000  -0.00000  -0.00000   0.00000   0.00000
   9         A3         0.00000  -0.00000   0.00000  -0.00000   0.00000
  10         A4        -0.00000  -0.00000   0.00000  -0.00000   0.00000
  11         A5         0.00000   0.00000  -0.00000  -0.00000   0.00000
  12         A6         0.00000  -0.00000   0.00000  -0.00000   0.00000
  13         A7         0.00000   0.00000   0.00000   0.00000  -0.00000
  14         A8         0.00000   0.00000  -0.00000   0.00000  -0.00000
  15         A9        -0.00000   0.00000   0.00000  -0.00000  -0.00000
  16         D1         0.00000  -0.00000   0.00000   0.00000   0.00000
  17         D2         0.00000   0.00000   0.00000  -0.00000   0.00000
  18         D3         0.00000   0.00000   0.00000   0.00000   0.00000
  19         D4         0.00000  -0.00000   0.00000   0.00000  -0.00000
  20         D5         0.00000   0.00000   0.00000  -0.00000  -0.00000
  21         D6         0.00000  -0.00000   0.00000   0.00000  -0.00000
 Iter=   1 RLamda= 0.00000000D+00 Sum=-2.94991737D-04.
 Iter=   2 RLamda=-2.94991737D-04 Sum=-2.94698161D-04.
 Iter=   3 RLamda=-2.94698161D-04 Sum=-2.94698452D-04.
 RFO step:  Lambda=-2.94698161D-04 EMin= 8.96386027D-03
 Linear search not attempted -- first point.
 Iteration  1 RMS(Cart)=  0.00735024 RMS(Int)=  0.00001511
 Iteration  2 RMS(Cart)=  0.00000901 RMS(Int)=  0.00000461
 Iteration  3 RMS(Cart)=  0.00000000 RMS(Int)=  0.00000461
 ITry= 1 IFail=0 DXMaxC= 1.21D-02 DCOld= 1.00D+10 DXMaxT= 3.00D-01 DXLimC= 3.00D+00 Rises=F
 Variable       Old X    -DE/DX   Delta X   Delta X   Delta X     New X
                                 (Linear)    (Quad)   (Total)
    R1        2.81596   0.00225   0.00000   0.00672   0.00672   2.82267
    R2        2.04027   0.00442   0.00000   0.01226   0.01226   2.05252
    R3        2.04017   0.00442   0.00000   0.01226   0.01226   2.05244
    R4        2.06018   0.00418   0.00000   0.01200   0.01200   2.07218
    R5        2.07323   0.00468   0.00000   0.01374   0.01374   2.08698
    R6        2.06049   0.00419   0.00000   0.01205   0.01205   2.07254
    A1        2.10839   0.00008   0.00000   0.00009   0.00008   2.10848
    A2        2.10918   0.00008   0.00000   0.00008   0.00007   2.10925
    A3        2.05345  -0.00017   0.00000  -0.00151  -0.00152   2.05193
    A4        1.94747   0.00009   0.00000   0.00051   0.00051   1.94798
    A5        1.94960   0.00065   0.00000   0.00410   0.00410   1.95369
    A6        1.94731   0.00009   0.00000   0.00056   0.00055   1.94787
    A7        1.86363  -0.00038   0.00000  -0.00231  -0.00231   1.86132
    A8        1.88862  -0.00012   0.00000  -0.00090  -0.00090   1.88772
    A9        1.86278  -0.00038   0.00000  -0.00232  -0.00232   1.86046
    D1       -2.72632  -0.00003   0.00000  -0.00402  -0.00402  -2.73034
    D2        1.47219  -0.00004   0.00000  -0.00421  -0.00421   1.46798
    D3       -0.61129  -0.00006   0.00000  -0.00442  -0.00442  -0.61571
    D4        0.58613   0.00007   0.00000   0.00542   0.00542   0.59155
    D5       -1.49854   0.00005   0.00000   0.00523   0.00523  -1.49331
    D6        2.70116   0.00004   0.00000   0.00502   0.00502   2.70618
         Item               Value     Threshold  Converged?
 Maximum Force            0.004676     0.000450     NO 
 RMS     Force            0.002202     0.000300     NO 
 Maximum Displacement     0.012075     0.001800     NO 
 RMS     Displacement     0.007349     0.001200     NO 
 Predicted change in Energy=-1.474928D-04
 Lowest energy point so far.  Saving SCF results.
 Largest change from initial coordinates is atom    7       0.008 Angstoms.
 GradGradGradGradGradGradGradGradGradGradGradGradGradGradGradGradGradGrad

 Leave Link  103 at Wed Oct  7 14:39:27 2020, MaxMem=  2684354560 cpu:               3.4 elap:               0.6
 (Enter /udrive/faculty/rpeverati/g16/g16/l202.exe)
                          Input orientation:                          
 ---------------------------------------------------------------------
 Center     Atomic      Atomic             Coordinates (Angstroms)
 Number     Number       Type             X           Y           Z
 ---------------------------------------------------------------------
      1          6           0        0.797384    0.000024   -0.025261
      2          6           0       -0.696106    0.000165   -0.000586
      3          1           0       -1.107919    0.894399   -0.483472
      4          1           0        1.354866   -0.929170    0.049120
      5          1           0       -1.091737   -0.013217    1.030410
      6          1           0       -1.108410   -0.881651   -0.505803
      7          1           0        1.355755    0.928570    0.049871
 ---------------------------------------------------------------------
                    Distance matrix (angstroms):
                    1          2          3          4          5
     1  C    0.000000
     2  C    1.493693   0.000000
     3  H    2.154076   1.096551   0.000000
     4  H    1.086149   2.252247   3.110364   0.000000
     5  H    2.164115   1.104380   1.765182   2.790657   0.000000
     6  H    2.154140   1.096740   1.776190   2.525455   1.764768
     7  H    1.086103   2.252691   2.520975   1.857739   2.799756
                    6          7
     6  H    0.000000
     7  H    3.107697   0.000000
 Stoichiometry    C2H5(2)
 Framework group  C1[X(C2H5)]
 Deg. of freedom    15
 Full point group                 C1      NOp   1
 RotChk:  IX=0 Diff= 1.53D-03
 Largest Abelian subgroup         C1      NOp   1
 Largest concise Abelian subgroup C1      NOp   1
                         Standard orientation:                         
 ---------------------------------------------------------------------
 Center     Atomic      Atomic             Coordinates (Angstroms)
 Number     Number       Type             X           Y           Z
 ---------------------------------------------------------------------
      1          6           0        0.796807   -0.000001   -0.023559
      2          6           0       -0.696707    0.000172   -0.000425
      3          1           0       -1.108007    0.894255   -0.484029
      4          1           0        1.354197   -0.929179    0.051701
      5          1           0       -1.093402   -0.012866    1.030166
      6          1           0       -1.108504   -0.881802   -0.505780
      7          1           0        1.355116    0.928560    0.051846
 ---------------------------------------------------------------------
 Rotational constants (GHZ):         103.0728892          22.5759624          20.9350381
 Leave Link  202 at Wed Oct  7 14:39:27 2020, MaxMem=  2684354560 cpu:               1.3 elap:               0.4
 (Enter /udrive/faculty/rpeverati/g16/g16/l301.exe)
 Standard basis: 6-31G(d) (5D, 7F)
 Ernie: Thresh=  0.10000D-02 Tol=  0.10000D-05 Strict=F.
 There are    40 symmetry adapted cartesian basis functions of A   symmetry.
 There are    38 symmetry adapted basis functions of A   symmetry.
    38 basis functions,    76 primitive gaussians,    40 cartesian basis functions
     9 alpha electrons        8 beta electrons
       nuclear repulsion energy        36.8210898238 Hartrees.
 IExCor= 2523 DFT=T Ex+Corr=TPSSh ExCW=0 ScaHFX=  0.100000
 ScaDFX=  0.900000  0.900000  1.000000  1.000000 ScalE2=  1.000000  1.000000
 IRadAn=      5 IRanWt=     -1 IRanGd=            0 ICorTp=0 IEmpDi=141
 NAtoms=    7 NActive=    7 NUniq=    7 SFac= 1.00D+00 NAtFMM=   60 NAOKFM=F Big=F
 Integral buffers will be    131072 words long.
 Raffenetti 2 integral format.
 Two-electron integral symmetry is turned on.
 R6DIni: Non-standard D2/D3 S6 parameter, value=     1.000000
 R6DIni: Non-standard D2/D3 S8 parameter, value=     2.238200
 R6DIni: Non-standard D3BJ A1 parameter, value=     0.452900
 R6DIni: Non-standard D3BJ A2 parameter, value=     4.655000
 R6Disp:  Grimme-D3(BJ) Dispersion energy=       -0.0030118517 Hartrees.
 Nuclear repulsion after empirical dispersion term =       36.8180779721 Hartrees.
 Leave Link  301 at Wed Oct  7 14:39:28 2020, MaxMem=  2684354560 cpu:               1.9 elap:               0.5
 (Enter /udrive/faculty/rpeverati/g16/g16/l302.exe)
 NPDir=0 NMtPBC=     1 NCelOv=     1 NCel=       1 NClECP=     1 NCelD=      1
         NCelK=      1 NCelE2=     1 NClLst=     1 CellRange=     0.0.
 One-electron integrals computed using PRISM.
 One-electron integral symmetry used in STVInt
 NBasis=    38 RedAO= T EigKep=  1.07D-02  NBF=    38
 NBsUse=    38 1.00D-06 EigRej= -1.00D+00 NBFU=    38
 Precomputing XC quadrature grid using
 IXCGrd= 4 IRadAn=           5 IRanWt=          -1 IRanGd=           0 AccXCQ= 0.00D+00.
 Generated NRdTot=       0 NPtTot=           0 NUsed=           0 NTot=          32
 NSgBfM=    40    40    40    40    40 MxSgAt=     7 MxSgA2=     7.
 Leave Link  302 at Wed Oct  7 14:39:29 2020, MaxMem=  2684354560 cpu:               3.6 elap:               0.7
 (Enter /udrive/faculty/rpeverati/g16/g16/l303.exe)
 DipDrv:  MaxL=1.
 Leave Link  303 at Wed Oct  7 14:39:30 2020, MaxMem=  2684354560 cpu:               1.0 elap:               0.4
 (Enter /udrive/faculty/rpeverati/g16/g16/l401.exe)
 Initial guess from the checkpoint file:  "MN_14_C2H5_upper_BH76_TPSShDBJ_631Gs.chk"
 SCF N**3 symmetry information disabled.
 B after Tr=     0.000000    0.000000    0.000000
         Rot=    1.000000    0.000163    0.000174    0.000006 Ang=   0.03 deg.
 Guess basis will be translated and rotated to current coordinates.
 JPrj=2 DoOrth=T DoCkMO=T.
 Initial guess <Sx>= 0.0000 <Sy>= 0.0000 <Sz>= 0.5000 <S**2>= 0.7553 S= 0.5026
 Leave Link  401 at Wed Oct  7 14:39:30 2020, MaxMem=  2684354560 cpu:               2.9 elap:               0.6
 (Enter /udrive/faculty/rpeverati/g16/g16/l502.exe)
 Keep R1 and R2 ints in memory in canonical form, NReq=10915733.
 FoFCou: FMM=F IPFlag=           0 FMFlag=           0 FMFlg1=           0
         NFxFlg=           0 DoJE=F BraDBF=F KetDBF=F FulRan=T
         wScrn=  0.000000 ICntrl=       600 IOpCl=  0 I1Cent=           0 NGrid=           0
         NMat0=    1 NMatS0=    741 NMatT0=    0 NMatD0=    1 NMtDS0=    0 NMtDT0=    0
 Symmetry not used in FoFCou.
 Two-electron integral symmetry not used.
 UHF open shell SCF:
 Using DIIS extrapolation, IDIIS=  1040.
 NGot=  2684354560 LenX=  2683800373 LenY=  2683798332
 Requested convergence on RMS density matrix=1.00D-08 within 120 cycles.
 Requested convergence on MAX density matrix=1.00D-06.
 Requested convergence on             energy=1.00D-06.
 No special actions if energy rises.

 Cycle   1  Pass 1  IDiag  1:
 E= -79.1670283651754    
 DIIS: error= 9.42D-04 at cycle   1 NSaved=   1.
 NSaved= 1 IEnMin= 1 EnMin= -79.1670283651754     IErMin= 1 ErrMin= 9.42D-04
 ErrMax= 9.42D-04  0.00D+00 EMaxC= 1.00D-01 BMatC= 9.90D-05 BMatP= 9.90D-05
 IDIUse=3 WtCom= 9.91D-01 WtEn= 9.42D-03
 Coeff-Com:  0.100D+01
 Coeff-En:   0.100D+01
 Coeff:      0.100D+01
 Gap=     0.518 Goal=   None    Shift=    0.000
 Gap=     0.661 Goal=   None    Shift=    0.000
 RMSDP=2.26D-04 MaxDP=2.24D-03              OVMax= 2.63D-03

 Cycle   2  Pass 1  IDiag  1:
 E= -79.1670463782809     Delta-E=       -0.000018013105 Rises=F Damp=F
 DIIS: error= 8.39D-04 at cycle   2 NSaved=   2.
 NSaved= 2 IEnMin= 2 EnMin= -79.1670463782809     IErMin= 2 ErrMin= 8.39D-04
 ErrMax= 8.39D-04  0.00D+00 EMaxC= 1.00D-01 BMatC= 6.11D-05 BMatP= 9.90D-05
 IDIUse=3 WtCom= 9.92D-01 WtEn= 8.39D-03
 Coeff-Com:  0.427D+00 0.573D+00
 Coeff-En:   0.218D+00 0.782D+00
 Coeff:      0.425D+00 0.575D+00
 Gap=     0.302 Goal=   None    Shift=    0.000
 Gap=     0.299 Goal=   None    Shift=    0.000
 RMSDP=1.18D-04 MaxDP=1.19D-03 DE=-1.80D-05 OVMax= 1.47D-03

 Cycle   3  Pass 1  IDiag  1:
 E= -79.1670623270942     Delta-E=       -0.000015948813 Rises=F Damp=F
 DIIS: error= 1.89D-04 at cycle   3 NSaved=   3.
 NSaved= 3 IEnMin= 3 EnMin= -79.1670623270942     IErMin= 3 ErrMin= 1.89D-04
 ErrMax= 1.89D-04  0.00D+00 EMaxC= 1.00D-01 BMatC= 3.89D-06 BMatP= 6.11D-05
 IDIUse=3 WtCom= 9.98D-01 WtEn= 1.89D-03
 Coeff-Com:  0.245D-01 0.204D+00 0.772D+00
 Coeff-En:   0.000D+00 0.000D+00 0.100D+01
 Coeff:      0.244D-01 0.203D+00 0.772D+00
 Gap=     0.301 Goal=   None    Shift=    0.000
 Gap=     0.299 Goal=   None    Shift=    0.000
 RMSDP=2.46D-05 MaxDP=2.74D-04 DE=-1.59D-05 OVMax= 3.34D-04

 Cycle   4  Pass 1  IDiag  1:
 E= -79.1670633645133     Delta-E=       -0.000001037419 Rises=F Damp=F
 DIIS: error= 2.00D-05 at cycle   4 NSaved=   4.
 NSaved= 4 IEnMin= 4 EnMin= -79.1670633645133     IErMin= 4 ErrMin= 2.00D-05
 ErrMax= 2.00D-05  0.00D+00 EMaxC= 1.00D-01 BMatC= 7.75D-08 BMatP= 3.89D-06
 IDIUse=1 WtCom= 1.00D+00 WtEn= 0.00D+00
 Coeff-Com: -0.401D-02 0.375D-01 0.195D+00 0.771D+00
 Coeff:     -0.401D-02 0.375D-01 0.195D+00 0.771D+00
 Gap=     0.301 Goal=   None    Shift=    0.000
 Gap=     0.299 Goal=   None    Shift=    0.000
 RMSDP=5.44D-06 MaxDP=6.38D-05 DE=-1.04D-06 OVMax= 6.76D-05

 Cycle   5  Pass 1  IDiag  1:
 E= -79.1670633850836     Delta-E=       -0.000000020570 Rises=F Damp=F
 DIIS: error= 8.87D-06 at cycle   5 NSaved=   5.
 NSaved= 5 IEnMin= 5 EnMin= -79.1670633850836     IErMin= 5 ErrMin= 8.87D-06
 ErrMax= 8.87D-06  0.00D+00 EMaxC= 1.00D-01 BMatC= 1.43D-08 BMatP= 7.75D-08
 IDIUse=1 WtCom= 1.00D+00 WtEn= 0.00D+00
 Coeff-Com: -0.314D-02 0.594D-03 0.207D-01 0.287D+00 0.695D+00
 Coeff:     -0.314D-02 0.594D-03 0.207D-01 0.287D+00 0.695D+00
 Gap=     0.301 Goal=   None    Shift=    0.000
 Gap=     0.299 Goal=   None    Shift=    0.000
 RMSDP=2.09D-06 MaxDP=3.16D-05 DE=-2.06D-08 OVMax= 3.24D-05

 Cycle   6  Pass 1  IDiag  1:
 E= -79.1670633892340     Delta-E=       -0.000000004150 Rises=F Damp=F
 DIIS: error= 2.79D-06 at cycle   6 NSaved=   6.
 NSaved= 6 IEnMin= 6 EnMin= -79.1670633892340     IErMin= 6 ErrMin= 2.79D-06
 ErrMax= 2.79D-06  0.00D+00 EMaxC= 1.00D-01 BMatC= 1.65D-09 BMatP= 1.43D-08
 IDIUse=1 WtCom= 1.00D+00 WtEn= 0.00D+00
 Coeff-Com: -0.197D-03-0.782D-02-0.352D-01-0.751D-01 0.210D+00 0.908D+00
 Coeff:     -0.197D-03-0.782D-02-0.352D-01-0.751D-01 0.210D+00 0.908D+00
 Gap=     0.301 Goal=   None    Shift=    0.000
 Gap=     0.299 Goal=   None    Shift=    0.000
 RMSDP=9.95D-07 MaxDP=1.71D-05 DE=-4.15D-09 OVMax= 1.57D-05

 Cycle   7  Pass 1  IDiag  1:
 E= -79.1670633898568     Delta-E=       -0.000000000623 Rises=F Damp=F
 DIIS: error= 3.25D-07 at cycle   7 NSaved=   7.
 NSaved= 7 IEnMin= 7 EnMin= -79.1670633898568     IErMin= 7 ErrMin= 3.25D-07
 ErrMax= 3.25D-07  0.00D+00 EMaxC= 1.00D-01 BMatC= 1.51D-11 BMatP= 1.65D-09
 IDIUse=1 WtCom= 1.00D+00 WtEn= 0.00D+00
 Coeff-Com:  0.155D-03 0.312D-03 0.901D-03-0.692D-02-0.320D-01-0.307D-01
 Coeff-Com:  0.107D+01
 Coeff:      0.155D-03 0.312D-03 0.901D-03-0.692D-02-0.320D-01-0.307D-01
 Coeff:      0.107D+01
 Gap=     0.301 Goal=   None    Shift=    0.000
 Gap=     0.299 Goal=   None    Shift=    0.000
 RMSDP=1.23D-07 MaxDP=1.70D-06 DE=-6.23D-10 OVMax= 2.08D-06

 Cycle   8  Pass 1  IDiag  1:
 E= -79.1670633898663     Delta-E=       -0.000000000010 Rises=F Damp=F
 DIIS: error= 9.39D-08 at cycle   8 NSaved=   8.
 NSaved= 8 IEnMin= 8 EnMin= -79.1670633898663     IErMin= 8 ErrMin= 9.39D-08
 ErrMax= 9.39D-08  0.00D+00 EMaxC= 1.00D-01 BMatC= 1.30D-12 BMatP= 1.51D-11
 IDIUse=1 WtCom= 1.00D+00 WtEn= 0.00D+00
 Coeff-Com: -0.748D-05 0.216D-03 0.102D-02 0.298D-02-0.412D-02-0.290D-01
 Coeff-Com: -0.663D-01 0.110D+01
 Coeff:     -0.748D-05 0.216D-03 0.102D-02 0.298D-02-0.412D-02-0.290D-01
 Coeff:     -0.663D-01 0.110D+01
 Gap=     0.301 Goal=   None    Shift=    0.000
 Gap=     0.299 Goal=   None    Shift=    0.000
 RMSDP=3.55D-08 MaxDP=3.89D-07 DE=-9.55D-12 OVMax= 5.27D-07

 Cycle   9  Pass 1  IDiag  1:
 E= -79.1670633898672     Delta-E=       -0.000000000001 Rises=F Damp=F
 DIIS: error= 3.57D-08 at cycle   9 NSaved=   9.
 NSaved= 9 IEnMin= 9 EnMin= -79.1670633898672     IErMin= 9 ErrMin= 3.57D-08
 ErrMax= 3.57D-08  0.00D+00 EMaxC= 1.00D-01 BMatC= 2.18D-13 BMatP= 1.30D-12
 IDIUse=1 WtCom= 1.00D+00 WtEn= 0.00D+00
 Coeff-Com: -0.201D-04 0.215D-05 0.688D-04 0.147D-02 0.323D-02-0.178D-02
 Coeff-Com: -0.151D+00 0.190D+00 0.957D+00
 Coeff:     -0.201D-04 0.215D-05 0.688D-04 0.147D-02 0.323D-02-0.178D-02
 Coeff:     -0.151D+00 0.190D+00 0.957D+00
 Gap=     0.301 Goal=   None    Shift=    0.000
 Gap=     0.299 Goal=   None    Shift=    0.000
 RMSDP=1.20D-08 MaxDP=1.25D-07 DE=-8.81D-13 OVMax= 2.45D-07

 Cycle  10  Pass 1  IDiag  1:
 E= -79.1670633898675     Delta-E=       -0.000000000000 Rises=F Damp=F
 DIIS: error= 9.19D-09 at cycle  10 NSaved=  10.
 NSaved=10 IEnMin=10 EnMin= -79.1670633898675     IErMin=10 ErrMin= 9.19D-09
 ErrMax= 9.19D-09  0.00D+00 EMaxC= 1.00D-01 BMatC= 1.07D-14 BMatP= 2.18D-13
 IDIUse=1 WtCom= 1.00D+00 WtEn= 0.00D+00
 Coeff-Com:  0.460D-06-0.211D-04-0.987D-04-0.300D-03 0.345D-03 0.256D-02
 Coeff-Com:  0.801D-02-0.930D-01 0.276D-02 0.108D+01
 Coeff:      0.460D-06-0.211D-04-0.987D-04-0.300D-03 0.345D-03 0.256D-02
 Coeff:      0.801D-02-0.930D-01 0.276D-02 0.108D+01
 Gap=     0.301 Goal=   None    Shift=    0.000
 Gap=     0.299 Goal=   None    Shift=    0.000
 RMSDP=3.43D-09 MaxDP=4.22D-08 DE=-2.84D-13 OVMax= 4.31D-08

 SCF Done:  E(UTPSSh) =  -79.1670633899     A.U. after   10 cycles
            NFock= 10  Conv=0.34D-08     -V/T= 2.0063
 <Sx>= 0.0000 <Sy>= 0.0000 <Sz>= 0.5000 <S**2>= 0.7553 S= 0.5027
 <L.S>= 0.000000000000E+00
 KE= 7.866937557759D+01 PE=-2.564990292165D+02 EE= 6.184451227686D+01
 Annihilation of the first spin contaminant:
 S**2 before annihilation     0.7553,   after     0.7500
 Leave Link  502 at Wed Oct  7 14:39:35 2020, MaxMem=  2684354560 cpu:              49.5 elap:               4.6
 (Enter /udrive/faculty/rpeverati/g16/g16/l508.exe)
 QCSCF skips out because SCF is already converged.
 Leave Link  508 at Wed Oct  7 14:39:36 2020, MaxMem=  2684354560 cpu:               0.2 elap:               0.3
 (Enter /udrive/faculty/rpeverati/g16/g16/l701.exe)
 ... and contract with generalized density number  0.
 Compute integral first derivatives.
 R6Disp: Adding Grimme-D3(BJ) dispersion energy 1st derivatives to the gradient.
 Leave Link  701 at Wed Oct  7 14:39:36 2020, MaxMem=  2684354560 cpu:               3.6 elap:               0.6
 (Enter /udrive/faculty/rpeverati/g16/g16/l702.exe)
 L702 exits ... SP integral derivatives will be done elsewhere.
 Leave Link  702 at Wed Oct  7 14:39:37 2020, MaxMem=  2684354560 cpu:               1.2 elap:               0.4
 (Enter /udrive/faculty/rpeverati/g16/g16/l703.exe)
 Integral derivatives from FoFJK, PRISM(SPDF).
 Compute integral first derivatives, UseDBF=F ICtDFT=           0.
 Calling FoFJK, ICntrl=      2127 FMM=F ISym2X=0 I1Cent= 0 IOpClX= 1 NMat=1 NMatS=1 NMatT=0.
 FoFJK:  IHMeth= 1 ICntrl=    2127 DoSepK=F KAlg= 0 I1Cent=           0 FoldK=F
 IRaf=         0 NMat=       1 IRICut=       1 DoRegI=T DoRafI=F ISym2E= 0 IDoP0=0 IntGTp=1.
 FoFCou: FMM=F IPFlag=           0 FMFlag=      100000 FMFlg1=         800
         NFxFlg=           0 DoJE=F BraDBF=F KetDBF=F FulRan=T
         wScrn=  0.000000 ICntrl=      2127 IOpCl=  1 I1Cent=           0 NGrid=           0
         NMat0=    1 NMatS0=      1 NMatT0=    0 NMatD0=    1 NMtDS0=    0 NMtDT0=    0
 Symmetry not used in FoFCou.
 Leave Link  703 at Wed Oct  7 14:39:39 2020, MaxMem=  2684354560 cpu:              10.8 elap:               1.2
 (Enter /udrive/faculty/rpeverati/g16/g16/l716.exe)
 Dipole        =-7.80775796D-02-1.10902478D-04 5.25871802D-02
 ***** Axes restored to original set *****
 -------------------------------------------------------------------
 Center     Atomic                   Forces (Hartrees/Bohr)
 Number     Number              X              Y              Z
 -------------------------------------------------------------------
      1        6          -0.000515658   -0.000002128   -0.000187868
      2        6           0.000735181   -0.000001470   -0.000032705
      3        1          -0.000013562   -0.000024296    0.000029773
      4        1          -0.000040993    0.000155032    0.000048304
      5        1          -0.000110104    0.000005924    0.000039363
      6        1          -0.000010947    0.000021442    0.000038303
      7        1          -0.000043917   -0.000154504    0.000064830
 -------------------------------------------------------------------
 Cartesian Forces:  Max     0.000735181 RMS     0.000209106
 Leave Link  716 at Wed Oct  7 14:39:39 2020, MaxMem=  2684354560 cpu:               0.6 elap:               0.3
 (Enter /udrive/faculty/rpeverati/g16/g16/l103.exe)

 GradGradGradGradGradGradGradGradGradGradGradGradGradGradGradGradGradGrad
 Berny optimization.
 Optmz: redundant internal coordinate code flag= 1
 Using GEDIIS/GDIIS optimizer.
 Red2BG:  D1=  2.83D-01 OD1=  1.48D-02 B2RMS=  0.00D+00 IAprox=0
 FormGI is forming the generalized inverse of G from B-inverse, IUseBI=4.
 Internal  Forces:  Max     0.000599244 RMS     0.000145933
 Search for a local minimum.
 Step number   2 out of a maximum of  100
 All quantities printed in internal units (Hartrees-Bohrs-Radians)
 RMS Force = .14593D-03 SwitMx=.10000D-02 MixMth= 2
 Mixed Optimization -- En-DIIS/RFO-DIIS
 Update second derivatives using D2CorX and points    1    2
 DE= -1.44D-04 DEPred=-1.47D-04 R= 9.75D-01
 TightC=F SS=  1.41D+00  RLast= 3.15D-02 DXNew= 5.0454D-01 9.4407D-02
 Trust test= 9.75D-01 RLast= 3.15D-02 DXMaxT set to 3.00D-01
 The second derivative matrix:
                          R1        R2        R3        R4        R5
           R1           0.34422
           R2           0.00967   0.36371
           R3           0.00968   0.00336   0.36377
           R4           0.00806   0.00144   0.00143   0.34765
           R5           0.00800  -0.00003  -0.00003  -0.00178   0.33641
           R6           0.00811   0.00148   0.00148  -0.00020  -0.00174
           A1           0.00042   0.00064   0.00064   0.00059   0.00064
           A2           0.00049   0.00075   0.00075   0.00069   0.00075
           A3           0.00076   0.00188   0.00189   0.00183   0.00209
           A4           0.00011  -0.00005  -0.00005  -0.00007  -0.00011
           A5           0.00003  -0.00176  -0.00176  -0.00187  -0.00228
           A6           0.00014  -0.00003  -0.00003  -0.00006  -0.00010
           A7          -0.00016   0.00076   0.00076   0.00084   0.00105
           A8           0.00007   0.00051   0.00051   0.00052   0.00062
           A9          -0.00020   0.00071   0.00071   0.00079   0.00100
           D1           0.00031   0.00059   0.00059   0.00056   0.00062
           D2           0.00020   0.00042   0.00042   0.00040   0.00046
           D3           0.00010   0.00027   0.00027   0.00027   0.00030
           D4          -0.00017  -0.00041  -0.00041  -0.00039  -0.00045
           D5          -0.00028  -0.00057  -0.00057  -0.00054  -0.00061
           D6          -0.00037  -0.00072  -0.00072  -0.00068  -0.00076
                          R6        A1        A2        A3        A4
           R6           0.34754
           A1           0.00059   0.16001
           A2           0.00069   0.00001   0.16001
           A3           0.00183  -0.00001  -0.00001   0.15984
           A4          -0.00007   0.00001   0.00001   0.00004   0.16000
           A5          -0.00187   0.00007   0.00008   0.00034  -0.00005
           A6          -0.00006   0.00001   0.00001   0.00004  -0.00000
           A7           0.00084  -0.00004  -0.00005  -0.00018   0.00002
           A8           0.00052  -0.00001  -0.00002  -0.00008   0.00001
           A9           0.00079  -0.00004  -0.00005  -0.00018   0.00002
           D1           0.00056   0.00000   0.00000  -0.00003   0.00001
           D2           0.00041  -0.00000  -0.00000  -0.00003   0.00001
           D3           0.00027  -0.00000  -0.00000  -0.00002   0.00001
           D4          -0.00039   0.00000   0.00000   0.00003  -0.00001
           D5          -0.00054  -0.00000  -0.00000   0.00004  -0.00001
           D6          -0.00068  -0.00000  -0.00000   0.00004  -0.00001
                          A5        A6        A7        A8        A9
           A5           0.15948
           A6          -0.00005   0.16000
           A7           0.00027   0.00002   0.15986
           A8           0.00013   0.00001  -0.00007   0.15997
           A9           0.00026   0.00002  -0.00013  -0.00007   0.15987
           D1           0.00009   0.00001  -0.00005  -0.00002  -0.00005
           D2           0.00007   0.00001  -0.00004  -0.00002  -0.00004
           D3           0.00005   0.00001  -0.00003  -0.00001  -0.00003
           D4          -0.00007  -0.00001   0.00004   0.00002   0.00004
           D5          -0.00009  -0.00001   0.00005   0.00002   0.00005
           D6          -0.00011  -0.00001   0.00006   0.00002   0.00006
                          D1        D2        D3        D4        D5
           D1           0.00896
           D2          -0.00000   0.00896
           D3          -0.00001  -0.00000   0.00896
           D4           0.00001   0.00001   0.00001   0.00896
           D5           0.00001   0.00001   0.00001  -0.00001   0.00896
           D6           0.00001   0.00001   0.00001  -0.00001  -0.00001
                          D6
           D6           0.00896
 ITU=  1  0
 Use linear search instead of GDIIS.
 Eigenvectors of the second derivative matrix:
                           1         2         3         4         5
     Eigenvalues --     0.00896   0.00965   0.07147   0.07194   0.15894
   1         R1        -0.00021   0.00143   0.00011  -0.00003   0.00358
   2         R2        -0.00051   0.00372  -0.00026  -0.00008  -0.01075
   3         R3        -0.00051   0.00372  -0.00026  -0.00008  -0.01076
   4         R4        -0.00051   0.00377  -0.00031  -0.00008  -0.01283
   5         R5        -0.00060   0.00445  -0.00042  -0.00010  -0.01694
   6         R6        -0.00051   0.00378  -0.00031  -0.00008  -0.01284
   7         A1         0.00042  -0.04044  -0.00008  -0.00001  -0.14532
   8         A2         0.00042  -0.04046  -0.00007  -0.00001  -0.12156
   9         A3         0.00052  -0.04180   0.00011   0.00002   0.26253
  10         A4        -0.00002   0.00019   0.11808   0.22016  -0.08883
  11         A5        -0.00021   0.00164  -0.25016  -0.00814  -0.71103
  12         A6        -0.00003   0.00020   0.13223  -0.21202  -0.08511
  13         A7         0.00012  -0.00092  -0.24651   0.39419   0.42818
  14         A8         0.00005  -0.00035   0.45880   0.01493   0.09481
  15         A9         0.00012  -0.00091  -0.22047  -0.40971   0.42577
  16         D1        -0.40368  -0.41166  -0.38987   0.20786  -0.00071
  17         D2        -0.40367  -0.41174   0.01432  -0.44062  -0.00085
  18         D3        -0.40366  -0.41183   0.37531   0.23273  -0.00108
  19         D4        -0.41278   0.40270  -0.38968   0.20788   0.00129
  20         D5        -0.41277   0.40262   0.01451  -0.44060   0.00115
  21         D6        -0.41276   0.40253   0.37550   0.23275   0.00092
                           6         7         8         9        10
     Eigenvalues --     0.16000   0.16000   0.16000   0.16001   0.32612
   1         R1         0.00000  -0.00000  -0.00000   0.00145  -0.66294
   2         R2         0.00000  -0.00000  -0.00000   0.00120   0.13558
   3         R3         0.00000  -0.00000  -0.00000   0.00120   0.13555
   4         R4         0.00000  -0.00000  -0.00000   0.00106   0.27982
   5         R5         0.00000  -0.00000  -0.00000   0.00109   0.60486
   6         R6         0.00000  -0.00000  -0.00000   0.00107   0.28117
   7         A1        -0.43789   0.46487  -0.15413   0.46621  -0.00340
   8         A2         0.56892  -0.50291  -0.13647   0.24517  -0.00272
   9         A3        -0.12903   0.03746   0.28618  -0.70058   0.00661
  10         A4        -0.45557  -0.44659  -0.47496  -0.16729  -0.00183
  11         A5        -0.01193   0.00081   0.39624  -0.10277  -0.01627
  12         A6         0.39245   0.45973  -0.47111  -0.27206  -0.00172
  13         A7         0.25142   0.23978   0.04354   0.14494   0.00956
  14         A8         0.03449  -0.00721   0.51727   0.24022   0.00228
  15         A9        -0.20451  -0.24746   0.04145   0.20109   0.00940
  16         D1        -0.00000   0.00000   0.00000  -0.00004   0.00153
  17         D2        -0.00000   0.00000   0.00000  -0.00004   0.00169
  18         D3        -0.00000   0.00000   0.00000  -0.00004   0.00196
  19         D4         0.00000  -0.00000  -0.00000   0.00005  -0.00240
  20         D5         0.00000  -0.00000  -0.00000   0.00006  -0.00224
  21         D6        -0.00000  -0.00000  -0.00000   0.00005  -0.00197
                          11        12        13        14        15
     Eigenvalues --     0.34197   0.34780   0.35125   0.36038   0.37596
   1         R1        -0.41483   0.00930   0.40131  -0.00152  -0.47673
   2         R2         0.12461  -0.00713  -0.34726  -0.70743  -0.58725
   3         R3         0.12425  -0.00709  -0.34497   0.70678  -0.58946
   4         R4         0.29182  -0.70245   0.55365  -0.00110  -0.19076
   5         R5        -0.78686   0.00758   0.09062  -0.00046  -0.08010
   6         R6         0.30437   0.71156   0.53344  -0.00110  -0.19299
   7         A1         0.00043  -0.00002  -0.00133   0.00001   0.00344
   8         A2         0.00028  -0.00001  -0.00095   0.00000   0.00246
   9         A3        -0.00080   0.00003   0.00254  -0.00001  -0.00664
  10         A4         0.00004  -0.00000  -0.00039   0.00000   0.00102
  11         A5         0.00103  -0.00004  -0.00464   0.00002   0.01211
  12         A6        -0.00001   0.00000  -0.00028   0.00000   0.00074
  13         A7        -0.00058   0.00002   0.00267  -0.00001  -0.00697
  14         A8        -0.00003   0.00000   0.00046  -0.00000  -0.00120
  15         A9        -0.00053   0.00002   0.00256  -0.00001  -0.00668
  16         D1        -0.00032   0.00001   0.00084  -0.00000  -0.00231
  17         D2        -0.00031   0.00001   0.00087  -0.00000  -0.00237
  18         D3        -0.00034   0.00001   0.00096  -0.00001  -0.00262
  19         D4         0.00042  -0.00002  -0.00119   0.00001   0.00326
  20         D5         0.00043  -0.00002  -0.00117   0.00001   0.00319
  21         D6         0.00040  -0.00002  -0.00108   0.00001   0.00295
 Iter=   1 RLamda= 0.00000000D+00 Sum=-2.09620412D-06.
 Iter=   2 RLamda=-2.09620412D-06 Sum=-2.09599907D-06.
 RFO step:  Lambda=-2.09620412D-06 EMin= 8.96292489D-03
 Quartic linear search produced a step of -0.01828.
 Iteration  1 RMS(Cart)=  0.00117737 RMS(Int)=  0.00000400
 Iteration  2 RMS(Cart)=  0.00000282 RMS(Int)=  0.00000297
 Iteration  3 RMS(Cart)=  0.00000000 RMS(Int)=  0.00000297
 ITry= 1 IFail=0 DXMaxC= 3.69D-03 DCOld= 1.00D+10 DXMaxT= 3.00D-01 DXLimC= 3.00D+00 Rises=F
 Variable       Old X    -DE/DX   Delta X   Delta X   Delta X     New X
                                 (Linear)    (Quad)   (Total)
    R1        2.82267  -0.00060  -0.00012  -0.00159  -0.00171   2.82096
    R2        2.05252  -0.00015  -0.00022  -0.00010  -0.00033   2.05220
    R3        2.05244  -0.00015  -0.00022  -0.00010  -0.00033   2.05211
    R4        2.07218  -0.00003  -0.00022   0.00022   0.00000   2.07218
    R5        2.08698   0.00008  -0.00025   0.00056   0.00031   2.08729
    R6        2.07254  -0.00003  -0.00022   0.00022  -0.00001   2.07253
    A1        2.10848   0.00003  -0.00000  -0.00019  -0.00020   2.10828
    A2        2.10925   0.00002  -0.00000  -0.00023  -0.00024   2.10901
    A3        2.05193  -0.00006   0.00003  -0.00075  -0.00073   2.05119
    A4        1.94798   0.00001  -0.00001   0.00007   0.00006   1.94804
    A5        1.95369   0.00012  -0.00007   0.00082   0.00075   1.95444
    A6        1.94787   0.00001  -0.00001   0.00007   0.00006   1.94792
    A7        1.86132  -0.00007   0.00004  -0.00046  -0.00042   1.86090
    A8        1.88772  -0.00001   0.00002  -0.00013  -0.00011   1.88761
    A9        1.86046  -0.00006   0.00004  -0.00043  -0.00039   1.86007
    D1       -2.73034  -0.00003   0.00007  -0.00334  -0.00327  -2.73361
    D2        1.46798  -0.00003   0.00008  -0.00337  -0.00329   1.46470
    D3       -0.61571  -0.00004   0.00008  -0.00342  -0.00333  -0.61904
    D4        0.59155   0.00004  -0.00010   0.00446   0.00436   0.59591
    D5       -1.49331   0.00004  -0.00010   0.00444   0.00434  -1.48897
    D6        2.70618   0.00004  -0.00009   0.00439   0.00430   2.71048
         Item               Value     Threshold  Converged?
 Maximum Force            0.000599     0.000450     NO 
 RMS     Force            0.000146     0.000300     YES
[...]
 Iter=   3 RLamda=-1.73862297D-08 Sum=-1.73862012D-08.
 RFO step:  Lambda=-1.73862297D-08.
 NNeg= 0 NGDIIS= 3 SimSw=  2.50D-01 Rises=F DC= -1.70D-07 SmlDif=  1.00D-05
 NRisDI= 0 DoIntr=F SqrtH=F CThrHd= 10.0 CDAdj=  3.0
 RMS Error=  0.3167968624D-03 NUsed= 3 OKEnD=F EnDIS=F
 Total RFO-DIIS matrix:
                 1             2             3             4 
      1   0.000000D+00 -0.100000D+01 -0.100000D+01 -0.100000D+01
      2  -0.100000D+01  0.210757D-05  0.651675D-05  0.152032D-04
      3  -0.100000D+01  0.651675D-05  0.401267D-04  0.103946D-03
      4  -0.100000D+01  0.152032D-04  0.103946D-03  0.273955D-03
 InvSVX:  RCond= 4.15D-08 Info=           0 Equed=N FErr=  2.10D-13 BErr=  0.00D+00
 DIIS inversion failure, remove point   3.
 InvSVX:  RCond= 7.30D-06 Info=           0 Equed=N FErr=  1.31D-15 BErr=  5.65D-17
 RFO-DIIS uses    2 points instead of    3
 DidBck=F Rises=F RFO-DIIS coefs:    1.15100   -0.15100    0.00000
 Iteration  1 RMS(Cart)=  0.00025584 RMS(Int)=  0.00000014
 Iteration  2 RMS(Cart)=  0.00000005 RMS(Int)=  0.00000013
 ITry= 1 IFail=0 DXMaxC= 7.42D-04 DCOld= 1.00D+10 DXMaxT= 3.00D-01 DXLimC= 3.00D+00 Rises=F
 Variable       Old X    -DE/DX   Delta X   Delta X   Delta X     New X
                                 (Linear)    (Quad)   (Total)
    R1        2.82048   0.00001  -0.00007   0.00004  -0.00003   2.82046
    R2        2.05221   0.00001   0.00000   0.00002   0.00002   2.05223
    R3        2.05213   0.00001   0.00000   0.00003   0.00003   2.05215
    R4        2.07218   0.00000  -0.00000   0.00001   0.00001   2.07219
    R5        2.08741  -0.00000   0.00002  -0.00001   0.00001   2.08742
    R6        2.07251  -0.00000  -0.00000  -0.00000  -0.00001   2.07251
    A1        2.10829   0.00001   0.00000   0.00003   0.00003   2.10832
    A2        2.10897   0.00000  -0.00001   0.00001  -0.00000   2.10897
    A3        2.05059  -0.00001  -0.00009   0.00001  -0.00008   2.05051
    A4        1.94833   0.00000   0.00004  -0.00003   0.00002   1.94835
    A5        1.95474  -0.00001   0.00005  -0.00008  -0.00004   1.95471
    A6        1.94822   0.00000   0.00004  -0.00002   0.00002   1.94824
    A7        1.86050   0.00000  -0.00006   0.00004  -0.00002   1.86048
    A8        1.88741   0.00000  -0.00003   0.00003  -0.00001   1.88740
    A9        1.85970   0.00001  -0.00005   0.00008   0.00002   1.85972
    D1       -2.73497   0.00000  -0.00021   0.00061   0.00041  -2.73456
    D2        1.46344   0.00001  -0.00019   0.00064   0.00045   1.46389
    D3       -0.62024   0.00000  -0.00018   0.00061   0.00043  -0.61981
    D4        0.59860   0.00000   0.00041   0.00029   0.00070   0.59930
    D5       -1.48617   0.00001   0.00042   0.00031   0.00074  -1.48544
    D6        2.71333   0.00000   0.00043   0.00029   0.00072   2.71404
         Item               Value     Threshold  Converged?
 Maximum Force            0.000010     0.000450     YES
 RMS     Force            0.000005     0.000300     YES
 Maximum Displacement     0.000742     0.001800     YES
 RMS     Displacement     0.000256     0.001200     YES
 Predicted change in Energy=-8.693122D-09
 Optimization completed.
    -- Stationary point found.
                           ----------------------------
                           !   Optimized Parameters   !
                           ! (Angstroms and Degrees)  !
 --------------------------                            --------------------------
 ! Name  Definition              Value          Derivative Info.                !
 --------------------------------------------------------------------------------
 ! R1    R(1,2)                  1.4925         -DE/DX =    0.0                 !
 ! R2    R(1,4)                  1.086          -DE/DX =    0.0                 !
 ! R3    R(1,7)                  1.0859         -DE/DX =    0.0                 !
 ! R4    R(2,3)                  1.0966         -DE/DX =    0.0                 !
 ! R5    R(2,5)                  1.1046         -DE/DX =    0.0                 !
 ! R6    R(2,6)                  1.0967         -DE/DX =    0.0                 !
 ! A1    A(2,1,4)              120.796          -DE/DX =    0.0                 !
 ! A2    A(2,1,7)              120.8351         -DE/DX =    0.0                 !
 ! A3    A(4,1,7)              117.4903         -DE/DX =    0.0                 !
 ! A4    A(1,2,3)              111.6314         -DE/DX =    0.0                 !
 ! A5    A(1,2,5)              111.9985         -DE/DX =    0.0                 !
 ! A6    A(1,2,6)              111.6248         -DE/DX =    0.0                 !
 ! A7    A(3,2,5)              106.5986         -DE/DX =    0.0                 !
 ! A8    A(3,2,6)              108.1404         -DE/DX =    0.0                 !
 ! A9    A(5,2,6)              106.5531         -DE/DX =    0.0                 !
 ! D1    D(4,1,2,3)           -156.7021         -DE/DX =    0.0                 !
 ! D2    D(4,1,2,5)             83.8491         -DE/DX =    0.0                 !
 ! D3    D(4,1,2,6)            -35.5372         -DE/DX =    0.0                 !
 ! D4    D(7,1,2,3)             34.2974         -DE/DX =    0.0                 !
 ! D5    D(7,1,2,5)            -85.1515         -DE/DX =    0.0                 !
 ! D6    D(7,1,2,6)            155.4622         -DE/DX =    0.0                 !
 --------------------------------------------------------------------------------
 Lowest energy point so far.  Saving SCF results.
 Largest change from initial coordinates is atom    4       0.009 Angstoms.
 GradGradGradGradGradGradGradGradGradGradGradGradGradGradGradGradGradGrad

 Leave Link  103 at Wed Oct  7 14:40:07 2020, MaxMem=  2684354560 cpu:               2.8 elap:               0.7
 (Enter /udrive/faculty/rpeverati/g16/g16/l202.exe)
                          Input orientation:                          
 ---------------------------------------------------------------------
 Center     Atomic      Atomic             Coordinates (Angstroms)
 Number     Number       Type             X           Y           Z
 ---------------------------------------------------------------------
      1          6           0        0.796980    0.000038   -0.028232
      2          6           0       -0.695310    0.000162   -0.001124
      3          1           0       -1.108293    0.894075   -0.483610
      4          1           0        1.354417   -0.928678    0.049897
      5          1           0       -1.090409   -0.012729    1.030327
      6          1           0       -1.108780   -0.881772   -0.505151
      7          1           0        1.355227    0.928024    0.052172
 ---------------------------------------------------------------------
                    Distance matrix (angstroms):
                    1          2          3          4          5
     1  C    0.000000
     2  C    1.492536   0.000000
     3  H    2.153308   1.096552   0.000000
     4  H    1.085981   2.250940   3.109984   0.000000
     5  H    2.164012   1.104609   1.764828   2.788796   0.000000
     6  H    2.153361   1.096726   1.775978   2.525394   1.764445
     7  H    1.085938   2.251326   2.521338   1.856704   2.796952
                    6          7
     6  H    0.000000
     7  H    3.107620   0.000000
 Stoichiometry    C2H5(2)
 Framework group  C1[X(C2H5)]
 Deg. of freedom    15
 Full point group                 C1      NOp   1
 RotChk:  IX=0 Diff= 9.95D-16
 Largest Abelian subgroup         C1      NOp   1
 Largest concise Abelian subgroup C1      NOp   1
                         Standard orientation:                         
 ---------------------------------------------------------------------
 Center     Atomic      Atomic             Coordinates (Angstroms)
 Number     Number       Type             X           Y           Z
 ---------------------------------------------------------------------
      1          6           0        0.796303   -0.000001   -0.025081
      2          6           0       -0.696027    0.000158   -0.000295
      3          1           0       -1.108255    0.893515   -0.484451
      4          1           0        1.353615   -0.928628    0.054983
      5          1           0       -1.092730   -0.011546    1.030554
      6          1           0       -1.108716   -0.882355   -0.503950
      7          1           0        1.354428    0.928075    0.055124
 ---------------------------------------------------------------------
 Rotational constants (GHZ):         103.1053179          22.6002834          20.9586422
 Leave Link  202 at Wed Oct  7 14:40:08 2020, MaxMem=  2684354560 cpu:               1.0 elap:               0.5
 (Enter /udrive/faculty/rpeverati/g16/g16/l601.exe)
 Copying SCF densities to generalized density rwf, IOpCl= 1 IROHF=0.

 **********************************************************************

            Population analysis using the SCF density.

 **********************************************************************

 Orbital symmetries:
 Alpha Orbitals:
       Occupied  (A) (A) (A) (A) (A) (A) (A) (A) (A)
       Virtual   (A) (A) (A) (A) (A) (A) (A) (A) (A) (A) (A) (A)
                 (A) (A) (A) (A) (A) (A) (A) (A) (A) (A) (A) (A)
                 (A) (A) (A) (A) (A)
 Beta  Orbitals:
       Occupied  (A) (A) (A) (A) (A) (A) (A) (A)
       Virtual   (A) (A) (A) (A) (A) (A) (A) (A) (A) (A) (A) (A)
                 (A) (A) (A) (A) (A) (A) (A) (A) (A) (A) (A) (A)
                 (A) (A) (A) (A) (A) (A)
 The electronic state is 2-A.
 Alpha  occ. eigenvalues --  -10.11895 -10.11169  -0.73047  -0.58729  -0.42794
 Alpha  occ. eigenvalues --   -0.39272  -0.36570  -0.33790  -0.18451
 Alpha virt. eigenvalues --    0.11709   0.13841   0.14645   0.17638   0.22019
 Alpha virt. eigenvalues --    0.25346   0.51526   0.54418   0.55183   0.61632
 Alpha virt. eigenvalues --    0.61937   0.74386   0.79926   0.87912   0.88271
 Alpha virt. eigenvalues --    0.95592   0.95779   0.97551   1.28722   1.45746
 Alpha virt. eigenvalues --    1.64166   1.76337   1.91917   1.99755   2.16326
 Alpha virt. eigenvalues --    2.20684   2.34775   2.47329   2.59618
  Beta  occ. eigenvalues --  -10.11294 -10.10295  -0.71408  -0.56301  -0.42209
  Beta  occ. eigenvalues --   -0.37775  -0.35860  -0.33464
  Beta virt. eigenvalues --   -0.03583   0.12301   0.15107   0.15720   0.18453
  Beta virt. eigenvalues --    0.22772   0.26723   0.52337   0.54887   0.60526
  Beta virt. eigenvalues --    0.64001   0.65928   0.75499   0.82886   0.88867
  Beta virt. eigenvalues --    0.89912   0.97420   0.97477   1.01519   1.29925
  Beta virt. eigenvalues --    1.49328   1.72746   1.78444   1.96373   2.05183
  Beta virt. eigenvalues --    2.22688   2.23880   2.37093   2.51462   2.62918
          Condensed to atoms (all electrons):
               1          2          3          4          5          6
     1  C    5.311196   0.371429  -0.035750   0.380903  -0.045830  -0.036035
     2  C    0.371429   5.063417   0.381716  -0.037713   0.372162   0.381607
     3  H   -0.035750   0.381716   0.549347   0.003614  -0.034571  -0.027859
     4  H    0.380903  -0.037713   0.003614   0.533835   0.000518  -0.004548
     5  H   -0.045830   0.372162  -0.034571   0.000518   0.573413  -0.034773
     6  H   -0.036035   0.381607  -0.027859  -0.004548  -0.034773   0.549751
     7  H    0.380965  -0.037640  -0.004670  -0.035018   0.000623   0.003601
               7
     1  C    0.380965
     2  C   -0.037640
     3  H   -0.004670
     4  H   -0.035018
     5  H    0.000623
     6  H    0.003601
     7  H    0.533581
          Atomic-Atomic Spin Densities.
               1          2          3          4          5          6
     1  C    1.221349  -0.040714  -0.008364  -0.009243  -0.031364  -0.008890
     2  C   -0.040714  -0.084531   0.006702   0.000142   0.015042   0.006974
     3  H   -0.008364   0.006702   0.022009   0.000054  -0.010959   0.004032
     4  H   -0.009243   0.000142   0.000054  -0.048941  -0.000466   0.000648
     5  H   -0.031364   0.015042  -0.010959  -0.000466   0.104886  -0.011381
     6  H   -0.008890   0.006974   0.004032   0.000648  -0.011381   0.023773
     7  H   -0.009245   0.000134   0.000643   0.001870  -0.000464   0.000062
               7
     1  C   -0.009245
     2  C    0.000134
     3  H    0.000643
     4  H    0.001870
     5  H   -0.000464
     6  H    0.000062
     7  H   -0.048969
 Mulliken charges and spin densities:
               1          2
     1  C   -0.326877   1.113529
     2  C   -0.494978  -0.096253
     3  H    0.168173   0.014116
     4  H    0.158410  -0.055935
     5  H    0.168457   0.065295
     6  H    0.168256   0.015217
     7  H    0.158559  -0.055968
 Sum of Mulliken charges =  -0.00000   1.00000
 Mulliken charges and spin densities with hydrogens summed into heavy atoms:
               1          2
     1  C   -0.009908   1.001625
     2  C    0.009908  -0.001625
 Electronic spatial extent (au):  <R**2>=             98.8250
 Charge=             -0.0000 electrons
 Dipole moment (field-independent basis, Debye):
    X=             -0.1993    Y=             -0.0003    Z=              0.1410  Tot=              0.2441
 Quadrupole moment (field-independent basis, Debye-Ang):
   XX=            -13.9194   YY=            -13.3804   ZZ=            -14.8866
   XY=              0.0010   XZ=              0.1843   YZ=              0.0002
 Traceless Quadrupole moment (field-independent basis, Debye-Ang):
   XX=              0.1427   YY=              0.6817   ZZ=             -0.8245
   XY=              0.0010   XZ=              0.1843   YZ=              0.0002
 Octapole moment (field-independent basis, Debye-Ang**2):
  XXX=              0.2992  YYY=              0.0182  ZZZ=              0.6877  XYY=              0.5122
  XXY=              0.0022  XXZ=              0.2348  XZZ=             -1.3344  YZZ=             -0.0171
  YYZ=             -0.4056  XYZ=             -0.0002
 Hexadecapole moment (field-independent basis, Debye-Ang**3):
 XXXX=            -83.4518 YYYY=            -27.1214 ZZZZ=            -21.9974 XXXY=              0.0041
 XXXZ=              0.5267 YYYX=             -0.0218 YYYZ=              0.0006 ZZZX=             -0.3676
 ZZZY=             -0.0003 XXYY=            -16.4078 XXZZ=            -18.0475 YYZZ=             -8.4962
 XXYZ=              0.0012 YYXZ=              0.8356 ZZXY=              0.0209
 N-N= 3.683172512810D+01 E-N=-2.565274596270D+02  KE= 7.867153324136D+01
                          Isotropic Fermi Contact Couplings
        Atom                 a.u.       MegaHertz       Gauss      10(-4) cm-1
     1  C(13)              0.17056     191.74347      68.41884      63.95874
     2  C(13)             -0.03697     -41.56685     -14.83209     -13.86521
     3  H(1)               0.00782      34.96890      12.47777      11.66437
     4  H(1)              -0.01775     -79.35567     -28.31608     -26.47020
     5  H(1)               0.03403     152.10625      54.27529      50.73718
     6  H(1)               0.00843      37.66014      13.43808      12.56207
     7  H(1)              -0.01777     -79.43456     -28.34423     -26.49652
 --------------------------------------------------------
       Center         ----  Spin Dipole Couplings  ----
                      3XX-RR        3YY-RR        3ZZ-RR
 --------------------------------------------------------
     1   Atom       -0.537881     -0.540919      1.078800
     2   Atom        0.008546     -0.010579      0.002033
     3   Atom        0.013450     -0.005423     -0.008028
     4   Atom       -0.033229      0.038106     -0.004877
     5   Atom        0.013173     -0.009799     -0.003374
     6   Atom        0.013518     -0.005445     -0.008073
     7   Atom       -0.033118      0.037971     -0.004853
 --------------------------------------------------------
                        XY            XZ            YZ
 --------------------------------------------------------
     1   Atom       -0.000008     -0.063942     -0.000139
     2   Atom       -0.000043     -0.002349      0.000048
     3   Atom       -0.010121      0.003111     -0.000463
     4   Atom       -0.063750      0.001994     -0.008042
     5   Atom        0.000121     -0.008711     -0.000097
     6   Atom        0.010036      0.003295      0.000541
     7   Atom        0.063836      0.002012      0.008046
 --------------------------------------------------------


 ---------------------------------------------------------------------------------
              Anisotropic Spin Dipole Couplings in Principal Axis System
 ---------------------------------------------------------------------------------

       Atom             a.u.   MegaHertz   Gauss  10(-4) cm-1        Axes

              Baa    -0.5409   -72.586   -25.901   -24.212  0.0263  0.9997  0.0011
     1 C(13)  Bbb    -0.5404   -72.517   -25.876   -24.189  0.9989 -0.0264  0.0394
              Bcc     1.0813   145.104    51.777    48.401 -0.0395 -0.0001  0.9992
 
              Baa    -0.0106    -1.420    -0.507    -0.474  0.0018  1.0000 -0.0035
     2 C(13)  Bbb     0.0013     0.171     0.061     0.057  0.3074  0.0027  0.9516
              Bcc     0.0093     1.249     0.446     0.416  0.9516 -0.0028 -0.3074
 
              Baa    -0.0102    -5.436    -1.940    -1.813  0.4043  0.8192 -0.4067
     3 H(1)   Bbb    -0.0080    -4.277    -1.526    -1.427  0.0655  0.4176  0.9063
              Bcc     0.0182     9.712     3.466     3.240  0.9123 -0.3931  0.1151
 
              Baa    -0.0707   -37.719   -13.459   -12.582  0.8611  0.5072  0.0359
     4 H(1)   Bbb    -0.0056    -2.973    -1.061    -0.992 -0.0803  0.0659  0.9946
              Bcc     0.0763    40.692    14.520    13.573 -0.5021  0.8593 -0.0975
 
              Baa    -0.0098    -5.229    -1.866    -1.744  0.0009  0.9999  0.0162
     5 H(1)   Bbb    -0.0071    -3.795    -1.354    -1.266  0.3946 -0.0153  0.9187
              Bcc     0.0169     9.024     3.220     3.010  0.9189  0.0056 -0.3946
 
              Baa    -0.0102    -5.417    -1.933    -1.807 -0.4027  0.8093  0.4276
     6 H(1)   Bbb    -0.0081    -4.316    -1.540    -1.440  0.0676 -0.4396  0.8957
              Bcc     0.0182     9.733     3.473     3.247  0.9128  0.3896  0.1223
 
              Baa    -0.0707   -37.734   -13.464   -12.587  0.8606 -0.5081  0.0358
     7 H(1)   Bbb    -0.0056    -2.961    -1.057    -0.988 -0.0803 -0.0660  0.9946
              Bcc     0.0763    40.695    14.521    13.574  0.5029  0.8588  0.0977
 

 ---------------------------------------------------------------------------------

 No NMR shielding tensors so no spin-rotation constants.
 Leave Link  601 at Wed Oct  7 14:40:09 2020, MaxMem=  2684354560 cpu:               5.8 elap:               0.9
 (Enter /udrive/faculty/rpeverati/g16/g16/l9999.exe)

 Test job not archived.
 1\1\GINC-NODE38\FOpt\UTPSSh\6-31G(d)\C2H5(2)\RPEVERATI\07-Oct-2020\0\\
 #P Opt(MaxCyc=100) TPSSh/6-31G* 5D 7F Integral=UltraFineGrid SCF=(NoSy
 mm,XQC,MaxCyc=120) IOp(1/33=1,3/174=1000000,3/175=2238200,3/177=045290
 0,3/178=4655000) EmpiricalDispersion=GD3BJ\\TS search on BH76.\\0,2\C,
 0.7969800464,0.0000383957,-0.0282318978\C,-0.6953100646,0.0001624129,-
 0.0011241829\H,-1.1082927831,0.8940750113,-0.4836097207\H,1.3544171819
 ,-0.9286780453,0.0498965776\H,-1.0904090491,-0.0127290046,1.0303267708
 \H,-1.108779593,-0.8817722242,-0.5051510485\H,1.3552271251,0.928024063
 4,0.0521724033\\Version=ES64L-G16RevA.03\State=2-A\HF=-79.167065\S2=0.
 755311\S2-1=0.\S2A=0.750017\RMSD=4.301e-09\RMSF=6.454e-06\Dipole=-0.07
 83097,-0.000166,0.0556029\Quadrupole=0.1065541,0.5068492,-0.6134033,0.
 0005611,0.1358669,0.0014163\PG=C01 [X(C2H5)]\\@


 NOTHING RESEMBLES A NEW PHENOMENON AS MUCH AS A MISTAKE.

                               -- ENRICO FERMI (?)
 Job cpu time:       0 days  0 hours  5 minutes 40.0 seconds.
 Elapsed time:       0 days  0 hours  0 minutes 48.8 seconds.
 File lengths (MBytes):  RWF=      5 Int=      0 D2E=      0 Chk=      1 Scr=      1
 Normal termination of Gaussian 16 at Wed Oct  7 14:40:10 2020.
