 Entering Gaussian System, Link 0=g16
 Input=MN_24_CH3_upper_BH76_TPSShDBJ_631Gs.in
 Output=MN_24_CH3_upper_BH76_TPSShDBJ_631Gs.log
 Initial command:
 /udrive/faculty/rpeverati/g16/g16/l1.exe "/udrive/scratch-directories/gaussian09/rpeverati/Gau-17105.inp" -scrdir="/udrive/scratch-directories/gaussian09/rpeverati/"
 Entering Link 1 = /udrive/faculty/rpeverati/g16/g16/l1.exe PID=     17106.
  
 Copyright (c) 1988,1990,1992,1993,1995,1998,2003,2009,2016,
            Gaussian, Inc.  All Rights Reserved.
  
 This is part of the Gaussian(R) 16 program.  It is based on
 the Gaussian(R) 09 system (copyright 2009, Gaussian, Inc.),
 the Gaussian(R) 03 system (copyright 2003, Gaussian, Inc.),
 the Gaussian(R) 98 system (copyright 1998, Gaussian, Inc.),
 the Gaussian(R) 94 system (copyright 1995, Gaussian, Inc.),
 the Gaussian 92(TM) system (copyright 1992, Gaussian, Inc.),
 the Gaussian 90(TM) system (copyright 1990, Gaussian, Inc.),
 the Gaussian 88(TM) system (copyright 1988, Gaussian, Inc.),
 the Gaussian 86(TM) system (copyright 1986, Carnegie Mellon
 University), and the Gaussian 82(TM) system (copyright 1983,
 Carnegie Mellon University). Gaussian is a federally registered
 trademark of Gaussian, Inc.
  
 This software contains proprietary and confidential information,
 including trade secrets, belonging to Gaussian, Inc.
  
 This software is provided under written license and may be
 used, copied, transmitted, or stored only in accord with that
 written license.
  
 The following legend is applicable only to US Government
 contracts under FAR:
  
                    RESTRICTED RIGHTS LEGEND
  
 Use, reproduction and disclosure by the US Government is
 subject to restrictions as set forth in subparagraphs (a)
 and (c) of the Commercial Computer Software - Restricted
 Rights clause in FAR 52.227-19.
  
 Gaussian, Inc.
 340 Quinnipiac St., Bldg. 40, Wallingford CT 06492
  
  
 ---------------------------------------------------------------
 Warning -- This program may not be used in any manner that
 competes with the business of Gaussian, Inc. or will provide
 assistance to any competitor of Gaussian, Inc.  The licensee
 of this program is prohibited from giving any competitor of
 Gaussian, Inc. access to this program.  By using this program,
 the user acknowledges that Gaussian, Inc. is engaged in the
 business of creating and licensing software in the field of
 computational chemistry and represents and warrants to the
 licensee that it is not a competitor of Gaussian, Inc. and that
 it will not use this program in any manner prohibited above.
 ---------------------------------------------------------------
  

 Cite this work as:
 Gaussian 16, Revision A.03,
 M. J. Frisch, G. W. Trucks, H. B. Schlegel, G. E. Scuseria, 
 M. A. Robb, J. R. Cheeseman, G. Scalmani, V. Barone, 
 G. A. Petersson, H. Nakatsuji, X. Li, M. Caricato, A. V. Marenich, 
 J. Bloino, B. G. Janesko, R. Gomperts, B. Mennucci, H. P. Hratchian, 
 J. V. Ortiz, A. F. Izmaylov, J. L. Sonnenberg, D. Williams-Young, 
 F. Ding, F. Lipparini, F. Egidi, J. Goings, B. Peng, A. Petrone, 
 T. Henderson, D. Ranasinghe, V. G. Zakrzewski, J. Gao, N. Rega, 
 G. Zheng, W. Liang, M. Hada, M. Ehara, K. Toyota, R. Fukuda, 
 J. Hasegawa, M. Ishida, T. Nakajima, Y. Honda, O. Kitao, H. Nakai, 
 T. Vreven, K. Throssell, J. A. Montgomery, Jr., J. E. Peralta, 
 F. Ogliaro, M. J. Bearpark, J. J. Heyd, E. N. Brothers, K. N. Kudin, 
 V. N. Staroverov, T. A. Keith, R. Kobayashi, J. Normand, 
 K. Raghavachari, A. P. Rendell, J. C. Burant, S. S. Iyengar, 
 J. Tomasi, M. Cossi, J. M. Millam, M. Klene, C. Adamo, R. Cammi, 
 J. W. Ochterski, R. L. Martin, K. Morokuma, O. Farkas, 
 J. B. Foresman, and D. J. Fox, Gaussian, Inc., Wallingford CT, 2016.
 
 ******************************************
 Gaussian 16:  ES64L-G16RevA.03 25-Dec-2016
                 7-Oct-2020 
 ******************************************
 %NoSave
 %nproc=12
 Will use up to   12 processors via shared memory.
 %mem=20GB
 %chk=MN_24_CH3_upper_BH76_TPSShDBJ_631Gs
 ----------------------------------------------------------------------
 #P Opt(MaxCyc=100) TPSSh/6-31G* 5D 7F Integral=UltraFineGrid SCF=(NoSy
 mm,XQC,MaxCyc=120) IOp(1/33=1,3/174=1000000,3/175=2238200,3/177=045290
 0,3/178=4655000) EmpiricalDispersion=GD3BJ
 ----------------------------------------------------------------------
 1/6=100,18=20,19=15,26=4,33=1,38=1/1,3;
 2/9=110,12=2,17=6,18=5,40=1/2;
 3/5=1,6=6,7=1,8=11,11=2,25=1,30=1,71=1,74=-35,75=-5,124=41,174=1000000,175=2238200,177=452900,178=4655000/1,2,3;
 4/9=2/1;
 5/5=2,7=120,8=3,13=1,38=5/2,8;
 6/7=2,8=2,9=2,10=2,28=1/1;
 7//1,2,3,16;
 1/6=100,18=20,19=15,26=4,33=1/3(2);
 2/9=110/2;
 99//99;
 2/9=110/2;
 3/5=1,6=6,7=1,8=11,11=2,25=1,30=1,71=1,74=-35,75=-5,124=41,174=1000000,175=2238200,177=452900,178=4655000/1,2,3;
 4/5=5,9=2,16=3,69=1/1;
 5/5=2,7=120,8=3,13=1,38=5/2,8;
 7//1,2,3,16;
 1/6=100,18=20,19=15,26=4,33=1/3(-5);
 2/9=110/2;
 6/7=2,8=2,9=2,10=2,19=2,28=1/1;
 99/9=1/99;
 Leave Link    1 at Wed Oct  7 14:40:10 2020, MaxMem=  2684354560 cpu:               7.5 elap:               0.8
 (Enter /udrive/faculty/rpeverati/g16/g16/l101.exe)
 ONIOM data not found on unit 2.
 ------------------
 TS search on BH76.
 ------------------
 TstMul:  ICh=     0
 TstMul:  Mul=     2
 TstMul:  ICh=     0
 TstMul:  Mul=     2
 Symbolic Z-matrix:
 Charge =  0 Multiplicity = 2
 C                     0.        0.        0. 
 H                     0.53866   0.93298   0. 
 H                     0.53866  -0.93298   0. 
 H                    -1.07732   0.        0. 
 
 RdStrC is calling ZToCFu for IStruc=1 NZ=     4.
 PrtBox:  NBox=     1 Levels=  1 BoxLen=    8.00 SMaxX=        3.53
          Shift=            2.035833            1.763083            0.000000
 Box      1 Number                   0 centers from      1 to      4:
 After GenITR:
 ITRead=  0  0  0  0
 MicOpt= -1 -1 -1 -1
 ITRead=  0  0  0  0
 MicOpt= -1 -1 -1 -1
 NAtoms=      4 NQM=        4 NQMF=       0 NMMI=      0 NMMIF=      0
                NMic=       0 NMicF=      0.
                    Isotopes and Nuclear Properties:
 (Nuclear quadrupole moments (NQMom) in fm**2, nuclear magnetic moments (NMagM)
  in nuclear magnetons)

  Atom         1           2           3           4
 IAtWgt=          12           1           1           1
 AtmWgt=  12.0000000   1.0078250   1.0078250   1.0078250
 NucSpn=           0           1           1           1
 AtZEff=   0.0000000   0.0000000   0.0000000   0.0000000
 NQMom=    0.0000000   0.0000000   0.0000000   0.0000000
 NMagM=    0.0000000   2.7928460   2.7928460   2.7928460
 AtZNuc=   6.0000000   1.0000000   1.0000000   1.0000000
 No MM parameters found.
 Leave Link  101 at Wed Oct  7 14:40:12 2020, MaxMem=  2684354560 cpu:              13.6 elap:               1.6
 (Enter /udrive/faculty/rpeverati/g16/g16/l103.exe)

 GradGradGradGradGradGradGradGradGradGradGradGradGradGradGradGradGradGrad
 Berny optimization.
 Optmz: redundant internal coordinate code flag= 1
 Initialization pass.
                           ----------------------------
                           !    Initial Parameters    !
                           ! (Angstroms and Degrees)  !
 --------------------------                            --------------------------
 ! Name  Definition              Value          Derivative Info.                !
 --------------------------------------------------------------------------------
 ! R1    R(1,2)                  1.0773         estimate D2E/DX2                !
 ! R2    R(1,3)                  1.0773         estimate D2E/DX2                !
 ! R3    R(1,4)                  1.0773         estimate D2E/DX2                !
 ! A1    A(2,1,3)              120.0            estimate D2E/DX2                !
 ! A2    A(2,1,4)              120.0            estimate D2E/DX2                !
 ! A3    A(3,1,4)              120.0            estimate D2E/DX2                !
 ! D1    D(2,1,4,3)            180.0            estimate D2E/DX2                !
 --------------------------------------------------------------------------------
 Maximum allowed force set to 1.00D+20.
 Trust Radius=3.00D-01 FncErr=1.00D-07 GrdErr=1.00D-06 EigMax=2.50D+02 EigMin=1.00D-04
 Number of steps in this run=    100 maximum allowed number of steps=    100.
 GradGradGradGradGradGradGradGradGradGradGradGradGradGradGradGradGradGrad

 Leave Link  103 at Wed Oct  7 14:40:13 2020, MaxMem=  2684354560 cpu:               0.5 elap:               0.3
 (Enter /udrive/faculty/rpeverati/g16/g16/l202.exe)
                          Input orientation:                          
 ---------------------------------------------------------------------
 Center     Atomic      Atomic             Coordinates (Angstroms)
 Number     Number       Type             X           Y           Z
 ---------------------------------------------------------------------
      1          6           0        0.000000    0.000000    0.000000
      2          1           0        0.538658    0.932983    0.000000
      3          1           0        0.538658   -0.932983    0.000000
      4          1           0       -1.077316    0.000000    0.000000
 ---------------------------------------------------------------------
                    Distance matrix (angstroms):
                    1          2          3          4
     1  C    0.000000
     2  H    1.077316   0.000000
     3  H    1.077316   1.865966   0.000000
     4  H    1.077316   1.865966   1.865966   0.000000
 Stoichiometry    CH3(2)
 Framework group  D3H[O(C),3C2(H)]
 Deg. of freedom     1
 Full point group                 D3H     NOp  12
 Largest Abelian subgroup         C2V     NOp   4
 Largest concise Abelian subgroup C2      NOp   2
                         Standard orientation:                         
 ---------------------------------------------------------------------
 Center     Atomic      Atomic             Coordinates (Angstroms)
 Number     Number       Type             X           Y           Z
 ---------------------------------------------------------------------
      1          6           0        0.000000    0.000000    0.000000
      2          1           0        0.000000    1.077316    0.000000
      3          1           0        0.932983   -0.538658    0.000000
      4          1           0       -0.932983   -0.538658    0.000000
 ---------------------------------------------------------------------
 Rotational constants (GHZ):         288.0410898         288.0410898         144.0205449
 Leave Link  202 at Wed Oct  7 14:40:13 2020, MaxMem=  2684354560 cpu:               0.6 elap:               0.3
 (Enter /udrive/faculty/rpeverati/g16/g16/l301.exe)
 Standard basis: 6-31G(d) (5D, 7F)
 Ernie: Thresh=  0.10000D-02 Tol=  0.10000D-05 Strict=F.
 There are    12 symmetry adapted cartesian basis functions of A1  symmetry.
 There are     1 symmetry adapted cartesian basis functions of A2  symmetry.
 There are     5 symmetry adapted cartesian basis functions of B1  symmetry.
 There are     3 symmetry adapted cartesian basis functions of B2  symmetry.
 There are    11 symmetry adapted basis functions of A1  symmetry.
 There are     1 symmetry adapted basis functions of A2  symmetry.
 There are     5 symmetry adapted basis functions of B1  symmetry.
 There are     3 symmetry adapted basis functions of B2  symmetry.
    20 basis functions,    40 primitive gaussians,    21 cartesian basis functions
     5 alpha electrons        4 beta electrons
       nuclear repulsion energy         9.6923744034 Hartrees.
 IExCor= 2523 DFT=T Ex+Corr=TPSSh ExCW=0 ScaHFX=  0.100000
 ScaDFX=  0.900000  0.900000  1.000000  1.000000 ScalE2=  1.000000  1.000000
 IRadAn=      5 IRanWt=     -1 IRanGd=            0 ICorTp=0 IEmpDi=141
 NAtoms=    4 NActive=    4 NUniq=    2 SFac= 4.00D+00 NAtFMM=   60 NAOKFM=F Big=F
 Integral buffers will be    131072 words long.
 Raffenetti 2 integral format.
 Two-electron integral symmetry is turned on.
 R6DIni: Non-standard D2/D3 S6 parameter, value=     1.000000
 R6DIni: Non-standard D2/D3 S8 parameter, value=     2.238200
 R6DIni: Non-standard D3BJ A1 parameter, value=     0.452900
 R6DIni: Non-standard D3BJ A2 parameter, value=     4.655000
 R6Disp:  Grimme-D3(BJ) Dispersion energy=       -0.0008876260 Hartrees.
 Nuclear repulsion after empirical dispersion term =        9.6914867774 Hartrees.
 Leave Link  301 at Wed Oct  7 14:40:14 2020, MaxMem=  2684354560 cpu:               1.6 elap:               0.5
 (Enter /udrive/faculty/rpeverati/g16/g16/l302.exe)
 NPDir=0 NMtPBC=     1 NCelOv=     1 NCel=       1 NClECP=     1 NCelD=      1
         NCelK=      1 NCelE2=     1 NClLst=     1 CellRange=     0.0.
 One-electron integrals computed using PRISM.
 One-electron integral symmetry used in STVInt
 NBasis=    20 RedAO= T EigKep=  3.12D-02  NBF=    11     1     5     3
 NBsUse=    20 1.00D-06 EigRej= -1.00D+00 NBFU=    11     1     5     3
 Precomputing XC quadrature grid using
 IXCGrd= 4 IRadAn=           5 IRanWt=          -1 IRanGd=           0 AccXCQ= 0.00D+00.
 Generated NRdTot=       0 NPtTot=           0 NUsed=           0 NTot=          32
 NSgBfM=    21    21    21    21    21 MxSgAt=     4 MxSgA2=     4.
 Leave Link  302 at Wed Oct  7 14:40:15 2020, MaxMem=  2684354560 cpu:               3.6 elap:               0.6
 (Enter /udrive/faculty/rpeverati/g16/g16/l303.exe)
 DipDrv:  MaxL=1.
 Leave Link  303 at Wed Oct  7 14:40:15 2020, MaxMem=  2684354560 cpu:               1.3 elap:               0.4
 (Enter /udrive/faculty/rpeverati/g16/g16/l401.exe)
 SCF N**3 symmetry information disabled.
 ExpMin= 1.61D-01 ExpMax= 3.05D+03 ExpMxC= 4.57D+02 IAcc=3 IRadAn=         5 AccDes= 0.00D+00
 Harris functional with IExCor= 1009 and IRadAn=       5 diagonalized for initial guess.
 HarFok:  IExCor= 1009 AccDes= 0.00D+00 IRadAn=         5 IDoV= 1 UseB2=F ITyADJ=14
 ICtDFT=  3500011 ScaDFX=  1.000000  1.000000  1.000000  1.000000
 FoFCou: FMM=F IPFlag=           0 FMFlag=      100000 FMFlg1=           0
         NFxFlg=           0 DoJE=T BraDBF=F KetDBF=T FulRan=T
         wScrn=  0.000000 ICntrl=       500 IOpCl=  0 I1Cent=   200000004 NGrid=           0
         NMat0=    1 NMatS0=      1 NMatT0=    0 NMatD0=    1 NMtDS0=    0 NMtDT0=    0
 Petite list used in FoFCou.
 Harris En= -39.7851255425861    
 JPrj=0 DoOrth=F DoCkMO=F.
 Initial guess orbital symmetries:
 Alpha Orbitals:
       Occupied  (A1') (A1') (E') (E') (A2")
       Virtual   (A1') (E') (E') (E') (E') (A2") (A1') (E') (E')
                 (A1') (E") (E") (A1') (E') (E')
 Beta  Orbitals:
       Occupied  (A1') (A1') (E') (E')
       Virtual   (A2") (A1') (E') (E') (E') (E') (A2") (A1') (E')
                 (E') (A1') (E") (E") (A1') (E') (E')
 The electronic state of the initial guess is 2-A2".
 Initial guess <Sx>= 0.0000 <Sy>= 0.0000 <Sz>= 0.5000 <S**2>= 0.7500 S= 0.5000
 Leave Link  401 at Wed Oct  7 14:40:16 2020, MaxMem=  2684354560 cpu:               4.1 elap:               0.6
 (Enter /udrive/faculty/rpeverati/g16/g16/l502.exe)
 Keep R1 and R2 ints in memory in symmetry-blocked form, NReq=10374516.
 FoFCou: FMM=F IPFlag=           0 FMFlag=           0 FMFlg1=           0
         NFxFlg=           0 DoJE=F BraDBF=F KetDBF=F FulRan=T
         wScrn=  0.000000 ICntrl=       600 IOpCl=  0 I1Cent=           0 NGrid=           0
         NMat0=    1 NMatS0=    210 NMatT0=    0 NMatD0=    1 NMtDS0=    0 NMtDT0=    0
 Petite list used in FoFCou.
 UHF open shell SCF:
 Using DIIS extrapolation, IDIIS=  1040.
 NGot=  2684354560 LenX=  2684338255 LenY=  2684337373
 Requested convergence on RMS density matrix=1.00D-08 within 120 cycles.
 Requested convergence on MAX density matrix=1.00D-06.
 Requested convergence on             energy=1.00D-06.
 No special actions if energy rises.
 Integral accuracy reduced to 1.0D-05 until final iterations.

 Cycle   1  Pass 0  IDiag  1:
 E= -39.8010726338367    
 DIIS: error= 5.24D-02 at cycle   1 NSaved=   1.
 NSaved= 1 IEnMin= 1 EnMin= -39.8010726338367     IErMin= 1 ErrMin= 5.24D-02
 ErrMax= 5.24D-02  0.00D+00 EMaxC= 1.00D-01 BMatC= 1.38D-01 BMatP= 1.38D-01
 IDIUse=3 WtCom= 4.76D-01 WtEn= 5.24D-01
 Coeff-Com:  0.100D+01
 Coeff-En:   0.100D+01
 Coeff:      0.100D+01
 Gap=     0.264 Goal=   None    Shift=    0.000
 Gap=     0.361 Goal=   None    Shift=    0.000
 GapD=    0.264 DampG=1.000 DampE=0.500 DampFc=0.5000 IDamp=-1.
 Damping current iteration by 5.00D-01
 RMSDP=1.65D-02 MaxDP=1.41D-01              OVMax= 1.40D-01

 Cycle   2  Pass 0  IDiag  1:
 E= -39.8218184681874     Delta-E=       -0.020745834351 Rises=F Damp=T
 DIIS: error= 9.80D-03 at cycle   2 NSaved=   2.
 NSaved= 2 IEnMin= 2 EnMin= -39.8218184681874     IErMin= 2 ErrMin= 9.80D-03
 ErrMax= 9.80D-03  0.00D+00 EMaxC= 1.00D-01 BMatC= 4.46D-03 BMatP= 1.38D-01
 IDIUse=3 WtCom= 9.02D-01 WtEn= 9.80D-02
 Coeff-Com: -0.181D-01 0.102D+01
 Coeff-En:   0.000D+00 0.100D+01
 Coeff:     -0.164D-01 0.102D+01
 Gap=     0.322 Goal=   None    Shift=    0.000
 Gap=     0.338 Goal=   None    Shift=    0.000
 RMSDP=1.84D-03 MaxDP=1.64D-02 DE=-2.07D-02 OVMax= 6.53D-02

 Cycle   3  Pass 0  IDiag  1:
 E= -39.8425259302341     Delta-E=       -0.020707462047 Rises=F Damp=F
 DIIS: error= 1.61D-03 at cycle   3 NSaved=   3.
 NSaved= 3 IEnMin= 3 EnMin= -39.8425259302341     IErMin= 3 ErrMin= 1.61D-03
 ErrMax= 1.61D-03  0.00D+00 EMaxC= 1.00D-01 BMatC= 1.22D-04 BMatP= 4.46D-03
 IDIUse=3 WtCom= 9.84D-01 WtEn= 1.61D-02
 Coeff-Com: -0.958D-02-0.452D-01 0.105D+01
 Coeff-En:   0.000D+00 0.000D+00 0.100D+01
 Coeff:     -0.943D-02-0.444D-01 0.105D+01
 Gap=     0.326 Goal=   None    Shift=    0.000
 Gap=     0.342 Goal=   None    Shift=    0.000
 RMSDP=4.05D-04 MaxDP=3.39D-03 DE=-2.07D-02 OVMax= 4.07D-03

 Cycle   4  Pass 0  IDiag  1:
 E= -39.8426018322211     Delta-E=       -0.000075901987 Rises=F Damp=F
 DIIS: error= 5.43D-04 at cycle   4 NSaved=   4.
 NSaved= 4 IEnMin= 4 EnMin= -39.8426018322211     IErMin= 4 ErrMin= 5.43D-04
 ErrMax= 5.43D-04  0.00D+00 EMaxC= 1.00D-01 BMatC= 1.38D-05 BMatP= 1.22D-04
 IDIUse=3 WtCom= 9.95D-01 WtEn= 5.43D-03
 Coeff-Com:  0.162D-02 0.660D-02-0.437D+00 0.143D+01
 Coeff-En:   0.000D+00 0.000D+00 0.000D+00 0.100D+01
 Coeff:      0.161D-02 0.657D-02-0.435D+00 0.143D+01
 Gap=     0.327 Goal=   None    Shift=    0.000
 Gap=     0.342 Goal=   None    Shift=    0.000
 RMSDP=1.99D-04 MaxDP=1.46D-03 DE=-7.59D-05 OVMax= 1.86D-03

 Cycle   5  Pass 0  IDiag  1:
 E= -39.8426125653760     Delta-E=       -0.000010733155 Rises=F Damp=F
 DIIS: error= 7.47D-05 at cycle   5 NSaved=   5.
 NSaved= 5 IEnMin= 5 EnMin= -39.8426125653760     IErMin= 5 ErrMin= 7.47D-05
 ErrMax= 7.47D-05  0.00D+00 EMaxC= 1.00D-01 BMatC= 3.63D-07 BMatP= 1.38D-05
 IDIUse=1 WtCom= 1.00D+00 WtEn= 0.00D+00
 Coeff-Com:  0.264D-03 0.141D-02 0.394D-01-0.289D+00 0.125D+01
 Coeff:      0.264D-03 0.141D-02 0.394D-01-0.289D+00 0.125D+01
 Gap=     0.327 Goal=   None    Shift=    0.000
 Gap=     0.342 Goal=   None    Shift=    0.000
 RMSDP=3.53D-05 MaxDP=2.61D-04 DE=-1.07D-05 OVMax= 3.21D-04

 Cycle   6  Pass 0  IDiag  1:
 E= -39.8426128244198     Delta-E=       -0.000000259044 Rises=F Damp=F
 DIIS: error= 5.09D-06 at cycle   6 NSaved=   6.
 NSaved= 6 IEnMin= 6 EnMin= -39.8426128244198     IErMin= 6 ErrMin= 5.09D-06
 ErrMax= 5.09D-06  0.00D+00 EMaxC= 1.00D-01 BMatC= 1.17D-09 BMatP= 3.63D-07
 IDIUse=1 WtCom= 1.00D+00 WtEn= 0.00D+00
 Coeff-Com: -0.763D-06-0.219D-03 0.521D-02-0.115D-01-0.335D-01 0.104D+01
 Coeff:     -0.763D-06-0.219D-03 0.521D-02-0.115D-01-0.335D-01 0.104D+01
 Gap=     0.327 Goal=   None    Shift=    0.000
 Gap=     0.342 Goal=   None    Shift=    0.000
 RMSDP=1.84D-06 MaxDP=1.65D-05 DE=-2.59D-07 OVMax= 1.61D-05

 Initial convergence to 1.0D-05 achieved.  Increase integral accuracy.
 Cycle   7  Pass 1  IDiag  1:
 E= -39.8426130961781     Delta-E=       -0.000000271758 Rises=F Damp=F
 DIIS: error= 5.22D-06 at cycle   1 NSaved=   1.
 NSaved= 1 IEnMin= 1 EnMin= -39.8426130961781     IErMin= 1 ErrMin= 5.22D-06
 ErrMax= 5.22D-06  0.00D+00 EMaxC= 1.00D-01 BMatC= 9.05D-10 BMatP= 9.05D-10
 IDIUse=1 WtCom= 1.00D+00 WtEn= 0.00D+00
 Coeff-Com:  0.100D+01
 Coeff:      0.100D+01
 Gap=     0.327 Goal=   None    Shift=    0.000
 Gap=     0.342 Goal=   None    Shift=    0.000
 RMSDP=1.84D-06 MaxDP=1.65D-05 DE=-2.72D-07 OVMax= 5.44D-06

 Cycle   8  Pass 1  IDiag  1:
 E= -39.8426130963941     Delta-E=       -0.000000000216 Rises=F Damp=F
 DIIS: error= 6.73D-07 at cycle   2 NSaved=   2.
 NSaved= 2 IEnMin= 2 EnMin= -39.8426130963941     IErMin= 2 ErrMin= 6.73D-07
 ErrMax= 6.73D-07  0.00D+00 EMaxC= 1.00D-01 BMatC= 2.53D-11 BMatP= 9.05D-10
 IDIUse=1 WtCom= 1.00D+00 WtEn= 0.00D+00
 Coeff-Com: -0.337D-01 0.103D+01
 Coeff:     -0.337D-01 0.103D+01
 Gap=     0.327 Goal=   None    Shift=    0.000
 Gap=     0.342 Goal=   None    Shift=    0.000
 RMSDP=2.17D-07 MaxDP=2.24D-06 DE=-2.16D-10 OVMax= 1.76D-06

 Cycle   9  Pass 1  IDiag  1:
 E= -39.8426130963974     Delta-E=       -0.000000000003 Rises=F Damp=F
 DIIS: error= 5.69D-07 at cycle   3 NSaved=   3.
 NSaved= 3 IEnMin= 3 EnMin= -39.8426130963974     IErMin= 3 ErrMin= 5.69D-07
 ErrMax= 5.69D-07  0.00D+00 EMaxC= 1.00D-01 BMatC= 1.82D-11 BMatP= 2.53D-11
 IDIUse=1 WtCom= 1.00D+00 WtEn= 0.00D+00
 Coeff-Com: -0.513D-01 0.484D+00 0.567D+00
 Coeff:     -0.513D-01 0.484D+00 0.567D+00
 Gap=     0.327 Goal=   None    Shift=    0.000
 Gap=     0.342 Goal=   None    Shift=    0.000
 RMSDP=9.70D-08 MaxDP=9.53D-07 DE=-3.29D-12 OVMax= 8.29D-07

 Cycle  10  Pass 1  IDiag  1:
 E= -39.8426130964026     Delta-E=       -0.000000000005 Rises=F Damp=F
 DIIS: error= 4.74D-08 at cycle   4 NSaved=   4.
 NSaved= 4 IEnMin= 4 EnMin= -39.8426130964026     IErMin= 4 ErrMin= 4.74D-08
 ErrMax= 4.74D-08  0.00D+00 EMaxC= 1.00D-01 BMatC= 1.14D-13 BMatP= 1.82D-11
 IDIUse=1 WtCom= 1.00D+00 WtEn= 0.00D+00
 Coeff-Com:  0.728D-03-0.334D-01 0.243D-01 0.101D+01
 Coeff:      0.728D-03-0.334D-01 0.243D-01 0.101D+01
 Gap=     0.327 Goal=   None    Shift=    0.000
 Gap=     0.342 Goal=   None    Shift=    0.000
 RMSDP=1.01D-08 MaxDP=6.74D-08 DE=-5.22D-12 OVMax= 1.10D-07

 Cycle  11  Pass 1  IDiag  1:
 E= -39.8426130964026     Delta-E=        0.000000000000 Rises=F Damp=F
 DIIS: error= 1.07D-08 at cycle   5 NSaved=   5.
 NSaved= 5 IEnMin= 4 EnMin= -39.8426130964026     IErMin= 5 ErrMin= 1.07D-08
 ErrMax= 1.07D-08  0.00D+00 EMaxC= 1.00D-01 BMatC= 6.61D-15 BMatP= 1.14D-13
 IDIUse=1 WtCom= 1.00D+00 WtEn= 0.00D+00
 Coeff-Com:  0.147D-02-0.505D-02-0.206D-01-0.324D+00 0.135D+01
 Coeff:      0.147D-02-0.505D-02-0.206D-01-0.324D+00 0.135D+01
 Gap=     0.327 Goal=   None    Shift=    0.000
 Gap=     0.342 Goal=   None    Shift=    0.000
 RMSDP=4.23D-09 MaxDP=2.75D-08 DE= 2.84D-14 OVMax= 3.80D-08

 SCF Done:  E(UTPSSh) =  -39.8426130964     A.U. after   11 cycles
            NFock= 11  Conv=0.42D-08     -V/T= 2.0051
 <Sx>= 0.0000 <Sy>= 0.0000 <Sz>= 0.5000 <S**2>= 0.7552 S= 0.5026
 <L.S>= 0.000000000000E+00
 KE= 3.964077473348D+01 PE=-1.113482447398D+02 EE= 2.217337013249D+01
 Annihilation of the first spin contaminant:
 S**2 before annihilation     0.7552,   after     0.7500
 Leave Link  502 at Wed Oct  7 14:40:18 2020, MaxMem=  2684354560 cpu:              10.9 elap:               1.2
 (Enter /udrive/faculty/rpeverati/g16/g16/l508.exe)
 QCSCF skips out because SCF is already converged.
 Leave Link  508 at Wed Oct  7 14:40:18 2020, MaxMem=  2684354560 cpu:               0.4 elap:               0.3
 (Enter /udrive/faculty/rpeverati/g16/g16/l601.exe)
 Copying SCF densities to generalized density rwf, IOpCl= 1 IROHF=0.

 **********************************************************************

            Population analysis using the SCF density.

 **********************************************************************

 Orbital symmetries:
 Alpha Orbitals:
       Occupied  (A1') (A1') (E') (E') (A2")
       Virtual   (A1') (E') (E') (A2") (E') (E') (A1') (E') (E')
                 (A1') (E") (E") (A1') (E') (E')
 Beta  Orbitals:
       Occupied  (A1') (A1') (E') (E')
       Virtual   (A2") (A1') (E') (E') (E') (E') (A2") (A1') (E')
                 (E') (A1') (E") (E") (A1') (E') (E')
 The electronic state is 2-A2".
 Alpha  occ. eigenvalues --  -10.12171  -0.66524  -0.39899  -0.39899  -0.21186
 Alpha virt. eigenvalues --    0.11526   0.18286   0.18286   0.53597   0.54769
 Alpha virt. eigenvalues --    0.54769   0.69118   0.92573   0.92573   0.97045
 Alpha virt. eigenvalues --    1.63878   1.63878   2.02221   2.21173   2.21173
  Beta  occ. eigenvalues --  -10.10539  -0.62402  -0.39094  -0.39094
  Beta virt. eigenvalues --   -0.04850   0.13895   0.19478   0.19478   0.56151
  Beta virt. eigenvalues --    0.56151   0.62835   0.73291   0.96396   0.96396
  Beta virt. eigenvalues --    1.03221   1.74269   1.74269   2.14308   2.28952
  Beta virt. eigenvalues --    2.28952
          Condensed to atoms (all electrons):
               1          2          3          4
     1  C    5.379178   0.380563   0.380563   0.380563
     2  H    0.380563   0.504075  -0.029131  -0.029131
     3  H    0.380563  -0.029131   0.504075  -0.029131
     4  H    0.380563  -0.029131  -0.029131   0.504075
          Atomic-Atomic Spin Densities.
               1          2          3          4
     1  C    1.206793  -0.010935  -0.010935  -0.010935
     2  H   -0.010935  -0.049272   0.001105   0.001105
     3  H   -0.010935   0.001105  -0.049272   0.001105
     4  H   -0.010935   0.001105   0.001105  -0.049272
 Mulliken charges and spin densities:
               1          2
     1  C   -0.520868   1.173989
     2  H    0.173623  -0.057996
     3  H    0.173623  -0.057996
     4  H    0.173623  -0.057996
 Sum of Mulliken charges =   0.00000   1.00000
 Mulliken charges and spin densities with hydrogens summed into heavy atoms:
               1          2
     1  C    0.000000   1.000000
 Electronic spatial extent (au):  <R**2>=             29.2251
 Charge=              0.0000 electrons
 Dipole moment (field-independent basis, Debye):
    X=             -0.0000    Y=             -0.0000    Z=             -0.0000  Tot=              0.0000
 Quadrupole moment (field-independent basis, Debye-Ang):
   XX=             -6.9866   YY=             -6.9866   ZZ=             -8.6116
   XY=             -0.0000   XZ=             -0.0000   YZ=             -0.0000
 Traceless Quadrupole moment (field-independent basis, Debye-Ang):
   XX=              0.5417   YY=              0.5417   ZZ=             -1.0834
   XY=             -0.0000   XZ=             -0.0000   YZ=             -0.0000
 Octapole moment (field-independent basis, Debye-Ang**2):
  XXX=              0.0000  YYY=              0.8019  ZZZ=             -0.0000  XYY=              0.0000
  XXY=             -0.8019  XXZ=             -0.0000  XZZ=              0.0000  YZZ=              0.0000
  YYZ=             -0.0000  XYZ=              0.0000
 Hexadecapole moment (field-independent basis, Debye-Ang**3):
 XXXX=            -13.6868 YYYY=            -13.6868 ZZZZ=             -8.9219 XXXY=              0.0000
 XXXZ=             -0.0000 YYYX=              0.0000 YYYZ=             -0.0000 ZZZX=             -0.0000
 ZZZY=             -0.0000 XXYY=             -4.5623 XXZZ=             -4.0988 YYZZ=             -4.0988
 XXYZ=              0.0000 YYXZ=             -0.0000 ZZXY=              0.0000
 N-N= 9.691486777388D+00 E-N=-1.113482446920D+02  KE= 3.964077473348D+01
                          Isotropic Fermi Contact Couplings
        Atom                 a.u.       MegaHertz       Gauss      10(-4) cm-1
     1  C(13)              0.16208     182.21020      65.01713      60.77878
     2  H(1)              -0.01911     -85.40765     -30.47557     -28.48892
     3  H(1)              -0.01911     -85.40765     -30.47557     -28.48892
     4  H(1)              -0.01911     -85.40765     -30.47557     -28.48892
 --------------------------------------------------------
       Center         ----  Spin Dipole Couplings  ----
                      3XX-RR        3YY-RR        3ZZ-RR
 --------------------------------------------------------
     1   Atom       -0.550341     -0.550341      1.100683
     2   Atom       -0.073864      0.079068     -0.005204
     3   Atom        0.040835     -0.035631     -0.005204
     4   Atom        0.040835     -0.035631     -0.005204
 --------------------------------------------------------
                        XY            XZ            YZ
 --------------------------------------------------------
     1   Atom       -0.000000      0.000000      0.000000
     2   Atom       -0.000000      0.000000      0.000000
     3   Atom       -0.066221      0.000000      0.000000
     4   Atom        0.066221      0.000000      0.000000
 --------------------------------------------------------


 ---------------------------------------------------------------------------------
              Anisotropic Spin Dipole Couplings in Principal Axis System
 ---------------------------------------------------------------------------------

       Atom             a.u.   MegaHertz   Gauss  10(-4) cm-1        Axes

              Baa    -0.5503   -73.851   -26.352   -24.634  0.9738  0.2273  0.0000
     1 C(13)  Bbb    -0.5503   -73.851   -26.352   -24.634 -0.2273  0.9738  0.0000
              Bcc     1.1007   147.701    52.703    49.268  0.0000  0.0000  1.0000
 
              Baa    -0.0739   -39.410   -14.063   -13.146  1.0000  0.0000  0.0000
     2 H(1)   Bbb    -0.0052    -2.777    -0.991    -0.926  0.0000  0.0000  1.0000
              Bcc     0.0791    42.187    15.053    14.072 -0.0000  1.0000  0.0000
 
              Baa    -0.0739   -39.410   -14.063   -13.146  0.5000  0.8660  0.0000
     3 H(1)   Bbb    -0.0052    -2.777    -0.991    -0.926  0.0000  0.0000  1.0000
              Bcc     0.0791    42.187    15.053    14.072  0.8660 -0.5000  0.0000
 
              Baa    -0.0739   -39.410   -14.063   -13.146 -0.5000  0.8660  0.0000
     4 H(1)   Bbb    -0.0052    -2.777    -0.991    -0.926  0.0000  0.0000  1.0000
              Bcc     0.0791    42.187    15.053    14.072  0.8660  0.5000  0.0000
 

 ---------------------------------------------------------------------------------

 No NMR shielding tensors so no spin-rotation constants.
 Leave Link  601 at Wed Oct  7 14:40:19 2020, MaxMem=  2684354560 cpu:               4.9 elap:               0.7
 (Enter /udrive/faculty/rpeverati/g16/g16/l701.exe)
 ... and contract with generalized density number  0.
 Compute integral first derivatives.
 R6Disp: Adding Grimme-D3(BJ) dispersion energy 1st derivatives to the gradient.
 Leave Link  701 at Wed Oct  7 14:40:20 2020, MaxMem=  2684354560 cpu:               3.2 elap:               0.6
 (Enter /udrive/faculty/rpeverati/g16/g16/l702.exe)
 L702 exits ... SP integral derivatives will be done elsewhere.
 Leave Link  702 at Wed Oct  7 14:40:21 2020, MaxMem=  2684354560 cpu:               1.5 elap:               0.5
 (Enter /udrive/faculty/rpeverati/g16/g16/l703.exe)
 Integral derivatives from FoFJK, PRISM(SPDF).
 Compute integral first derivatives, UseDBF=F ICtDFT=           0.
 Calling FoFJK, ICntrl=      2127 FMM=F ISym2X=1 I1Cent= 0 IOpClX= 1 NMat=1 NMatS=1 NMatT=0.
 FoFJK:  IHMeth= 1 ICntrl=    2127 DoSepK=F KAlg= 0 I1Cent=           0 FoldK=F
 IRaf=         0 NMat=       1 IRICut=       1 DoRegI=T DoRafI=F ISym2E= 1 IDoP0=0 IntGTp=1.
 FoFCou: FMM=F IPFlag=           0 FMFlag=      100000 FMFlg1=         800
         NFxFlg=           0 DoJE=F BraDBF=F KetDBF=F FulRan=T
         wScrn=  0.000000 ICntrl=      2127 IOpCl=  1 I1Cent=           0 NGrid=           0
         NMat0=    1 NMatS0=      1 NMatT0=    0 NMatD0=    1 NMtDS0=    0 NMtDT0=    0
 Petite list used in FoFCou.
 Leave Link  703 at Wed Oct  7 14:40:21 2020, MaxMem=  2684354560 cpu:               3.9 elap:               0.7
 (Enter /udrive/faculty/rpeverati/g16/g16/l716.exe)
 Dipole        = 0.00000000D+00-2.22044605D-16-3.66235116D-32
 ***** Axes restored to original set *****
 -------------------------------------------------------------------
 Center     Atomic                   Forces (Hartrees/Bohr)
 Number     Number              X              Y              Z
 -------------------------------------------------------------------
      1        6          -0.000000000   -0.000000000   -0.000000000
      2        1           0.002167941    0.003754984   -0.000000000
      3        1           0.002167941   -0.003754984    0.000000000
      4        1          -0.004335882   -0.000000000    0.000000000
 -------------------------------------------------------------------
 Cartesian Forces:  Max     0.004335882 RMS     0.002167941
 Leave Link  716 at Wed Oct  7 14:40:22 2020, MaxMem=  2684354560 cpu:               1.5 elap:               0.4
 (Enter /udrive/faculty/rpeverati/g16/g16/l103.exe)

 GradGradGradGradGradGradGradGradGradGradGradGradGradGradGradGradGradGrad
 Berny optimization.
 Optmz: redundant internal coordinate code flag= 1
 FormGI is forming the generalized inverse of G from B-inverse, IUseBI=4.
 Internal  Forces:  Max     0.004335882 RMS     0.002838501
 Search for a local minimum.
 Step number   1 out of a maximum of  100
 All quantities printed in internal units (Hartrees-Bohrs-Radians)
 RMS Force = .28385D-02 SwitMx=.10000D-02 MixMth= 1
 Mixed Optimization -- RFO/linear search
 Second derivative matrix not updated -- first step.
 The second derivative matrix:
                          R1        R2        R3        A1        A2
           R1           0.36321
           R2           0.00000   0.36321
           R3           0.00000   0.00000   0.36321
           A1           0.00000   0.00000   0.00000   0.16000
           A2           0.00000   0.00000   0.00000   0.00000   0.16000
           A3           0.00000   0.00000   0.00000   0.00000   0.00000
           D1           0.00000   0.00000   0.00000   0.00000   0.00000
                          A3        D1
           A3           0.16000
           D1           0.00000   0.00403
 ITU=  0
 Eigenvectors of the second derivative matrix:
                           1         2         3         4         5
     Eigenvalues --     0.00403   0.16000   0.16000   0.36321   0.36321
   1         R1         0.00000   0.00000  -0.00000  -0.34012   0.93698
   2         R2         0.00000   0.00000   0.00000  -0.69550  -0.19341
   3         R3        -0.00000  -0.00000   0.00000   0.63293   0.29097
   4         A1         0.00000  -0.81568   0.03658  -0.00000   0.00000
   5         A2        -0.00000   0.43952   0.68810   0.00000   0.00000
   6         A3        -0.00000   0.37616  -0.72469   0.00000   0.00000
   7         D1         1.00000   0.00000   0.00000   0.00000   0.00000
                           6
     Eigenvalues --     0.36321
   1         R1        -0.07995
   2         R2         0.69201
   3         R3         0.71745
   4         A1        -0.00000
   5         A2         0.00000
   6         A3         0.00000
   7         D1        -0.00000
 Iter=   1 RLamda= 0.00000000D+00 Sum=-1.55282929D-04.
 Iter=   2 RLamda=-1.55282929D-04 Sum=-1.55216568D-04.
 Iter=   3 RLamda=-1.55216568D-04 Sum=-1.55216597D-04.
 RFO step:  Lambda=-1.55216568D-04 EMin= 4.02612957D-03
 Linear search not attempted -- first point.
 Iteration  1 RMS(Cart)=  0.00781180 RMS(Int)=  0.00000000
 Iteration  2 RMS(Cart)=  0.00000000 RMS(Int)=  0.00000000
 ITry= 1 IFail=0 DXMaxC= 1.19D-02 DCOld= 1.00D+10 DXMaxT= 3.00D-01 DXLimC= 3.00D+00 Rises=F
 ClnCor:  largest displacement from symmetrization is 2.13D-13 for atom     1.
 Variable       Old X    -DE/DX   Delta X   Delta X   Delta X     New X
                                 (Linear)    (Quad)   (Total)
    R1        2.03583   0.00434   0.00000   0.01193   0.01193   2.04777
    R2        2.03583   0.00434   0.00000   0.01193   0.01193   2.04777
    R3        2.03583   0.00434   0.00000   0.01193   0.01193   2.04777
    A1        2.09440  -0.00000   0.00000  -0.00000   0.00000   2.09440
    A2        2.09440   0.00000   0.00000   0.00000   0.00000   2.09440
    A3        2.09440   0.00000   0.00000   0.00000   0.00000   2.09440
    D1        3.14159   0.00000   0.00000   0.00000   0.00000   3.14159
         Item               Value     Threshold  Converged?
 Maximum Force            0.004336     0.000450     NO 
 RMS     Force            0.002839     0.000300     NO 
 Maximum Displacement     0.011933     0.001800     NO 
 RMS     Displacement     0.007812     0.001200     NO 
 Predicted change in Energy=-7.764145D-05
 Lowest energy point so far.  Saving SCF results.
 Largest change from initial coordinates is atom    4       0.006 Angstoms.
 GradGradGradGradGradGradGradGradGradGradGradGradGradGradGradGradGradGrad

 Leave Link  103 at Wed Oct  7 14:40:23 2020, MaxMem=  2684354560 cpu:               1.3 elap:               0.4
 (Enter /udrive/faculty/rpeverati/g16/g16/l202.exe)
                          Input orientation:                          
 ---------------------------------------------------------------------
 Center     Atomic      Atomic             Coordinates (Angstroms)
 Number     Number       Type             X           Y           Z
 ---------------------------------------------------------------------
      1          6           0        0.000000   -0.000000    0.000000
      2          1           0        0.541815    0.938452    0.000000
      3          1           0        0.541815   -0.938452    0.000000
      4          1           0       -1.083631    0.000000    0.000000
 ---------------------------------------------------------------------
                    Distance matrix (angstroms):
                    1          2          3          4
     1  C    0.000000
     2  H    1.083631   0.000000
     3  H    1.083631   1.876903   0.000000
     4  H    1.083631   1.876903   1.876903   0.000000
 Stoichiometry    CH3(2)
 Framework group  D3H[O(C),3C2(H)]
 Deg. of freedom     1
 Full point group                 D3H     NOp  12
 RotChk:  IX=0 Diff= 1.57D-16
 Largest Abelian subgroup         C2V     NOp   4
 Largest concise Abelian subgroup C2      NOp   2
                         Standard orientation:                         
 ---------------------------------------------------------------------
 Center     Atomic      Atomic             Coordinates (Angstroms)
 Number     Number       Type             X           Y           Z
 ---------------------------------------------------------------------
      1          6           0        0.000000    0.000000    0.000000
      2          1           0        0.000000    1.083631    0.000000
      3          1           0        0.938452   -0.541815    0.000000
      4          1           0       -0.938452   -0.541815    0.000000
 ---------------------------------------------------------------------
 Rotational constants (GHZ):         284.6939294         284.6939294         142.3469647
 Leave Link  202 at Wed Oct  7 14:40:23 2020, MaxMem=  2684354560 cpu:               0.7 elap:               0.3
 (Enter /udrive/faculty/rpeverati/g16/g16/l301.exe)
 Standard basis: 6-31G(d) (5D, 7F)
 Ernie: Thresh=  0.10000D-02 Tol=  0.10000D-05 Strict=F.
 There are    12 symmetry adapted cartesian basis functions of A1  symmetry.
 There are     1 symmetry adapted cartesian basis functions of A2  symmetry.
 There are     5 symmetry adapted cartesian basis functions of B1  symmetry.
 There are     3 symmetry adapted cartesian basis functions of B2  symmetry.
 There are    11 symmetry adapted basis functions of A1  symmetry.
 There are     1 symmetry adapted basis functions of A2  symmetry.
 There are     5 symmetry adapted basis functions of B1  symmetry.
 There are     3 symmetry adapted basis functions of B2  symmetry.
    20 basis functions,    40 primitive gaussians,    21 cartesian basis functions
     5 alpha electrons        4 beta electrons
       nuclear repulsion energy         9.6358950811 Hartrees.
 IExCor= 2523 DFT=T Ex+Corr=TPSSh ExCW=0 ScaHFX=  0.100000
 ScaDFX=  0.900000  0.900000  1.000000  1.000000 ScalE2=  1.000000  1.000000
 IRadAn=      5 IRanWt=     -1 IRanGd=            0 ICorTp=0 IEmpDi=141
 NAtoms=    4 NActive=    4 NUniq=    2 SFac= 4.00D+00 NAtFMM=   60 NAOKFM=F Big=F
 Integral buffers will be    131072 words long.
 Raffenetti 2 integral format.
 Two-electron integral symmetry is turned on.
 R6DIni: Non-standard D2/D3 S6 parameter, value=     1.000000
 R6DIni: Non-standard D2/D3 S8 parameter, value=     2.238200
 R6DIni: Non-standard D3BJ A1 parameter, value=     0.452900
 R6DIni: Non-standard D3BJ A2 parameter, value=     4.655000
 R6Disp:  Grimme-D3(BJ) Dispersion energy=       -0.0008874974 Hartrees.
 Nuclear repulsion after empirical dispersion term =        9.6350075838 Hartrees.
 Leave Link  301 at Wed Oct  7 14:40:24 2020, MaxMem=  2684354560 cpu:               1.7 elap:               0.6
 (Enter /udrive/faculty/rpeverati/g16/g16/l302.exe)
 NPDir=0 NMtPBC=     1 NCelOv=     1 NCel=       1 NClECP=     1 NCelD=      1
         NCelK=      1 NCelE2=     1 NClLst=     1 CellRange=     0.0.
 One-electron integrals computed using PRISM.
 One-electron integral symmetry used in STVInt
 NBasis=    20 RedAO= T EigKep=  3.18D-02  NBF=    11     1     5     3
 NBsUse=    20 1.00D-06 EigRej= -1.00D+00 NBFU=    11     1     5     3
 Precomputing XC quadrature grid using
 IXCGrd= 4 IRadAn=           5 IRanWt=          -1 IRanGd=           0 AccXCQ= 0.00D+00.
 Generated NRdTot=       0 NPtTot=           0 NUsed=           0 NTot=          32
 NSgBfM=    21    21    21    21    21 MxSgAt=     4 MxSgA2=     4.
 Leave Link  302 at Wed Oct  7 14:40:25 2020, MaxMem=  2684354560 cpu:               3.5 elap:               0.7
 (Enter /udrive/faculty/rpeverati/g16/g16/l303.exe)
 DipDrv:  MaxL=1.
 Leave Link  303 at Wed Oct  7 14:40:26 2020, MaxMem=  2684354560 cpu:               1.1 elap:               0.3
 (Enter /udrive/faculty/rpeverati/g16/g16/l401.exe)
 Initial guess from the checkpoint file:  "MN_24_CH3_upper_BH76_TPSShDBJ_631Gs.chk"
 SCF N**3 symmetry information disabled.
 B after Tr=     0.000000    0.000000    0.000000
         Rot=    1.000000   -0.000000    0.000000    0.000000 Ang=   0.00 deg.
 Guess basis will be translated and rotated to current coordinates.
 JPrj=2 DoOrth=T DoCkMO=T.
 Initial guess orbital symmetries:
 Alpha Orbitals:
       Occupied  (A1') (A1') (E') (E') (A2")
       Virtual   (A1') (E') (E') (A2") (E') (E') (A1') (E') (E')
                 (A1') (E") (E") (A1') (E') (E')
 Beta  Orbitals:
       Occupied  (A1') (A1') (E') (E')
       Virtual   (A2") (A1') (E') (E') (E') (E') (A2") (A1') (E')
                 (E') (A1') (E") (E") (A1') (E') (E')
 The electronic state of the initial guess is 2-A2".
 Initial guess <Sx>= 0.0000 <Sy>= 0.0000 <Sz>= 0.5000 <S**2>= 0.7552 S= 0.5026
 Leave Link  401 at Wed Oct  7 14:40:26 2020, MaxMem=  2684354560 cpu:               2.2 elap:               0.4
 (Enter /udrive/faculty/rpeverati/g16/g16/l502.exe)
 Keep R1 and R2 ints in memory in symmetry-blocked form, NReq=10374516.
 FoFCou: FMM=F IPFlag=           0 FMFlag=           0 FMFlg1=           0
         NFxFlg=           0 DoJE=F BraDBF=F KetDBF=F FulRan=T
         wScrn=  0.000000 ICntrl=       600 IOpCl=  0 I1Cent=           0 NGrid=           0
         NMat0=    1 NMatS0=    210 NMatT0=    0 NMatD0=    1 NMtDS0=    0 NMtDT0=    0
 Petite list used in FoFCou.
 UHF open shell SCF:
 Using DIIS extrapolation, IDIIS=  1040.
 NGot=  2684354560 LenX=  2684338255 LenY=  2684337373
 Requested convergence on RMS density matrix=1.00D-08 within 120 cycles.
 Requested convergence on MAX density matrix=1.00D-06.
 Requested convergence on             energy=1.00D-06.
 No special actions if energy rises.

 Cycle   1  Pass 1  IDiag  1:
 E= -39.8426688546947    
 DIIS: error= 9.28D-04 at cycle   1 NSaved=   1.
 NSaved= 1 IEnMin= 1 EnMin= -39.8426688546947     IErMin= 1 ErrMin= 9.28D-04
 ErrMax= 9.28D-04  0.00D+00 EMaxC= 1.00D-01 BMatC= 4.80D-05 BMatP= 4.80D-05
 IDIUse=3 WtCom= 9.91D-01 WtEn= 9.28D-03
 Coeff-Com:  0.100D+01
 Coeff-En:   0.100D+01
 Coeff:      0.100D+01
 Gap=     0.324 Goal=   None    Shift=    0.000
 Gap=     0.341 Goal=   None    Shift=    0.000
 RMSDP=2.69D-04 MaxDP=2.03D-03              OVMax= 2.46D-03

 Cycle   2  Pass 1  IDiag  1:
 E= -39.8426782956841     Delta-E=       -0.000009440989 Rises=F Damp=F
 DIIS: error= 7.42D-04 at cycle   2 NSaved=   2.
 NSaved= 2 IEnMin= 2 EnMin= -39.8426782956841     IErMin= 2 ErrMin= 7.42D-04
 ErrMax= 7.42D-04  0.00D+00 EMaxC= 1.00D-01 BMatC= 2.73D-05 BMatP= 4.80D-05
 IDIUse=3 WtCom= 9.93D-01 WtEn= 7.42D-03
 Coeff-Com:  0.418D+00 0.582D+00
 Coeff-En:   0.204D+00 0.796D+00
 Coeff:      0.417D+00 0.583D+00
 Gap=     0.325 Goal=   None    Shift=    0.000
 Gap=     0.341 Goal=   None    Shift=    0.000
 RMSDP=1.36D-04 MaxDP=1.48D-03 DE=-9.44D-06 OVMax= 1.16D-03

 Cycle   3  Pass 1  IDiag  1:
 E= -39.8426859425259     Delta-E=       -0.000007646842 Rises=F Damp=F
 DIIS: error= 1.19D-04 at cycle   3 NSaved=   3.
 NSaved= 3 IEnMin= 3 EnMin= -39.8426859425259     IErMin= 3 ErrMin= 1.19D-04
 ErrMax= 1.19D-04  0.00D+00 EMaxC= 1.00D-01 BMatC= 7.54D-07 BMatP= 2.73D-05
 IDIUse=3 WtCom= 9.99D-01 WtEn= 1.19D-03
 Coeff-Com:  0.150D-01 0.149D+00 0.836D+00
 Coeff-En:   0.000D+00 0.000D+00 0.100D+01
 Coeff:      0.150D-01 0.149D+00 0.836D+00
 Gap=     0.325 Goal=   None    Shift=    0.000
 Gap=     0.341 Goal=   None    Shift=    0.000
 RMSDP=1.75D-05 MaxDP=1.46D-04 DE=-7.65D-06 OVMax= 1.69D-04

 Cycle   4  Pass 1  IDiag  1:
 E= -39.8426861549431     Delta-E=       -0.000000212417 Rises=F Damp=F
 DIIS: error= 7.29D-06 at cycle   4 NSaved=   4.
 NSaved= 4 IEnMin= 4 EnMin= -39.8426861549431     IErMin= 4 ErrMin= 7.29D-06
 ErrMax= 7.29D-06  0.00D+00 EMaxC= 1.00D-01 BMatC= 1.35D-09 BMatP= 7.54D-07
 IDIUse=1 WtCom= 1.00D+00 WtEn= 0.00D+00
 Coeff-Com: -0.432D-02-0.158D-01-0.780D-01 0.110D+01
 Coeff:     -0.432D-02-0.158D-01-0.780D-01 0.110D+01
 Gap=     0.325 Goal=   None    Shift=    0.000
 Gap=     0.341 Goal=   None    Shift=    0.000
 RMSDP=1.76D-06 MaxDP=2.93D-05 DE=-2.12D-07 OVMax= 2.29D-05

 Cycle   5  Pass 1  IDiag  1:
 E= -39.8426861558858     Delta-E=       -0.000000000943 Rises=F Damp=F
 DIIS: error= 1.48D-06 at cycle   5 NSaved=   5.
 NSaved= 5 IEnMin= 5 EnMin= -39.8426861558858     IErMin= 5 ErrMin= 1.48D-06
 ErrMax= 1.48D-06  0.00D+00 EMaxC= 1.00D-01 BMatC= 8.81D-11 BMatP= 1.35D-09
 IDIUse=1 WtCom= 1.00D+00 WtEn= 0.00D+00
 Coeff-Com:  0.785D-03 0.115D-02 0.165D-02-0.266D+00 0.126D+01
 Coeff:      0.785D-03 0.115D-02 0.165D-02-0.266D+00 0.126D+01
 Gap=     0.325 Goal=   None    Shift=    0.000
 Gap=     0.341 Goal=   None    Shift=    0.000
 RMSDP=4.59D-07 MaxDP=3.78D-06 DE=-9.43D-10 OVMax= 4.35D-06

 Cycle   6  Pass 1  IDiag  1:
 E= -39.8426861559534     Delta-E=       -0.000000000068 Rises=F Damp=F
 DIIS: error= 2.64D-07 at cycle   6 NSaved=   6.
 NSaved= 6 IEnMin= 6 EnMin= -39.8426861559534     IErMin= 6 ErrMin= 2.64D-07
 ErrMax= 2.64D-07  0.00D+00 EMaxC= 1.00D-01 BMatC= 5.19D-12 BMatP= 8.81D-11
 IDIUse=1 WtCom= 1.00D+00 WtEn= 0.00D+00
 Coeff-Com: -0.170D-03 0.430D-04 0.197D-02 0.721D-01-0.556D+00 0.148D+01
 Coeff:     -0.170D-03 0.430D-04 0.197D-02 0.721D-01-0.556D+00 0.148D+01
 Gap=     0.325 Goal=   None    Shift=    0.000
 Gap=     0.341 Goal=   None    Shift=    0.000
 RMSDP=1.47D-07 MaxDP=1.05D-06 DE=-6.76D-11 OVMax= 1.33D-06

 Cycle   7  Pass 1  IDiag  1:
 E= -39.8426861559574     Delta-E=       -0.000000000004 Rises=F Damp=F
 DIIS: error= 8.77D-09 at cycle   7 NSaved=   7.
 NSaved= 7 IEnMin= 7 EnMin= -39.8426861559574     IErMin= 7 ErrMin= 8.77D-09
 ErrMax= 8.77D-09  0.00D+00 EMaxC= 1.00D-01 BMatC= 3.19D-15 BMatP= 5.19D-12
 IDIUse=1 WtCom= 1.00D+00 WtEn= 0.00D+00
 Coeff-Com:  0.126D-04-0.108D-04-0.217D-03-0.597D-02 0.499D-01-0.145D+00
 Coeff-Com:  0.110D+01
 Coeff:      0.126D-04-0.108D-04-0.217D-03-0.597D-02 0.499D-01-0.145D+00
 Coeff:      0.110D+01
 Gap=     0.325 Goal=   None    Shift=    0.000
 Gap=     0.341 Goal=   None    Shift=    0.000
 RMSDP=2.69D-09 MaxDP=1.37D-08 DE=-4.04D-12 OVMax= 2.21D-08

 SCF Done:  E(UTPSSh) =  -39.8426861560     A.U. after    7 cycles
            NFock=  7  Conv=0.27D-08     -V/T= 2.0058
 <Sx>= 0.0000 <Sy>= 0.0000 <Sz>= 0.5000 <S**2>= 0.7553 S= 0.5026
 <L.S>= 0.000000000000E+00
 KE= 3.961451295278D+01 PE=-1.112175826897D+02 EE= 2.212537599724D+01
 Annihilation of the first spin contaminant:
 S**2 before annihilation     0.7553,   after     0.7500
 Leave Link  502 at Wed Oct  7 14:40:28 2020, MaxMem=  2684354560 cpu:               9.2 elap:               1.1
 (Enter /udrive/faculty/rpeverati/g16/g16/l508.exe)
 QCSCF skips out because SCF is already converged.
 Leave Link  508 at Wed Oct  7 14:40:28 2020, MaxMem=  2684354560 cpu:               0.2 elap:               0.3
 (Enter /udrive/faculty/rpeverati/g16/g16/l701.exe)
 ... and contract with generalized density number  0.
 Compute integral first derivatives.
 R6Disp: Adding Grimme-D3(BJ) dispersion energy 1st derivatives to the gradient.
 Leave Link  701 at Wed Oct  7 14:40:29 2020, MaxMem=  2684354560 cpu:               3.4 elap:               0.6
 (Enter /udrive/faculty/rpeverati/g16/g16/l702.exe)
 L702 exits ... SP integral derivatives will be done elsewhere.
 Leave Link  702 at Wed Oct  7 14:40:30 2020, MaxMem=  2684354560 cpu:               1.3 elap:               0.4
 (Enter /udrive/faculty/rpeverati/g16/g16/l703.exe)
 Integral derivatives from FoFJK, PRISM(SPDF).
 Compute integral first derivatives, UseDBF=F ICtDFT=           0.
 Calling FoFJK, ICntrl=      2127 FMM=F ISym2X=1 I1Cent= 0 IOpClX= 1 NMat=1 NMatS=1 NMatT=0.
 FoFJK:  IHMeth= 1 ICntrl=    2127 DoSepK=F KAlg= 0 I1Cent=           0 FoldK=F
 IRaf=         0 NMat=       1 IRICut=       1 DoRegI=T DoRafI=F ISym2E= 1 IDoP0=0 IntGTp=1.
 FoFCou: FMM=F IPFlag=           0 FMFlag=      100000 FMFlg1=         800
         NFxFlg=           0 DoJE=F BraDBF=F KetDBF=F FulRan=T
         wScrn=  0.000000 ICntrl=      2127 IOpCl=  1 I1Cent=           0 NGrid=           0
         NMat0=    1 NMatS0=      1 NMatT0=    0 NMatD0=    1 NMtDS0=    0 NMtDT0=    0
 Petite list used in FoFCou.
 Leave Link  703 at Wed Oct  7 14:40:31 2020, MaxMem=  2684354560 cpu:               4.1 elap:               0.7
 (Enter /udrive/faculty/rpeverati/g16/g16/l716.exe)
 Dipole        = 2.22044605D-16 0.00000000D+00-3.97445944D-32
 ***** Axes restored to original set *****
 -------------------------------------------------------------------
 Center     Atomic                   Forces (Hartrees/Bohr)
 Number     Number              X              Y              Z
 -------------------------------------------------------------------
      1        6           0.000000000    0.000000000   -0.000000000
      2        1          -0.000113328   -0.000196291   -0.000000000
      3        1          -0.000113328    0.000196291    0.000000000
      4        1           0.000226657   -0.000000000    0.000000000
 -------------------------------------------------------------------
 Cartesian Forces:  Max     0.000226657 RMS     0.000113328
 Leave Link  716 at Wed Oct  7 14:40:32 2020, MaxMem=  2684354560 cpu:               1.4 elap:               0.5
 (Enter /udrive/faculty/rpeverati/g16/g16/l103.exe)

 GradGradGradGradGradGradGradGradGradGradGradGradGradGradGradGradGradGrad
 Berny optimization.
 Optmz: redundant internal coordinate code flag= 1
 Using GEDIIS/GDIIS optimizer.
 Red2BG:  D1=  8.27D-01 OD1=  1.10D-02 B2RMS=  0.00D+00 IAprox=0
 FormGI is forming the generalized inverse of G from B-inverse, IUseBI=4.
 Internal  Forces:  Max     0.000226657 RMS     0.000148382
 Search for a local minimum.
 Step number   2 out of a maximum of  100
 All quantities printed in internal units (Hartrees-Bohrs-Radians)
 RMS Force = .14838D-03 SwitMx=.10000D-02 MixMth= 2
 Mixed Optimization -- En-DIIS/RFO-DIIS
 Update second derivatives using D2CorX and points    1    2
 DE= -7.31D-05 DEPred=-7.76D-05 R= 9.41D-01
 TightC=F SS=  1.41D+00  RLast= 2.07D-02 DXNew= 5.0454D-01 6.2004D-02
 Trust test= 9.41D-01 RLast= 2.07D-02 DXMaxT set to 3.00D-01
 The second derivative matrix:
                          R1        R2        R3        A1        A2
           R1           0.36959
           R2           0.00638   0.36959
           R3           0.00638   0.00638   0.36959
           A1          -0.00000  -0.00000  -0.00000   0.16000
           A2          -0.00000  -0.00000  -0.00000   0.00000   0.16000
           A3           0.00000   0.00000   0.00000  -0.00000  -0.00000
           D1           0.00000   0.00000   0.00000  -0.00000  -0.00000
                          A3        D1
           A3           0.16000
           D1           0.00000   0.00403
 ITU=  1  0
 Use linear search instead of GDIIS.
 Eigenvectors of the second derivative matrix:
                           1         2         3         4         5
     Eigenvalues --     0.00403   0.16000   0.16000   0.36321   0.36321
   1         R1        -0.00000  -0.00000  -0.00000  -0.79988  -0.16387
   2         R2         0.00000  -0.00000  -0.00000   0.54186  -0.61078
   3         R3        -0.00000  -0.00000  -0.00000   0.25803   0.77465
   4         A1        -0.00000  -0.81650  -0.00012  -0.00000   0.00000
   5         A2         0.00000   0.40835  -0.70705  -0.00000   0.00000
   6         A3        -0.00000   0.40814   0.70717   0.00000  -0.00000
   7         D1         1.00000   0.00000  -0.00000   0.00000  -0.00000
                           6
     Eigenvalues --     0.38236
   1         R1         0.57735
   2         R2         0.57735
   3         R3         0.57735
   4         A1        -0.00000
   5         A2        -0.00000
   6         A3         0.00000
   7         D1        -0.00000
 Iter=   1 RLamda= 0.00000000D+00 Sum=-4.70250685D-29.
 RFO step:  Lambda= 0.00000000D+00 EMin= 4.02612957D-03
 Quartic linear search produced a step of -0.05054.
 Iteration  1 RMS(Cart)=  0.00039483 RMS(Int)=  0.00000000
 Iteration  2 RMS(Cart)=  0.00000000 RMS(Int)=  0.00000000
 ITry= 1 IFail=0 DXMaxC= 6.03D-04 DCOld= 1.00D+10 DXMaxT= 3.00D-01 DXLimC= 3.00D+00 Rises=F
 ClnCor:  largest displacement from symmetrization is 1.00D-14 for atom     3.
 Variable       Old X    -DE/DX   Delta X   Delta X   Delta X     New X
                                 (Linear)    (Quad)   (Total)
    R1        2.04777  -0.00023  -0.00060   0.00000  -0.00060   2.04716
    R2        2.04777  -0.00023  -0.00060  -0.00000  -0.00060   2.04716
    R3        2.04777  -0.00023  -0.00060   0.00000  -0.00060   2.04716
    A1        2.09440  -0.00000   0.00000  -0.00000   0.00000   2.09440
    A2        2.09440   0.00000   0.00000   0.00000   0.00000   2.09440
    A3        2.09440  -0.00000   0.00000  -0.00000   0.00000   2.09440
    D1        3.14159  -0.00000   0.00000   0.00000   0.00000   3.14159
         Item               Value     Threshold  Converged?
 Maximum Force            0.000227     0.000450     YES
 RMS     Force            0.000148     0.000300     YES
 Maximum Displacement     0.000603     0.001800     YES
 RMS     Displacement     0.000395     0.001200     YES
 Predicted change in Energy=-2.014794D-07
 Optimization completed.
    -- Stationary point found.
                           ----------------------------
                           !   Optimized Parameters   !
                           ! (Angstroms and Degrees)  !
 --------------------------                            --------------------------
 ! Name  Definition              Value          Derivative Info.                !
 --------------------------------------------------------------------------------
 ! R1    R(1,2)                  1.0836         -DE/DX =   -0.0002              !
 ! R2    R(1,3)                  1.0836         -DE/DX =   -0.0002              !
 ! R3    R(1,4)                  1.0836         -DE/DX =   -0.0002              !
 ! A1    A(2,1,3)              120.0            -DE/DX =    0.0                 !
 ! A2    A(2,1,4)              120.0            -DE/DX =    0.0                 !
 ! A3    A(3,1,4)              120.0            -DE/DX =    0.0                 !
 ! D1    D(2,1,4,3)            180.0            -DE/DX =    0.0                 !
 --------------------------------------------------------------------------------
 Lowest energy point so far.  Saving SCF results.
 Largest change from initial coordinates is atom    3       0.006 Angstoms.
 GradGradGradGradGradGradGradGradGradGradGradGradGradGradGradGradGradGrad

 Leave Link  103 at Wed Oct  7 14:40:32 2020, MaxMem=  2684354560 cpu:               1.4 elap:               0.4
 (Enter /udrive/faculty/rpeverati/g16/g16/l202.exe)
                          Input orientation:                          
 ---------------------------------------------------------------------
 Center     Atomic      Atomic             Coordinates (Angstroms)
 Number     Number       Type             X           Y           Z
 ---------------------------------------------------------------------
      1          6           0        0.000000    0.000000    0.000000
      2          1           0        0.541815    0.938452    0.000000
      3          1           0        0.541815   -0.938452    0.000000
      4          1           0       -1.083631    0.000000    0.000000
 ---------------------------------------------------------------------
                    Distance matrix (angstroms):
                    1          2          3          4
     1  C    0.000000
     2  H    1.083631   0.000000
     3  H    1.083631   1.876903   0.000000
     4  H    1.083631   1.876903   1.876903   0.000000
 Stoichiometry    CH3(2)
 Framework group  D3H[O(C),3C2(H)]
 Deg. of freedom     1
 Full point group                 D3H     NOp  12
 RotChk:  IX=0 Diff= 1.57D-16
 Largest Abelian subgroup         C2V     NOp   4
 Largest concise Abelian subgroup C2      NOp   2
                         Standard orientation:                         
 ---------------------------------------------------------------------
 Center     Atomic      Atomic             Coordinates (Angstroms)
 Number     Number       Type             X           Y           Z
 ---------------------------------------------------------------------
      1          6           0        0.000000    0.000000    0.000000
      2          1           0        0.000000    1.083631    0.000000
      3          1           0        0.938452   -0.541815    0.000000
      4          1           0       -0.938452   -0.541815    0.000000
 ---------------------------------------------------------------------
 Rotational constants (GHZ):         284.6939294         284.6939294         142.3469647
 Leave Link  202 at Wed Oct  7 14:40:33 2020, MaxMem=  2684354560 cpu:               1.1 elap:               0.5
 (Enter /udrive/faculty/rpeverati/g16/g16/l601.exe)
 Copying SCF densities to generalized density rwf, IOpCl= 1 IROHF=0.

 **********************************************************************

            Population analysis using the SCF density.

 **********************************************************************

 Orbital symmetries:
 Alpha Orbitals:
       Occupied  (A1') (A1') (E') (E') (A2")
       Virtual   (A1') (E') (E') (A2") (E') (E') (A1') (E') (E')
                 (A1') (E") (E") (A1') (E') (E')
 Beta  Orbitals:
       Occupied  (A1') (A1') (E') (E')
       Virtual   (A2") (A1') (E') (E') (E') (E') (A2") (A1') (E')
                 (E') (A1') (E") (E") (A1') (E') (E')
 The electronic state is 2-A2".
 Alpha  occ. eigenvalues --  -10.12367  -0.66364  -0.39775  -0.39775  -0.21195
 Alpha virt. eigenvalues --    0.11279   0.18091   0.18091   0.53562   0.54975
 Alpha virt. eigenvalues --    0.54975   0.69083   0.92048   0.92048   0.96553
 Alpha virt. eigenvalues --    1.63952   1.63952   2.01642   2.20384   2.20384
  Beta  occ. eigenvalues --  -10.10732  -0.62231  -0.38978  -0.38978
  Beta virt. eigenvalues --   -0.04839   0.13675   0.19299   0.19299   0.56372
  Beta virt. eigenvalues --    0.56372   0.62809   0.73208   0.95830   0.95830
  Beta virt. eigenvalues --    1.02675   1.74373   1.74373   2.13755   2.28132
  Beta virt. eigenvalues --    2.28132
          Condensed to atoms (all electrons):
               1          2          3          4
     1  C    5.380941   0.379407   0.379407   0.379407
     2  H    0.379407   0.505377  -0.028919  -0.028919
     3  H    0.379407  -0.028919   0.505377  -0.028919
     4  H    0.379407  -0.028919  -0.028919   0.505377
          Atomic-Atomic Spin Densities.
               1          2          3          4
     1  C    1.207546  -0.010943  -0.010943  -0.010943
     2  H   -0.010943  -0.049518   0.001110   0.001110
     3  H   -0.010943   0.001110  -0.049518   0.001110
     4  H   -0.010943   0.001110   0.001110  -0.049518
 Mulliken charges and spin densities:
               1          2
     1  C   -0.519163   1.174718
     2  H    0.173054  -0.058239
     3  H    0.173054  -0.058239
     4  H    0.173054  -0.058239
 Sum of Mulliken charges =   0.00000   1.00000
 Mulliken charges and spin densities with hydrogens summed into heavy atoms:
               1          2
     1  C    0.000000   1.000000
 Electronic spatial extent (au):  <R**2>=             29.3972
 Charge=              0.0000 electrons
 Dipole moment (field-independent basis, Debye):
    X=              0.0000    Y=             -0.0000    Z=             -0.0000  Tot=              0.0000
 Quadrupole moment (field-independent basis, Debye-Ang):
   XX=             -6.9928   YY=             -6.9928   ZZ=             -8.6340
   XY=             -0.0000   XZ=              0.0000   YZ=             -0.0000
 Traceless Quadrupole moment (field-independent basis, Debye-Ang):
   XX=              0.5471   YY=              0.5471   ZZ=             -1.0941
   XY=             -0.0000   XZ=              0.0000   YZ=             -0.0000
 Octapole moment (field-independent basis, Debye-Ang**2):
  XXX=             -0.0000  YYY=              0.8196  ZZZ=             -0.0000  XYY=              0.0000
  XXY=             -0.8196  XXZ=             -0.0000  XZZ=              0.0000  YZZ=              0.0000
  YYZ=             -0.0000  XYZ=             -0.0000
 Hexadecapole moment (field-independent basis, Debye-Ang**3):
 XXXX=            -13.8067 YYYY=            -13.8067 ZZZZ=             -8.9535 XXXY=              0.0000
 XXXZ=              0.0000 YYYX=              0.0000 YYYZ=             -0.0000 ZZZX=              0.0000
 ZZZY=             -0.0000 XXYY=             -4.6022 XXZZ=             -4.1321 YYZZ=             -4.1321
 XXYZ=             -0.0000 YYXZ=              0.0000 ZZXY=              0.0000
 N-N= 9.635007583752D+00 E-N=-1.112175826651D+02  KE= 3.961451295278D+01
                          Isotropic Fermi Contact Couplings
        Atom                 a.u.       MegaHertz       Gauss      10(-4) cm-1
     1  C(13)              0.16384     184.19271      65.72454      61.44008
     2  H(1)              -0.01915     -85.58607     -30.53924     -28.54844
     3  H(1)              -0.01915     -85.58607     -30.53924     -28.54844
     4  H(1)              -0.01915     -85.58607     -30.53924     -28.54844
 --------------------------------------------------------
       Center         ----  Spin Dipole Couplings  ----
                      3XX-RR        3YY-RR        3ZZ-RR
 --------------------------------------------------------
     1   Atom       -0.550452     -0.550452      1.100904
     2   Atom       -0.073053      0.078757     -0.005704
     3   Atom        0.040804     -0.035101     -0.005704
     4   Atom        0.040804     -0.035101     -0.005704
 --------------------------------------------------------
                        XY            XZ            YZ
 --------------------------------------------------------
     1   Atom        0.000000      0.000000      0.000000
     2   Atom       -0.000000      0.000000      0.000000
     3   Atom       -0.065736      0.000000      0.000000
     4   Atom        0.065736      0.000000      0.000000
 --------------------------------------------------------


 ---------------------------------------------------------------------------------
              Anisotropic Spin Dipole Couplings in Principal Axis System
 ---------------------------------------------------------------------------------

       Atom             a.u.   MegaHertz   Gauss  10(-4) cm-1        Axes

              Baa    -0.5505   -73.865   -26.357   -24.639  0.0000  1.0000  0.0000
     1 C(13)  Bbb    -0.5505   -73.865   -26.357   -24.639  1.0000  0.0000  0.0000
              Bcc     1.1009   147.731    52.714    49.278  0.0000  0.0000  1.0000
 
              Baa    -0.0731   -38.978   -13.908   -13.002  1.0000  0.0000  0.0000
     2 H(1)   Bbb    -0.0057    -3.043    -1.086    -1.015  0.0000  0.0000  1.0000
              Bcc     0.0788    42.021    14.994    14.017  0.0000  1.0000  0.0000
 
              Baa    -0.0731   -38.978   -13.908   -13.002  0.5000  0.8660  0.0000
     3 H(1)   Bbb    -0.0057    -3.043    -1.086    -1.015  0.0000  0.0000  1.0000
              Bcc     0.0788    42.021    14.994    14.017  0.8660 -0.5000  0.0000
 
              Baa    -0.0731   -38.978   -13.908   -13.002 -0.5000  0.8660  0.0000
     4 H(1)   Bbb    -0.0057    -3.043    -1.086    -1.015  0.0000  0.0000  1.0000
              Bcc     0.0788    42.021    14.994    14.017  0.8660  0.5000  0.0000
 

 ---------------------------------------------------------------------------------

 No NMR shielding tensors so no spin-rotation constants.
 Leave Link  601 at Wed Oct  7 14:40:34 2020, MaxMem=  2684354560 cpu:               5.2 elap:               0.8
 (Enter /udrive/faculty/rpeverati/g16/g16/l9999.exe)

 Test job not archived.
 1\1\GINC-NODE55\FOpt\UTPSSh\6-31G(d)\C1H3(2)\RPEVERATI\07-Oct-2020\0\\
 #P Opt(MaxCyc=100) TPSSh/6-31G* 5D 7F Integral=UltraFineGrid SCF=(NoSy
 mm,XQC,MaxCyc=120) IOp(1/33=1,3/174=1000000,3/175=2238200,3/177=045290
 0,3/178=4655000) EmpiricalDispersion=GD3BJ\\TS search on BH76.\\0,2\C,
 0.,0.,0.\H,0.5418153438,0.9384517038,0.\H,0.5418153438,-0.9384517038,0
 .\H,-1.0836306876,0.,0.\\Version=ES64L-G16RevA.03\State=2-A2"\HF=-39.8
 426862\S2=0.755266\S2-1=0.\S2A=0.750014\RMSD=2.691e-09\RMSF=1.133e-04\
 Dipole=0.,0.,0.\Quadrupole=0.4067319,0.4067319,-0.8134639,0.,0.,0.\PG=
 D03H [O(C1),3C2(H1)]\\@


      HUMANKIND PERIODICALLY GOES THROUGH A SPEEDUP OF ITS AFFAIRS, 
      THEREBY EXPERIENCING THE RACE BETWEEN THE RENEWABLE VITALITY
      OF THE LIVING, AND THE BECKONING VITIATION OF DECADENCE.
      IN THIS PERIODIC RACE, ANY PAUSE BECOMES A LUXURY.
      ONLY THEN CAN ONE REFLECT THAT ALL IS PERMITTED;
      ALL IS POSSIBLE.

                              -- THE APOCRYPHA OF MUAD'DIB
                                 CHILDREN OF DUNE, BY FRANK HERBERT
 Job cpu time:       0 days  0 hours  1 minutes 39.7 seconds.
 Elapsed time:       0 days  0 hours  0 minutes 17.9 seconds.
 File lengths (MBytes):  RWF=      5 Int=      0 D2E=      0 Chk=      1 Scr=      1
 Normal termination of Gaussian 16 at Wed Oct  7 14:40:35 2020.
