 Entering Gaussian System, Link 0=g16
 Input=MN_45_hclhts_BH76_TPSShDBJ_631Gs.in
 Output=MN_45_hclhts_BH76_TPSShDBJ_631Gs.log
 Initial command:
 /udrive/faculty/rpeverati/g16/g16/l1.exe "/udrive/scratch-directories/gaussian09/rpeverati/Gau-5195.inp" -scrdir="/udrive/scratch-directories/gaussian09/rpeverati/"
 Entering Link 1 = /udrive/faculty/rpeverati/g16/g16/l1.exe PID=      5212.
  
 Copyright (c) 1988,1990,1992,1993,1995,1998,2003,2009,2016,
            Gaussian, Inc.  All Rights Reserved.
  
 This is part of the Gaussian(R) 16 program.  It is based on
 the Gaussian(R) 09 system (copyright 2009, Gaussian, Inc.),
 the Gaussian(R) 03 system (copyright 2003, Gaussian, Inc.),
 the Gaussian(R) 98 system (copyright 1998, Gaussian, Inc.),
 the Gaussian(R) 94 system (copyright 1995, Gaussian, Inc.),
 the Gaussian 92(TM) system (copyright 1992, Gaussian, Inc.),
 the Gaussian 90(TM) system (copyright 1990, Gaussian, Inc.),
 the Gaussian 88(TM) system (copyright 1988, Gaussian, Inc.),
 the Gaussian 86(TM) system (copyright 1986, Carnegie Mellon
 University), and the Gaussian 82(TM) system (copyright 1983,
 Carnegie Mellon University). Gaussian is a federally registered
 trademark of Gaussian, Inc.
  
 This software contains proprietary and confidential information,
 including trade secrets, belonging to Gaussian, Inc.
  
 This software is provided under written license and may be
 used, copied, transmitted, or stored only in accord with that
 written license.
  
 The following legend is applicable only to US Government
 contracts under FAR:
  
                    RESTRICTED RIGHTS LEGEND
  
 Use, reproduction and disclosure by the US Government is
 subject to restrictions as set forth in subparagraphs (a)
 and (c) of the Commercial Computer Software - Restricted
 Rights clause in FAR 52.227-19.
  
 Gaussian, Inc.
 340 Quinnipiac St., Bldg. 40, Wallingford CT 06492
  
  
 ---------------------------------------------------------------
 Warning -- This program may not be used in any manner that
 competes with the business of Gaussian, Inc. or will provide
 assistance to any competitor of Gaussian, Inc.  The licensee
 of this program is prohibited from giving any competitor of
 Gaussian, Inc. access to this program.  By using this program,
 the user acknowledges that Gaussian, Inc. is engaged in the
 business of creating and licensing software in the field of
 computational chemistry and represents and warrants to the
 licensee that it is not a competitor of Gaussian, Inc. and that
 it will not use this program in any manner prohibited above.
 ---------------------------------------------------------------
  

 Cite this work as:
 Gaussian 16, Revision A.03,
 M. J. Frisch, G. W. Trucks, H. B. Schlegel, G. E. Scuseria, 
 M. A. Robb, J. R. Cheeseman, G. Scalmani, V. Barone, 
 G. A. Petersson, H. Nakatsuji, X. Li, M. Caricato, A. V. Marenich, 
 J. Bloino, B. G. Janesko, R. Gomperts, B. Mennucci, H. P. Hratchian, 
 J. V. Ortiz, A. F. Izmaylov, J. L. Sonnenberg, D. Williams-Young, 
 F. Ding, F. Lipparini, F. Egidi, J. Goings, B. Peng, A. Petrone, 
 T. Henderson, D. Ranasinghe, V. G. Zakrzewski, J. Gao, N. Rega, 
 G. Zheng, W. Liang, M. Hada, M. Ehara, K. Toyota, R. Fukuda, 
 J. Hasegawa, M. Ishida, T. Nakajima, Y. Honda, O. Kitao, H. Nakai, 
 T. Vreven, K. Throssell, J. A. Montgomery, Jr., J. E. Peralta, 
 F. Ogliaro, M. J. Bearpark, J. J. Heyd, E. N. Brothers, K. N. Kudin, 
 V. N. Staroverov, T. A. Keith, R. Kobayashi, J. Normand, 
 K. Raghavachari, A. P. Rendell, J. C. Burant, S. S. Iyengar, 
 J. Tomasi, M. Cossi, J. M. Millam, M. Klene, C. Adamo, R. Cammi, 
 J. W. Ochterski, R. L. Martin, K. Morokuma, O. Farkas, 
 J. B. Foresman, and D. J. Fox, Gaussian, Inc., Wallingford CT, 2016.
 
 ******************************************
 Gaussian 16:  ES64L-G16RevA.03 25-Dec-2016
                 7-Oct-2020 
 ******************************************
 %NoSave
 %nproc=12
 Will use up to   12 processors via shared memory.
 %mem=20GB
 %chk=MN_45_hclhts_BH76_TPSShDBJ_631Gs
 ----------------------------------------------------------------------
 #P Opt(TS,MaxCyc=50,NoEigenTest,MaxStep=10,AddRedundant) TPSSh/6-31G* 
 5D 7F Integral=UltraFineGrid SCF=(NoSymm,XQC,MaxCyc=120) IOp(1/33=1,3/
 174=1000000,3/175=2238200,3/177=0452900,3/178=4655000) EmpiricalDisper
 sion=GD3BJ
 ----------------------------------------------------------------------
 1/5=1,6=50,8=10,11=1,18=120,26=4,33=1,38=1/1,3;
 2/9=110,12=2,17=6,18=5,40=1/2;
 3/5=1,6=6,7=1,8=11,11=2,25=1,30=1,71=1,74=-35,75=-5,124=41,174=1000000,175=2238200,177=452900,178=4655000/1,2,3;
 4/9=2/1;
 5/5=2,7=120,8=3,13=1,38=5/2,8;
 6/7=2,8=2,9=2,10=2,28=1/1;
 7//1,2,3,16;
 1/5=1,6=50,8=10,11=1,18=20,26=4,33=1/3(2);
 2/9=110/2;
 99//99;
 2/9=110/2;
 3/5=1,6=6,7=1,8=11,11=2,25=1,30=1,71=1,74=-35,75=-5,124=41,174=1000000,175=2238200,177=452900,178=4655000/1,2,3;
 4/5=5,9=2,16=3,69=1/1;
 5/5=2,7=120,8=3,13=1,38=5/2,8;
 7//1,2,3,16;
 1/5=1,6=50,8=10,11=1,18=20,26=4,33=1/3(-5);
 2/9=110/2;
 6/7=2,8=2,9=2,10=2,19=2,28=1/1;
 99/9=1/99;
 Leave Link    1 at Wed Oct  7 14:41:40 2020, MaxMem=  2684354560 cpu:               5.2 elap:               0.5
 (Enter /udrive/faculty/rpeverati/g16/g16/l101.exe)
 ONIOM data not found on unit 2.
 ------------------
 TS search on BH76.
 ------------------
 TstMul:  ICh=     0
 TstMul:  Mul=     2
 TstMul:  ICh=     0
 TstMul:  Mul=     2
 Symbolic Z-matrix:
 Charge =  0 Multiplicity = 2
 H                     0.        0.        1.4858 
 Cl                    0.        0.        0. 
 H                     0.        0.       -1.4858 
 
 RdStrC is calling ZToCFu for IStruc=1 NZ=     3.
 PrtBox:  NBox=     1 Levels=  1 BoxLen=    8.00 SMaxX=        5.62
          Shift=            0.000000            0.000000            2.807760
 Box      1 Number                   0 centers from      1 to      3:
 After GenITR:
 ITRead=  0  0  0
 MicOpt= -1 -1 -1
 The following ModRedundant input section has been read:
 
 ITRead=  0  0  0
 MicOpt= -1 -1 -1
 NAtoms=      3 NQM=        3 NQMF=       0 NMMI=      0 NMMIF=      0
                NMic=       0 NMicF=      0.
                    Isotopes and Nuclear Properties:
 (Nuclear quadrupole moments (NQMom) in fm**2, nuclear magnetic moments (NMagM)
  in nuclear magnetons)

  Atom         1           2           3
 IAtWgt=           1          35           1
 AtmWgt=   1.0078250  34.9688527   1.0078250
 NucSpn=           1           3           1
 AtZEff=   0.0000000   0.0000000   0.0000000
 NQMom=    0.0000000  -8.1650000   0.0000000
 NMagM=    2.7928460   0.8218740   2.7928460
 AtZNuc=   1.0000000  17.0000000   1.0000000
 No MM parameters found.
 Leave Link  101 at Wed Oct  7 14:41:42 2020, MaxMem=  2684354560 cpu:               8.8 elap:               0.9
 (Enter /udrive/faculty/rpeverati/g16/g16/l103.exe)

 GradGradGradGradGradGradGradGradGradGradGradGradGradGradGradGradGradGrad
 Berny optimization.
 Optmz: redundant internal coordinate code flag= 1
 Initialization pass.
                           ----------------------------
                           !    Initial Parameters    !
                           ! (Angstroms and Degrees)  !
 --------------------------                            --------------------------
 ! Name  Definition              Value          Derivative Info.                !
 --------------------------------------------------------------------------------
 ! R1    R(1,2)                  1.4858         estimate D2E/DX2                !
 ! R2    R(2,3)                  1.4858         estimate D2E/DX2                !
 ! A1    L(1,2,3,-1,-1)        180.0            estimate D2E/DX2                !
 ! A2    L(1,2,3,-2,-2)        180.0            estimate D2E/DX2                !
 --------------------------------------------------------------------------------
 Maximum allowed force set to 1.00D+20.
 Trust Radius=1.00D-01 FncErr=1.00D-07 GrdErr=1.00D-06 EigMax=2.50D+02 EigMin=1.00D-04
 Number of steps in this run=     50 maximum allowed number of steps=    100.
 Search for a saddle point of order  1.
 GradGradGradGradGradGradGradGradGradGradGradGradGradGradGradGradGradGrad

 Leave Link  103 at Wed Oct  7 14:41:42 2020, MaxMem=  2684354560 cpu:               0.7 elap:               0.3
 (Enter /udrive/faculty/rpeverati/g16/g16/l202.exe)
                          Input orientation:                          
 ---------------------------------------------------------------------
 Center     Atomic      Atomic             Coordinates (Angstroms)
 Number     Number       Type             X           Y           Z
 ---------------------------------------------------------------------
      1          1           0        0.000000    0.000000    1.485803
      2         17           0        0.000000    0.000000    0.000000
      3          1           0        0.000000    0.000000   -1.485803
 ---------------------------------------------------------------------
                    Distance matrix (angstroms):
                    1          2          3
     1  H    0.000000
     2  Cl   1.485803   0.000000
     3  H    2.971605   1.485803   0.000000
 Stoichiometry    ClH2(2)
 Framework group  D*H[O(Cl),C*(H.H)]
 Deg. of freedom     1
 Full point group                 D*H     NOp   8
 Largest Abelian subgroup         D2H     NOp   8
 Largest concise Abelian subgroup C2      NOp   2
                         Standard orientation:                         
 ---------------------------------------------------------------------
 Center     Atomic      Atomic             Coordinates (Angstroms)
 Number     Number       Type             X           Y           Z
 ---------------------------------------------------------------------
      1          1           0        0.000000    0.000000    1.485803
      2         17           0        0.000000    0.000000    0.000000
      3          1           0        0.000000    0.000000   -1.485803
 ---------------------------------------------------------------------
 Rotational constants (GHZ):           0.0000000         113.5742375         113.5742375
 Leave Link  202 at Wed Oct  7 14:41:43 2020, MaxMem=  2684354560 cpu:               1.0 elap:               0.4
 (Enter /udrive/faculty/rpeverati/g16/g16/l301.exe)
 Standard basis: 6-31G(d) (5D, 7F)
 Ernie: Thresh=  0.10000D-02 Tol=  0.10000D-05 Strict=F.
 There are     9 symmetry adapted cartesian basis functions of AG  symmetry.
 There are     1 symmetry adapted cartesian basis functions of B1G symmetry.
 There are     1 symmetry adapted cartesian basis functions of B2G symmetry.
 There are     1 symmetry adapted cartesian basis functions of B3G symmetry.
 There are     0 symmetry adapted cartesian basis functions of AU  symmetry.
 There are     5 symmetry adapted cartesian basis functions of B1U symmetry.
 There are     3 symmetry adapted cartesian basis functions of B2U symmetry.
 There are     3 symmetry adapted cartesian basis functions of B3U symmetry.
 There are     8 symmetry adapted basis functions of AG  symmetry.
 There are     1 symmetry adapted basis functions of B1G symmetry.
 There are     1 symmetry adapted basis functions of B2G symmetry.
 There are     1 symmetry adapted basis functions of B3G symmetry.
 There are     0 symmetry adapted basis functions of AU  symmetry.
 There are     5 symmetry adapted basis functions of B1U symmetry.
 There are     3 symmetry adapted basis functions of B2U symmetry.
 There are     3 symmetry adapted basis functions of B3U symmetry.
    22 basis functions,    60 primitive gaussians,    23 cartesian basis functions
    10 alpha electrons        9 beta electrons
       nuclear repulsion energy        12.2873749921 Hartrees.
 IExCor= 2523 DFT=T Ex+Corr=TPSSh ExCW=0 ScaHFX=  0.100000
 ScaDFX=  0.900000  0.900000  1.000000  1.000000 ScalE2=  1.000000  1.000000
 IRadAn=      5 IRanWt=     -1 IRanGd=            0 ICorTp=0 IEmpDi=141
 NAtoms=    3 NActive=    3 NUniq=    2 SFac= 2.25D+00 NAtFMM=   60 NAOKFM=F Big=F
 Integral buffers will be    131072 words long.
 Raffenetti 2 integral format.
 Two-electron integral symmetry is turned on.
 R6DIni: Non-standard D2/D3 S6 parameter, value=     1.000000
 R6DIni: Non-standard D2/D3 S8 parameter, value=     2.238200
 R6DIni: Non-standard D3BJ A1 parameter, value=     0.452900
 R6DIni: Non-standard D3BJ A2 parameter, value=     4.655000
 R6Disp:  Grimme-D3(BJ) Dispersion energy=       -0.0007663694 Hartrees.
 Nuclear repulsion after empirical dispersion term =       12.2866086227 Hartrees.
 Leave Link  301 at Wed Oct  7 14:41:44 2020, MaxMem=  2684354560 cpu:               1.8 elap:               0.5
 (Enter /udrive/faculty/rpeverati/g16/g16/l302.exe)
 NPDir=0 NMtPBC=     1 NCelOv=     1 NCel=       1 NClECP=     1 NCelD=      1
         NCelK=      1 NCelE2=     1 NClLst=     1 CellRange=     0.0.
 One-electron integrals computed using PRISM.
 One-electron integral symmetry used in STVInt
 NBasis=    22 RedAO= T EigKep=  5.52D-02  NBF=     8     1     1     1     0     5     3     3
 NBsUse=    22 1.00D-06 EigRej= -1.00D+00 NBFU=     8     1     1     1     0     5     3     3
 Precomputing XC quadrature grid using
 IXCGrd= 4 IRadAn=           5 IRanWt=          -1 IRanGd=           0 AccXCQ= 0.00D+00.
 Generated NRdTot=       0 NPtTot=           0 NUsed=           0 NTot=          32
 NSgBfM=    23    23    23    23    23 MxSgAt=     3 MxSgA2=     3.
 Leave Link  302 at Wed Oct  7 14:41:44 2020, MaxMem=  2684354560 cpu:               3.7 elap:               0.7
 (Enter /udrive/faculty/rpeverati/g16/g16/l303.exe)
 DipDrv:  MaxL=1.
 Leave Link  303 at Wed Oct  7 14:41:45 2020, MaxMem=  2684354560 cpu:               1.5 elap:               0.5
 (Enter /udrive/faculty/rpeverati/g16/g16/l401.exe)
 SCF N**3 symmetry information disabled.
 ExpMin= 1.43D-01 ExpMax= 2.52D+04 ExpMxC= 3.78D+03 IAcc=3 IRadAn=         5 AccDes= 0.00D+00
 Harris functional with IExCor= 1009 and IRadAn=       5 diagonalized for initial guess.
 HarFok:  IExCor= 1009 AccDes= 0.00D+00 IRadAn=         5 IDoV= 1 UseB2=F ITyADJ=14
 ICtDFT=  3500011 ScaDFX=  1.000000  1.000000  1.000000  1.000000
 FoFCou: FMM=F IPFlag=           0 FMFlag=      100000 FMFlg1=           0
         NFxFlg=           0 DoJE=T BraDBF=F KetDBF=T FulRan=T
         wScrn=  0.000000 ICntrl=       500 IOpCl=  0 I1Cent=   200000004 NGrid=           0
         NMat0=    1 NMatS0=      1 NMatT0=    0 NMatD0=    1 NMtDS0=    0 NMtDT0=    0
 Petite list used in FoFCou.
 Harris En= -460.968064511771    
 JPrj=0 DoOrth=F DoCkMO=F.
 Initial guess orbital symmetries:
 Alpha Orbitals:
       Occupied  (SGG) (SGG) (SGU) (PIU) (PIU) (SGG) (SGU) (PIU)
                 (PIU) (SGG)
       Virtual   (SGU) (SGG) (PIU) (PIU) (SGU) (SGG) (SGU) (PIG)
                 (PIG) (DLTG) (DLTG) (SGG)
 Beta  Orbitals:
       Occupied  (SGG) (SGG) (SGU) (PIU) (PIU) (SGG) (SGU) (PIU)
                 (PIU)
       Virtual   (SGG) (SGU) (SGG) (PIU) (PIU) (SGU) (SGG) (SGU)
                 (PIG) (PIG) (DLTG) (DLTG) (SGG)
 The electronic state of the initial guess is 2-SGG.
 Initial guess <Sx>= 0.0000 <Sy>= 0.0000 <Sz>= 0.5000 <S**2>= 0.7500 S= 0.5000
 Leave Link  401 at Wed Oct  7 14:41:46 2020, MaxMem=  2684354560 cpu:               4.8 elap:               0.7
 (Enter /udrive/faculty/rpeverati/g16/g16/l502.exe)
 Keep R1 and R2 ints in memory in symmetry-blocked form, NReq=10387291.
 FoFCou: FMM=F IPFlag=           0 FMFlag=           0 FMFlg1=           0
         NFxFlg=           0 DoJE=F BraDBF=F KetDBF=F FulRan=T
         wScrn=  0.000000 ICntrl=       600 IOpCl=  0 I1Cent=           0 NGrid=           0
         NMat0=    1 NMatS0=    253 NMatT0=    0 NMatD0=    1 NMtDS0=    0 NMtDT0=    0
 Petite list used in FoFCou.
 UHF open shell SCF:
 Using DIIS extrapolation, IDIIS=  1040.
 NGot=  2684354560 LenX=  2684339476 LenY=  2684338506
 Requested convergence on RMS density matrix=1.00D-08 within 120 cycles.
 Requested convergence on MAX density matrix=1.00D-06.
 Requested convergence on             energy=1.00D-06.
 No special actions if energy rises.
 Integral accuracy reduced to 1.0D-05 until final iterations.

 Cycle   1  Pass 0  IDiag  1:
 E= -461.263873098685    
 DIIS: error= 1.79D-02 at cycle   1 NSaved=   1.
 NSaved= 1 IEnMin= 1 EnMin= -461.263873098685     IErMin= 1 ErrMin= 1.79D-02
 ErrMax= 1.79D-02  0.00D+00 EMaxC= 1.00D-01 BMatC= 2.66D-02 BMatP= 2.66D-02
 IDIUse=3 WtCom= 8.21D-01 WtEn= 1.79D-01
 Coeff-Com:  0.100D+01
 Coeff-En:   0.100D+01
 Coeff:      0.100D+01
 Gap=     0.250 Goal=   None    Shift=    0.000
 Gap=     0.204 Goal=   None    Shift=    0.000
 GapD=    0.204 DampG=1.000 DampE=0.500 DampFc=0.5000 IDamp=-1.
 Damping current iteration by 5.00D-01
 RMSDP=7.12D-03 MaxDP=6.30D-02              OVMax= 6.02D-02

 Cycle   2  Pass 0  IDiag  1:
 E= -461.267472332890     Delta-E=       -0.003599234205 Rises=F Damp=T
 DIIS: error= 1.12D-02 at cycle   2 NSaved=   2.
 NSaved= 2 IEnMin= 2 EnMin= -461.267472332890     IErMin= 2 ErrMin= 1.12D-02
 ErrMax= 1.12D-02  0.00D+00 EMaxC= 1.00D-01 BMatC= 5.51D-03 BMatP= 2.66D-02
 IDIUse=3 WtCom= 8.88D-01 WtEn= 1.12D-01
 Coeff-Com: -0.523D+00 0.152D+01
 Coeff-En:   0.000D+00 0.100D+01
 Coeff:     -0.465D+00 0.146D+01
 Gap=     0.259 Goal=   None    Shift=    0.000
 Gap=     0.197 Goal=   None    Shift=    0.000
 RMSDP=3.06D-03 MaxDP=3.50D-02 DE=-3.60D-03 OVMax= 2.82D-02

 Cycle   3  Pass 0  IDiag  1:
 E= -461.271661260014     Delta-E=       -0.004188927125 Rises=F Damp=F
 DIIS: error= 5.55D-03 at cycle   3 NSaved=   3.
 NSaved= 3 IEnMin= 3 EnMin= -461.271661260014     IErMin= 3 ErrMin= 5.55D-03
 ErrMax= 5.55D-03  0.00D+00 EMaxC= 1.00D-01 BMatC= 9.11D-04 BMatP= 5.51D-03
 IDIUse=3 WtCom= 9.45D-01 WtEn= 5.55D-02
 Coeff-Com: -0.285D+00 0.483D+00 0.801D+00
 Coeff-En:   0.000D+00 0.000D+00 0.100D+01
 Coeff:     -0.269D+00 0.456D+00 0.812D+00
 Gap=     0.260 Goal=   None    Shift=    0.000
 Gap=     0.209 Goal=   None    Shift=    0.000
 RMSDP=1.22D-03 MaxDP=1.53D-02 DE=-4.19D-03 OVMax= 1.37D-02

 Cycle   4  Pass 0  IDiag  1:
 E= -461.272006024588     Delta-E=       -0.000344764574 Rises=F Damp=F
 DIIS: error= 1.26D-03 at cycle   4 NSaved=   4.
 NSaved= 4 IEnMin= 4 EnMin= -461.272006024588     IErMin= 4 ErrMin= 1.26D-03
 ErrMax= 1.26D-03  0.00D+00 EMaxC= 1.00D-01 BMatC= 4.34D-05 BMatP= 9.11D-04
 IDIUse=3 WtCom= 9.87D-01 WtEn= 1.26D-02
 Coeff-Com:  0.108D+00-0.243D+00-0.280D-01 0.116D+01
 Coeff-En:   0.000D+00 0.000D+00 0.000D+00 0.100D+01
 Coeff:      0.106D+00-0.240D+00-0.277D-01 0.116D+01
 Gap=     0.262 Goal=   None    Shift=    0.000
 Gap=     0.209 Goal=   None    Shift=    0.000
 RMSDP=2.97D-04 MaxDP=4.15D-03 DE=-3.45D-04 OVMax= 4.09D-03

 Cycle   5  Pass 0  IDiag  1:
 E= -461.272027567822     Delta-E=       -0.000021543233 Rises=F Damp=F
 DIIS: error= 3.45D-05 at cycle   5 NSaved=   5.
 NSaved= 5 IEnMin= 5 EnMin= -461.272027567822     IErMin= 5 ErrMin= 3.45D-05
 ErrMax= 3.45D-05  0.00D+00 EMaxC= 1.00D-01 BMatC= 7.66D-08 BMatP= 4.34D-05
 IDIUse=1 WtCom= 1.00D+00 WtEn= 0.00D+00
 Coeff-Com: -0.532D-02 0.133D-01-0.728D-02-0.595D-01 0.106D+01
 Coeff:     -0.532D-02 0.133D-01-0.728D-02-0.595D-01 0.106D+01
 Gap=     0.262 Goal=   None    Shift=    0.000
 Gap=     0.210 Goal=   None    Shift=    0.000
 RMSDP=1.31D-05 MaxDP=1.58D-04 DE=-2.15D-05 OVMax= 1.06D-04

 Cycle   6  Pass 0  IDiag  1:
 E= -461.272027604317     Delta-E=       -0.000000036496 Rises=F Damp=F
 DIIS: error= 2.92D-06 at cycle   6 NSaved=   6.
 NSaved= 6 IEnMin= 6 EnMin= -461.272027604317     IErMin= 6 ErrMin= 2.92D-06
 ErrMax= 2.92D-06  0.00D+00 EMaxC= 1.00D-01 BMatC= 6.99D-10 BMatP= 7.66D-08
 IDIUse=1 WtCom= 1.00D+00 WtEn= 0.00D+00
 Coeff-Com: -0.755D-03 0.154D-02 0.125D-02-0.857D-02-0.132D+00 0.114D+01
 Coeff:     -0.755D-03 0.154D-02 0.125D-02-0.857D-02-0.132D+00 0.114D+01
 Gap=     0.262 Goal=   None    Shift=    0.000
 Gap=     0.210 Goal=   None    Shift=    0.000
 RMSDP=2.17D-06 MaxDP=1.92D-05 DE=-3.65D-08 OVMax= 1.03D-05

 Initial convergence to 1.0D-05 achieved.  Increase integral accuracy.
 Cycle   7  Pass 1  IDiag  1:
 E= -461.272022855105     Delta-E=        0.000004749212 Rises=F Damp=F
 DIIS: error= 2.27D-06 at cycle   1 NSaved=   1.
 NSaved= 1 IEnMin= 1 EnMin= -461.272022855105     IErMin= 1 ErrMin= 2.27D-06
 ErrMax= 2.27D-06  0.00D+00 EMaxC= 1.00D-01 BMatC= 4.46D-10 BMatP= 4.46D-10
 IDIUse=1 WtCom= 1.00D+00 WtEn= 0.00D+00
 Coeff-Com:  0.100D+01
 Coeff:      0.100D+01
 Gap=     0.262 Goal=   None    Shift=    0.000
 Gap=     0.210 Goal=   None    Shift=    0.000
 RMSDP=2.17D-06 MaxDP=1.92D-05 DE= 4.75D-06 OVMax= 3.64D-06

 Cycle   8  Pass 1  IDiag  1:
 E= -461.272022855192     Delta-E=       -0.000000000087 Rises=F Damp=F
 DIIS: error= 9.12D-07 at cycle   2 NSaved=   2.
 NSaved= 2 IEnMin= 2 EnMin= -461.272022855192     IErMin= 2 ErrMin= 9.12D-07
 ErrMax= 9.12D-07  0.00D+00 EMaxC= 1.00D-01 BMatC= 5.66D-11 BMatP= 4.46D-10
 IDIUse=1 WtCom= 1.00D+00 WtEn= 0.00D+00
 Coeff-Com:  0.155D+00 0.845D+00
 Coeff:      0.155D+00 0.845D+00
 Gap=     0.262 Goal=   None    Shift=    0.000
 Gap=     0.210 Goal=   None    Shift=    0.000
 RMSDP=4.05D-07 MaxDP=3.57D-06 DE=-8.67D-11 OVMax= 3.06D-06

 Cycle   9  Pass 1  IDiag  1:
 E= -461.272022855202     Delta-E=       -0.000000000010 Rises=F Damp=F
 DIIS: error= 5.69D-07 at cycle   3 NSaved=   3.
 NSaved= 3 IEnMin= 3 EnMin= -461.272022855202     IErMin= 3 ErrMin= 5.69D-07
 ErrMax= 5.69D-07  0.00D+00 EMaxC= 1.00D-01 BMatC= 2.47D-11 BMatP= 5.66D-11
 IDIUse=1 WtCom= 1.00D+00 WtEn= 0.00D+00
 Coeff-Com: -0.146D-02 0.396D+00 0.605D+00
 Coeff:     -0.146D-02 0.396D+00 0.605D+00
 Gap=     0.262 Goal=   None    Shift=    0.000
 Gap=     0.210 Goal=   None    Shift=    0.000
 RMSDP=1.71D-07 MaxDP=1.52D-06 DE=-1.03D-11 OVMax= 1.10D-06

 Cycle  10  Pass 1  IDiag  1:
 E= -461.272022855210     Delta-E=       -0.000000000008 Rises=F Damp=F
 DIIS: error= 2.49D-08 at cycle   4 NSaved=   4.
 NSaved= 4 IEnMin= 4 EnMin= -461.272022855210     IErMin= 4 ErrMin= 2.49D-08
 ErrMax= 2.49D-08  0.00D+00 EMaxC= 1.00D-01 BMatC= 2.87D-14 BMatP= 2.47D-11
 IDIUse=1 WtCom= 1.00D+00 WtEn= 0.00D+00
 Coeff-Com: -0.244D-02-0.757D-01-0.110D+00 0.119D+01
 Coeff:     -0.244D-02-0.757D-01-0.110D+00 0.119D+01
 Gap=     0.262 Goal=   None    Shift=    0.000
 Gap=     0.210 Goal=   None    Shift=    0.000
 RMSDP=1.03D-08 MaxDP=1.03D-07 DE=-8.30D-12 OVMax= 9.88D-08

 Cycle  11  Pass 1  IDiag  1:
 E= -461.272022855210     Delta-E=        0.000000000000 Rises=F Damp=F
 DIIS: error= 5.15D-09 at cycle   5 NSaved=   5.
 NSaved= 5 IEnMin= 4 EnMin= -461.272022855210     IErMin= 5 ErrMin= 5.15D-09
 ErrMax= 5.15D-09  0.00D+00 EMaxC= 1.00D-01 BMatC= 5.45D-16 BMatP= 2.87D-14
 IDIUse=1 WtCom= 1.00D+00 WtEn= 0.00D+00
 Coeff-Com:  0.116D-03-0.165D-02-0.281D-02-0.998D-01 0.110D+01
 Coeff:      0.116D-03-0.165D-02-0.281D-02-0.998D-01 0.110D+01
 Gap=     0.262 Goal=   None    Shift=    0.000
 Gap=     0.210 Goal=   None    Shift=    0.000
 RMSDP=1.19D-09 MaxDP=1.84D-08 DE= 2.27D-13 OVMax= 1.72D-08

 SCF Done:  E(UTPSSh) =  -461.272022855     A.U. after   11 cycles
            NFock= 11  Conv=0.12D-08     -V/T= 2.0016
 <Sx>= 0.0000 <Sy>= 0.0000 <Sz>= 0.5000 <S**2>= 0.7693 S= 0.5096
 <L.S>= 0.000000000000E+00
 KE= 4.605374150843D+02 PE=-1.121234118526D+03 EE= 1.871380719637D+02
 Annihilation of the first spin contaminant:
 S**2 before annihilation     0.7693,   after     0.7500
 Leave Link  502 at Wed Oct  7 14:41:48 2020, MaxMem=  2684354560 cpu:              11.6 elap:               1.4
 (Enter /udrive/faculty/rpeverati/g16/g16/l508.exe)
 QCSCF skips out because SCF is already converged.
 Leave Link  508 at Wed Oct  7 14:41:48 2020, MaxMem=  2684354560 cpu:               0.8 elap:               0.4
 (Enter /udrive/faculty/rpeverati/g16/g16/l601.exe)
 Copying SCF densities to generalized density rwf, IOpCl= 1 IROHF=0.

 **********************************************************************

            Population analysis using the SCF density.

 **********************************************************************

 Orbital symmetries:
 Alpha Orbitals:
       Occupied  (SGG) (SGG) (SGU) (PIU) (PIU) (SGG) (SGU) (PIU)
                 (PIU) (SGG)
       Virtual   (SGU) (SGG) (PIU) (PIU) (SGU) (SGG) (SGU) (PIG)
                 (PIG) (DLTG) (DLTG) (SGG)
 Beta  Orbitals:
       Occupied  (SGG) (SGG) (SGU) (PIU) (PIU) (SGG) (SGU) (PIU)
                 (PIU)
       Virtual   (SGG) (SGU) (SGG) (PIU) (PIU) (SGU) (SGG) (PIG)
                 (PIG) (SGU) (DLTG) (DLTG) (SGG)
 The electronic state is 2-SGG.
 Alpha  occ. eigenvalues -- -101.39447  -9.39942  -7.14973  -7.13750  -7.13750
 Alpha  occ. eigenvalues --   -0.82896  -0.52713  -0.32770  -0.32770  -0.24896
 Alpha virt. eigenvalues --    0.01320   0.38910   0.42928   0.42928   0.62033
 Alpha virt. eigenvalues --    0.62865   0.71370   0.80688   0.80688   0.83526
 Alpha virt. eigenvalues --    0.83527   1.08913
  Beta  occ. eigenvalues -- -101.39427  -9.39861  -7.15174  -7.13648  -7.13648
  Beta  occ. eigenvalues --   -0.82185  -0.48378  -0.32083  -0.32083
  Beta virt. eigenvalues --   -0.11130   0.07863   0.38982   0.43482   0.43482
  Beta virt. eigenvalues --    0.62452   0.68049   0.80216   0.80216   0.82856
  Beta virt. eigenvalues --    0.84637   0.84638   1.15398
          Condensed to atoms (all electrons):
               1          2          3
     1  H    0.907181  -0.057938   0.026631
     2  Cl  -0.057938  17.364125  -0.057938
     3  H    0.026631  -0.057938   0.907181
          Atomic-Atomic Spin Densities.
               1          2          3
     1  H    0.776119  -0.238949   0.028417
     2  Cl  -0.238949   0.346724  -0.238949
     3  H    0.028417  -0.238949   0.776119
 Mulliken charges and spin densities:
               1          2
     1  H    0.124125   0.565587
     2  Cl  -0.248250  -0.131174
     3  H    0.124125   0.565587
 Sum of Mulliken charges =   0.00000   1.00000
 Mulliken charges and spin densities with hydrogens summed into heavy atoms:
               1          2
     2  Cl   0.000000   1.000000
 Electronic spatial extent (au):  <R**2>=             47.1225
 Charge=              0.0000 electrons
 Dipole moment (field-independent basis, Debye):
    X=              0.0000    Y=              0.0000    Z=              0.0000  Tot=              0.0000
 Quadrupole moment (field-independent basis, Debye-Ang):
   XX=            -15.1344   YY=            -15.1344   ZZ=            -11.9055
   XY=             -0.0000   XZ=             -0.0000   YZ=              0.0000
 Traceless Quadrupole moment (field-independent basis, Debye-Ang):
   XX=             -1.0763   YY=             -1.0763   ZZ=              2.1526
   XY=             -0.0000   XZ=             -0.0000   YZ=              0.0000
 Octapole moment (field-independent basis, Debye-Ang**2):
  XXX=             -0.0000  YYY=              0.0000  ZZZ=              0.0000  XYY=             -0.0000
  XXY=              0.0000  XXZ=              0.0000  XZZ=             -0.0000  YZZ=              0.0000
  YYZ=              0.0000  XYZ=             -0.0000
 Hexadecapole moment (field-independent basis, Debye-Ang**3):
 XXXX=            -16.7241 YYYY=            -16.7241 ZZZZ=            -38.4957 XXXY=             -0.0000
 XXXZ=              0.0000 YYYX=             -0.0000 YYYZ=              0.0000 ZZZX=              0.0000
 ZZZY=              0.0000 XXYY=             -5.5747 XXZZ=             -9.5313 YYZZ=             -9.5313
 XXYZ=              0.0000 YYXZ=              0.0000 ZZXY=             -0.0000
 N-N= 1.228660862271D+01 E-N=-1.121234118538D+03  KE= 4.605374150843D+02
                          Isotropic Fermi Contact Couplings
        Atom                 a.u.       MegaHertz       Gauss      10(-4) cm-1
     1  H(1)               0.20290     906.94884     323.62190     302.52557
     2  Cl(35)             1.32677     581.74120     207.57972     194.04798
     3  H(1)               0.20290     906.94884     323.62190     302.52557
 --------------------------------------------------------
       Center         ----  Spin Dipole Couplings  ----
                      3XX-RR        3YY-RR        3ZZ-RR
 --------------------------------------------------------
     1   Atom        0.006610      0.006610     -0.013220
     2   Atom        0.526239      0.526239     -1.052478
     3   Atom        0.006610      0.006610     -0.013220
 --------------------------------------------------------
                        XY            XZ            YZ
 --------------------------------------------------------
     1   Atom        0.000000     -0.000000      0.000000
     2   Atom        0.000000      0.000000      0.000000
     3   Atom        0.000000      0.000000      0.000000
 --------------------------------------------------------


 ---------------------------------------------------------------------------------
              Anisotropic Spin Dipole Couplings in Principal Axis System
 ---------------------------------------------------------------------------------

       Atom             a.u.   MegaHertz   Gauss  10(-4) cm-1        Axes

              Baa    -0.0132    -7.053    -2.517    -2.353  0.0000  0.0000  1.0000
     1 H(1)   Bbb     0.0066     3.527     1.258     1.176  0.0000  1.0000  0.0000
              Bcc     0.0066     3.527     1.258     1.176  1.0000  0.0000 -0.0000
 
              Baa    -1.0525   -55.084   -19.655   -18.374 -0.0000  0.0000  1.0000
     2 Cl(35) Bbb     0.5262    27.542     9.828     9.187  1.0000  0.0000  0.0000
              Bcc     0.5262    27.542     9.828     9.187  0.0000  1.0000  0.0000
 
              Baa    -0.0132    -7.053    -2.517    -2.353 -0.0000  0.0000  1.0000
     3 H(1)   Bbb     0.0066     3.527     1.258     1.176  0.0000  1.0000  0.0000
              Bcc     0.0066     3.527     1.258     1.176  1.0000  0.0000  0.0000
 

 ---------------------------------------------------------------------------------

 No NMR shielding tensors so no spin-rotation constants.
 Leave Link  601 at Wed Oct  7 14:41:49 2020, MaxMem=  2684354560 cpu:               5.9 elap:               0.7
 (Enter /udrive/faculty/rpeverati/g16/g16/l701.exe)
 ... and contract with generalized density number  0.
 Compute integral first derivatives.
 R6Disp: Adding Grimme-D3(BJ) dispersion energy 1st derivatives to the gradient.
 Leave Link  701 at Wed Oct  7 14:41:50 2020, MaxMem=  2684354560 cpu:               3.9 elap:               0.7
 (Enter /udrive/faculty/rpeverati/g16/g16/l702.exe)
 L702 exits ... SP integral derivatives will be done elsewhere.
 Leave Link  702 at Wed Oct  7 14:41:51 2020, MaxMem=  2684354560 cpu:               1.4 elap:               0.4
 (Enter /udrive/faculty/rpeverati/g16/g16/l703.exe)
 Integral derivatives from FoFJK, PRISM(SPDF).
 Compute integral first derivatives, UseDBF=F ICtDFT=           0.
 Calling FoFJK, ICntrl=      2127 FMM=F ISym2X=1 I1Cent= 0 IOpClX= 1 NMat=1 NMatS=1 NMatT=0.
 FoFJK:  IHMeth= 1 ICntrl=    2127 DoSepK=F KAlg= 0 I1Cent=           0 FoldK=F
 IRaf=         0 NMat=       1 IRICut=       1 DoRegI=T DoRafI=F ISym2E= 1 IDoP0=0 IntGTp=1.
 FoFCou: FMM=F IPFlag=           0 FMFlag=      100000 FMFlg1=         800
         NFxFlg=           0 DoJE=F BraDBF=F KetDBF=F FulRan=T
         wScrn=  0.000000 ICntrl=      2127 IOpCl=  1 I1Cent=           0 NGrid=           0
         NMat0=    1 NMatS0=      1 NMatT0=    0 NMatD0=    1 NMtDS0=    0 NMtDT0=    0
 Petite list used in FoFCou.
 Leave Link  703 at Wed Oct  7 14:41:52 2020, MaxMem=  2684354560 cpu:               6.5 elap:               0.8
 (Enter /udrive/faculty/rpeverati/g16/g16/l716.exe)
 Dipole        = 4.34261386D-17 1.45657424D-31 0.00000000D+00
 ***** Axes restored to original set *****
 -------------------------------------------------------------------
 Center     Atomic                   Forces (Hartrees/Bohr)
 Number     Number              X              Y              Z
 -------------------------------------------------------------------
      1        1          -0.000000000   -0.000000000    0.005463280
      2       17           0.000000000    0.000000000   -0.000000000
      3        1          -0.000000000   -0.000000000   -0.005463280
 -------------------------------------------------------------------
 Cartesian Forces:  Max     0.005463280 RMS     0.002575415
 Leave Link  716 at Wed Oct  7 14:41:53 2020, MaxMem=  2684354560 cpu:               1.9 elap:               0.5
 (Enter /udrive/faculty/rpeverati/g16/g16/l103.exe)

 GradGradGradGradGradGradGradGradGradGradGradGradGradGradGradGradGradGrad
 Berny optimization.
 Optmz: redundant internal coordinate code flag= 1
 FormGI is forming the generalized inverse of G from B-inverse, IUseBI=4.
 Internal  Forces:  Max     0.005463280 RMS     0.003863123
 Search for a saddle point.
 Step number   1 out of a maximum of   50
 All quantities printed in internal units (Hartrees-Bohrs-Radians)
 Swapping is turned off.
 Second derivative matrix not updated -- first step.
 The second derivative matrix:
                          R1        R2        A1        A2
           R1           0.17502
           R2           0.00000   0.17502
           A1           0.00000   0.00000   0.00230
           A2           0.00000   0.00000   0.00000   0.00230
 ITU=  0
 Eigenvectors of the second derivative matrix:
                           1         2         3         4
     Eigenvalues --     0.00230   0.00230   0.17502   0.17502
   1         R1        -0.00000   0.00000  -1.00000   0.00000
   2         R2         0.00000   0.00000  -0.00000   1.00000
   3         A1        -1.00000   0.00000   0.00000   0.00000
   4         A2        -0.00000   1.00000   0.00000  -0.00000
 Eigenvalue     1 is   2.30D-03 should be less than     0.000000 Eigenvector:
                          A1        R1        R2        A2
   1                   -1.00000  -0.00000   0.00000  -0.00000
 RLam0= 2.30D-03.
 Iter=   1 RLamda= 0.00000000D+00 Sum=-3.41071270D-04.
 Iter=   2 RLamda=-3.41071270D-04 Sum=-3.40407904D-04.
 Iter=   3 RLamda=-3.40407904D-04 Sum=-3.40409192D-04.
 RFO step:  Lambda0=2.300010000D-03 Lambda=-3.40407904D-04.
 Linear search not attempted -- option 19 set.
 Iteration  1 RMS(Cart)=  0.03332641 RMS(Int)=  0.00050477
 Iteration  2 RMS(Cart)=  0.00055468 RMS(Int)=  0.00000015
 Iteration  3 RMS(Cart)=  0.00000015 RMS(Int)=  0.00000000
 ITry= 1 IFail=0 DXMaxC= 4.17D-02 DCOld= 1.00D+10 DXMaxT= 1.00D-01 DXLimC= 3.00D+00 Rises=F
 ClnCor:  largest displacement from symmetrization is 4.17D-02 for atom     2.
 Variable       Old X    -DE/DX   Delta X   Delta X   Delta X     New X
                                 (Linear)    (Quad)   (Total)
    R1        2.80776   0.00546   0.00000   0.03115   0.03047   2.83823
    R2        2.80776   0.00546   0.00000   0.03115   0.03047   2.83823
    A1        3.14159   0.00000   0.00000   0.04406   0.00000   3.14159
    A2        3.14159  -0.00000   0.00000  -0.00000   0.00000   3.14159
         Item               Value     Threshold  Converged?
 Maximum Force            0.005463     0.000450     NO 
 RMS     Force            0.003863     0.000300     NO 
 Maximum Displacement     0.030465     0.001800     NO 
 RMS     Displacement     0.021542     0.001200     NO 
 Predicted change in Energy=-1.704373D-04
 Lowest energy point so far.  Saving SCF results.
 Largest change from initial coordinates is atom    1       0.016 Angstoms.
 GradGradGradGradGradGradGradGradGradGradGradGradGradGradGradGradGradGrad

 Leave Link  103 at Wed Oct  7 14:41:53 2020, MaxMem=  2684354560 cpu:               1.9 elap:               0.5
 (Enter /udrive/faculty/rpeverati/g16/g16/l202.exe)
                          Input orientation:                          
 ---------------------------------------------------------------------
 Center     Atomic      Atomic             Coordinates (Angstroms)
 Number     Number       Type             X           Y           Z
 ---------------------------------------------------------------------
      1          1           0        0.000000    0.000000    1.501924
      2         17           0       -0.000000    0.000000   -0.000000
      3          1           0        0.000000    0.000000   -1.501924
 ---------------------------------------------------------------------
                    Distance matrix (angstroms):
                    1          2          3
     1  H    0.000000
     2  Cl   1.501924   0.000000
     3  H    3.003848   1.501924   0.000000
 Stoichiometry    ClH2(2)
 Framework group  D*H[O(Cl),C*(H.H)]
 Deg. of freedom     1
 Full point group                 D*H     NOp   8
 RotChk:  IX=0 Diff= 0.00D+00
 Largest Abelian subgroup         D2H     NOp   8
 Largest concise Abelian subgroup C2      NOp   2
                         Standard orientation:                         
 ---------------------------------------------------------------------
 Center     Atomic      Atomic             Coordinates (Angstroms)
 Number     Number       Type             X           Y           Z
 ---------------------------------------------------------------------
      1          1           0        0.000000    0.000000    1.501924
      2         17           0        0.000000    0.000000    0.000000
      3          1           0        0.000000    0.000000   -1.501924
 ---------------------------------------------------------------------
 Rotational constants (GHZ):           0.0000000         111.1491159         111.1491159
 Leave Link  202 at Wed Oct  7 14:41:54 2020, MaxMem=  2684354560 cpu:               1.2 elap:               0.4
 (Enter /udrive/faculty/rpeverati/g16/g16/l301.exe)
 Standard basis: 6-31G(d) (5D, 7F)
 Ernie: Thresh=  0.10000D-02 Tol=  0.10000D-05 Strict=F.
 There are     9 symmetry adapted cartesian basis functions of AG  symmetry.
 There are     1 symmetry adapted cartesian basis functions of B1G symmetry.
 There are     1 symmetry adapted cartesian basis functions of B2G symmetry.
 There are     1 symmetry adapted cartesian basis functions of B3G symmetry.
 There are     0 symmetry adapted cartesian basis functions of AU  symmetry.
 There are     5 symmetry adapted cartesian basis functions of B1U symmetry.
 There are     3 symmetry adapted cartesian basis functions of B2U symmetry.
 There are     3 symmetry adapted cartesian basis functions of B3U symmetry.
 There are     8 symmetry adapted basis functions of AG  symmetry.
 There are     1 symmetry adapted basis functions of B1G symmetry.
 There are     1 symmetry adapted basis functions of B2G symmetry.
 There are     1 symmetry adapted basis functions of B3G symmetry.
 There are     0 symmetry adapted basis functions of AU  symmetry.
 There are     5 symmetry adapted basis functions of B1U symmetry.
 There are     3 symmetry adapted basis functions of B2U symmetry.
 There are     3 symmetry adapted basis functions of B3U symmetry.
    22 basis functions,    60 primitive gaussians,    23 cartesian basis functions
    10 alpha electrons        9 beta electrons
       nuclear repulsion energy        12.1554825436 Hartrees.
 IExCor= 2523 DFT=T Ex+Corr=TPSSh ExCW=0 ScaHFX=  0.100000
 ScaDFX=  0.900000  0.900000  1.000000  1.000000 ScalE2=  1.000000  1.000000
 IRadAn=      5 IRanWt=     -1 IRanGd=            0 ICorTp=0 IEmpDi=141
 NAtoms=    3 NActive=    3 NUniq=    2 SFac= 2.25D+00 NAtFMM=   60 NAOKFM=F Big=F
 Integral buffers will be    131072 words long.
 Raffenetti 2 integral format.
 Two-electron integral symmetry is turned on.
 R6DIni: Non-standard D2/D3 S6 parameter, value=     1.000000
 R6DIni: Non-standard D2/D3 S8 parameter, value=     2.238200
 R6DIni: Non-standard D3BJ A1 parameter, value=     0.452900
 R6DIni: Non-standard D3BJ A2 parameter, value=     4.655000
 R6Disp:  Grimme-D3(BJ) Dispersion energy=       -0.0007658486 Hartrees.
 Nuclear repulsion after empirical dispersion term =       12.1547166949 Hartrees.
 Leave Link  301 at Wed Oct  7 14:41:55 2020, MaxMem=  2684354560 cpu:               1.9 elap:               0.5
 (Enter /udrive/faculty/rpeverati/g16/g16/l302.exe)
 NPDir=0 NMtPBC=     1 NCelOv=     1 NCel=       1 NClECP=     1 NCelD=      1
         NCelK=      1 NCelE2=     1 NClLst=     1 CellRange=     0.0.
 One-electron integrals computed using PRISM.
 One-electron integral symmetry used in STVInt
 NBasis=    22 RedAO= T EigKep=  5.75D-02  NBF=     8     1     1     1     0     5     3     3
 NBsUse=    22 1.00D-06 EigRej= -1.00D+00 NBFU=     8     1     1     1     0     5     3     3
 Precomputing XC quadrature grid using
 IXCGrd= 4 IRadAn=           5 IRanWt=          -1 IRanGd=           0 AccXCQ= 0.00D+00.
 Generated NRdTot=       0 NPtTot=           0 NUsed=           0 NTot=          32
 NSgBfM=    23    23    23    23    23 MxSgAt=     3 MxSgA2=     3.
 Leave Link  302 at Wed Oct  7 14:41:56 2020, MaxMem=  2684354560 cpu:               3.9 elap:               0.7
 (Enter /udrive/faculty/rpeverati/g16/g16/l303.exe)
 DipDrv:  MaxL=1.
 Leave Link  303 at Wed Oct  7 14:41:56 2020, MaxMem=  2684354560 cpu:               1.4 elap:               0.5
 (Enter /udrive/faculty/rpeverati/g16/g16/l401.exe)
 Initial guess from the checkpoint file:  "MN_45_hclhts_BH76_TPSShDBJ_631Gs.chk"
 SCF N**3 symmetry information disabled.
 B after Tr=     0.000000    0.000000    0.000000
         Rot=    1.000000    0.000000    0.000000    0.000000 Ang=   0.00 deg.
 Guess basis will be translated and rotated to current coordinates.
 JPrj=2 DoOrth=T DoCkMO=T.
 Initial guess orbital symmetries:
 Alpha Orbitals:
       Occupied  (SGG) (SGG) (SGU) (PIU) (PIU) (SGG) (SGU) (PIU)
                 (PIU) (SGG)
       Virtual   (SGU) (SGG) (PIU) (PIU) (SGU) (SGG) (SGU) (PIG)
                 (PIG) (DLTG) (DLTG) (SGG)
 Beta  Orbitals:
       Occupied  (SGG) (SGG) (SGU) (PIU) (PIU) (SGG) (SGU) (PIU)
                 (PIU)
       Virtual   (SGG) (SGU) (SGG) (PIU) (PIU) (SGU) (SGG) (PIG)
                 (PIG) (SGU) (DLTG) (DLTG) (SGG)
 The electronic state of the initial guess is 2-SGG.
 Initial guess <Sx>= 0.0000 <Sy>= 0.0000 <Sz>= 0.5000 <S**2>= 0.7699 S= 0.5099
 Generating alternative initial guess.
 ExpMin= 1.43D-01 ExpMax= 2.52D+04 ExpMxC= 3.78D+03 IAcc=2 IRadAn=         4 AccDes= 0.00D+00
 Harris functional with IExCor= 1009 and IRadAn=       4 diagonalized for initial guess.
 HarFok:  IExCor= 1009 AccDes= 0.00D+00 IRadAn=         4 IDoV= 1 UseB2=F ITyADJ=14
 ICtDFT=  3500011 ScaDFX=  1.000000  1.000000  1.000000  1.000000
 FoFCou: FMM=F IPFlag=           0 FMFlag=      100000 FMFlg1=           0
         NFxFlg=           0 DoJE=T BraDBF=F KetDBF=T FulRan=T
         wScrn=  0.000000 ICntrl=       500 IOpCl=  0 I1Cent=   200000004 NGrid=           0
         NMat0=    1 NMatS0=      1 NMatT0=    0 NMatD0=    1 NMtDS0=    0 NMtDT0=    0
 Petite list used in FoFCou.
 Harris En= -460.971223464053    
 Leave Link  401 at Wed Oct  7 14:41:58 2020, MaxMem=  2684354560 cpu:               5.9 elap:               0.8
 (Enter /udrive/faculty/rpeverati/g16/g16/l502.exe)
 Keep R1 and R2 ints in memory in symmetry-blocked form, NReq=10387291.
 FoFCou: FMM=F IPFlag=           0 FMFlag=           0 FMFlg1=           0
         NFxFlg=           0 DoJE=F BraDBF=F KetDBF=F FulRan=T
         wScrn=  0.000000 ICntrl=       600 IOpCl=  0 I1Cent=           0 NGrid=           0
         NMat0=    1 NMatS0=    253 NMatT0=    0 NMatD0=    1 NMtDS0=    0 NMtDT0=    0
 Petite list used in FoFCou.
 UHF open shell SCF:
 Using DIIS extrapolation, IDIIS=  1040.
 NGot=  2684354560 LenX=  2684339476 LenY=  2684338506
 Requested convergence on RMS density matrix=1.00D-08 within 120 cycles.
 Requested convergence on MAX density matrix=1.00D-06.
 Requested convergence on             energy=1.00D-06.
 No special actions if energy rises.
 Integral accuracy reduced to 1.0D-05 until final iterations.

 Cycle   1  Pass 0  IDiag  1:
 E= -461.272172315459    
 DIIS: error= 1.82D-03 at cycle   1 NSaved=   1.
 NSaved= 1 IEnMin= 1 EnMin= -461.272172315459     IErMin= 1 ErrMin= 1.82D-03
 ErrMax= 1.82D-03  0.00D+00 EMaxC= 1.00D-01 BMatC= 1.42D-04 BMatP= 1.42D-04
 IDIUse=3 WtCom= 9.82D-01 WtEn= 1.82D-02
 Coeff-Com:  0.100D+01
 Coeff-En:   0.100D+01
 Coeff:      0.100D+01
 Gap=     0.259 Goal=   None    Shift=    0.000
 Gap=     0.206 Goal=   None    Shift=    0.000
 GapD=    0.206 DampG=1.000 DampE=1.000 DampFc=1.0000 IDamp=-1.
 RMSDP=7.84D-04 MaxDP=9.55D-03              OVMax= 4.96D-03

 Cycle   2  Pass 0  IDiag  1:
 E= -461.272235560776     Delta-E=       -0.000063245318 Rises=F Damp=F
 DIIS: error= 3.35D-04 at cycle   2 NSaved=   2.
 NSaved= 2 IEnMin= 2 EnMin= -461.272235560776     IErMin= 2 ErrMin= 3.35D-04
 ErrMax= 3.35D-04  0.00D+00 EMaxC= 1.00D-01 BMatC= 7.15D-06 BMatP= 1.42D-04
 IDIUse=3 WtCom= 9.97D-01 WtEn= 3.35D-03
 Coeff-Com:  0.584D-01 0.942D+00
 Coeff-En:   0.000D+00 0.100D+01
 Coeff:      0.582D-01 0.942D+00
 Gap=     0.258 Goal=   None    Shift=    0.000
 Gap=     0.207 Goal=   None    Shift=    0.000
 RMSDP=1.99D-04 MaxDP=2.17D-03 DE=-6.32D-05 OVMax= 1.11D-03

 Cycle   3  Pass 0  IDiag  1:
 E= -461.272236677687     Delta-E=       -0.000001116910 Rises=F Damp=F
 DIIS: error= 2.67D-04 at cycle   3 NSaved=   3.
 NSaved= 3 IEnMin= 3 EnMin= -461.272236677687     IErMin= 3 ErrMin= 2.67D-04
 ErrMax= 2.67D-04  0.00D+00 EMaxC= 1.00D-01 BMatC= 4.59D-06 BMatP= 7.15D-06
 IDIUse=3 WtCom= 9.97D-01 WtEn= 2.67D-03
 Coeff-Com: -0.180D-01 0.443D+00 0.575D+00
 Coeff-En:   0.000D+00 0.324D+00 0.676D+00
 Coeff:     -0.179D-01 0.442D+00 0.576D+00
 Gap=     0.259 Goal=   None    Shift=    0.000
 Gap=     0.207 Goal=   None    Shift=    0.000
 RMSDP=7.02D-05 MaxDP=6.15D-04 DE=-1.12D-06 OVMax= 5.86D-04

 Cycle   4  Pass 0  IDiag  1:
 E= -461.272238104541     Delta-E=       -0.000001426855 Rises=F Damp=F
 DIIS: error= 3.42D-05 at cycle   4 NSaved=   4.
 NSaved= 4 IEnMin= 4 EnMin= -461.272238104541     IErMin= 4 ErrMin= 3.42D-05
 ErrMax= 3.42D-05  0.00D+00 EMaxC= 1.00D-01 BMatC= 1.99D-08 BMatP= 4.59D-06
 IDIUse=1 WtCom= 1.00D+00 WtEn= 0.00D+00
 Coeff-Com: -0.300D-02-0.387D-01-0.665D-02 0.105D+01
 Coeff:     -0.300D-02-0.387D-01-0.665D-02 0.105D+01
 Gap=     0.259 Goal=   None    Shift=    0.000
 Gap=     0.207 Goal=   None    Shift=    0.000
 RMSDP=6.36D-06 MaxDP=9.44D-05 DE=-1.43D-06 OVMax= 9.35D-05

 Initial convergence to 1.0D-05 achieved.  Increase integral accuracy.
 Cycle   5  Pass 1  IDiag  1:
 E= -461.272235209491     Delta-E=        0.000002895051 Rises=F Damp=F
 DIIS: error= 5.35D-06 at cycle   1 NSaved=   1.
 NSaved= 1 IEnMin= 1 EnMin= -461.272235209491     IErMin= 1 ErrMin= 5.35D-06
 ErrMax= 5.35D-06  0.00D+00 EMaxC= 1.00D-01 BMatC= 1.14D-09 BMatP= 1.14D-09
 IDIUse=1 WtCom= 1.00D+00 WtEn= 0.00D+00
 Coeff-Com:  0.100D+01
 Coeff:      0.100D+01
 Gap=     0.259 Goal=   None    Shift=    0.000
 Gap=     0.207 Goal=   None    Shift=    0.000
 RMSDP=6.36D-06 MaxDP=9.44D-05 DE= 2.90D-06 OVMax= 1.58D-05

 Cycle   6  Pass 1  IDiag  1:
 E= -461.272235210175     Delta-E=       -0.000000000684 Rises=F Damp=F
 DIIS: error= 1.73D-06 at cycle   2 NSaved=   2.
 NSaved= 2 IEnMin= 2 EnMin= -461.272235210175     IErMin= 2 ErrMin= 1.73D-06
 ErrMax= 1.73D-06  0.00D+00 EMaxC= 1.00D-01 BMatC= 1.04D-10 BMatP= 1.14D-09
 IDIUse=1 WtCom= 1.00D+00 WtEn= 0.00D+00
 Coeff-Com: -0.199D+00 0.120D+01
 Coeff:     -0.199D+00 0.120D+01
 Gap=     0.259 Goal=   None    Shift=    0.000
 Gap=     0.207 Goal=   None    Shift=    0.000
 RMSDP=5.69D-07 MaxDP=7.67D-06 DE=-6.84D-10 OVMax= 7.26D-06

 Cycle   7  Pass 1  IDiag  1:
 E= -461.272235210238     Delta-E=       -0.000000000063 Rises=F Damp=F
 DIIS: error= 8.55D-07 at cycle   3 NSaved=   3.
 NSaved= 3 IEnMin= 3 EnMin= -461.272235210238     IErMin= 3 ErrMin= 8.55D-07
 ErrMax= 8.55D-07  0.00D+00 EMaxC= 1.00D-01 BMatC= 3.30D-11 BMatP= 1.04D-10
 IDIUse=1 WtCom= 1.00D+00 WtEn= 0.00D+00
 Coeff-Com: -0.133D+00 0.464D+00 0.670D+00
 Coeff:     -0.133D+00 0.464D+00 0.670D+00
 Gap=     0.259 Goal=   None    Shift=    0.000
 Gap=     0.207 Goal=   None    Shift=    0.000
 RMSDP=2.41D-07 MaxDP=2.79D-06 DE=-6.33D-11 OVMax= 2.29D-06

 Cycle   8  Pass 1  IDiag  1:
 E= -461.272235210249     Delta-E=       -0.000000000010 Rises=F Damp=F
 DIIS: error= 2.32D-07 at cycle   4 NSaved=   4.
 NSaved= 4 IEnMin= 4 EnMin= -461.272235210249     IErMin= 4 ErrMin= 2.32D-07
 ErrMax= 2.32D-07  0.00D+00 EMaxC= 1.00D-01 BMatC= 1.75D-12 BMatP= 3.30D-11
 IDIUse=1 WtCom= 1.00D+00 WtEn= 0.00D+00
 Coeff-Com: -0.156D-01-0.238D-01 0.178D+00 0.861D+00
 Coeff:     -0.156D-01-0.238D-01 0.178D+00 0.861D+00
 Gap=     0.259 Goal=   None    Shift=    0.000
 Gap=     0.207 Goal=   None    Shift=    0.000
 RMSDP=4.99D-08 MaxDP=6.83D-07 DE=-1.05D-11 OVMax= 6.88D-07

 Cycle   9  Pass 1  IDiag  1:
 E= -461.272235210249     Delta-E=       -0.000000000001 Rises=F Damp=F
 DIIS: error= 8.48D-09 at cycle   5 NSaved=   5.
 NSaved= 5 IEnMin= 5 EnMin= -461.272235210249     IErMin= 5 ErrMin= 8.48D-09
 ErrMax= 8.48D-09  0.00D+00 EMaxC= 1.00D-01 BMatC= 3.10D-15 BMatP= 1.75D-12
 IDIUse=1 WtCom= 1.00D+00 WtEn= 0.00D+00
 Coeff-Com:  0.710D-03-0.173D-02-0.104D-01-0.576D-02 0.102D+01
 Coeff:      0.710D-03-0.173D-02-0.104D-01-0.576D-02 0.102D+01
 Gap=     0.259 Goal=   None    Shift=    0.000
 Gap=     0.207 Goal=   None    Shift=    0.000
 RMSDP=2.74D-09 MaxDP=3.20D-08 DE=-5.68D-13 OVMax= 2.50D-08

 SCF Done:  E(UTPSSh) =  -461.272235210     A.U. after    9 cycles
            NFock=  9  Conv=0.27D-08     -V/T= 2.0017
 <Sx>= 0.0000 <Sy>= 0.0000 <Sz>= 0.5000 <S**2>= 0.7705 S= 0.5102
 <L.S>= 0.000000000000E+00
 KE= 4.605120131479D+02 PE=-1.120964178795D+03 EE= 1.870252137423D+02
 Annihilation of the first spin contaminant:
 S**2 before annihilation     0.7705,   after     0.7500
 Leave Link  502 at Wed Oct  7 14:41:59 2020, MaxMem=  2684354560 cpu:              11.0 elap:               1.3
 (Enter /udrive/faculty/rpeverati/g16/g16/l508.exe)
 QCSCF skips out because SCF is already converged.
 Leave Link  508 at Wed Oct  7 14:42:00 2020, MaxMem=  2684354560 cpu:               0.7 elap:               0.5
 (Enter /udrive/faculty/rpeverati/g16/g16/l701.exe)
 ... and contract with generalized density number  0.
 Compute integral first derivatives.
 R6Disp: Adding Grimme-D3(BJ) dispersion energy 1st derivatives to the gradient.
 Leave Link  701 at Wed Oct  7 14:42:01 2020, MaxMem=  2684354560 cpu:               4.7 elap:               0.8
 (Enter /udrive/faculty/rpeverati/g16/g16/l702.exe)
 L702 exits ... SP integral derivatives will be done elsewhere.
 Leave Link  702 at Wed Oct  7 14:42:01 2020, MaxMem=  2684354560 cpu:               1.7 elap:               0.4
 (Enter /udrive/faculty/rpeverati/g16/g16/l703.exe)
 Integral derivatives from FoFJK, PRISM(SPDF).
 Compute integral first derivatives, UseDBF=F ICtDFT=           0.
 Calling FoFJK, ICntrl=      2127 FMM=F ISym2X=1 I1Cent= 0 IOpClX= 1 NMat=1 NMatS=1 NMatT=0.
 FoFJK:  IHMeth= 1 ICntrl=    2127 DoSepK=F KAlg= 0 I1Cent=           0 FoldK=F
 IRaf=         0 NMat=       1 IRICut=       1 DoRegI=T DoRafI=F ISym2E= 1 IDoP0=0 IntGTp=1.
 FoFCou: FMM=F IPFlag=           0 FMFlag=      100000 FMFlg1=         800
         NFxFlg=           0 DoJE=F BraDBF=F KetDBF=F FulRan=T
         wScrn=  0.000000 ICntrl=      2127 IOpCl=  1 I1Cent=           0 NGrid=           0
         NMat0=    1 NMatS0=      1 NMatT0=    0 NMatD0=    1 NMtDS0=    0 NMtDT0=    0
 Petite list used in FoFCou.
 Leave Link  703 at Wed Oct  7 14:42:03 2020, MaxMem=  2684354560 cpu:               6.2 elap:               0.9
 (Enter /udrive/faculty/rpeverati/g16/g16/l716.exe)
 Dipole        = 4.40236632D-17 1.67567886D-32 0.00000000D+00
 ***** Axes restored to original set *****
 -------------------------------------------------------------------
 Center     Atomic                   Forces (Hartrees/Bohr)
 Number     Number              X              Y              Z
 -------------------------------------------------------------------
      1        1          -0.000000000   -0.000000000    0.001561418
      2       17           0.000000000    0.000000000   -0.000000000
      3        1          -0.000000000   -0.000000000   -0.001561418
 -------------------------------------------------------------------
 Cartesian Forces:  Max     0.001561418 RMS     0.000736060
 Leave Link  716 at Wed Oct  7 14:42:03 2020, MaxMem=  2684354560 cpu:               2.2 elap:               0.7
 (Enter /udrive/faculty/rpeverati/g16/g16/l103.exe)

 GradGradGradGradGradGradGradGradGradGradGradGradGradGradGradGradGradGrad
 Berny optimization.
 Optmz: redundant internal coordinate code flag= 1
 Red2BG:  D1=  7.45D-01 OD1=  3.33D-16 B2RMS=  0.00D+00 IAprox=1
 Red2BG is reusing G-inverse.
 Internal  Forces:  Max     0.001561418 RMS     0.001104089
 Search for a saddle point.
 Step number   2 out of a maximum of   50
 All quantities printed in internal units (Hartrees-Bohrs-Radians)
 Swapping is turned off.
 Update second derivatives using D2CorX and points    1    2
 The second derivative matrix:
                          R1        R2        A1        A2
           R1           0.15155
           R2          -0.02347   0.15155
           A1           0.00000   0.00000   0.00230
           A2           0.00000   0.00000  -0.00000   0.00230
 ITU=  0  0
 Eigenvectors of the second derivative matrix:
                           1         2         3         4
     Eigenvalues --     0.00230   0.00230   0.12807   0.17502
   1         R1         0.00000  -0.00000   0.70711  -0.70711
   2         R2         0.00000  -0.00000   0.70711   0.70711
   3         A1        -1.00000  -0.00006   0.00000  -0.00000
   4         A2        -0.00006   1.00000   0.00000   0.00000
 Eigenvalue     1 is   2.30D-03 should be less than     0.000000 Eigenvector:
                          A1        A2        R1        R2
   1                   -1.00000  -0.00006   0.00000   0.00000
 RLam0= 2.30D-03.
 Iter=   1 RLamda= 0.00000000D+00 Sum=-3.80718785D-05.
 Iter=   2 RLamda=-3.80718785D-05 Sum=-3.80605645D-05.
 Iter=   3 RLamda=-3.80605645D-05 Sum=-3.80605679D-05.
 RFO step:  Lambda0=2.300010000D-03 Lambda=-3.80605645D-05.
 Linear search not attempted -- option 19 set.
 Iteration  1 RMS(Cart)=  0.01316151 RMS(Int)=  0.00007834
 Iteration  2 RMS(Cart)=  0.00008550 RMS(Int)=  0.00000000
 Iteration  3 RMS(Cart)=  0.00000000 RMS(Int)=  0.00000000
 ITry= 1 IFail=0 DXMaxC= 1.64D-02 DCOld= 1.00D+10 DXMaxT= 1.00D-01 DXLimC= 3.00D+00 Rises=F
 ClnCor:  largest displacement from symmetrization is 1.64D-02 for atom     2.
 Variable       Old X    -DE/DX   Delta X   Delta X   Delta X     New X
                                 (Linear)    (Quad)   (Total)
    R1        2.83823   0.00156   0.00000   0.01219   0.01208   2.85031
    R2        2.83823   0.00156   0.00000   0.01219   0.01208   2.85031
    A1        3.14159   0.00000   0.00000   0.01724   0.00000   3.14159
    A2        3.14159  -0.00000   0.00000   0.00000   0.00000   3.14159
         Item               Value     Threshold  Converged?
 Maximum Force            0.001561     0.000450     NO 
 RMS     Force            0.001104     0.000300     NO 
 Maximum Displacement     0.012082     0.001800     NO 
 RMS     Displacement     0.008543     0.001200     NO 
 Predicted change in Energy=-1.903440D-05
 Lowest energy point so far.  Saving SCF results.
 Largest change from initial coordinates is atom    1       0.023 Angstoms.
 GradGradGradGradGradGradGradGradGradGradGradGradGradGradGradGradGradGrad

 Leave Link  103 at Wed Oct  7 14:42:04 2020, MaxMem=  2684354560 cpu:               1.9 elap:               0.6
 (Enter /udrive/faculty/rpeverati/g16/g16/l202.exe)
                          Input orientation:                          
 ---------------------------------------------------------------------
 Center     Atomic      Atomic             Coordinates (Angstroms)
 Number     Number       Type             X           Y           Z
 ---------------------------------------------------------------------
      1          1           0        0.000000    0.000000    1.508318
      2         17           0        0.000000    0.000000   -0.000000
      3          1           0        0.000000    0.000000   -1.508318
 ---------------------------------------------------------------------
                    Distance matrix (angstroms):
                    1          2          3
     1  H    0.000000
     2  Cl   1.508318   0.000000
     3  H    3.016635   1.508318   0.000000
 Stoichiometry    ClH2(2)
 Framework group  D*H[O(Cl),C*(H.H)]
 Deg. of freedom     1
 Full point group                 D*H     NOp   8
 RotChk:  IX=0 Diff= 0.00D+00
 Largest Abelian subgroup         D2H     NOp   8
 Largest concise Abelian subgroup C2      NOp   2
                         Standard orientation:                         
 ---------------------------------------------------------------------
 Center     Atomic      Atomic             Coordinates (Angstroms)
 Number     Number       Type             X           Y           Z
 ---------------------------------------------------------------------
      1          1           0        0.000000    0.000000    1.508318
      2         17           0        0.000000    0.000000    0.000000
      3          1           0        0.000000    0.000000   -1.508318
 ---------------------------------------------------------------------
 Rotational constants (GHZ):           0.0000000         110.2088287         110.2088287
 Leave Link  202 at Wed Oct  7 14:42:05 2020, MaxMem=  2684354560 cpu:               1.4 elap:               0.4
 (Enter /udrive/faculty/rpeverati/g16/g16/l301.exe)
 Standard basis: 6-31G(d) (5D, 7F)
 Ernie: Thresh=  0.10000D-02 Tol=  0.10000D-05 Strict=F.
 There are     9 symmetry adapted cartesian basis functions of AG  symmetry.
 There are     1 symmetry adapted cartesian basis functions of B1G symmetry.
 There are     1 symmetry adapted cartesian basis functions of B2G symmetry.
 There are     1 symmetry adapted cartesian basis functions of B3G symmetry.
 There are     0 symmetry adapted cartesian basis functions of AU  symmetry.
 There are     5 symmetry adapted cartesian basis functions of B1U symmetry.
 There are     3 symmetry adapted cartesian basis functions of B2U symmetry.
 There are     3 symmetry adapted cartesian basis functions of B3U symmetry.
 There are     8 symmetry adapted basis functions of AG  symmetry.
 There are     1 symmetry adapted basis functions of B1G symmetry.
 There are     1 symmetry adapted basis functions of B2G symmetry.
 There are     1 symmetry adapted basis functions of B3G symmetry.
 There are     0 symmetry adapted basis functions of AU  symmetry.
 There are     5 symmetry adapted basis functions of B1U symmetry.
 There are     3 symmetry adapted basis functions of B2U symmetry.
 There are     3 symmetry adapted basis functions of B3U symmetry.
    22 basis functions,    60 primitive gaussians,    23 cartesian basis functions
    10 alpha electrons        9 beta electrons
       nuclear repulsion energy        12.1039575231 Hartrees.
 IExCor= 2523 DFT=T Ex+Corr=TPSSh ExCW=0 ScaHFX=  0.100000
 ScaDFX=  0.900000  0.900000  1.000000  1.000000 ScalE2=  1.000000  1.000000
 IRadAn=      5 IRanWt=     -1 IRanGd=            0 ICorTp=0 IEmpDi=141
 NAtoms=    3 NActive=    3 NUniq=    2 SFac= 2.25D+00 NAtFMM=   60 NAOKFM=F Big=F
 Integral buffers will be    131072 words long.
 Raffenetti 2 integral format.
 Two-electron integral symmetry is turned on.
 R6DIni: Non-standard D2/D3 S6 parameter, value=     1.000000
 R6DIni: Non-standard D2/D3 S8 parameter, value=     2.238200
 R6DIni: Non-standard D3BJ A1 parameter, value=     0.452900
 R6DIni: Non-standard D3BJ A2 parameter, value=     4.655000
 R6Disp:  Grimme-D3(BJ) Dispersion energy=       -0.0007657099 Hartrees.
 Nuclear repulsion after empirical dispersion term =       12.1031918132 Hartrees.
 Leave Link  301 at Wed Oct  7 14:42:06 2020, MaxMem=  2684354560 cpu:               1.6 elap:               0.5
 (Enter /udrive/faculty/rpeverati/g16/g16/l302.exe)
 NPDir=0 NMtPBC=     1 NCelOv=     1 NCel=       1 NClECP=     1 NCelD=      1
         NCelK=      1 NCelE2=     1 NClLst=     1 CellRange=     0.0.
 One-electron integrals computed using PRISM.
 One-electron integral symmetry used in STVInt
 NBasis=    22 RedAO= T EigKep=  5.84D-02  NBF=     8     1     1     1     0     5     3     3
 NBsUse=    22 1.00D-06 EigRej= -1.00D+00 NBFU=     8     1     1     1     0     5     3     3
 Precomputing XC quadrature grid using
 IXCGrd= 4 IRadAn=           5 IRanWt=          -1 IRanGd=           0 AccXCQ= 0.00D+00.
 Generated NRdTot=       0 NPtTot=           0 NUsed=           0 NTot=          32
 NSgBfM=    23    23    23    23    23 MxSgAt=     3 MxSgA2=     3.
 Leave Link  302 at Wed Oct  7 14:42:06 2020, MaxMem=  2684354560 cpu:               3.5 elap:               0.6
 (Enter /udrive/faculty/rpeverati/g16/g16/l303.exe)
 DipDrv:  MaxL=1.
 Leave Link  303 at Wed Oct  7 14:42:07 2020, MaxMem=  2684354560 cpu:               1.4 elap:               0.4
 (Enter /udrive/faculty/rpeverati/g16/g16/l401.exe)
 Initial guess from the checkpoint file:  "MN_45_hclhts_BH76_TPSShDBJ_631Gs.chk"
 SCF N**3 symmetry information disabled.
 B after Tr=     0.000000    0.000000    0.000000
         Rot=    1.000000    0.000000    0.000000    0.000000 Ang=   0.00 deg.
 Guess basis will be translated and rotated to current coordinates.
 JPrj=2 DoOrth=T DoCkMO=T.
 Initial guess orbital symmetries:
 Alpha Orbitals:
       Occupied  (SGG) (SGG) (SGU) (PIU) (PIU) (SGG) (SGU) (PIU)
                 (PIU) (SGG)
       Virtual   (SGU) (SGG) (PIU) (PIU) (SGU) (SGG) (SGU) (PIG)
                 (PIG) (DLTG) (DLTG) (SGG)
 Beta  Orbitals:
       Occupied  (SGG) (SGG) (SGU) (PIU) (PIU) (SGG) (SGU) (PIU)
                 (PIU)
       Virtual   (SGG) (SGU) (SGG) (PIU) (PIU) (SGU) (SGG) (PIG)
                 (PIG) (SGU) (DLTG) (DLTG) (SGG)
 The electronic state of the initial guess is 2-SGG.
 Initial guess <Sx>= 0.0000 <Sy>= 0.0000 <Sz>= 0.5000 <S**2>= 0.7708 S= 0.5103
 Leave Link  401 at Wed Oct  7 14:42:08 2020, MaxMem=  2684354560 cpu:               2.5 elap:               0.5
 (Enter /udrive/faculty/rpeverati/g16/g16/l502.exe)
 Keep R1 and R2 ints in memory in symmetry-blocked form, NReq=10387291.
 FoFCou: FMM=F IPFlag=           0 FMFlag=           0 FMFlg1=           0
         NFxFlg=           0 DoJE=F BraDBF=F KetDBF=F FulRan=T
         wScrn=  0.000000 ICntrl=       600 IOpCl=  0 I1Cent=           0 NGrid=           0
         NMat0=    1 NMatS0=    253 NMatT0=    0 NMatD0=    1 NMtDS0=    0 NMtDT0=    0
 Petite list used in FoFCou.
 UHF open shell SCF:
 Using DIIS extrapolation, IDIIS=  1040.
 NGot=  2684354560 LenX=  2684339476 LenY=  2684338506
 Requested convergence on RMS density matrix=1.00D-08 within 120 cycles.
 Requested convergence on MAX density matrix=1.00D-06.
 Requested convergence on             energy=1.00D-06.
 No special actions if energy rises.

 Cycle   1  Pass 1  IDiag  1:
 E= -461.272245161777    
 DIIS: error= 7.13D-04 at cycle   1 NSaved=   1.
 NSaved= 1 IEnMin= 1 EnMin= -461.272245161777     IErMin= 1 ErrMin= 7.13D-04
 ErrMax= 7.13D-04  0.00D+00 EMaxC= 1.00D-01 BMatC= 2.17D-05 BMatP= 2.17D-05
 IDIUse=3 WtCom= 9.93D-01 WtEn= 7.13D-03
 Coeff-Com:  0.100D+01
 Coeff-En:   0.100D+01
 Coeff:      0.100D+01
 Gap=     0.257 Goal=   None    Shift=    0.000
 Gap=     0.205 Goal=   None    Shift=    0.000
 RMSDP=3.02D-04 MaxDP=3.60D-03              OVMax= 1.93D-03

 Cycle   2  Pass 1  IDiag  1:
 E= -461.272254822223     Delta-E=       -0.000009660445 Rises=F Damp=F
 DIIS: error= 1.32D-04 at cycle   2 NSaved=   2.
 NSaved= 2 IEnMin= 2 EnMin= -461.272254822223     IErMin= 2 ErrMin= 1.32D-04
 ErrMax= 1.32D-04  0.00D+00 EMaxC= 1.00D-01 BMatC= 1.09D-06 BMatP= 2.17D-05
 IDIUse=3 WtCom= 9.99D-01 WtEn= 1.32D-03
 Coeff-Com:  0.583D-01 0.942D+00
 Coeff-En:   0.000D+00 0.100D+01
 Coeff:      0.582D-01 0.942D+00
 Gap=     0.257 Goal=   None    Shift=    0.000
 Gap=     0.206 Goal=   None    Shift=    0.000
 RMSDP=7.74D-05 MaxDP=8.31D-04 DE=-9.66D-06 OVMax= 4.40D-04

 Cycle   3  Pass 1  IDiag  1:
 E= -461.272254991695     Delta-E=       -0.000000169473 Rises=F Damp=F
 DIIS: error= 1.05D-04 at cycle   3 NSaved=   3.
 NSaved= 3 IEnMin= 3 EnMin= -461.272254991695     IErMin= 3 ErrMin= 1.05D-04
 ErrMax= 1.05D-04  0.00D+00 EMaxC= 1.00D-01 BMatC= 7.08D-07 BMatP= 1.09D-06
 IDIUse=3 WtCom= 9.99D-01 WtEn= 1.05D-03
 Coeff-Com: -0.182D-01 0.444D+00 0.574D+00
 Coeff-En:   0.000D+00 0.327D+00 0.673D+00
 Coeff:     -0.182D-01 0.444D+00 0.574D+00
 Gap=     0.257 Goal=   None    Shift=    0.000
 Gap=     0.206 Goal=   None    Shift=    0.000
 RMSDP=2.75D-05 MaxDP=2.42D-04 DE=-1.69D-07 OVMax= 2.33D-04

 Cycle   4  Pass 1  IDiag  1:
 E= -461.272255212398     Delta-E=       -0.000000220702 Rises=F Damp=F
 DIIS: error= 1.34D-05 at cycle   4 NSaved=   4.
 NSaved= 4 IEnMin= 4 EnMin= -461.272255212398     IErMin= 4 ErrMin= 1.34D-05
 ErrMax= 1.34D-05  0.00D+00 EMaxC= 1.00D-01 BMatC= 3.06D-09 BMatP= 7.08D-07
 IDIUse=1 WtCom= 1.00D+00 WtEn= 0.00D+00
 Coeff-Com: -0.293D-02-0.401D-01-0.873D-02 0.105D+01
 Coeff:     -0.293D-02-0.401D-01-0.873D-02 0.105D+01
 Gap=     0.257 Goal=   None    Shift=    0.000
 Gap=     0.206 Goal=   None    Shift=    0.000
 RMSDP=2.50D-06 MaxDP=3.76D-05 DE=-2.21D-07 OVMax= 3.73D-05

 Cycle   5  Pass 1  IDiag  1:
 E= -461.272255214385     Delta-E=       -0.000000001987 Rises=F Damp=F
 DIIS: error= 2.27D-06 at cycle   5 NSaved=   5.
 NSaved= 5 IEnMin= 5 EnMin= -461.272255214385     IErMin= 5 ErrMin= 2.27D-06
 ErrMax= 2.27D-06  0.00D+00 EMaxC= 1.00D-01 BMatC= 1.40D-10 BMatP= 3.06D-09
 IDIUse=1 WtCom= 1.00D+00 WtEn= 0.00D+00
 Coeff-Com:  0.121D-02-0.987D-02-0.238D-01-0.212D+00 0.124D+01
 Coeff:      0.121D-02-0.987D-02-0.238D-01-0.212D+00 0.124D+01
 Gap=     0.257 Goal=   None    Shift=    0.000
 Gap=     0.206 Goal=   None    Shift=    0.000
 RMSDP=7.37D-07 MaxDP=9.30D-06 DE=-1.99D-09 OVMax= 9.47D-06

 Cycle   6  Pass 1  IDiag  1:
 E= -461.272255214495     Delta-E=       -0.000000000111 Rises=F Damp=F
 DIIS: error= 1.66D-07 at cycle   6 NSaved=   6.
 NSaved= 6 IEnMin= 6 EnMin= -461.272255214495     IErMin= 6 ErrMin= 1.66D-07
 ErrMax= 1.66D-07  0.00D+00 EMaxC= 1.00D-01 BMatC= 1.17D-12 BMatP= 1.40D-10
 IDIUse=1 WtCom= 1.00D+00 WtEn= 0.00D+00
 Coeff-Com:  0.255D-04 0.227D-03 0.951D-03-0.122D-01 0.783D-02 0.100D+01
 Coeff:      0.255D-04 0.227D-03 0.951D-03-0.122D-01 0.783D-02 0.100D+01
 Gap=     0.257 Goal=   None    Shift=    0.000
 Gap=     0.206 Goal=   None    Shift=    0.000
 RMSDP=3.92D-08 MaxDP=6.27D-07 DE=-1.11D-10 OVMax= 4.84D-07

 Cycle   7  Pass 1  IDiag  1:
 E= -461.272255214496     Delta-E=       -0.000000000001 Rises=F Damp=F
 DIIS: error= 6.37D-09 at cycle   7 NSaved=   7.
 NSaved= 7 IEnMin= 7 EnMin= -461.272255214496     IErMin= 7 ErrMin= 6.37D-09
 ErrMax= 6.37D-09  0.00D+00 EMaxC= 1.00D-01 BMatC= 2.70D-15 BMatP= 1.17D-12
 IDIUse=1 WtCom= 1.00D+00 WtEn= 0.00D+00
 Coeff-Com: -0.775D-05 0.530D-04 0.261D-04 0.192D-02-0.618D-02-0.791D-01
 Coeff-Com:  0.108D+01
 Coeff:     -0.775D-05 0.530D-04 0.261D-04 0.192D-02-0.618D-02-0.791D-01
 Coeff:      0.108D+01
 Gap=     0.257 Goal=   None    Shift=    0.000
 Gap=     0.206 Goal=   None    Shift=    0.000
 RMSDP=3.28D-09 MaxDP=3.58D-08 DE=-9.09D-13 OVMax= 1.35D-08

 SCF Done:  E(UTPSSh) =  -461.272255214     A.U. after    7 cycles
            NFock=  7  Conv=0.33D-08     -V/T= 2.0017
 <Sx>= 0.0000 <Sy>= 0.0000 <Sz>= 0.5000 <S**2>= 0.7710 S= 0.5105
 <L.S>= 0.000000000000E+00
 KE= 4.605021795687D+02 PE=-1.120858718329D+03 EE= 1.869810917328D+02
 Annihilation of the first spin contaminant:
 S**2 before annihilation     0.7710,   after     0.7500
 Leave Link  502 at Wed Oct  7 14:42:09 2020, MaxMem=  2684354560 cpu:               7.9 elap:               0.9
 (Enter /udrive/faculty/rpeverati/g16/g16/l508.exe)
 QCSCF skips out because SCF is already converged.
 Leave Link  508 at Wed Oct  7 14:42:09 2020, MaxMem=  2684354560 cpu:               0.2 elap:               0.2
 (Enter /udrive/faculty/rpeverati/g16/g16/l701.exe)
 ... and contract with generalized density number  0.
 Compute integral first derivatives.
 R6Disp: Adding Grimme-D3(BJ) dispersion energy 1st derivatives to the gradient.
 Leave Link  701 at Wed Oct  7 14:42:10 2020, MaxMem=  2684354560 cpu:               3.4 elap:               0.6
 (Enter /udrive/faculty/rpeverati/g16/g16/l702.exe)
 L702 exits ... SP integral derivatives will be done elsewhere.
 Leave Link  702 at Wed Oct  7 14:42:10 2020, MaxMem=  2684354560 cpu:               1.1 elap:               0.4
 (Enter /udrive/faculty/rpeverati/g16/g16/l703.exe)
 Integral derivatives from FoFJK, PRISM(SPDF).
 Compute integral first derivatives, UseDBF=F ICtDFT=           0.
 Calling FoFJK, ICntrl=      2127 FMM=F ISym2X=1 I1Cent= 0 IOpClX= 1 NMat=1 NMatS=1 NMatT=0.
 FoFJK:  IHMeth= 1 ICntrl=    2127 DoSepK=F KAlg= 0 I1Cent=           0 FoldK=F
 IRaf=         0 NMat=       1 IRICut=       1 DoRegI=T DoRafI=F ISym2E= 1 IDoP0=0 IntGTp=1.
 FoFCou: FMM=F IPFlag=           0 FMFlag=      100000 FMFlg1=         800
         NFxFlg=           0 DoJE=F BraDBF=F KetDBF=F FulRan=T
         wScrn=  0.000000 ICntrl=      2127 IOpCl=  1 I1Cent=           0 NGrid=           0
         NMat0=    1 NMatS0=      1 NMatT0=    0 NMatD0=    1 NMtDS0=    0 NMtDT0=    0
 Petite list used in FoFCou.
 Leave Link  703 at Wed Oct  7 14:42:11 2020, MaxMem=  2684354560 cpu:               5.9 elap:               0.8
 (Enter /udrive/faculty/rpeverati/g16/g16/l716.exe)
 Dipole        = 4.42637259D-17-3.63082655D-32 0.00000000D+00
 ***** Axes restored to original set *****
 -------------------------------------------------------------------
 Center     Atomic                   Forces (Hartrees/Bohr)
 Number     Number              X              Y              Z
 -------------------------------------------------------------------
      1        1          -0.000000000   -0.000000000    0.000102419
      2       17           0.000000000    0.000000000    0.000000000
      3        1          -0.000000000   -0.000000000   -0.000102419
 -------------------------------------------------------------------
 Cartesian Forces:  Max     0.000102419 RMS     0.000048281
 Leave Link  716 at Wed Oct  7 14:42:12 2020, MaxMem=  2684354560 cpu:               1.2 elap:               0.3
 (Enter /udrive/faculty/rpeverati/g16/g16/l103.exe)

 GradGradGradGradGradGradGradGradGradGradGradGradGradGradGradGradGradGrad
 Berny optimization.
 Optmz: redundant internal coordinate code flag= 1
 Red2BG:  D1=  7.39D-01 OD1=  3.33D-16 B2RMS=  0.00D+00 IAprox=1
 Red2BG is reusing G-inverse.
 Internal  Forces:  Max     0.000102419 RMS     0.000072421
 Search for a saddle point.
 Step number   3 out of a maximum of   50
 All quantities printed in internal units (Hartrees-Bohrs-Radians)
 Swapping is turned off.
 Update second derivatives using D2CorX and points    1    2    3
 The second derivative matrix:
                          R1        R2        A1        A2
           R1           0.14789
           R2          -0.02713   0.14789
           A1           0.00000   0.00000   0.00230
           A2           0.00000   0.00000  -0.00000   0.00230
 ITU=  0  0  0
 Eigenvectors of the second derivative matrix:
                           1         2         3         4
     Eigenvalues --     0.00230   0.00230   0.12076   0.17502
   1         R1         0.00000  -0.00000   0.70711  -0.70711
   2         R2         0.00000  -0.00000   0.70711   0.70711
   3         A1        -1.00000  -0.00004   0.00000  -0.00000
   4         A2        -0.00004   1.00000   0.00000  -0.00000
 Eigenvalue     1 is   2.30D-03 should be less than     0.000000 Eigenvector:
                          A1        A2        R1        R2
   1                   -1.00000  -0.00004   0.00000   0.00000
 RLam0= 2.30D-03.
 Iter=   1 RLamda= 0.00000000D+00 Sum=-1.73729083D-07.
 Iter=   2 RLamda=-1.73729083D-07 Sum=-1.73728833D-07.
 RFO step:  Lambda0=2.300010000D-03 Lambda=-1.73729083D-07.
 Linear search not attempted -- option 19 set.
 Iteration  1 RMS(Cart)=  0.00092000 RMS(Int)=  0.00000038
 Iteration  2 RMS(Cart)=  0.00000041 RMS(Int)=  0.00000000
 ITry= 1 IFail=0 DXMaxC= 1.14D-03 DCOld= 1.00D+10 DXMaxT= 1.00D-01 DXLimC= 3.00D+00 Rises=F
 ClnCor:  largest displacement from symmetrization is 1.14D-03 for atom     2.
 Variable       Old X    -DE/DX   Delta X   Delta X   Delta X     New X
                                 (Linear)    (Quad)   (Total)
    R1        2.85031   0.00010   0.00000   0.00085   0.00085   2.85116
    R2        2.85031   0.00010   0.00000   0.00085   0.00085   2.85116
    A1        3.14159   0.00000   0.00000   0.00120   0.00000   3.14159
    A2        3.14159  -0.00000   0.00000   0.00000   0.00000   3.14159
         Item               Value     Threshold  Converged?
 Maximum Force            0.000102     0.000450     YES
 RMS     Force            0.000072     0.000300     YES
 Maximum Displacement     0.000848     0.001800     YES
 RMS     Displacement     0.000599     0.001200     YES
 Predicted change in Energy=-8.686451D-08
 Optimization completed.
    -- Stationary point found.
                           ----------------------------
                           !   Optimized Parameters   !
                           ! (Angstroms and Degrees)  !
 --------------------------                            --------------------------
 ! Name  Definition              Value          Derivative Info.                !
 --------------------------------------------------------------------------------
 ! R1    R(1,2)                  1.5083         -DE/DX =    0.0001              !
 ! R2    R(2,3)                  1.5083         -DE/DX =    0.0001              !
 ! A1    L(1,2,3,-1,-1)        180.0            -DE/DX =    0.0                 !
 ! A2    L(1,2,3,-2,-2)        180.0            -DE/DX =    0.0                 !
 --------------------------------------------------------------------------------
 Lowest energy point so far.  Saving SCF results.
 Largest change from initial coordinates is atom    1       0.023 Angstoms.
 GradGradGradGradGradGradGradGradGradGradGradGradGradGradGradGradGradGrad

 Leave Link  103 at Wed Oct  7 14:42:12 2020, MaxMem=  2684354560 cpu:               1.3 elap:               0.4
 (Enter /udrive/faculty/rpeverati/g16/g16/l202.exe)
                          Input orientation:                          
 ---------------------------------------------------------------------
 Center     Atomic      Atomic             Coordinates (Angstroms)
 Number     Number       Type             X           Y           Z
 ---------------------------------------------------------------------
      1          1           0        0.000000    0.000000    1.508318
      2         17           0        0.000000    0.000000    0.000000
      3          1           0        0.000000    0.000000   -1.508318
 ---------------------------------------------------------------------
                    Distance matrix (angstroms):
                    1          2          3
     1  H    0.000000
     2  Cl   1.508318   0.000000
     3  H    3.016635   1.508318   0.000000
 Stoichiometry    ClH2(2)
 Framework group  D*H[O(Cl),C*(H.H)]
 Deg. of freedom     1
 Full point group                 D*H     NOp   8
 RotChk:  IX=0 Diff= 0.00D+00
 Largest Abelian subgroup         D2H     NOp   8
 Largest concise Abelian subgroup C2      NOp   2
                         Standard orientation:                         
 ---------------------------------------------------------------------
 Center     Atomic      Atomic             Coordinates (Angstroms)
 Number     Number       Type             X           Y           Z
 ---------------------------------------------------------------------
      1          1           0        0.000000    0.000000    1.508318
      2         17           0        0.000000    0.000000    0.000000
      3          1           0        0.000000    0.000000   -1.508318
 ---------------------------------------------------------------------
 Rotational constants (GHZ):           0.0000000         110.2088287         110.2088287
 Leave Link  202 at Wed Oct  7 14:42:13 2020, MaxMem=  2684354560 cpu:               0.9 elap:               0.3
 (Enter /udrive/faculty/rpeverati/g16/g16/l601.exe)
 Copying SCF densities to generalized density rwf, IOpCl= 1 IROHF=0.

 **********************************************************************

            Population analysis using the SCF density.

 **********************************************************************

 Orbital symmetries:
 Alpha Orbitals:
       Occupied  (SGG) (SGG) (SGU) (PIU) (PIU) (SGG) (SGU) (PIU)
                 (PIU) (SGG)
       Virtual   (SGU) (SGG) (PIU) (PIU) (SGU) (SGG) (SGU) (PIG)
                 (PIG) (DLTG) (DLTG) (SGG)
 Beta  Orbitals:
       Occupied  (SGG) (SGG) (SGU) (PIU) (PIU) (SGG) (SGU) (PIU)
                 (PIU)
       Virtual   (SGG) (SGU) (SGG) (PIU) (PIU) (SGU) (SGG) (PIG)
                 (PIG) (SGU) (DLTG) (DLTG) (SGG)
 The electronic state is 2-SGG.
 Alpha  occ. eigenvalues -- -101.39459  -9.39907  -7.14938  -7.13720  -7.13720
 Alpha  occ. eigenvalues --   -0.82509  -0.52106  -0.32631  -0.32631  -0.25355
 Alpha virt. eigenvalues --    0.00359   0.39351   0.42999   0.42999   0.61891
 Alpha virt. eigenvalues --    0.63642   0.71285   0.80923   0.80923   0.83675
 Alpha virt. eigenvalues --    0.83676   1.06822
  Beta  occ. eigenvalues -- -101.39447  -9.39836  -7.15155  -7.13626  -7.13626
  Beta  occ. eigenvalues --   -0.81888  -0.47782  -0.31996  -0.31996
  Beta virt. eigenvalues --   -0.11430   0.07058   0.39390   0.43528   0.43528
  Beta virt. eigenvalues --    0.62394   0.68934   0.80403   0.80403   0.82746
  Beta virt. eigenvalues --    0.84713   0.84714   1.13192
          Condensed to atoms (all electrons):
               1          2          3
     1  H    0.893296  -0.042910   0.023650
     2  Cl  -0.042910  17.337750  -0.042910
     3  H    0.023650  -0.042910   0.893296
          Atomic-Atomic Spin Densities.
               1          2          3
     1  H    0.764403  -0.219580   0.025333
     2  Cl  -0.219580   0.298846  -0.219580
     3  H    0.025333  -0.219580   0.764403
 Mulliken charges and spin densities:
               1          2
     1  H    0.125965   0.570157
     2  Cl  -0.251930  -0.140313
     3  H    0.125965   0.570157
 Sum of Mulliken charges =  -0.00000   1.00000
 Mulliken charges and spin densities with hydrogens summed into heavy atoms:
               1          2
     2  Cl  -0.000000   1.000000
 Electronic spatial extent (au):  <R**2>=             47.5718
 Charge=             -0.0000 electrons
 Dipole moment (field-independent basis, Debye):
    X=              0.0000    Y=             -0.0000    Z=             -0.0000  Tot=              0.0000
 Quadrupole moment (field-independent basis, Debye-Ang):
   XX=            -15.1747   YY=            -15.1747   ZZ=            -11.7814
   XY=             -0.0000   XZ=             -0.0000   YZ=              0.0000
 Traceless Quadrupole moment (field-independent basis, Debye-Ang):
   XX=             -1.1311   YY=             -1.1311   ZZ=              2.2622
   XY=             -0.0000   XZ=             -0.0000   YZ=              0.0000
 Octapole moment (field-independent basis, Debye-Ang**2):
  XXX=             -0.0000  YYY=             -0.0000  ZZZ=              0.0000  XYY=             -0.0000
  XXY=             -0.0000  XXZ=              0.0000  XZZ=             -0.0000  YZZ=              0.0000
  YYZ=              0.0000  XYZ=             -0.0000
 Hexadecapole moment (field-independent basis, Debye-Ang**3):
 XXXX=            -16.7918 YYYY=            -16.7918 ZZZZ=            -38.7368 XXXY=             -0.0000
 XXXZ=              0.0000 YYYX=             -0.0000 YYYZ=              0.0000 ZZZX=              0.0000
 ZZZY=              0.0000 XXYY=             -5.5973 XXZZ=             -9.7046 YYZZ=             -9.7046
 XXYZ=              0.0000 YYXZ=              0.0000 ZZXY=             -0.0000
 N-N= 1.210319181322D+01 E-N=-1.120858718046D+03  KE= 4.605021795687D+02
                          Isotropic Fermi Contact Couplings
[...]
 ---------------------------------------------------------------------------------

       Atom             a.u.   MegaHertz   Gauss  10(-4) cm-1        Axes

              Baa    -0.0144    -7.666    -2.735    -2.557  0.0000  0.0000  1.0000
     1 H(1)   Bbb     0.0072     3.833     1.368     1.279  0.0000  1.0000  0.0000
              Bcc     0.0072     3.833     1.368     1.279  1.0000  0.0000  0.0000
 
              Baa    -1.0824   -56.651   -20.214   -18.897 -0.0000  0.0000  1.0000
     2 Cl(35) Bbb     0.5412    28.325    10.107     9.448  0.0000  1.0000  0.0000
              Bcc     0.5412    28.325    10.107     9.448  1.0000  0.0000  0.0000
 
              Baa    -0.0144    -7.666    -2.735    -2.557 -0.0000  0.0000  1.0000
     3 H(1)   Bbb     0.0072     3.833     1.368     1.279 -0.0029  1.0000 -0.0000
              Bcc     0.0072     3.833     1.368     1.279  1.0000  0.0029  0.0000
 

 ---------------------------------------------------------------------------------

 No NMR shielding tensors so no spin-rotation constants.
 Leave Link  601 at Wed Oct  7 14:42:29 2020, MaxMem=  2684354560 cpu:               5.6 elap:               0.7
 (Enter /udrive/faculty/rpeverati/g16/g16/l701.exe)
 ... and contract with generalized density number  0.
 Compute integral second derivatives.
 R6Disp: Adding Grimme-D3(BJ) dispersion energy 2nd derivatives to the Hessian.
 Leave Link  701 at Wed Oct  7 14:42:30 2020, MaxMem=  2684354560 cpu:               4.4 elap:               0.6
 (Enter /udrive/faculty/rpeverati/g16/g16/l702.exe)
 L702 exits ... SP integral derivatives will be done elsewhere.
 Leave Link  702 at Wed Oct  7 14:42:30 2020, MaxMem=  2684354560 cpu:               1.2 elap:               0.4
 (Enter /udrive/faculty/rpeverati/g16/g16/l703.exe)
 Integral derivatives from FoFJK, PRISM(SPDF).
 Compute integral second derivatives, UseDBF=F ICtDFT=           0.
 Calling FoFJK, ICntrl=    100127 FMM=F ISym2X=1 I1Cent= 0 IOpClX= 1 NMat=1 NMatS=1 NMatT=0.
 FoFJK:  IHMeth= 1 ICntrl=  100127 DoSepK=F KAlg= 0 I1Cent=           0 FoldK=F
 IRaf=         0 NMat=       1 IRICut=       1 DoRegI=T DoRafI=F ISym2E= 1 IDoP0=0 IntGTp=1.
 FoFCou: FMM=F IPFlag=           0 FMFlag=      100000 FMFlg1=         800
         NFxFlg=           0 DoJE=F BraDBF=F KetDBF=F FulRan=T
         wScrn=  0.000000 ICntrl=    100127 IOpCl=  1 I1Cent=           0 NGrid=           0
         NMat0=    1 NMatS0=      1 NMatT0=    0 NMatD0=    1 NMtDS0=    0 NMtDT0=    0
 Petite list used in FoFCou.
 Leave Link  703 at Wed Oct  7 14:42:32 2020, MaxMem=  2684354560 cpu:              11.2 elap:               1.2
 (Enter /udrive/faculty/rpeverati/g16/g16/l716.exe)
 Dipole        = 4.42637260D-17-3.47503994D-33-1.11022302D-16
 Polarizability= 6.24129239D+00-6.97404716D-18 6.24129239D+00
                 7.99178812D-15-1.36315212D-14 3.80905784D+01
 Full mass-weighted force constant matrix:
 Low frequencies ----1351.3474   -0.0050   -0.0050   -0.0030   28.2880   28.2880
 Low frequencies ---  314.1848  314.1848 1764.5306
 ******    1 imaginary frequencies (negative Signs) ****** 
 Diagonal vibrational polarizability:
       11.2722225      11.2722225      15.9788178
 Harmonic frequencies (cm**-1), IR intensities (KM/Mole), Raman scattering
 activities (A**4/AMU), depolarization ratios for plane and unpolarized
 incident light, reduced masses (AMU), force constants (mDyne/A),
 and normal coordinates:
                      1                      2                      3
                     SGU                    PIU                    PIU
 Frequencies --  -1351.3474               314.1848               314.1848
 Red. masses --      1.0641                 1.0641                 1.0641
 Frc consts  --      1.1450                 0.0619                 0.0619
 IR Inten    --   1084.2902                41.3473                41.3473
  Atom  AN      X      Y      Z        X      Y      Z        X      Y      Z
     1   1    -0.00  -0.00   0.71     0.71  -0.00   0.00     0.00   0.71   0.00
     2  17     0.00   0.00  -0.04    -0.04   0.00  -0.00    -0.00  -0.04  -0.00
     3   1    -0.00  -0.00   0.71     0.71  -0.00   0.00     0.00   0.71  -0.00
                      4
                     SGG
 Frequencies --   1764.5306
 Red. masses --      1.0078
 Frc consts  --      1.8488
 IR Inten    --      0.0000
  Atom  AN      X      Y      Z
     1   1    -0.00  -0.00   0.71
     2  17     0.00   0.00  -0.00
     3   1    -0.00  -0.00  -0.71

 -------------------
 - Thermochemistry -
 -------------------
 Temperature   298.150 Kelvin.  Pressure   1.00000 Atm.
 Atom     1 has atomic number  1 and mass   1.00783
 Atom     2 has atomic number 17 and mass  34.96885
 Atom     3 has atomic number  1 and mass   1.00783
 Molecular mass:    36.98450 amu.
 Principal axes and moments of inertia in atomic units:
                           1         2         3
     Eigenvalues --     0.00000  16.37565  16.37565
           X           -0.00000   0.70711   0.70711
           Y           -0.00000   0.70711  -0.70711
           Z            1.00000   0.00000   0.00000
 This molecule is a prolate symmetric top.
 Rotational symmetry number  2.
 Rotational temperature (Kelvin)      5.28919
 Rotational constant (GHZ):         110.208829
    1 imaginary frequencies ignored.
 Zero-point vibrational energy      14312.7 (Joules/Mol)
                                    3.42082 (Kcal/Mol)
 Warning -- explicit consideration of   2 degrees of freedom as
           vibrations may cause significant error
 Vibrational temperatures:    452.04   452.04  2538.77
          (Kelvin)
 
 Zero-point correction=                           0.005451 (Hartree/Particle)
 Thermal correction to Energy=                    0.008619
 Thermal correction to Enthalpy=                  0.009563
 Thermal correction to Gibbs Free Energy=        -0.013926
 Sum of electronic and zero-point Energies=           -461.266804
 Sum of electronic and thermal Energies=              -461.263636
 Sum of electronic and thermal Enthalpies=            -461.262692
 Sum of electronic and thermal Free Energies=         -461.286181
 
                     E (Thermal)             CV                S
                      KCal/Mol        Cal/Mol-Kelvin    Cal/Mol-Kelvin
 Total                    5.408              8.290             49.437
 Electronic               0.000              0.000              1.377
 Translational            0.889              2.981             36.753
 Rotational               0.592              1.987              8.622
 Vibrational              3.927              3.322              2.684
 Vibration     1          0.702              1.647              1.340
 Vibration     2          0.702              1.647              1.340
                       Q            Log10(Q)             Ln(Q)
 Total Bot       0.254361D+07          6.405450         14.749094
 Total V=0       0.818334D+09          8.912931         20.522782
 Vib (Bot)       0.510412D-02         -2.292079         -5.277707
 Vib (Bot)    1  0.600383D+00         -0.221572         -0.510188
 Vib (Bot)    2  0.600383D+00         -0.221572         -0.510188
 Vib (V=0)       0.164211D+01          0.215402          0.495981
 Vib (V=0)    1  0.128132D+01          0.107657          0.247890
 Vib (V=0)    2  0.128132D+01          0.107657          0.247890
 Electronic      0.200000D+01          0.301030          0.693147
 Translational   0.884064D+07          6.946484         15.994869
 Rotational      0.281848D+02          1.450016          3.338784
 
                                                          TS search on BH76.
                                                             IR Spectrum
 
     1                                                                                                                               
     7                                                                                                        3                      
     6                                                                                                        1                      
     5                                                                                                        4                      
 
                                                                                                              X                      
                                                                                                              X                      
                                                                                                              X                      
                                                                                                              X                      
                                                                                                              X                      
                                                                                                              X                      
                                                                                                              X                      
                                                                                                              X                      
                                                                                                              X                      
                                                                                                              X                      
                                                                                                              X                      
                                                                                                              X                      
                                                                                                              X                      
                                                                                                              X                      
                                                                                                              X                      
                                                                                                              X                      
                                                                                                              X                      
                                                                                                              X                      
                                                                                                              X                      
                                                                                                              X                      
 
 ***** Axes restored to original set *****
 -------------------------------------------------------------------
 Center     Atomic                   Forces (Hartrees/Bohr)
 Number     Number              X              Y              Z
 -------------------------------------------------------------------
      1        1           0.000000000   -0.000000000    0.000102419
      2       17           0.000000000    0.000000000    0.000000000
      3        1          -0.000000000   -0.000000000   -0.000102419
 -------------------------------------------------------------------
 Cartesian Forces:  Max     0.000102419 RMS     0.000048281
 Force constants in Cartesian coordinates: 
                1             2             3             4             5 
      1  0.179509D-02
      2  0.000000D+00  0.179509D-02
      3  0.000000D+00  0.000000D+00  0.264489D-01
      4 -0.355966D-02  0.000000D+00  0.000000D+00  0.711932D-02
      5  0.000000D+00 -0.355966D-02  0.000000D+00  0.000000D+00  0.711932D-02
      6  0.000000D+00  0.000000D+00  0.658525D-01  0.000000D+00  0.000000D+00
      7  0.176457D-02  0.000000D+00  0.000000D+00 -0.355966D-02  0.000000D+00
      8  0.000000D+00  0.176457D-02  0.000000D+00  0.000000D+00 -0.355966D-02
      9  0.000000D+00  0.000000D+00 -0.923014D-01  0.000000D+00  0.000000D+00
                6             7             8             9 
      6 -0.131705D+00
      7  0.000000D+00  0.179509D-02
      8  0.000000D+00  0.000000D+00  0.179509D-02
      9  0.658525D-01  0.000000D+00  0.000000D+00  0.264489D-01
 FormGI is forming the generalized inverse of G from B-inverse, IUseBI=4.
 Force constants in internal coordinates: 
                1             2             3             4 
      1  0.264489D-01
      2  0.923014D-01  0.264489D-01
      3  0.000000D+00  0.000000D+00  0.146058D-01
      4  0.000000D+00  0.000000D+00  0.000000D+00  0.146058D-01
 Leave Link  716 at Wed Oct  7 14:42:33 2020, MaxMem=  2684354560 cpu:               1.6 elap:               0.5
 (Enter /udrive/faculty/rpeverati/g16/g16/l103.exe)

 GradGradGradGradGradGradGradGradGradGradGradGradGradGradGradGradGradGrad
 Berny optimization.
 Optmz: redundant internal coordinate code flag= 1
 Red2BG:  D1=  7.39D-01 OD1=  3.33D-16 B2RMS=  0.00D+00 IAprox=1
 Red2BG is reusing G-inverse.
 Internal  Forces:  Max     0.000102419 RMS     0.000072421
 Search for a local minimum.
 Step number   1 out of a maximum of    2
 All quantities printed in internal units (Hartrees-Bohrs-Radians)
 Second derivative matrix not updated -- analytic derivatives used.
 The second derivative matrix:
                          R1        R2        A1        A2
           R1           0.02645
           R2           0.09230   0.02645
           A1           0.00000   0.00000   0.01461
           A2           0.00000  -0.00000  -0.00000   0.01461
 ITU=  0
 Eigenvectors of the second derivative matrix:
                           1         2         3         4
     Eigenvalues --    -0.06585   0.01461   0.01461   0.11875
   1         R1        -0.70711   0.00000   0.00000   0.70711
   2         R2         0.70711  -0.00000   0.00000   0.70711
   3         A1        -0.00000   0.00304  -1.00000   0.00000
   4         A2         0.00000   1.00000   0.00304   0.00000
 Eigenvalue     1 is  -6.59D-02 should be greater than     0.000000 Eigenvector:
                          R2        R1        A2        A1
   1                    0.70711  -0.70711   0.00000  -0.00000
 Angle between quadratic step and forces=   0.00 degrees.
 Linear search not attempted -- first point.
 Iteration  1 RMS(Cart)=  0.00060986 RMS(Int)=  0.00000000
 Iteration  2 RMS(Cart)=  0.00000000 RMS(Int)=  0.00000000
 ITry= 1 IFail=0 DXMaxC= 8.62D-04 DCOld= 1.00D+10 DXMaxT= 3.00D-01 DXLimC= 3.00D+00 Rises=F
 ClnCor:  largest displacement from symmetrization is 1.02D-13 for atom     2.
 Variable       Old X    -DE/DX   Delta X   Delta X   Delta X     New X
                                 (Linear)    (Quad)   (Total)
    R1        2.85031   0.00010   0.00000   0.00086   0.00086   2.85117
    R2        2.85031   0.00010   0.00000   0.00086   0.00086   2.85117
    A1        3.14159   0.00000   0.00000   0.00000   0.00000   3.14159
    A2        3.14159  -0.00000   0.00000  -0.00000   0.00000   3.14159
         Item               Value     Threshold  Converged?
 Maximum Force            0.000102     0.000450     YES
 RMS     Force            0.000072     0.000300     YES
 Maximum Displacement     0.000862     0.001800     YES
 RMS     Displacement     0.000610     0.001200     YES
 Predicted change in Energy=-8.833355D-08
 Optimization completed.
    -- Stationary point found.
                           ----------------------------
                           !   Optimized Parameters   !
                           ! (Angstroms and Degrees)  !
 --------------------------                            --------------------------
 ! Name  Definition              Value          Derivative Info.                !
 --------------------------------------------------------------------------------
 ! R1    R(1,2)                  1.5083         -DE/DX =    0.0001              !
 ! R2    R(2,3)                  1.5083         -DE/DX =    0.0001              !
 ! A1    L(1,2,3,-1,-1)        180.0            -DE/DX =    0.0                 !
 ! A2    L(1,2,3,-2,-2)        180.0            -DE/DX =    0.0                 !
 --------------------------------------------------------------------------------
 GradGradGradGradGradGradGradGradGradGradGradGradGradGradGradGradGradGrad

 Leave Link  103 at Wed Oct  7 14:42:33 2020, MaxMem=  2684354560 cpu:               1.6 elap:               0.4
 (Enter /udrive/faculty/rpeverati/g16/g16/l9999.exe)
 Dipole is zero, so no output in dipole orientation.

 ----------------------------------------------------------------------

 Electric dipole moment (input orientation):
 (Debye = 10**-18 statcoulomb cm , SI units = C m)
                  (au)            (Debye)         (10**-30 SI)
   Tot        0.000000D+00      0.000000D+00      0.000000D+00
   x          0.000000D+00      0.000000D+00      0.000000D+00
   y          0.000000D+00      0.000000D+00      0.000000D+00
   z          0.000000D+00      0.000000D+00      0.000000D+00

 Dipole polarizability, Alpha (input orientation).
 (esu units = cm**3 , SI units = C**2 m**2 J**-1)
 Alpha(0;0):
               (au)            (10**-24 esu)      (10**-40 SI)
   iso        0.168577D+02      0.249806D+01      0.277946D+01
   aniso      0.318493D+02      0.471958D+01      0.525124D+01
   xx         0.624129D+01      0.924864D+00      0.102905D+01
   yx         0.000000D+00      0.000000D+00      0.000000D+00
   yy         0.624129D+01      0.924864D+00      0.102905D+01
   zx         0.000000D+00      0.000000D+00      0.000000D+00
   zy         0.000000D+00      0.000000D+00      0.000000D+00
   zz         0.380906D+02      0.564444D+01      0.628029D+01

 ----------------------------------------------------------------------

 Test job not archived.
 1\1\GINC-NODE17\Freq\UTPSSh\6-31G(d)\Cl1H2(2)\RPEVERATI\07-Oct-2020\0\
 \#P Freq TPSSh/6-31G* 5D 7F Integral=UltraFineGrid SCF=(NoSymm,XQC,Max
 Cyc=120) IOp(1/33=1,3/174=1000000,3/175=2238200,3/177=0452900,3/178=46
 55000) EmpiricalDispersion=GD3BJ Geom=Check Guess=Read\\TS search on B
 H76.\\0,2\H,0.,0.,1.5083177334\Cl,0.,0.,0.\H,0.,0.,-1.5083177334\\Vers
 ion=ES64L-G16RevA.03\State=2-SGG\HF=-461.2722552\S2=0.771018\S2-1=0.\S
 2A=0.750018\RMSD=2.703e-10\RMSF=4.828e-05\ZeroPoint=0.0054514\Thermal=
 0.0086189\Dipole=0.,0.,0.\DipoleDeriv=0.1421531,0.,0.,0.,0.1421531,0.,
 0.,0.,-0.7279567,-0.2843061,0.,0.,0.,-0.2843061,0.,0.,0.,1.4559133,0.1
 421531,0.,0.,0.,0.1421531,0.,0.,0.,-0.7279567\Polar=6.2412924,0.,6.241
 2924,0.,0.,38.0905784\Quadrupole=-0.8409571,-0.8409571,1.6819143,0.,0.
 ,0.\PG=D*H [O(Cl1),C*(H1.H1)]\NImag=1\\0.00179509,0.,0.00179509,0.,0.,
 0.02644894,-0.00355966,0.,0.,0.00711932,0.,-0.00355966,0.,0.,0.0071193
 2,0.,0.,0.06585249,0.,0.,-0.13170499,0.00176457,0.,0.,-0.00355966,0.,0
 .,0.00179509,0.,0.00176457,0.,0.,-0.00355966,0.,0.,0.00179509,0.,0.,-0
 .09230143,0.,0.,0.06585249,0.,0.,0.02644894\\0.,0.,-0.00010242,0.,0.,0
 .,0.,0.,0.00010242\\\@


            THE IRISH PIG
 'TWAS AN EVENING IN NOVEMBER,
 AS I VERY WELL REMEMBER
 I WAS STROLLING DOWN THE STREET IN DRUNKEN PRIDE,
 BUT MY KNEES WERE ALL A'FLUTTER
 SO I LANDED IN THE GUTTER,
 AND A PIG CAME UP AND LAY DOWN BY MY SIDE.

 YES, I LAY THERE IN THE GUTTER
 THINKING THOUGHTS I COULD NOT UTTER
 WHEN A COLLEEN PASSING BY DID SOFTLY SAY,
 'YE CAN TELL A MAN THAT BOOZES
 BY THE COMPANY THAT HE CHOOSES.' -
 AT THAT, THE PIG GOT UP AND WALKED AWAY!
     -- THE ECONOMIST, AUGUST 23, 1986
 Job cpu time:       0 days  0 hours  1 minutes 27.0 seconds.
 Elapsed time:       0 days  0 hours  0 minutes 13.6 seconds.
 File lengths (MBytes):  RWF=      5 Int=      0 D2E=      0 Chk=      1 Scr=      1
 Normal termination of Gaussian 16 at Wed Oct  7 14:42:34 2020.
