 Entering Gaussian System, Link 0=g16
 Input=MN_62_hoch3fcomp2_BH76_TPSShDBJ_631Gs.in
 Output=MN_62_hoch3fcomp2_BH76_TPSShDBJ_631Gs.log
 Initial command:
 /udrive/faculty/rpeverati/g16/g16/l1.exe "/udrive/scratch-directories/gaussian09/rpeverati/Gau-13091.inp" -scrdir="/udrive/scratch-directories/gaussian09/rpeverati/"
 Entering Link 1 = /udrive/faculty/rpeverati/g16/g16/l1.exe PID=     13092.
  
 Copyright (c) 1988,1990,1992,1993,1995,1998,2003,2009,2016,
            Gaussian, Inc.  All Rights Reserved.
  
 This is part of the Gaussian(R) 16 program.  It is based on
 the Gaussian(R) 09 system (copyright 2009, Gaussian, Inc.),
 the Gaussian(R) 03 system (copyright 2003, Gaussian, Inc.),
 the Gaussian(R) 98 system (copyright 1998, Gaussian, Inc.),
 the Gaussian(R) 94 system (copyright 1995, Gaussian, Inc.),
 the Gaussian 92(TM) system (copyright 1992, Gaussian, Inc.),
 the Gaussian 90(TM) system (copyright 1990, Gaussian, Inc.),
 the Gaussian 88(TM) system (copyright 1988, Gaussian, Inc.),
 the Gaussian 86(TM) system (copyright 1986, Carnegie Mellon
 University), and the Gaussian 82(TM) system (copyright 1983,
 Carnegie Mellon University). Gaussian is a federally registered
 trademark of Gaussian, Inc.
  
 This software contains proprietary and confidential information,
 including trade secrets, belonging to Gaussian, Inc.
  
 This software is provided under written license and may be
 used, copied, transmitted, or stored only in accord with that
 written license.
  
 The following legend is applicable only to US Government
 contracts under FAR:
  
                    RESTRICTED RIGHTS LEGEND
  
 Use, reproduction and disclosure by the US Government is
 subject to restrictions as set forth in subparagraphs (a)
 and (c) of the Commercial Computer Software - Restricted
 Rights clause in FAR 52.227-19.
  
 Gaussian, Inc.
 340 Quinnipiac St., Bldg. 40, Wallingford CT 06492
  
  
 ---------------------------------------------------------------
 Warning -- This program may not be used in any manner that
 competes with the business of Gaussian, Inc. or will provide
 assistance to any competitor of Gaussian, Inc.  The licensee
 of this program is prohibited from giving any competitor of
 Gaussian, Inc. access to this program.  By using this program,
 the user acknowledges that Gaussian, Inc. is engaged in the
 business of creating and licensing software in the field of
 computational chemistry and represents and warrants to the
 licensee that it is not a competitor of Gaussian, Inc. and that
 it will not use this program in any manner prohibited above.
 ---------------------------------------------------------------
  

 Cite this work as:
 Gaussian 16, Revision A.03,
 M. J. Frisch, G. W. Trucks, H. B. Schlegel, G. E. Scuseria, 
 M. A. Robb, J. R. Cheeseman, G. Scalmani, V. Barone, 
 G. A. Petersson, H. Nakatsuji, X. Li, M. Caricato, A. V. Marenich, 
 J. Bloino, B. G. Janesko, R. Gomperts, B. Mennucci, H. P. Hratchian, 
 J. V. Ortiz, A. F. Izmaylov, J. L. Sonnenberg, D. Williams-Young, 
 F. Ding, F. Lipparini, F. Egidi, J. Goings, B. Peng, A. Petrone, 
 T. Henderson, D. Ranasinghe, V. G. Zakrzewski, J. Gao, N. Rega, 
 G. Zheng, W. Liang, M. Hada, M. Ehara, K. Toyota, R. Fukuda, 
 J. Hasegawa, M. Ishida, T. Nakajima, Y. Honda, O. Kitao, H. Nakai, 
 T. Vreven, K. Throssell, J. A. Montgomery, Jr., J. E. Peralta, 
 F. Ogliaro, M. J. Bearpark, J. J. Heyd, E. N. Brothers, K. N. Kudin, 
 V. N. Staroverov, T. A. Keith, R. Kobayashi, J. Normand, 
 K. Raghavachari, A. P. Rendell, J. C. Burant, S. S. Iyengar, 
 J. Tomasi, M. Cossi, J. M. Millam, M. Klene, C. Adamo, R. Cammi, 
 J. W. Ochterski, R. L. Martin, K. Morokuma, O. Farkas, 
 J. B. Foresman, and D. J. Fox, Gaussian, Inc., Wallingford CT, 2016.
 
 ******************************************
 Gaussian 16:  ES64L-G16RevA.03 25-Dec-2016
                 7-Oct-2020 
 ******************************************
 %NoSave
 %nproc=12
 Will use up to   12 processors via shared memory.
 %mem=20GB
 %chk=MN_62_hoch3fcomp2_BH76_TPSShDBJ_631Gs
 ----------------------------------------------------------------------
 #P Opt(MaxCyc=100) TPSSh/6-31G* 5D 7F Integral=UltraFineGrid SCF=(NoSy
 mm,XQC,MaxCyc=120) IOp(1/33=1,3/174=1000000,3/175=2238200,3/177=045290
 0,3/178=4655000) EmpiricalDispersion=GD3BJ
 ----------------------------------------------------------------------
 1/6=100,18=20,19=15,26=4,33=1,38=1/1,3;
 2/9=110,12=2,17=6,18=5,40=1/2;
 3/5=1,6=6,7=1,8=11,11=2,25=1,30=1,71=1,74=-35,75=-5,124=41,174=1000000,175=2238200,177=452900,178=4655000/1,2,3;
 4/9=2/1;
 5/5=2,7=120,8=3,13=1,38=5/2,8;
 6/7=2,8=2,9=2,10=2,28=1/1;
 7//1,2,3,16;
 1/6=100,18=20,19=15,26=4,33=1/3(2);
 2/9=110/2;
 99//99;
 2/9=110/2;
 3/5=1,6=6,7=1,8=11,11=2,25=1,30=1,71=1,74=-35,75=-5,124=41,174=1000000,175=2238200,177=452900,178=4655000/1,2,3;
 4/5=5,9=2,16=3,69=1/1;
 5/5=2,7=120,8=3,13=1,38=5/2,8;
 7//1,2,3,16;
 1/6=100,18=20,19=15,26=4,33=1/3(-5);
 2/9=110/2;
 6/7=2,8=2,9=2,10=2,19=2,28=1/1;
 99/9=1/99;
 Leave Link    1 at Wed Oct  7 14:42:11 2020, MaxMem=  2684354560 cpu:               6.3 elap:               0.7
 (Enter /udrive/faculty/rpeverati/g16/g16/l101.exe)
 ONIOM data not found on unit 2.
 ------------------
 TS search on BH76.
 ------------------
 TstMul:  ICh=    -1
 TstMul:  Mul=     1
 TstMul:  ICh=    -1
 TstMul:  Mul=     1
 Symbolic Z-matrix:
 Charge = -1 Multiplicity = 1
 F                     1.89905  -0.07646  -0.0054 
 C                     0.48941   0.10548   0.00677 
 H                     0.0013   -0.78617  -0.36115 
 H                     0.17194   0.29836   1.02324 
 H                     0.24974   0.94747  -0.63089 
 O                    -2.16945  -0.07314  -0.00232 
 H                    -3.09537   0.1807   -0.00462 
 
 RdStrC is calling ZToCFu for IStruc=1 NZ=     7.
 PrtBox:  NBox=     2 Levels=  1 BoxLen=    8.00 SMaxX=        9.44
          Shift=            5.849400            1.485640            1.192200
 Box      1 Number                   0 centers from      1 to      6:
 Box      2 Number                   4 centers from      7 to      7:
 After GenITR:
 ITRead=  0  0  0  0  0  0  0
 MicOpt= -1 -1 -1 -1 -1 -1 -1
 Add virtual bond connecting atoms O6         and H3         Dist= 4.37D+00.
 ITRead=  0  0  0  0  0  0  0
 MicOpt= -1 -1 -1 -1 -1 -1 -1
 NAtoms=      7 NQM=        7 NQMF=       0 NMMI=      0 NMMIF=      0
                NMic=       0 NMicF=      0.
                    Isotopes and Nuclear Properties:
 (Nuclear quadrupole moments (NQMom) in fm**2, nuclear magnetic moments (NMagM)
  in nuclear magnetons)

  Atom         1           2           3           4           5           6           7
 IAtWgt=          19          12           1           1           1          16           1
 AtmWgt=  18.9984033  12.0000000   1.0078250   1.0078250   1.0078250  15.9949146   1.0078250
 NucSpn=           1           0           1           1           1           0           1
 AtZEff=   0.0000000   0.0000000   0.0000000   0.0000000   0.0000000   0.0000000   0.0000000
 NQMom=    0.0000000   0.0000000   0.0000000   0.0000000   0.0000000   0.0000000   0.0000000
 NMagM=    2.6288670   0.0000000   2.7928460   2.7928460   2.7928460   0.0000000   2.7928460
 AtZNuc=   9.0000000   6.0000000   1.0000000   1.0000000   1.0000000   8.0000000   1.0000000
 No MM parameters found.
 Leave Link  101 at Wed Oct  7 14:42:13 2020, MaxMem=  2684354560 cpu:              20.2 elap:               1.9
 (Enter /udrive/faculty/rpeverati/g16/g16/l103.exe)

 GradGradGradGradGradGradGradGradGradGradGradGradGradGradGradGradGradGrad
 Berny optimization.
 Optmz: redundant internal coordinate code flag= 1
 Initialization pass.
                           ----------------------------
                           !    Initial Parameters    !
                           ! (Angstroms and Degrees)  !
 --------------------------                            --------------------------
 ! Name  Definition              Value          Derivative Info.                !
 --------------------------------------------------------------------------------
 ! R1    R(1,2)                  1.4214         estimate D2E/DX2                !
 ! R2    R(2,3)                  1.081          estimate D2E/DX2                !
 ! R3    R(2,4)                  1.0822         estimate D2E/DX2                !
 ! R4    R(2,5)                  1.083          estimate D2E/DX2                !
 ! R5    R(3,6)                  2.3129         estimate D2E/DX2                !
 ! R6    R(6,7)                  0.9601         estimate D2E/DX2                !
 ! A1    A(1,2,3)              109.8338         estimate D2E/DX2                !
 ! A2    A(1,2,4)              108.7707         estimate D2E/DX2                !
 ! A3    A(1,2,5)              108.2965         estimate D2E/DX2                !
 ! A4    A(3,2,4)              109.5244         estimate D2E/DX2                !
 ! A5    A(3,2,5)              109.9335         estimate D2E/DX2                !
 ! A6    A(4,2,5)              110.4581         estimate D2E/DX2                !
 ! A7    A(2,3,6)               96.7014         estimate D2E/DX2                !
 ! A8    L(3,6,7,5,-1)         180.2727         estimate D2E/DX2                !
 ! A9    L(3,6,7,5,-2)         165.3128         estimate D2E/DX2                !
 ! D1    D(1,2,3,6)            176.0174         estimate D2E/DX2                !
 ! D2    D(4,2,3,6)             56.6215         estimate D2E/DX2                !
 ! D3    D(5,2,3,6)            -64.9173         estimate D2E/DX2                !
 --------------------------------------------------------------------------------
 Maximum allowed force set to 1.00D+20.
 Trust Radius=3.00D-01 FncErr=1.00D-07 GrdErr=1.00D-06 EigMax=2.50D+02 EigMin=1.00D-04
 Number of steps in this run=    100 maximum allowed number of steps=    100.
 GradGradGradGradGradGradGradGradGradGradGradGradGradGradGradGradGradGrad

 Leave Link  103 at Wed Oct  7 14:42:14 2020, MaxMem=  2684354560 cpu:               0.9 elap:               0.5
 (Enter /udrive/faculty/rpeverati/g16/g16/l202.exe)
                          Input orientation:                          
 ---------------------------------------------------------------------
 Center     Atomic      Atomic             Coordinates (Angstroms)
 Number     Number       Type             X           Y           Z
 ---------------------------------------------------------------------
      1          9           0        1.899053   -0.076457   -0.005404
      2          6           0        0.489413    0.105484    0.006768
      3          1           0        0.001304   -0.786167   -0.361155
      4          1           0        0.171943    0.298358    1.023244
      5          1           0        0.249744    0.947471   -0.630885
      6          8           0       -2.169447   -0.073143   -0.002320
      7          1           0       -3.095369    0.180697   -0.004624
 ---------------------------------------------------------------------
                    Distance matrix (angstroms):
                    1          2          3          4          5
     1  F    0.000000
     2  C    1.421385   0.000000
     3  H    2.057109   1.081045   0.000000
     4  H    2.044874   1.082225   1.766882   0.000000
     5  H    2.039577   1.083044   1.771998   1.778635   0.000000
     6  O    4.068502   2.664869   2.312861   2.583002   2.699857
     7  H    5.001038   3.585589   3.263637   3.427198   3.488542
                    6          7
     6  O    0.000000
     7  H    0.960090   0.000000
 Stoichiometry    CH4FO(1-)
 Framework group  C1[X(CH4FO)]
 Deg. of freedom    15
 Full point group                 C1      NOp   1
 Largest Abelian subgroup         C1      NOp   1
 Largest concise Abelian subgroup C1      NOp   1
                         Standard orientation:                         
 ---------------------------------------------------------------------
 Center     Atomic      Atomic             Coordinates (Angstroms)
 Number     Number       Type             X           Y           Z
 ---------------------------------------------------------------------
      1          9           0        1.899053   -0.076457   -0.005404
      2          6           0        0.489413    0.105484    0.006768
      3          1           0        0.001304   -0.786167   -0.361155
      4          1           0        0.171943    0.298358    1.023244
      5          1           0        0.249744    0.947470   -0.630885
      6          8           0       -2.169447   -0.073143   -0.002320
      7          1           0       -3.095369    0.180697   -0.004624
 ---------------------------------------------------------------------
 Rotational constants (GHZ):         141.9909320           3.2067010           3.1989530
 Leave Link  202 at Wed Oct  7 14:42:15 2020, MaxMem=  2684354560 cpu:               1.1 elap:               0.5
 (Enter /udrive/faculty/rpeverati/g16/g16/l301.exe)
 Standard basis: 6-31G(d) (5D, 7F)
 Ernie: Thresh=  0.10000D-02 Tol=  0.10000D-05 Strict=F.
 There are    53 symmetry adapted cartesian basis functions of A   symmetry.
 There are    50 symmetry adapted basis functions of A   symmetry.
    50 basis functions,   100 primitive gaussians,    53 cartesian basis functions
    14 alpha electrons       14 beta electrons
       nuclear repulsion energy        67.4307148412 Hartrees.
 IExCor= 2523 DFT=T Ex+Corr=TPSSh ExCW=0 ScaHFX=  0.100000
 ScaDFX=  0.900000  0.900000  1.000000  1.000000 ScalE2=  1.000000  1.000000
 IRadAn=      5 IRanWt=     -1 IRanGd=            0 ICorTp=0 IEmpDi=141
 NAtoms=    7 NActive=    7 NUniq=    7 SFac= 1.00D+00 NAtFMM=   60 NAOKFM=F Big=F
 Integral buffers will be    131072 words long.
 Raffenetti 2 integral format.
 Two-electron integral symmetry is turned on.
 R6DIni: Non-standard D2/D3 S6 parameter, value=     1.000000
 R6DIni: Non-standard D2/D3 S8 parameter, value=     2.238200
 R6DIni: Non-standard D3BJ A1 parameter, value=     0.452900
 R6DIni: Non-standard D3BJ A2 parameter, value=     4.655000
 R6Disp:  Grimme-D3(BJ) Dispersion energy=       -0.0024700716 Hartrees.
 Nuclear repulsion after empirical dispersion term =       67.4282447696 Hartrees.
 Leave Link  301 at Wed Oct  7 14:42:15 2020, MaxMem=  2684354560 cpu:               1.8 elap:               0.5
 (Enter /udrive/faculty/rpeverati/g16/g16/l302.exe)
 NPDir=0 NMtPBC=     1 NCelOv=     1 NCel=       1 NClECP=     1 NCelD=      1
         NCelK=      1 NCelE2=     1 NClLst=     1 CellRange=     0.0.
 One-electron integrals computed using PRISM.
 One-electron integral symmetry used in STVInt
 NBasis=    50 RedAO= T EigKep=  1.87D-02  NBF=    50
 NBsUse=    50 1.00D-06 EigRej= -1.00D+00 NBFU=    50
 Precomputing XC quadrature grid using
 IXCGrd= 4 IRadAn=           5 IRanWt=          -1 IRanGd=           0 AccXCQ= 0.00D+00.
 Generated NRdTot=       0 NPtTot=           0 NUsed=           0 NTot=          32
 NSgBfM=    53    53    53    53    53 MxSgAt=     7 MxSgA2=     7.
 Leave Link  302 at Wed Oct  7 14:42:16 2020, MaxMem=  2684354560 cpu:               4.0 elap:               0.6
 (Enter /udrive/faculty/rpeverati/g16/g16/l303.exe)
 DipDrv:  MaxL=1.
 Leave Link  303 at Wed Oct  7 14:42:17 2020, MaxMem=  2684354560 cpu:               2.4 elap:               0.6
 (Enter /udrive/faculty/rpeverati/g16/g16/l401.exe)
 SCF N**3 symmetry information disabled.
 ExpMin= 1.61D-01 ExpMax= 7.00D+03 ExpMxC= 1.05D+03 IAcc=3 IRadAn=         5 AccDes= 0.00D+00
 Harris functional with IExCor= 1009 and IRadAn=       5 diagonalized for initial guess.
 HarFok:  IExCor= 1009 AccDes= 0.00D+00 IRadAn=         5 IDoV= 1 UseB2=F ITyADJ=14
 ICtDFT=  3500011 ScaDFX=  1.000000  1.000000  1.000000  1.000000
 FoFCou: FMM=F IPFlag=           0 FMFlag=      100000 FMFlg1=           0
         NFxFlg=           0 DoJE=T BraDBF=F KetDBF=T FulRan=T
         wScrn=  0.000000 ICntrl=       500 IOpCl=  0 I1Cent=   200000004 NGrid=           0
         NMat0=    1 NMatS0=      1 NMatT0=    0 NMatD0=    1 NMtDS0=    0 NMtDT0=    0
 Petite list used in FoFCou.
 Harris En= -215.575642873732    
 JPrj=0 DoOrth=F DoCkMO=F.
 Leave Link  401 at Wed Oct  7 14:42:18 2020, MaxMem=  2684354560 cpu:               5.5 elap:               0.7
 (Enter /udrive/faculty/rpeverati/g16/g16/l502.exe)
 Keep R1 ints in memory in canonical form, NReq=11329141.
 FoFCou: FMM=F IPFlag=           0 FMFlag=           0 FMFlg1=           0
         NFxFlg=           0 DoJE=F BraDBF=F KetDBF=F FulRan=T
         wScrn=  0.000000 ICntrl=       600 IOpCl=  0 I1Cent=           0 NGrid=           0
         NMat0=    1 NMatS0=   1275 NMatT0=    0 NMatD0=    1 NMtDS0=    0 NMtDT0=    0
 Symmetry not used in FoFCou.
 Two-electron integral symmetry not used.
 Closed shell SCF:
 Using DIIS extrapolation, IDIIS=  1040.
 NGot=  2684354560 LenX=  2683534079 LenY=  2683530829
 Requested convergence on RMS density matrix=1.00D-08 within 120 cycles.
 Requested convergence on MAX density matrix=1.00D-06.
 Requested convergence on             energy=1.00D-06.
 No special actions if energy rises.
 Integral accuracy reduced to 1.0D-05 until final iterations.

 Cycle   1  Pass 0  IDiag  1:
 E= -215.258508344247    
 DIIS: error= 1.10D-01 at cycle   1 NSaved=   1.
 NSaved= 1 IEnMin= 1 EnMin= -215.258508344247     IErMin= 1 ErrMin= 1.10D-01
 ErrMax= 1.10D-01  0.00D+00 EMaxC= 1.00D-01 BMatC= 2.62D-01 BMatP= 2.62D-01
 IDIUse=3 WtCom= 0.00D+00 WtEn= 1.00D+00
 Coeff-Com:  0.100D+01
 Coeff-En:   0.100D+01
 Coeff:      0.100D+01
 Gap=    -0.052 Goal=   None    Shift=    0.000
 GapD=   -0.052 DampG=0.250 DampE=0.250 DampFc=0.2500 IDamp=-1.
 Damping current iteration by 2.50D-01
 RMSDP=1.95D-01 MaxDP=4.49D+00              OVMax= 9.85D-01

 Cycle   2  Pass 0  IDiag  1:
 E= -215.165424492493     Delta-E=        0.093083851754 Rises=F Damp=T
 DIIS: error= 3.23D-02 at cycle   2 NSaved=   2.
 NSaved= 2 IEnMin= 1 EnMin= -215.258508344247     IErMin= 2 ErrMin= 3.23D-02
 ErrMax= 3.23D-02  0.00D+00 EMaxC= 1.00D-01 BMatC= 3.65D-02 BMatP= 2.62D-01
 IDIUse=3 WtCom= 6.77D-01 WtEn= 3.23D-01
 Coeff-Com: -0.836D-03 0.100D+01
 Coeff-En:   0.682D+00 0.318D+00
 Coeff:      0.220D+00 0.780D+00
 Gap=    -0.040 Goal=   None    Shift=    0.000
 RMSDP=4.98D-02 MaxDP=1.17D+00 DE= 9.31D-02 OVMax= 9.91D-01

 Cycle   3  Pass 0  IDiag  1:
 E= -215.412208730012     Delta-E=       -0.246784237518 Rises=F Damp=F
 DIIS: error= 4.50D-02 at cycle   3 NSaved=   3.
 NSaved= 3 IEnMin= 3 EnMin= -215.412208730012     IErMin= 2 ErrMin= 3.23D-02
 ErrMax= 4.50D-02  0.00D+00 EMaxC= 1.00D-01 BMatC= 5.66D-02 BMatP= 3.65D-02
 IDIUse=2 WtCom= 0.00D+00 WtEn= 1.00D+00
 Coeff-En:   0.550D-01 0.000D+00 0.945D+00
 Coeff:      0.550D-01 0.000D+00 0.945D+00
 Gap=     0.222 Goal=   None    Shift=    0.000
 RMSDP=1.79D-02 MaxDP=1.51D-01 DE=-2.47D-01 OVMax= 3.73D-01

 Cycle   4  Pass 0  IDiag  1:
 E= -215.279818155900     Delta-E=        0.132390574112 Rises=F Damp=F
 DIIS: error= 5.50D-02 at cycle   4 NSaved=   4.
 NSaved= 4 IEnMin= 3 EnMin= -215.412208730012     IErMin= 2 ErrMin= 3.23D-02
 ErrMax= 5.50D-02  0.00D+00 EMaxC= 1.00D-01 BMatC= 1.88D-01 BMatP= 3.65D-02
 IDIUse=2 WtCom= 0.00D+00 WtEn= 1.00D+00
 Coeff-En:   0.000D+00 0.000D+00 0.746D+00 0.254D+00
 Coeff:      0.000D+00 0.000D+00 0.746D+00 0.254D+00
 Gap=     0.148 Goal=   None    Shift=    0.000
 RMSDP=1.31D-02 MaxDP=1.25D-01 DE= 1.32D-01 OVMax= 3.12D-01

 Cycle   5  Pass 0  IDiag  1:
 E= -215.465015759016     Delta-E=       -0.185197603117 Rises=F Damp=F
 DIIS: error= 1.79D-02 at cycle   5 NSaved=   5.
 NSaved= 5 IEnMin= 5 EnMin= -215.465015759016     IErMin= 5 ErrMin= 1.79D-02
 ErrMax= 1.79D-02  0.00D+00 EMaxC= 1.00D-01 BMatC= 1.28D-02 BMatP= 3.65D-02
 IDIUse=3 WtCom= 8.21D-01 WtEn= 1.79D-01
 Coeff-Com: -0.137D+00 0.202D+00 0.265D+00-0.278D-01 0.697D+00
 Coeff-En:   0.000D+00 0.000D+00 0.265D-01 0.000D+00 0.973D+00
 Coeff:     -0.113D+00 0.166D+00 0.223D+00-0.229D-01 0.747D+00
 Gap=     0.196 Goal=   None    Shift=    0.000
 RMSDP=2.30D-03 MaxDP=3.26D-02 DE=-1.85D-01 OVMax= 2.87D-02

 Cycle   6  Pass 0  IDiag  1:
 E= -215.474684169579     Delta-E=       -0.009668410562 Rises=F Damp=F
 DIIS: error= 6.09D-03 at cycle   6 NSaved=   6.
 NSaved= 6 IEnMin= 6 EnMin= -215.474684169579     IErMin= 6 ErrMin= 6.09D-03
 ErrMax= 6.09D-03  0.00D+00 EMaxC= 1.00D-01 BMatC= 1.75D-03 BMatP= 1.28D-02
 IDIUse=3 WtCom= 9.39D-01 WtEn= 6.09D-02
 Coeff-Com: -0.106D+00 0.111D+00 0.907D-01-0.178D-01 0.445D+00 0.477D+00
 Coeff-En:   0.000D+00 0.000D+00 0.000D+00 0.000D+00 0.000D+00 0.100D+01
 Coeff:     -0.991D-01 0.104D+00 0.852D-01-0.167D-01 0.418D+00 0.509D+00
 Gap=     0.180 Goal=   None    Shift=    0.000
 RMSDP=6.41D-04 MaxDP=7.09D-03 DE=-9.67D-03 OVMax= 9.00D-03

 Cycle   7  Pass 0  IDiag  1:
 E= -215.475949989910     Delta-E=       -0.001265820331 Rises=F Damp=F
 DIIS: error= 5.38D-03 at cycle   7 NSaved=   7.
 NSaved= 7 IEnMin= 7 EnMin= -215.475949989910     IErMin= 7 ErrMin= 5.38D-03
 ErrMax= 5.38D-03  0.00D+00 EMaxC= 1.00D-01 BMatC= 6.57D-04 BMatP= 1.75D-03
 IDIUse=3 WtCom= 9.46D-01 WtEn= 5.38D-02
 Coeff-Com: -0.329D-01 0.303D-01-0.767D-01 0.812D-02-0.117D+00 0.165D+00
 Coeff-Com:  0.102D+01
 Coeff-En:   0.000D+00 0.000D+00 0.000D+00 0.000D+00 0.000D+00 0.000D+00
 Coeff-En:   0.100D+01
 Coeff:     -0.311D-01 0.287D-01-0.726D-01 0.768D-02-0.111D+00 0.156D+00
 Coeff:      0.102D+01
 Gap=     0.167 Goal=   None    Shift=    0.000
 RMSDP=6.28D-04 MaxDP=5.89D-03 DE=-1.27D-03 OVMax= 9.15D-03

 Cycle   8  Pass 0  IDiag  1:
 E= -215.476536362666     Delta-E=       -0.000586372755 Rises=F Damp=F
 DIIS: error= 1.12D-03 at cycle   8 NSaved=   8.
 NSaved= 8 IEnMin= 8 EnMin= -215.476536362666     IErMin= 8 ErrMin= 1.12D-03
 ErrMax= 1.12D-03  0.00D+00 EMaxC= 1.00D-01 BMatC= 3.36D-05 BMatP= 6.57D-04
 IDIUse=3 WtCom= 9.89D-01 WtEn= 1.12D-02
 Coeff-Com:  0.277D-03 0.298D-03-0.117D-01 0.301D-02-0.366D-01-0.677D-01
 Coeff-Com: -0.330D-01 0.115D+01
 Coeff-En:   0.000D+00 0.000D+00 0.000D+00 0.000D+00 0.000D+00 0.000D+00
 Coeff-En:   0.000D+00 0.100D+01
 Coeff:      0.274D-03 0.294D-03-0.115D-01 0.298D-02-0.361D-01-0.669D-01
 Coeff:     -0.326D-01 0.114D+01
 Gap=     0.162 Goal=   None    Shift=    0.000
 RMSDP=2.48D-04 MaxDP=2.54D-03 DE=-5.86D-04 OVMax= 3.87D-03

 Cycle   9  Pass 0  IDiag  1:
 E= -215.476574658017     Delta-E=       -0.000038295351 Rises=F Damp=F
 DIIS: error= 4.80D-05 at cycle   9 NSaved=   9.
 NSaved= 9 IEnMin= 9 EnMin= -215.476574658017     IErMin= 9 ErrMin= 4.80D-05
 ErrMax= 4.80D-05  0.00D+00 EMaxC= 1.00D-01 BMatC= 8.32D-08 BMatP= 3.36D-05
 IDIUse=1 WtCom= 1.00D+00 WtEn= 0.00D+00
 Coeff-Com:  0.689D-03-0.285D-03 0.535D-03 0.253D-03-0.166D-02-0.191D-01
 Coeff-Com: -0.393D-01 0.263D+00 0.796D+00
 Coeff:      0.689D-03-0.285D-03 0.535D-03 0.253D-03-0.166D-02-0.191D-01
 Coeff:     -0.393D-01 0.263D+00 0.796D+00
 Gap=     0.162 Goal=   None    Shift=    0.000
 RMSDP=5.91D-06 MaxDP=4.81D-05 DE=-3.83D-05 OVMax= 7.89D-05

 Initial convergence to 1.0D-05 achieved.  Increase integral accuracy.
 Cycle  10  Pass 1  IDiag  1:
 E= -215.476573341987     Delta-E=        0.000001316030 Rises=F Damp=F
 DIIS: error= 3.02D-05 at cycle   1 NSaved=   1.
 NSaved= 1 IEnMin= 1 EnMin= -215.476573341987     IErMin= 1 ErrMin= 3.02D-05
 ErrMax= 3.02D-05  0.00D+00 EMaxC= 1.00D-01 BMatC= 2.14D-08 BMatP= 2.14D-08
 IDIUse=1 WtCom= 1.00D+00 WtEn= 0.00D+00
 Coeff-Com:  0.100D+01
 Coeff:      0.100D+01
 Gap=     0.162 Goal=   None    Shift=    0.000
 RMSDP=5.91D-06 MaxDP=4.81D-05 DE= 1.32D-06 OVMax= 1.41D-04

 Cycle  11  Pass 1  IDiag  1:
 E= -215.476573312010     Delta-E=        0.000000029977 Rises=F Damp=F
 DIIS: error= 5.35D-05 at cycle   2 NSaved=   2.
 NSaved= 2 IEnMin= 1 EnMin= -215.476573341987     IErMin= 1 ErrMin= 3.02D-05
 ErrMax= 5.35D-05  0.00D+00 EMaxC= 1.00D-01 BMatC= 6.31D-08 BMatP= 2.14D-08
 IDIUse=1 WtCom= 1.00D+00 WtEn= 0.00D+00
 Coeff-Com:  0.633D+00 0.367D+00
 Coeff:      0.633D+00 0.367D+00
 Gap=     0.162 Goal=   None    Shift=    0.000
 RMSDP=5.11D-06 MaxDP=5.87D-05 DE= 3.00D-08 OVMax= 7.63D-05

 Cycle  12  Pass 1  IDiag  1:
 E= -215.476573361496     Delta-E=       -0.000000049486 Rises=F Damp=F
 DIIS: error= 1.64D-06 at cycle   3 NSaved=   3.
 NSaved= 3 IEnMin= 3 EnMin= -215.476573361496     IErMin= 3 ErrMin= 1.64D-06
 ErrMax= 1.64D-06  0.00D+00 EMaxC= 1.00D-01 BMatC= 9.86D-11 BMatP= 2.14D-08
 IDIUse=1 WtCom= 1.00D+00 WtEn= 0.00D+00
 Coeff-Com:  0.195D+00 0.102D+00 0.703D+00
 Coeff:      0.195D+00 0.102D+00 0.703D+00
 Gap=     0.162 Goal=   None    Shift=    0.000
 RMSDP=3.00D-07 MaxDP=3.21D-06 DE=-4.95D-08 OVMax= 3.93D-06

 Cycle  13  Pass 1  IDiag  1:
 E= -215.476573361590     Delta-E=       -0.000000000094 Rises=F Damp=F
 DIIS: error= 6.49D-07 at cycle   4 NSaved=   4.
 NSaved= 4 IEnMin= 4 EnMin= -215.476573361590     IErMin= 4 ErrMin= 6.49D-07
 ErrMax= 6.49D-07  0.00D+00 EMaxC= 1.00D-01 BMatC= 1.72D-11 BMatP= 9.86D-11
 IDIUse=1 WtCom= 1.00D+00 WtEn= 0.00D+00
 Coeff-Com:  0.344D-01 0.111D-01 0.308D+00 0.646D+00
 Coeff:      0.344D-01 0.111D-01 0.308D+00 0.646D+00
 Gap=     0.162 Goal=   None    Shift=    0.000
 RMSDP=7.82D-08 MaxDP=1.03D-06 DE=-9.38D-11 OVMax= 8.82D-07

 Cycle  14  Pass 1  IDiag  1:
 E= -215.476573361605     Delta-E=       -0.000000000015 Rises=F Damp=F
 DIIS: error= 7.51D-08 at cycle   5 NSaved=   5.
 NSaved= 5 IEnMin= 5 EnMin= -215.476573361605     IErMin= 5 ErrMin= 7.51D-08
 ErrMax= 7.51D-08  0.00D+00 EMaxC= 1.00D-01 BMatC= 2.28D-13 BMatP= 1.72D-11
 IDIUse=1 WtCom= 1.00D+00 WtEn= 0.00D+00
 Coeff-Com:  0.430D-02 0.350D-03 0.671D-01 0.187D+00 0.741D+00
 Coeff:      0.430D-02 0.350D-03 0.671D-01 0.187D+00 0.741D+00
 Gap=     0.162 Goal=   None    Shift=    0.000
 RMSDP=1.07D-08 MaxDP=1.36D-07 DE=-1.52D-11 OVMax= 1.90D-07

 Cycle  15  Pass 1  IDiag  1:
 E= -215.476573361605     Delta-E=       -0.000000000000 Rises=F Damp=F
 DIIS: error= 3.14D-08 at cycle   6 NSaved=   6.
 NSaved= 6 IEnMin= 6 EnMin= -215.476573361605     IErMin= 6 ErrMin= 3.14D-08
 ErrMax= 3.14D-08  0.00D+00 EMaxC= 1.00D-01 BMatC= 6.31D-14 BMatP= 2.28D-13
 IDIUse=1 WtCom= 1.00D+00 WtEn= 0.00D+00
 Coeff-Com:  0.363D-03-0.425D-03 0.211D-01 0.700D-01 0.395D+00 0.514D+00
 Coeff:      0.363D-03-0.425D-03 0.211D-01 0.700D-01 0.395D+00 0.514D+00
 Gap=     0.162 Goal=   None    Shift=    0.000
 RMSDP=3.81D-09 MaxDP=6.11D-08 DE=-3.98D-13 OVMax= 6.97D-08

 SCF Done:  E(RTPSSh) =  -215.476573362     A.U. after   15 cycles
            NFock= 15  Conv=0.38D-08     -V/T= 2.0040
 KE= 2.146100134435D+02 PE=-6.528092673906D+02 EE= 1.552944358159D+02
 Leave Link  502 at Wed Oct  7 14:42:23 2020, MaxMem=  2684354560 cpu:              46.2 elap:               4.3
 (Enter /udrive/faculty/rpeverati/g16/g16/l508.exe)
 QCSCF skips out because SCF is already converged.
 Leave Link  508 at Wed Oct  7 14:42:23 2020, MaxMem=  2684354560 cpu:               0.2 elap:               0.3
 (Enter /udrive/faculty/rpeverati/g16/g16/l601.exe)
 Copying SCF densities to generalized density rwf, IOpCl= 0 IROHF=0.

 **********************************************************************

            Population analysis using the SCF density.

 **********************************************************************

 Orbital symmetries:
       Occupied  (A) (A) (A) (A) (A) (A) (A) (A) (A) (A) (A) (A)
                 (A) (A)
       Virtual   (A) (A) (A) (A) (A) (A) (A) (A) (A) (A) (A) (A)
                 (A) (A) (A) (A) (A) (A) (A) (A) (A) (A) (A) (A)
                 (A) (A) (A) (A) (A) (A) (A) (A) (A) (A) (A) (A)
 The electronic state is 1-A.
 Alpha  occ. eigenvalues --  -24.38863 -18.63523  -9.97490  -0.94961  -0.51352
 Alpha  occ. eigenvalues --   -0.47037  -0.25205  -0.25101  -0.24736  -0.12211
 Alpha  occ. eigenvalues --   -0.11961  -0.01901   0.13716   0.13903
 Alpha virt. eigenvalues --    0.30112   0.33129   0.36555   0.38055   0.40591
 Alpha virt. eigenvalues --    0.74129   0.74755   0.75371   1.06495   1.06809
 Alpha virt. eigenvalues --    1.09721   1.15613   1.20640   1.26596   1.29180
 Alpha virt. eigenvalues --    1.41876   1.42765   1.43176   1.63249   1.65527
 Alpha virt. eigenvalues --    1.70516   1.73005   2.00975   2.01041   2.10435
 Alpha virt. eigenvalues --    2.15348   2.17460   2.21422   2.21578   2.29112
 Alpha virt. eigenvalues --    2.40444   2.41778   2.59743   2.61139   2.87208
 Alpha virt. eigenvalues --    3.18876
          Condensed to atoms (all electrons):
               1          2          3          4          5          6
     1  F    9.335135   0.175586  -0.031250  -0.029185  -0.029407   0.000129
     2  C    0.175586   4.862934   0.351805   0.364516   0.365069   0.005224
     3  H   -0.031250   0.351805   0.566394  -0.040630  -0.038089   0.021289
     4  H   -0.029185   0.364516  -0.040630   0.593596  -0.040104   0.013542
     5  H   -0.029407   0.365069  -0.038089  -0.040104   0.607872   0.009275
     6  O    0.000129   0.005224   0.021289   0.013542   0.009275   8.911395
     7  H   -0.000007  -0.001020  -0.001644  -0.000398  -0.000256   0.145329
               7
     1  F   -0.000007
     2  C   -0.001020
     3  H   -0.001644
     4  H   -0.000398
     5  H   -0.000256
     6  O    0.145329
     7  H    0.643130
 Mulliken charges:
               1
     1  F   -0.421001
     2  C   -0.124114
     3  H    0.172126
     4  H    0.138664
     5  H    0.125641
     6  O   -1.106184
     7  H    0.214867
 Sum of Mulliken charges =  -1.00000
 Mulliken charges with hydrogens summed into heavy atoms:
               1
     1  F   -0.421001
     2  C    0.312317
     6  O   -0.891317
 Electronic spatial extent (au):  <R**2>=            361.6899
 Charge=             -1.0000 electrons
 Dipole moment (field-independent basis, Debye):
    X=              5.8122    Y=              0.6883    Z=              0.0150  Tot=              5.8528
 Quadrupole moment (field-independent basis, Debye-Ang):
   XX=            -40.7375   YY=            -19.6927   ZZ=            -19.7247
   XY=             -1.2490   XZ=              0.0149   YZ=              0.0121
 Traceless Quadrupole moment (field-independent basis, Debye-Ang):
   XX=            -14.0192   YY=              7.0256   ZZ=              6.9936
   XY=             -1.2490   XZ=              0.0149   YZ=              0.0121
 Octapole moment (field-independent basis, Debye-Ang**2):
  XXX=             26.7927  YYY=             -0.6518  ZZZ=              0.3656  XYY=              5.2681
  XXY=              4.2590  XXZ=              0.0016  XZZ=              5.4782  YZZ=              0.0373
  YYZ=             -0.3962  XYZ=             -0.0754
 Hexadecapole moment (field-independent basis, Debye-Ang**3):
 XXXX=           -398.2251 YYYY=            -23.7218 ZZZZ=            -22.5492 XXXY=            -11.5457
 XXXZ=             -0.0019 YYYX=             -1.5579 YYYZ=             -0.1697 ZZZX=             -0.0560
 ZZZY=              0.0910 XXYY=            -65.3047 XXZZ=            -65.3875 YYZZ=             -7.6431
 XXYZ=             -0.0016 YYXZ=             -0.0656 ZZXY=             -0.5004
 N-N= 6.742824476957D+01 E-N=-6.528092687421D+02  KE= 2.146100134435D+02
 No NMR shielding tensors so no spin-rotation constants.
 Leave Link  601 at Wed Oct  7 14:42:24 2020, MaxMem=  2684354560 cpu:               3.3 elap:               0.5
 (Enter /udrive/faculty/rpeverati/g16/g16/l701.exe)
 ... and contract with generalized density number  0.
 Compute integral first derivatives.
 R6Disp: Adding Grimme-D3(BJ) dispersion energy 1st derivatives to the gradient.
 Leave Link  701 at Wed Oct  7 14:42:25 2020, MaxMem=  2684354560 cpu:               6.1 elap:               0.8
 (Enter /udrive/faculty/rpeverati/g16/g16/l702.exe)
 L702 exits ... SP integral derivatives will be done elsewhere.
 Leave Link  702 at Wed Oct  7 14:42:26 2020, MaxMem=  2684354560 cpu:               1.6 elap:               0.4
 (Enter /udrive/faculty/rpeverati/g16/g16/l703.exe)
 Integral derivatives from FoFJK, PRISM(SPDF).
 Compute integral first derivatives, UseDBF=F ICtDFT=           0.
 Calling FoFJK, ICntrl=      2127 FMM=F ISym2X=0 I1Cent= 0 IOpClX= 0 NMat=1 NMatS=1 NMatT=0.
 FoFJK:  IHMeth= 1 ICntrl=    2127 DoSepK=F KAlg= 0 I1Cent=           0 FoldK=F
 IRaf=         0 NMat=       1 IRICut=       1 DoRegI=T DoRafI=F ISym2E= 0 IDoP0=0 IntGTp=1.
 FoFCou: FMM=F IPFlag=           0 FMFlag=      100000 FMFlg1=         800
         NFxFlg=           0 DoJE=F BraDBF=F KetDBF=F FulRan=T
         wScrn=  0.000000 ICntrl=      2127 IOpCl=  0 I1Cent=           0 NGrid=           0
         NMat0=    1 NMatS0=      1 NMatT0=    0 NMatD0=    1 NMtDS0=    0 NMtDT0=    0
 Symmetry not used in FoFCou.
 Leave Link  703 at Wed Oct  7 14:42:27 2020, MaxMem=  2684354560 cpu:               7.9 elap:               0.9
 (Enter /udrive/faculty/rpeverati/g16/g16/l716.exe)
 Dipole        = 2.28668227D+00 2.70811153D-01 5.89714339D-03
 ***** Axes restored to original set *****
 -------------------------------------------------------------------
 Center     Atomic                   Forces (Hartrees/Bohr)
 Number     Number              X              Y              Z
 -------------------------------------------------------------------
      1        9           0.007841226   -0.001167066   -0.000066661
      2        6           0.000880379    0.000558205    0.000044911
      3        1          -0.006641000   -0.002945359   -0.001486912
      4        1          -0.004967111    0.001086116    0.003685185
      5        1          -0.003929469    0.003660734   -0.002419206
      6        8           0.025988689   -0.009399629    0.000666429
      7        1          -0.019172713    0.008206999   -0.000423746
 -------------------------------------------------------------------
 Cartesian Forces:  Max     0.025988689 RMS     0.008142750
 Leave Link  716 at Wed Oct  7 14:42:28 2020, MaxMem=  2684354560 cpu:               1.1 elap:               0.3
 (Enter /udrive/faculty/rpeverati/g16/g16/l103.exe)

 GradGradGradGradGradGradGradGradGradGradGradGradGradGradGradGradGradGrad
 Berny optimization.
 Optmz: redundant internal coordinate code flag= 1
 FormGI is forming the generalized inverse of G from B-inverse, IUseBI=4.
 Internal  Forces:  Max     0.020661229 RMS     0.006597021
 Search for a local minimum.
 Step number   1 out of a maximum of  100
 All quantities printed in internal units (Hartrees-Bohrs-Radians)
 RMS Force = .65970D-02 SwitMx=.10000D-02 MixMth= 1
 Mixed Optimization -- RFO/linear search
 Second derivative matrix not updated -- first step.
 The second derivative matrix:
                          R1        R2        R3        R4        R5
           R1           0.42252
           R2           0.00000   0.35868
           R3           0.00000   0.00000   0.35727
           R4           0.00000   0.00000   0.00000   0.35629
           R5           0.00000   0.00000   0.00000   0.00000   0.02672
           R6           0.00000   0.00000   0.00000   0.00000   0.00000
           A1           0.00000   0.00000   0.00000   0.00000   0.00000
           A2           0.00000   0.00000   0.00000   0.00000   0.00000
           A3           0.00000   0.00000   0.00000   0.00000   0.00000
           A4           0.00000   0.00000   0.00000   0.00000   0.00000
           A5           0.00000   0.00000   0.00000   0.00000   0.00000
           A6           0.00000   0.00000   0.00000   0.00000   0.00000
           A7           0.00000   0.00000   0.00000   0.00000   0.00000
           A8           0.00000   0.00000   0.00000   0.00000   0.00000
           A9           0.00000   0.00000   0.00000   0.00000   0.00000
           D1           0.00000   0.00000   0.00000   0.00000   0.00000
           D2           0.00000   0.00000   0.00000   0.00000   0.00000
           D3           0.00000   0.00000   0.00000   0.00000   0.00000
                          R6        A1        A2        A3        A4
           R6           0.55454
           A1           0.00000   0.16000
           A2           0.00000   0.00000   0.16000
           A3           0.00000   0.00000   0.00000   0.16000
           A4           0.00000   0.00000   0.00000   0.00000   0.16000
           A5           0.00000   0.00000   0.00000   0.00000   0.00000
           A6           0.00000   0.00000   0.00000   0.00000   0.00000
           A7           0.00000   0.00000   0.00000   0.00000   0.00000
           A8           0.00000   0.00000   0.00000   0.00000   0.00000
           A9           0.00000   0.00000   0.00000   0.00000   0.00000
           D1           0.00000   0.00000   0.00000   0.00000   0.00000
           D2           0.00000   0.00000   0.00000   0.00000   0.00000
           D3           0.00000   0.00000   0.00000   0.00000   0.00000
                          A5        A6        A7        A8        A9
           A5           0.16000
           A6           0.00000   0.16000
           A7           0.00000   0.00000   0.25000
           A8           0.00000   0.00000   0.00000   0.01556
           A9           0.00000   0.00000   0.00000   0.00000   0.01556
           D1           0.00000   0.00000   0.00000   0.00000   0.00000
           D2           0.00000   0.00000   0.00000   0.00000   0.00000
           D3           0.00000   0.00000   0.00000   0.00000   0.00000
                          D1        D2        D3
           D1           0.00353
           D2           0.00000   0.00353
           D3           0.00000   0.00000   0.00353
 ITU=  0
 Eigenvectors of the second derivative matrix:
                           1         2         3         4         5
     Eigenvalues --     0.00353   0.01556   0.01556   0.02672   0.09881
   1         R1         0.00000   0.00000  -0.00000  -0.00000  -0.00000
   2         R2         0.00000   0.00000   0.00000   0.00000   0.00000
   3         R3         0.00000  -0.00000  -0.00000  -0.00000   0.00000
   4         R4        -0.00000  -0.00000   0.00000  -0.00000  -0.00000
   5         R5        -0.00000  -0.00000  -0.00000   1.00000   0.00000
   6         R6         0.00000   0.00000  -0.00000   0.00000   0.00000
   7         A1         0.00000   0.00000  -0.00000   0.00000   0.28675
   8         A2        -0.00000  -0.00000   0.00000  -0.00000   0.22801
   9         A3        -0.00000   0.00000   0.00000  -0.00000   0.34580
  10         A4         0.00000   0.00000  -0.00000   0.00000  -0.17509
  11         A5         0.00000  -0.00000   0.00000   0.00000  -0.11432
  12         A6         0.00000   0.00000  -0.00000   0.00000  -0.55804
  13         A7        -0.00000  -0.00000   0.00000  -0.00000   0.00000
  14         A8         0.00000   0.71649  -0.69760  -0.00000   0.00000
  15         A9        -0.00000   0.69760   0.71649   0.00000  -0.00000
  16         D1        -0.57735  -0.00000  -0.00000  -0.00000  -0.06133
  17         D2        -0.57735  -0.00000  -0.00000   0.00000  -0.40833
  18         D3        -0.57735  -0.00000  -0.00000  -0.00000   0.46966
                           6         7         8         9        10
     Eigenvalues --     0.09968   0.16000   0.16000   0.16000   0.25000
   1         R1        -0.00000  -0.00000   0.00000  -0.00000   0.00000
   2         R2        -0.00000  -0.00000   0.00000   0.00000  -0.00000
   3         R3        -0.00000  -0.00000   0.00000  -0.00000  -0.00000
   4         R4        -0.00000  -0.00000   0.00000  -0.00000  -0.00000
   5         R5        -0.00000   0.00000  -0.00000  -0.00000  -0.00000
   6         R6         0.00000   0.00000   0.00000  -0.00000  -0.00000
   7         A1        -0.03374   0.00308   0.80990  -0.20961  -0.00000
   8         A2        -0.52751  -0.25676  -0.42698  -0.22426   0.00000
   9         A3         0.45682   0.36266  -0.39875  -0.09769   0.00000
  10         A4        -0.22887   0.50971   0.04751   0.65626  -0.00000
  11         A5         0.26345  -0.72835  -0.01401   0.40538   0.00000
  12         A6         0.06804   0.11069  -0.01742  -0.54884  -0.00000
  13         A7         0.00000  -0.00000  -0.00000   0.00000  -1.00000
  14         A8        -0.00000  -0.00000  -0.00000   0.00000  -0.00000
  15         A9        -0.00000  -0.00000   0.00000  -0.00000   0.00000
  16         D1        -0.50328  -0.00000   0.00000   0.00000  -0.00000
  17         D2         0.30437  -0.00000   0.00000  -0.00000   0.00000
  18         D3         0.19890  -0.00000  -0.00000   0.00000   0.00000
                          11        12        13        14        15
     Eigenvalues --     0.35629   0.35727   0.35868   0.42252   0.55454
   1         R1         0.00000  -0.00000   0.00000  -1.00000  -0.00000
   2         R2         0.00000   0.00000  -1.00000  -0.00000   0.00000
   3         R3        -0.00000   1.00000   0.00000  -0.00000   0.00000
   4         R4        -1.00000  -0.00000  -0.00000  -0.00000  -0.00000
   5         R5        -0.00000   0.00000   0.00000   0.00000   0.00000
   6         R6        -0.00000   0.00000  -0.00000   0.00000  -1.00000
   7         A1         0.00000  -0.00000   0.00000   0.00000   0.00000
   8         A2        -0.00000  -0.00000  -0.00000  -0.00000  -0.00000
   9         A3        -0.00000   0.00000  -0.00000  -0.00000   0.00000
  10         A4        -0.00000   0.00000   0.00000  -0.00000   0.00000
  11         A5         0.00000  -0.00000   0.00000  -0.00000  -0.00000
  12         A6         0.00000   0.00000  -0.00000   0.00000  -0.00000
  13         A7         0.00000  -0.00000  -0.00000  -0.00000   0.00000
  14         A8         0.00000  -0.00000   0.00000   0.00000   0.00000
  15         A9        -0.00000   0.00000   0.00000   0.00000  -0.00000
  16         D1         0.00000  -0.00000   0.00000   0.00000  -0.00000
  17         D2         0.00000   0.00000  -0.00000   0.00000  -0.00000
  18         D3         0.00000  -0.00000  -0.00000  -0.00000  -0.00000
 Iter=   1 RLamda= 0.00000000D+00 Sum=-5.44511210D-03.
 Iter=   2 RLamda=-5.44511210D-03 Sum=-4.60927325D-03.
 Iter=   3 RLamda=-4.60927325D-03 Sum=-4.70937298D-03.
 Iter=   4 RLamda=-4.70937298D-03 Sum=-4.69700094D-03.
 Iter=   5 RLamda=-4.69700094D-03 Sum=-4.69852420D-03.
 Iter=   6 RLamda=-4.69852420D-03 Sum=-4.69833656D-03.
 Iter=   7 RLamda=-4.69833656D-03 Sum=-4.69835967D-03.
 Iter=   8 RLamda=-4.69835967D-03 Sum=-4.69835683D-03.
 RFO step:  Lambda=-4.69835967D-03 EMin= 3.53281448D-03
 Linear search not attempted -- first point.
 Maximum step size (   0.300) exceeded in Quadratic search.
    -- Step size scaled by   0.881
 Iteration  1 RMS(Cart)=  0.10910284 RMS(Int)=  0.00975607
 Iteration  2 RMS(Cart)=  0.01272202 RMS(Int)=  0.00022969
 Iteration  3 RMS(Cart)=  0.00015472 RMS(Int)=  0.00016309
 Iteration  4 RMS(Cart)=  0.00000004 RMS(Int)=  0.00016309
 ITry= 1 IFail=0 DXMaxC= 2.77D-01 DCOld= 1.00D+10 DXMaxT= 3.00D-01 DXLimC= 3.00D+00 Rises=F
 Variable       Old X    -DE/DX   Delta X   Delta X   Delta X     New X
                                 (Linear)    (Quad)   (Total)
    R1        2.68603   0.00793   0.00000   0.01635   0.01635   2.70238
    R2        2.04288   0.00388   0.00000   0.00942   0.00942   2.05230
    R3        2.04511   0.00511   0.00000   0.01245   0.01245   2.05755
    R4        2.04666   0.00499   0.00000   0.01219   0.01219   2.05885
    R5        4.37067  -0.00672   0.00000  -0.18845  -0.18845   4.18222
    R6        1.81431   0.02066   0.00000   0.03256   0.03256   1.84687
    A1        1.91696   0.00200   0.00000   0.01592   0.01588   1.93284
    A2        1.89841   0.00258   0.00000   0.01875   0.01874   1.91714
    A3        1.89013   0.00220   0.00000   0.01723   0.01718   1.90731
    A4        1.91156  -0.00328   0.00000  -0.02032  -0.02053   1.89103
    A5        1.91870  -0.00208   0.00000  -0.01360  -0.01382   1.90488
    A6        1.92786  -0.00128   0.00000  -0.01699  -0.01740   1.91045
    A7        1.68776  -0.01053   0.00000  -0.03643  -0.03643   1.65133
    A8        3.14635  -0.00506   0.00000  -0.21994  -0.21994   2.92642
    A9        2.88525   0.00080   0.00000   0.03495   0.03495   2.92020
    D1        3.07208  -0.00047   0.00000  -0.04085  -0.04088   3.03121
    D2        0.98823  -0.00284   0.00000  -0.06107  -0.06073   0.92750
    D3       -1.13302   0.00219   0.00000  -0.01824  -0.01854  -1.15156
         Item               Value     Threshold  Converged?
 Maximum Force            0.020661     0.000450     NO 
 RMS     Force            0.006597     0.000300     NO 
 Maximum Displacement     0.276639     0.001800     NO 
 RMS     Displacement     0.119272     0.001200     NO 
 Predicted change in Energy=-2.538716D-03
 Lowest energy point so far.  Saving SCF results.
 Largest change from initial coordinates is atom    7       0.182 Angstoms.
 GradGradGradGradGradGradGradGradGradGradGradGradGradGradGradGradGradGrad

 Leave Link  103 at Wed Oct  7 14:42:28 2020, MaxMem=  2684354560 cpu:               2.5 elap:               0.5
 (Enter /udrive/faculty/rpeverati/g16/g16/l202.exe)
                          Input orientation:                          
 ---------------------------------------------------------------------
 Center     Atomic      Atomic             Coordinates (Angstroms)
 Number     Number       Type             X           Y           Z
 ---------------------------------------------------------------------
      1          9           0        1.876241   -0.026231    0.022063
      2          6           0        0.451684    0.096285   -0.003156
      3          1           0       -0.005891   -0.812493   -0.382902
      4          1           0        0.078026    0.273105    1.004129
      5          1           0        0.173747    0.931450   -0.645224
      6          8           0       -2.078186   -0.154316    0.029858
      7          1           0       -2.948978    0.288442    0.000855
 ---------------------------------------------------------------------
                    Distance matrix (angstroms):
                    1          2          3          4          5
     1  F    0.000000
     2  C    1.430038   0.000000
     3  H    2.079573   1.086029   0.000000
     4  H    2.070660   1.088811   1.763355   0.000000
     5  H    2.064198   1.089497   1.772688   1.778468   0.000000
     6  O    3.956508   2.542466   2.213137   2.404400   2.589561
     7  H    4.835515   3.406089   3.165610   3.188973   3.253043
                    6          7
     6  O    0.000000
     7  H    0.977320   0.000000
 Stoichiometry    CH4FO(1-)
 Framework group  C1[X(CH4FO)]
 Deg. of freedom    15
 Full point group                 C1      NOp   1
 RotChk:  IX=0 Diff= 2.26D-01
 Largest Abelian subgroup         C1      NOp   1
 Largest concise Abelian subgroup C1      NOp   1
                         Standard orientation:                         
 ---------------------------------------------------------------------
 Center     Atomic      Atomic             Coordinates (Angstroms)
 Number     Number       Type             X           Y           Z
 ---------------------------------------------------------------------
      1          9           0        1.865377   -0.062710    0.001869
      2          6           0        0.444106    0.095350   -0.001804
      3          1           0       -0.033545   -0.731501   -0.519130
      4          1           0        0.072333    0.120193    1.021268
      5          1           0        0.187085    1.027339   -0.504138
      6          8           0       -2.090964   -0.098409   -0.005132
      7          1           0       -2.951187    0.363534    0.037064
 ---------------------------------------------------------------------
 Rotational constants (GHZ):         138.3827367           3.4055190           3.3942965
 Leave Link  202 at Wed Oct  7 14:42:29 2020, MaxMem=  2684354560 cpu:               0.8 elap:               0.3
 (Enter /udrive/faculty/rpeverati/g16/g16/l301.exe)
 Standard basis: 6-31G(d) (5D, 7F)
 Ernie: Thresh=  0.10000D-02 Tol=  0.10000D-05 Strict=F.
 There are    53 symmetry adapted cartesian basis functions of A   symmetry.
 There are    50 symmetry adapted basis functions of A   symmetry.
    50 basis functions,   100 primitive gaussians,    53 cartesian basis functions
    14 alpha electrons       14 beta electrons
       nuclear repulsion energy        68.2031668729 Hartrees.
 IExCor= 2523 DFT=T Ex+Corr=TPSSh ExCW=0 ScaHFX=  0.100000
 ScaDFX=  0.900000  0.900000  1.000000  1.000000 ScalE2=  1.000000  1.000000
 IRadAn=      5 IRanWt=     -1 IRanGd=            0 ICorTp=0 IEmpDi=141
 NAtoms=    7 NActive=    7 NUniq=    7 SFac= 1.00D+00 NAtFMM=   60 NAOKFM=F Big=F
 Integral buffers will be    131072 words long.
 Raffenetti 2 integral format.
 Two-electron integral symmetry is turned on.
 R6DIni: Non-standard D2/D3 S6 parameter, value=     1.000000
 R6DIni: Non-standard D2/D3 S8 parameter, value=     2.238200
 R6DIni: Non-standard D3BJ A1 parameter, value=     0.452900
 R6DIni: Non-standard D3BJ A2 parameter, value=     4.655000
 R6Disp:  Grimme-D3(BJ) Dispersion energy=       -0.0025444100 Hartrees.
 Nuclear repulsion after empirical dispersion term =       68.2006224629 Hartrees.
 Leave Link  301 at Wed Oct  7 14:42:29 2020, MaxMem=  2684354560 cpu:               4.5 elap:               0.6
 (Enter /udrive/faculty/rpeverati/g16/g16/l302.exe)
 NPDir=0 NMtPBC=     1 NCelOv=     1 NCel=       1 NClECP=     1 NCelD=      1
         NCelK=      1 NCelE2=     1 NClLst=     1 CellRange=     0.0.
 One-electron integrals computed using PRISM.
 One-electron integral symmetry used in STVInt
 NBasis=    50 RedAO= T EigKep=  1.91D-02  NBF=    50
 NBsUse=    50 1.00D-06 EigRej= -1.00D+00 NBFU=    50
 Precomputing XC quadrature grid using
 IXCGrd= 4 IRadAn=           5 IRanWt=          -1 IRanGd=           0 AccXCQ= 0.00D+00.
 Generated NRdTot=       0 NPtTot=           0 NUsed=           0 NTot=          32
 NSgBfM=    53    53    53    53    53 MxSgAt=     7 MxSgA2=     7.
 Leave Link  302 at Wed Oct  7 14:42:30 2020, MaxMem=  2684354560 cpu:               3.4 elap:               0.6
 (Enter /udrive/faculty/rpeverati/g16/g16/l303.exe)
 DipDrv:  MaxL=1.
 Leave Link  303 at Wed Oct  7 14:42:31 2020, MaxMem=  2684354560 cpu:               1.6 elap:               0.5
 (Enter /udrive/faculty/rpeverati/g16/g16/l401.exe)
 Initial guess from the checkpoint file:  "MN_62_hoch3fcomp2_BH76_TPSShDBJ_631Gs.chk"
 SCF N**3 symmetry information disabled.
 B after Tr=     0.000000   -0.000000    0.000000
         Rot=    0.997314   -0.073233    0.000644   -0.000954 Ang=  -8.40 deg.
 Guess basis will be translated and rotated to current coordinates.
 JPrj=2 DoOrth=T DoCkMO=T.
 Generating alternative initial guess.
 ExpMin= 1.61D-01 ExpMax= 7.00D+03 ExpMxC= 1.05D+03 IAcc=2 IRadAn=         4 AccDes= 0.00D+00
 Harris functional with IExCor= 1009 and IRadAn=       4 diagonalized for initial guess.
 HarFok:  IExCor= 1009 AccDes= 0.00D+00 IRadAn=         4 IDoV= 1 UseB2=F ITyADJ=14
 ICtDFT=  3500011 ScaDFX=  1.000000  1.000000  1.000000  1.000000
 FoFCou: FMM=F IPFlag=           0 FMFlag=      100000 FMFlg1=           0
         NFxFlg=           0 DoJE=T BraDBF=F KetDBF=T FulRan=T
         wScrn=  0.000000 ICntrl=       500 IOpCl=  0 I1Cent=   200000004 NGrid=           0
         NMat0=    1 NMatS0=      1 NMatT0=    0 NMatD0=    1 NMtDS0=    0 NMtDT0=    0
 Petite list used in FoFCou.
 Harris En= -215.572031896314    
 Leave Link  401 at Wed Oct  7 14:42:32 2020, MaxMem=  2684354560 cpu:               7.6 elap:               1.0
 (Enter /udrive/faculty/rpeverati/g16/g16/l502.exe)
 Keep R1 ints in memory in canonical form, NReq=11329141.
 FoFCou: FMM=F IPFlag=           0 FMFlag=           0 FMFlg1=           0
         NFxFlg=           0 DoJE=F BraDBF=F KetDBF=F FulRan=T
         wScrn=  0.000000 ICntrl=       600 IOpCl=  0 I1Cent=           0 NGrid=           0
         NMat0=    1 NMatS0=   1275 NMatT0=    0 NMatD0=    1 NMtDS0=    0 NMtDT0=    0
 Symmetry not used in FoFCou.
 Two-electron integral symmetry not used.
 Closed shell SCF:
 Using DIIS extrapolation, IDIIS=  1040.
 NGot=  2684354560 LenX=  2683534079 LenY=  2683530829
 Requested convergence on RMS density matrix=1.00D-08 within 120 cycles.
 Requested convergence on MAX density matrix=1.00D-06.
 Requested convergence on             energy=1.00D-06.
 No special actions if energy rises.
 Integral accuracy reduced to 1.0D-05 until final iterations.

 Cycle   1  Pass 0  IDiag  1:
 E= -215.471746686397    
 DIIS: error= 1.31D-02 at cycle   1 NSaved=   1.
 NSaved= 1 IEnMin= 1 EnMin= -215.471746686397     IErMin= 1 ErrMin= 1.31D-02
 ErrMax= 1.31D-02  0.00D+00 EMaxC= 1.00D-01 BMatC= 4.27D-03 BMatP= 4.27D-03
 IDIUse=3 WtCom= 8.69D-01 WtEn= 1.31D-01
 Coeff-Com:  0.100D+01
 Coeff-En:   0.100D+01
 Coeff:      0.100D+01
 Recover alternate guess density for next cycle.
 RMSDP=9.96D-03 MaxDP=1.19D-01              OVMax= 0.00D+00

 Cycle   2  Pass 0  IDiag  1:
 E= -215.263231438285     Delta-E=        0.208515248112 Rises=F Damp=F
 Switch densities from cycles 1 and 2 for lowest energy.
 DIIS: error= 1.03D-01 at cycle   2 NSaved=   2.
 NSaved= 2 IEnMin= 1 EnMin= -215.471746686397     IErMin= 1 ErrMin= 1.31D-02
 ErrMax= 1.03D-01  0.00D+00 EMaxC= 1.00D+00 BMatC= 2.57D-01 BMatP= 4.27D-03
 IDIUse=1 WtCom= 1.00D+00 WtEn= 0.00D+00
 Coeff-Com:  0.991D+00 0.908D-02
 Coeff:      0.991D+00 0.908D-02
 Gap=     0.182 Goal=   None    Shift=    0.000
 RMSDP=3.29D-03 MaxDP=4.04D-02 DE= 2.09D-01 OVMax= 1.65D-01

 Cycle   3  Pass 0  IDiag  1:
 E= -215.479719724068     Delta-E=       -0.216488285783 Rises=F Damp=F
 DIIS: error= 3.93D-03 at cycle   3 NSaved=   3.
 NSaved= 3 IEnMin= 3 EnMin= -215.479719724068     IErMin= 3 ErrMin= 3.93D-03
 ErrMax= 3.93D-03  0.00D+00 EMaxC= 1.00D+00 BMatC= 4.13D-04 BMatP= 4.27D-03
 IDIUse=1 WtCom= 1.00D+00 WtEn= 0.00D+00
 Coeff-Com: -0.296D-01 0.346D-01 0.995D+00
 Coeff:     -0.296D-01 0.346D-01 0.995D+00
 Gap=     0.183 Goal=   None    Shift=    0.000
 RMSDP=6.01D-04 MaxDP=5.42D-03 DE=-2.16D-01 OVMax= 8.31D-03

 Cycle   4  Pass 0  IDiag  1:
 E= -215.479966639200     Delta-E=       -0.000246915132 Rises=F Damp=F
 DIIS: error= 1.90D-03 at cycle   4 NSaved=   4.
 NSaved= 4 IEnMin= 4 EnMin= -215.479966639200     IErMin= 4 ErrMin= 1.90D-03
 ErrMax= 1.90D-03  0.00D+00 EMaxC= 1.00D+00 BMatC= 1.67D-04 BMatP= 4.13D-04
 IDIUse=1 WtCom= 1.00D+00 WtEn= 0.00D+00
 Coeff-Com: -0.308D-01 0.188D-01 0.574D+00 0.438D+00
 Coeff:     -0.308D-01 0.188D-01 0.574D+00 0.438D+00
 Gap=     0.182 Goal=   None    Shift=    0.000
 RMSDP=1.81D-04 MaxDP=2.95D-03 DE=-2.47D-04 OVMax= 3.48D-03

 Cycle   5  Pass 0  IDiag  1:
 E= -215.480073323282     Delta-E=       -0.000106684083 Rises=F Damp=F
 DIIS: error= 1.95D-04 at cycle   5 NSaved=   5.
 NSaved= 5 IEnMin= 5 EnMin= -215.480073323282     IErMin= 5 ErrMin= 1.95D-04
 ErrMax= 1.95D-04  0.00D+00 EMaxC= 1.00D+00 BMatC= 2.26D-06 BMatP= 1.67D-04
 IDIUse=1 WtCom= 1.00D+00 WtEn= 0.00D+00
 Coeff-Com: -0.358D-02 0.161D-02 0.691D-01 0.128D+00 0.805D+00
 Coeff:     -0.358D-02 0.161D-02 0.691D-01 0.128D+00 0.805D+00
 Gap=     0.181 Goal=   None    Shift=    0.000
 RMSDP=2.76D-05 MaxDP=2.92D-04 DE=-1.07D-04 OVMax= 4.32D-04

 Cycle   6  Pass 0  IDiag  1:
 E= -215.480074860389     Delta-E=       -0.000001537107 Rises=F Damp=F
 DIIS: error= 3.62D-05 at cycle   6 NSaved=   6.
 NSaved= 6 IEnMin= 6 EnMin= -215.480074860389     IErMin= 6 ErrMin= 3.62D-05
 ErrMax= 3.62D-05  0.00D+00 EMaxC= 1.00D+00 BMatC= 8.82D-08 BMatP= 2.26D-06
 IDIUse=1 WtCom= 1.00D+00 WtEn= 0.00D+00
 Coeff-Com: -0.525D-03 0.137D-03 0.511D-02 0.264D-01 0.254D+00 0.714D+00
 Coeff:     -0.525D-03 0.137D-03 0.511D-02 0.264D-01 0.254D+00 0.714D+00
 Gap=     0.181 Goal=   None    Shift=    0.000
 RMSDP=7.75D-06 MaxDP=8.14D-05 DE=-1.54D-06 OVMax= 1.11D-04

 Initial convergence to 1.0D-05 achieved.  Increase integral accuracy.
 Cycle   7  Pass 1  IDiag  1:
 E= -215.480071631202     Delta-E=        0.000003229188 Rises=F Damp=F
 DIIS: error= 2.16D-05 at cycle   1 NSaved=   1.
 NSaved= 1 IEnMin= 1 EnMin= -215.480071631202     IErMin= 1 ErrMin= 2.16D-05
 ErrMax= 2.16D-05  0.00D+00 EMaxC= 1.00D+00 BMatC= 1.46D-08 BMatP= 1.46D-08
 IDIUse=1 WtCom= 1.00D+00 WtEn= 0.00D+00
 Coeff-Com:  0.100D+01
 Coeff:      0.100D+01
 Gap=     0.181 Goal=   None    Shift=    0.000
 RMSDP=7.75D-06 MaxDP=8.14D-05 DE= 3.23D-06 OVMax= 7.99D-05

 Cycle   8  Pass 1  IDiag  1:
 E= -215.480071621225     Delta-E=        0.000000009977 Rises=F Damp=F
 DIIS: error= 2.59D-05 at cycle   2 NSaved=   2.
 NSaved= 2 IEnMin= 1 EnMin= -215.480071631202     IErMin= 1 ErrMin= 2.16D-05
 ErrMax= 2.59D-05  0.00D+00 EMaxC= 1.00D+00 BMatC= 2.57D-08 BMatP= 1.46D-08
 IDIUse=1 WtCom= 1.00D+00 WtEn= 0.00D+00
 Coeff-Com:  0.571D+00 0.429D+00
 Coeff:      0.571D+00 0.429D+00
 Gap=     0.181 Goal=   None    Shift=    0.000
 RMSDP=3.36D-06 MaxDP=3.50D-05 DE= 9.98D-09 OVMax= 5.19D-05

 Cycle   9  Pass 1  IDiag  1:
 E= -215.480071645692     Delta-E=       -0.000000024467 Rises=F Damp=F
 DIIS: error= 4.57D-06 at cycle   3 NSaved=   3.
 NSaved= 3 IEnMin= 3 EnMin= -215.480071645692     IErMin= 3 ErrMin= 4.57D-06
 ErrMax= 4.57D-06  0.00D+00 EMaxC= 1.00D+00 BMatC= 6.21D-10 BMatP= 1.46D-08
 IDIUse=1 WtCom= 1.00D+00 WtEn= 0.00D+00
 Coeff-Com:  0.304D+00 0.247D+00 0.449D+00
 Coeff:      0.304D+00 0.247D+00 0.449D+00
 Gap=     0.181 Goal=   None    Shift=    0.000
 RMSDP=4.77D-07 MaxDP=6.75D-06 DE=-2.45D-08 OVMax= 7.05D-06

 Cycle  10  Pass 1  IDiag  1:
 E= -215.480071646149     Delta-E=       -0.000000000457 Rises=F Damp=F
 DIIS: error= 4.72D-07 at cycle   4 NSaved=   4.
 NSaved= 4 IEnMin= 4 EnMin= -215.480071646149     IErMin= 4 ErrMin= 4.72D-07
 ErrMax= 4.72D-07  0.00D+00 EMaxC= 1.00D+00 BMatC= 7.76D-12 BMatP= 6.21D-10
 IDIUse=1 WtCom= 1.00D+00 WtEn= 0.00D+00
 Coeff-Com:  0.373D-01 0.361D-01 0.118D+00 0.808D+00
 Coeff:      0.373D-01 0.361D-01 0.118D+00 0.808D+00
 Gap=     0.181 Goal=   None    Shift=    0.000
 RMSDP=8.39D-08 MaxDP=8.32D-07 DE=-4.57D-10 OVMax= 1.27D-06

 Cycle  11  Pass 1  IDiag  1:
 E= -215.480071646152     Delta-E=       -0.000000000004 Rises=F Damp=F
 DIIS: error= 2.60D-07 at cycle   5 NSaved=   5.
 NSaved= 5 IEnMin= 5 EnMin= -215.480071646152     IErMin= 5 ErrMin= 2.60D-07
 ErrMax= 2.60D-07  0.00D+00 EMaxC= 1.00D+00 BMatC= 3.90D-12 BMatP= 7.76D-12
 IDIUse=1 WtCom= 1.00D+00 WtEn= 0.00D+00
 Coeff-Com: -0.207D-02 0.210D-02 0.353D-01 0.482D+00 0.483D+00
 Coeff:     -0.207D-02 0.210D-02 0.353D-01 0.482D+00 0.483D+00
 Gap=     0.181 Goal=   None    Shift=    0.000
 RMSDP=3.54D-08 MaxDP=4.19D-07 DE=-3.81D-12 OVMax= 5.01D-07

 Cycle  12  Pass 1  IDiag  1:
 E= -215.480071646156     Delta-E=       -0.000000000003 Rises=F Damp=F
 DIIS: error= 3.90D-08 at cycle   6 NSaved=   6.
 NSaved= 6 IEnMin= 6 EnMin= -215.480071646156     IErMin= 6 ErrMin= 3.90D-08
 ErrMax= 3.90D-08  0.00D+00 EMaxC= 1.00D+00 BMatC= 1.03D-13 BMatP= 3.90D-12
 IDIUse=1 WtCom= 1.00D+00 WtEn= 0.00D+00
 Coeff-Com: -0.562D-02-0.377D-02 0.508D-03 0.105D+00 0.193D+00 0.710D+00
 Coeff:     -0.562D-02-0.377D-02 0.508D-03 0.105D+00 0.193D+00 0.710D+00
 Gap=     0.181 Goal=   None    Shift=    0.000
 RMSDP=6.48D-09 MaxDP=4.99D-08 DE=-3.41D-12 OVMax= 8.47D-08

 SCF Done:  E(RTPSSh) =  -215.480071646     A.U. after   12 cycles
            NFock= 12  Conv=0.65D-08     -V/T= 2.0043
 KE= 2.145554050883D+02 PE=-6.544199236067D+02 EE= 1.561838244093D+02
 Leave Link  502 at Wed Oct  7 14:42:36 2020, MaxMem=  2684354560 cpu:              38.9 elap:               3.7
 (Enter /udrive/faculty/rpeverati/g16/g16/l508.exe)
 QCSCF skips out because SCF is already converged.
 Leave Link  508 at Wed Oct  7 14:42:37 2020, MaxMem=  2684354560 cpu:               0.3 elap:               0.3
 (Enter /udrive/faculty/rpeverati/g16/g16/l701.exe)
 ... and contract with generalized density number  0.
 Compute integral first derivatives.
 R6Disp: Adding Grimme-D3(BJ) dispersion energy 1st derivatives to the gradient.
 Leave Link  701 at Wed Oct  7 14:42:37 2020, MaxMem=  2684354560 cpu:               3.4 elap:               0.5
 (Enter /udrive/faculty/rpeverati/g16/g16/l702.exe)
 L702 exits ... SP integral derivatives will be done elsewhere.
 Leave Link  702 at Wed Oct  7 14:42:38 2020, MaxMem=  2684354560 cpu:               1.5 elap:               0.3
 (Enter /udrive/faculty/rpeverati/g16/g16/l703.exe)
 Integral derivatives from FoFJK, PRISM(SPDF).
 Compute integral first derivatives, UseDBF=F ICtDFT=           0.
 Calling FoFJK, ICntrl=      2127 FMM=F ISym2X=0 I1Cent= 0 IOpClX= 0 NMat=1 NMatS=1 NMatT=0.
 FoFJK:  IHMeth= 1 ICntrl=    2127 DoSepK=F KAlg= 0 I1Cent=           0 FoldK=F
 IRaf=         0 NMat=       1 IRICut=       1 DoRegI=T DoRafI=F ISym2E= 0 IDoP0=0 IntGTp=1.
 FoFCou: FMM=F IPFlag=           0 FMFlag=      100000 FMFlg1=         800
         NFxFlg=           0 DoJE=F BraDBF=F KetDBF=F FulRan=T
         wScrn=  0.000000 ICntrl=      2127 IOpCl=  0 I1Cent=           0 NGrid=           0
         NMat0=    1 NMatS0=      1 NMatT0=    0 NMatD0=    1 NMtDS0=    0 NMtDT0=    0
 Symmetry not used in FoFCou.
 Leave Link  703 at Wed Oct  7 14:42:39 2020, MaxMem=  2684354560 cpu:               8.3 elap:               1.0
 (Enter /udrive/faculty/rpeverati/g16/g16/l716.exe)
 Dipole        = 2.04274814D+00 3.56179522D-01 1.57457382D-02
 ***** Axes restored to original set *****
 -------------------------------------------------------------------
 Center     Atomic                   Forces (Hartrees/Bohr)
 Number     Number              X              Y              Z
 -------------------------------------------------------------------
      1        9           0.005715843   -0.000622771   -0.000398886
      2        6          -0.006551634    0.002690587    0.001744485
      3        1          -0.001171129   -0.001275838   -0.001177506
      4        1          -0.001213421   -0.000013669   -0.000239089
      5        1           0.000226483    0.000604837   -0.000644081
      6        8           0.005795785   -0.006763917    0.001832670
      7        1          -0.002801927    0.005380772   -0.001117593
 -------------------------------------------------------------------
 Cartesian Forces:  Max     0.006763917 RMS     0.003191690
 Leave Link  716 at Wed Oct  7 14:42:40 2020, MaxMem=  2684354560 cpu:               1.1 elap:               0.3
 (Enter /udrive/faculty/rpeverati/g16/g16/l103.exe)

 GradGradGradGradGradGradGradGradGradGradGradGradGradGradGradGradGradGrad
 Berny optimization.
 Optmz: redundant internal coordinate code flag= 1
 Using GEDIIS/GDIIS optimizer.
 Red2BG:  D1=  6.51D-02 OD1=  1.93D-01 B2RMS=  0.00D+00 IAprox=0
 FormGI is forming the generalized inverse of G from B-inverse, IUseBI=4.
 Internal  Forces:  Max     0.006733887 RMS     0.002908108
 Search for a local minimum.
 Step number   2 out of a maximum of  100
 All quantities printed in internal units (Hartrees-Bohrs-Radians)
 RMS Force = .29081D-02 SwitMx=.10000D-02 MixMth= 1
 Mixed Optimization -- RFO/linear search
 Update second derivatives using D2CorX and points    1    2
 DE= -3.50D-03 DEPred=-2.54D-03 R= 1.38D+00
 TightC=F SS=  1.41D+00  RLast= 3.09D-01 DXNew= 5.0454D-01 9.2792D-01
 Trust test= 1.38D+00 RLast= 3.09D-01 DXMaxT set to 5.05D-01
 The second derivative matrix:
                          R1        R2        R3        R4        R5
           R1           0.41085
           R2          -0.00423   0.35802
           R3          -0.00233   0.00219   0.36744
           R4          -0.00291   0.00154   0.00850   0.36332
           R5           0.00551   0.00024  -0.00505  -0.00387   0.02767
           R6          -0.01577   0.00292   0.02707   0.02187  -0.01002
           A1          -0.00194   0.00067   0.00443   0.00363  -0.00187
           A2          -0.00442  -0.00123   0.00043   0.00002   0.00133
           A3          -0.00221   0.00062   0.00454   0.00370  -0.00184
           A4           0.00357   0.00013  -0.00335  -0.00257   0.00066
           A5           0.00087  -0.00136  -0.00569  -0.00479   0.00298
           A6           0.00433   0.00135   0.00010   0.00043  -0.00160
           A7           0.01245   0.00279  -0.00355  -0.00204  -0.00239
           A8           0.00986   0.00596   0.01032   0.00960  -0.00948
           A9          -0.00063  -0.00006   0.00047   0.00035  -0.00005
           D1          -0.00011  -0.00025  -0.00075  -0.00065   0.00047
           D2          -0.00248  -0.00256  -0.00633  -0.00560   0.00454
           D3           0.00405   0.00378   0.00890   0.00792  -0.00659
                          R6        A1        A2        A3        A4
           R6           0.61909
           A1           0.01107   0.16186
           A2          -0.00224  -0.00014   0.15849
           A3           0.01118   0.00189  -0.00022   0.16192
           A4          -0.00671  -0.00125   0.00085  -0.00123   0.16046
           A5          -0.01549  -0.00251  -0.00039  -0.00259   0.00197
           A6           0.00369   0.00038   0.00155   0.00046  -0.00103
           A7          -0.00031  -0.00066   0.00397  -0.00047  -0.00151
           A8           0.03707   0.00543   0.00477   0.00579  -0.00621
           A9           0.00085   0.00017  -0.00016   0.00016  -0.00004
           D1          -0.00220  -0.00035  -0.00013  -0.00036   0.00031
           D2          -0.01993  -0.00306  -0.00166  -0.00320   0.00299
           D3           0.02846   0.00434   0.00254   0.00456  -0.00433
                          A5        A6        A7        A8        A9
           A5           0.16317
           A6           0.00010   0.15845
           A7           0.00239  -0.00419   0.24015
           A8          -0.00535  -0.00426  -0.01525   0.01381
           A9          -0.00028   0.00019   0.00033   0.00100   0.01556
           D1           0.00041   0.00009   0.00053  -0.00048  -0.00005
           D2           0.00341   0.00134   0.00595  -0.00249  -0.00046
           D3          -0.00477  -0.00209  -0.00891   0.00293   0.00067
                          D1        D2        D3
           D1           0.00358
           D2           0.00037   0.00620
           D3          -0.00051  -0.00357   0.00828
 ITU=  1  0
 Use linear search instead of GDIIS.
 Eigenvectors of the second derivative matrix:
                           1         2         3         4         5
     Eigenvalues --     0.00322   0.00564   0.01562   0.03022   0.09872
   1         R1        -0.01315   0.02951   0.00127  -0.00145  -0.00438
   2         R2        -0.00659   0.01442   0.00101   0.00467  -0.00228
   3         R3        -0.00652   0.01331   0.00194   0.01827  -0.00218
   4         R4        -0.00682   0.01417   0.00178   0.01551  -0.00230
   5         R5         0.14052  -0.33646  -0.05115   0.92693  -0.01155
   6         R6        -0.01975   0.04180   0.00425   0.03154  -0.00595
   7         A1        -0.00741   0.01478   0.00304   0.03569  -0.03950
   8         A2        -0.01290   0.02848   0.00233   0.01440  -0.53185
   9         A3        -0.00778   0.01533   0.00338   0.04116   0.43960
  10         A4         0.01253  -0.02675  -0.00307  -0.02726  -0.22439
  11         A5         0.00633  -0.01245  -0.00269  -0.03094   0.27166
  12         A6         0.00970  -0.02039  -0.00315  -0.03480   0.08463
  13         A7         0.02661  -0.05884  -0.00370  -0.01295   0.01105
  14         A8         0.30026  -0.87049  -0.07004  -0.35926  -0.01178
  15         A9        -0.02952   0.07923  -0.99617  -0.02124   0.00111
  16         D1         0.54301   0.19587  -0.00097  -0.02226  -0.50546
  17         D2         0.55542   0.16883  -0.00373  -0.04437   0.31546
  18         D3         0.53282   0.21607   0.00338   0.03110   0.18855
                           6         7         8         9        10
     Eigenvalues --     0.11002   0.15905   0.16000   0.16499   0.24059
   1         R1         0.00198   0.01361  -0.00000   0.00284  -0.06712
   2         R2        -0.00900   0.00598  -0.00000   0.01130  -0.02169
   3         R3        -0.03437   0.00176  -0.00000   0.03581   0.03497
   4         R4        -0.02927   0.00295  -0.00000   0.03104   0.02176
   5         R5        -0.05630   0.01119  -0.00000   0.03067  -0.00935
   6         R6        -0.05323   0.00961  -0.00000   0.05170   0.00642
   7         A1         0.23359  -0.27666  -0.72806  -0.34001  -0.03410
   8         A2         0.20546   0.49788   0.22577  -0.04893   0.02010
   9         A3         0.31809  -0.04895   0.51707  -0.24251  -0.02738
  10         A4        -0.13400  -0.71167   0.26004   0.36946  -0.00534
  11         A5        -0.00594   0.36470  -0.28953   0.69764   0.04772
  12         A6        -0.63483   0.17635   0.01208  -0.43035  -0.00025
  13         A7         0.03020  -0.03976   0.00000  -0.05412   0.99169
  14         A8         0.07728   0.02312  -0.00000  -0.03132  -0.06859
  15         A9         0.00477  -0.00120   0.00000  -0.00280   0.00129
  16         D1        -0.07119  -0.00188  -0.00000   0.00889   0.00490
  17         D2        -0.38097   0.00605  -0.00000   0.04123   0.00431
  18         D3         0.46455  -0.00094   0.00000  -0.05556  -0.01963
                          11        12        13        14        15
     Eigenvalues --     0.35660   0.35753   0.37072   0.41128   0.63086
   1         R1        -0.02287  -0.05617   0.05350  -0.99123   0.07184
   2         R2        -0.16382  -0.96791   0.17412   0.06902  -0.01520
   3         R3         0.62863   0.03452   0.76599   0.01496  -0.11143
   4         R4        -0.75980   0.23952   0.59458   0.02859  -0.09051
   5         R5        -0.00090  -0.00395  -0.01443  -0.01155   0.02033
   6         R6         0.00003  -0.01467  -0.14743  -0.07703  -0.98147
   7         A1        -0.00166  -0.00163   0.02371  -0.00244  -0.03468
   8         A2         0.00109   0.00341   0.00503   0.00879  -0.00504
   9         A3        -0.00146  -0.00118   0.02315  -0.00147  -0.03455
  10         A4        -0.00030  -0.00273  -0.01709  -0.00772   0.02202
  11         A5         0.00215   0.00219  -0.02995   0.00339   0.04185
  12         A6         0.00021  -0.00006  -0.00570  -0.00059   0.01168
  13         A7        -0.01126  -0.03242  -0.02650  -0.06869   0.00792
  14         A8        -0.00539  -0.01067   0.03062  -0.02659  -0.06331
  15         A9         0.00012   0.00046   0.00130   0.00131  -0.00175
  16         D1         0.00026   0.00032  -0.00309   0.00055   0.00452
  17         D2         0.00011  -0.00115  -0.01284  -0.00387   0.01783
  18         D3        -0.00120  -0.00075   0.02113  -0.00061  -0.03302
 Iter=   1 RLamda= 0.00000000D+00 Sum=-2.84576123D-03.
 Iter=   2 RLamda=-2.84576123D-03 Sum=-2.13761868D-03.
 Iter=   3 RLamda=-2.13761868D-03 Sum=-2.26329601D-03.
 Iter=   4 RLamda=-2.26329601D-03 Sum=-2.23932890D-03.
 Iter=   5 RLamda=-2.23932890D-03 Sum=-2.24383948D-03.
 Iter=   6 RLamda=-2.24383948D-03 Sum=-2.24298846D-03.
 Iter=   7 RLamda=-2.24298846D-03 Sum=-2.24314895D-03.
 Iter=   8 RLamda=-2.24314895D-03 Sum=-2.24311868D-03.
 Iter=   9 RLamda=-2.24311868D-03 Sum=-2.24312439D-03.
 RFO step:  Lambda=-2.24311868D-03 EMin= 3.21558851D-03
 Quartic linear search produced a step of  0.93637.
 Iteration  1 RMS(Cart)=  0.13854688 RMS(Int)=  0.10423649
 Iteration  2 RMS(Cart)=  0.07542360 RMS(Int)=  0.05679519
 Iteration  3 RMS(Cart)=  0.07346896 RMS(Int)=  0.01164765
 Iteration  4 RMS(Cart)=  0.01728631 RMS(Int)=  0.00041542
 Iteration  5 RMS(Cart)=  0.00028965 RMS(Int)=  0.00024449
 Iteration  6 RMS(Cart)=  0.00000013 RMS(Int)=  0.00024449
 ITry= 1 IFail=0 DXMaxC= 8.58D-01 DCOld= 1.00D+10 DXMaxT= 5.05D-01 DXLimC= 3.00D+00 Rises=F
 Variable       Old X    -DE/DX   Delta X   Delta X   Delta X     New X
                                 (Linear)    (Quad)   (Total)
    R1        2.70238   0.00574   0.01531   0.02083   0.03614   2.73852
    R2        2.05230   0.00181   0.00882   0.00702   0.01584   2.06814
    R3        2.05755   0.00019   0.01165  -0.00153   0.01012   2.06768
    R4        2.05885   0.00062   0.01142   0.00064   0.01205   2.07090
    R5        4.18222  -0.00309  -0.17646  -0.04968  -0.22614   3.95608
    R6        1.84687   0.00497   0.03049   0.00988   0.04036   1.88723
    A1        1.93284  -0.00039   0.01487  -0.00808   0.00674   1.93958
    A2        1.91714   0.00120   0.01754   0.01073   0.02825   1.94540
    A3        1.90731  -0.00032   0.01608  -0.00970   0.00629   1.91360
    A4        1.89103  -0.00090  -0.01923  -0.00372  -0.02325   1.86778
    A5        1.90488   0.00056  -0.01294   0.00825  -0.00502   1.89986
    A6        1.91045  -0.00015  -0.01630   0.00273  -0.01420   1.89626
    A7        1.65133  -0.00565  -0.03411  -0.03176  -0.06587   1.58546
    A8        2.92642  -0.00673  -0.20594  -0.42624  -0.63218   2.29423
    A9        2.92020   0.00043   0.03272   0.00439   0.03711   2.95731
    D1        3.03121  -0.00018  -0.03828  -0.02241  -0.06075   2.97046
    D2        0.92750  -0.00085  -0.05687  -0.02832  -0.08467   0.84282
    D3       -1.15156  -0.00046  -0.01736  -0.03416  -0.05198  -1.20354
         Item               Value     Threshold  Converged?
 Maximum Force            0.006734     0.000450     NO 
 RMS     Force            0.002908     0.000300     NO 
 Maximum Displacement     0.857737     0.001800     NO 
 RMS     Displacement     0.282782     0.001200     NO 
 Predicted change in Energy=-4.617079D-03
 Lowest energy point so far.  Saving SCF results.
 Largest change from initial coordinates is atom    7       0.721 Angstoms.
 GradGradGradGradGradGradGradGradGradGradGradGradGradGradGradGradGradGrad

 Leave Link  103 at Wed Oct  7 14:42:40 2020, MaxMem=  2684354560 cpu:               1.8 elap:               0.4
 (Enter /udrive/faculty/rpeverati/g16/g16/l202.exe)
                          Input orientation:                          
 ---------------------------------------------------------------------
 Center     Atomic      Atomic             Coordinates (Angstroms)
 Number     Number       Type             X           Y           Z
 ---------------------------------------------------------------------
      1          9           0        1.796519    0.090472    0.043641
      2          6           0        0.348434    0.085741   -0.011982
      3          1           0       -0.027876   -0.860412   -0.413133
      4          1           0       -0.090824    0.209164    0.982514
      5          1           0        0.001729    0.904738   -0.652281
      6          8           0       -1.986258   -0.339938    0.112658
      7          1           0       -2.495083    0.506478   -0.035794
 ---------------------------------------------------------------------
                    Distance matrix (angstroms):
                    1          2          3          4          5
     1  F    0.000000
     2  C    1.449161   0.000000
     3  H    2.107425   1.094412   0.000000
     4  H    2.111311   1.094168   1.759484   0.000000
     5  H    2.090122   1.095875   1.781523   1.779029   0.000000
     6  O    3.807810   2.376452   2.093468   2.156578   2.467072
     7  H    4.312450   2.874575   2.845679   2.627891   2.602449
                    6          7
     6  O    0.000000
     7  H    0.998680   0.000000
 Stoichiometry    CH4FO(1-)
 Framework group  C1[X(CH4FO)]
 Deg. of freedom    15
 Full point group                 C1      NOp   1
 RotChk:  IX=0 Diff= 1.55D-01
 Largest Abelian subgroup         C1      NOp   1
 Largest concise Abelian subgroup C1      NOp   1
                         Standard orientation:                         
 ---------------------------------------------------------------------
 Center     Atomic      Atomic             Coordinates (Angstroms)
 Number     Number       Type             X           Y           Z
 ---------------------------------------------------------------------
      1          9           0        1.808210   -0.052789    0.020842
      2          6           0        0.366504    0.086115   -0.026666
      3          1           0       -0.085178   -0.696997   -0.643476
      4          1           0       -0.076695    0.003933    0.970342
      5          1           0        0.104277    1.063517   -0.447217
      6          8           0       -1.998425   -0.145707    0.003187
      7          1           0       -2.427917    0.753621    0.067275
 ---------------------------------------------------------------------
 Rotational constants (GHZ):         119.6264900           3.7484500           3.7195115
 Leave Link  202 at Wed Oct  7 14:42:41 2020, MaxMem=  2684354560 cpu:               0.6 elap:               0.2
 (Enter /udrive/faculty/rpeverati/g16/g16/l301.exe)
 Standard basis: 6-31G(d) (5D, 7F)
 Ernie: Thresh=  0.10000D-02 Tol=  0.10000D-05 Strict=F.
 There are    53 symmetry adapted cartesian basis functions of A   symmetry.
 There are    50 symmetry adapted basis functions of A   symmetry.
    50 basis functions,   100 primitive gaussians,    53 cartesian basis functions
    14 alpha electrons       14 beta electrons
       nuclear repulsion energy        69.5426427239 Hartrees.
 IExCor= 2523 DFT=T Ex+Corr=TPSSh ExCW=0 ScaHFX=  0.100000
 ScaDFX=  0.900000  0.900000  1.000000  1.000000 ScalE2=  1.000000  1.000000
 IRadAn=      5 IRanWt=     -1 IRanGd=            0 ICorTp=0 IEmpDi=141
 NAtoms=    7 NActive=    7 NUniq=    7 SFac= 1.00D+00 NAtFMM=   60 NAOKFM=F Big=F
 Integral buffers will be    131072 words long.
 Raffenetti 2 integral format.
 Two-electron integral symmetry is turned on.
 R6DIni: Non-standard D2/D3 S6 parameter, value=     1.000000
 R6DIni: Non-standard D2/D3 S8 parameter, value=     2.238200
 R6DIni: Non-standard D3BJ A1 parameter, value=     0.452900
 R6DIni: Non-standard D3BJ A2 parameter, value=     4.655000
 R6Disp:  Grimme-D3(BJ) Dispersion energy=       -0.0026964280 Hartrees.
 Nuclear repulsion after empirical dispersion term =       69.5399462959 Hartrees.
 Leave Link  301 at Wed Oct  7 14:42:41 2020, MaxMem=  2684354560 cpu:               1.9 elap:               0.4
 (Enter /udrive/faculty/rpeverati/g16/g16/l302.exe)
 NPDir=0 NMtPBC=     1 NCelOv=     1 NCel=       1 NClECP=     1 NCelD=      1
         NCelK=      1 NCelE2=     1 NClLst=     1 CellRange=     0.0.
 One-electron integrals computed using PRISM.
 One-electron integral symmetry used in STVInt
 NBasis=    50 RedAO= T EigKep=  1.91D-02  NBF=    50
 NBsUse=    50 1.00D-06 EigRej= -1.00D+00 NBFU=    50
 Precomputing XC quadrature grid using
 IXCGrd= 4 IRadAn=           5 IRanWt=          -1 IRanGd=           0 AccXCQ= 0.00D+00.
 Generated NRdTot=       0 NPtTot=           0 NUsed=           0 NTot=          32
 NSgBfM=    53    53    53    53    53 MxSgAt=     7 MxSgA2=     7.
 Leave Link  302 at Wed Oct  7 14:42:42 2020, MaxMem=  2684354560 cpu:               4.0 elap:               0.7
 (Enter /udrive/faculty/rpeverati/g16/g16/l303.exe)
 DipDrv:  MaxL=1.
 Leave Link  303 at Wed Oct  7 14:42:43 2020, MaxMem=  2684354560 cpu:               1.9 elap:               0.4
 (Enter /udrive/faculty/rpeverati/g16/g16/l401.exe)
 Initial guess from the checkpoint file:  "MN_62_hoch3fcomp2_BH76_TPSShDBJ_631Gs.chk"
 SCF N**3 symmetry information disabled.
 B after Tr=    -0.000000    0.000000    0.000000
         Rot=    0.999351   -0.035967    0.000746    0.001769 Ang=  -4.13 deg.
 Guess basis will be translated and rotated to current coordinates.
 JPrj=2 DoOrth=T DoCkMO=T.
 Generating alternative initial guess.
 ExpMin= 1.61D-01 ExpMax= 7.00D+03 ExpMxC= 1.05D+03 IAcc=2 IRadAn=         4 AccDes= 0.00D+00
 Harris functional with IExCor= 1009 and IRadAn=       4 diagonalized for initial guess.
 HarFok:  IExCor= 1009 AccDes= 0.00D+00 IRadAn=         4 IDoV= 1 UseB2=F ITyADJ=14
 ICtDFT=  3500011 ScaDFX=  1.000000  1.000000  1.000000  1.000000
 FoFCou: FMM=F IPFlag=           0 FMFlag=      100000 FMFlg1=           0
         NFxFlg=           0 DoJE=T BraDBF=F KetDBF=T FulRan=T
         wScrn=  0.000000 ICntrl=       500 IOpCl=  0 I1Cent=   200000004 NGrid=           0
         NMat0=    1 NMatS0=      1 NMatT0=    0 NMatD0=    1 NMtDS0=    0 NMtDT0=    0
 Petite list used in FoFCou.
 Harris En= -215.563428516093    
 Leave Link  401 at Wed Oct  7 14:42:44 2020, MaxMem=  2684354560 cpu:               8.6 elap:               1.2
 (Enter /udrive/faculty/rpeverati/g16/g16/l502.exe)
[...]
           A1           0.05401   0.15721
           A2           0.01084  -0.02528   0.16630
           A3          -0.03424  -0.01650  -0.01214   0.14479
           A4          -0.04837   0.02370  -0.01094   0.00970   0.14292
           A5           0.01258   0.00484   0.01302   0.00534  -0.00624
           A6          -0.01653   0.00645   0.01698   0.01682  -0.01063
           A7           0.02270   0.03760  -0.00662   0.00040  -0.01214
           A8           0.01929   0.00738   0.00361  -0.01104   0.00154
           A9           0.00037  -0.00095   0.00224  -0.00307  -0.00191
           D1          -0.00533  -0.02097   0.03233  -0.01870   0.00840
           D2           0.00798   0.00148  -0.02460  -0.00805   0.00296
           D3           0.00501   0.00548   0.01903   0.00701  -0.01565
                          A5        A6        A7        A8        A9
           A5           0.14740
           A6          -0.01162   0.13392
           A7          -0.01938   0.00188   0.03383
           A8          -0.00217   0.00245   0.00567   0.03026
           A9           0.00083  -0.00036  -0.00093   0.00882   0.00689
           D1           0.00260  -0.00350  -0.01483  -0.00150   0.00171
           D2           0.01187   0.01525  -0.00529   0.00475   0.00215
           D3          -0.00660  -0.01613   0.00393  -0.00108  -0.00025
                          D1        D2        D3
           D1           0.02075
           D2          -0.00162   0.02254
           D3          -0.00137  -0.00927   0.01904
 ITU=  1  1  1  1  1  1  0  0  1  0  0 -1 -1  0  1  1  1  1  1
 Eigenvectors of the second derivative matrix:
                           1         2         3         4         5
     Eigenvalues --     0.00342   0.00626   0.01253   0.02382   0.03816
   1         R1        -0.00511  -0.02964  -0.00626   0.04331   0.07210
   2         R2         0.01509   0.00663   0.17144   0.10518   0.12544
   3         R3        -0.00004   0.01694  -0.00807   0.01830   0.01911
   4         R4         0.00401  -0.00041   0.01198   0.00458   0.00066
   5         R5         0.00002   0.02979  -0.56617  -0.52191  -0.54944
   6         R6         0.01103  -0.00563   0.01339  -0.00581   0.03060
   7         A1        -0.01343  -0.08485  -0.09851   0.18497   0.22205
   8         A2         0.00237  -0.03696   0.01588  -0.07763  -0.06414
   9         A3        -0.01324   0.03204  -0.05947   0.07303  -0.06430
  10         A4         0.02027   0.06160   0.07785  -0.06975  -0.05230
  11         A5         0.00276   0.02839   0.08484  -0.08102  -0.07436
  12         A6         0.00108   0.00165  -0.02335  -0.03874   0.02298
  13         A7         0.09784   0.48959   0.67679  -0.32801  -0.25999
  14         A8        -0.33022  -0.12989   0.15037   0.58923  -0.69918
  15         A9         0.93074   0.00676  -0.07184   0.28999  -0.20670
  16         D1        -0.05601   0.46979  -0.17873   0.11993   0.06044
  17         D2        -0.06515   0.53154  -0.18923   0.14374   0.02663
  18         D3        -0.08093   0.47309  -0.26223   0.28612   0.07750
                           6         7         8         9        10
     Eigenvalues --     0.08832   0.11590   0.13857   0.15421   0.20395
   1         R1         0.29175  -0.07160  -0.04658   0.09602  -0.16492
   2         R2        -0.12236   0.01221   0.05654   0.04411  -0.20567
   3         R3        -0.02330   0.05441   0.01866   0.00803   0.01309
   4         R4        -0.03165   0.00028  -0.01867  -0.03614  -0.02178
   5         R5        -0.10374   0.00682   0.09511   0.04674  -0.22281
   6         R6         0.03066   0.01312  -0.13433  -0.05821   0.00671
   7         A1        -0.32615   0.11615   0.40972   0.16090  -0.53540
   8         A2        -0.30960   0.27593   0.06945  -0.03877   0.60970
   9         A3        -0.21495  -0.40752  -0.38695  -0.49390  -0.00617
  10         A4         0.22938   0.31974  -0.64821   0.22729  -0.28327
  11         A5         0.23204  -0.46103   0.18961   0.58120   0.27324
  12         A6         0.41386   0.16509   0.38245  -0.53100  -0.01142
  13         A7        -0.18250  -0.01874   0.14217  -0.07829  -0.17953
  14         A8         0.04283   0.08332   0.06115   0.02242  -0.03457
  15         A9         0.02291   0.01824   0.02081   0.01257   0.01439
  16         D1        -0.02189   0.53784  -0.00800   0.14145   0.18059
  17         D2         0.44153  -0.15394   0.10705  -0.09722  -0.02143
  18         D3        -0.35972  -0.27055  -0.07815   0.05387  -0.00045
                          11        12        13        14        15
     Eigenvalues --     0.26413   0.32360   0.36774   0.36958   0.65492
   1         R1         0.29215  -0.78188  -0.01463  -0.39932   0.08233
   2         R2        -0.84286  -0.30891  -0.18549  -0.01839  -0.20099
   3         R3        -0.19385  -0.09039   0.97058  -0.01132   0.08342
   4         R4        -0.13620   0.40589  -0.00632  -0.89856   0.07707
   5         R5        -0.14150  -0.10435  -0.02593  -0.02998   0.01103
   6         R6        -0.20718  -0.01867  -0.12097   0.10959   0.95194
   7         A1         0.19021   0.08029   0.01221   0.02666   0.11682
   8         A2        -0.01434  -0.23597  -0.05541  -0.10722   0.00797
   9         A3         0.00294  -0.08341   0.02645  -0.00894  -0.06514
  10         A4        -0.02021   0.12487   0.02012   0.05529  -0.09284
  11         A5        -0.10594   0.07624   0.00531   0.01211   0.03780
  12         A6        -0.06532   0.01989  -0.01204   0.01662  -0.01194
  13         A7         0.13814  -0.04661   0.02364  -0.01904   0.05562
  14         A8        -0.00255  -0.00843  -0.00257  -0.00025   0.03371
  15         A9         0.00431  -0.00305  -0.00281   0.00056   0.00175
  16         D1        -0.00095  -0.06123  -0.05365  -0.03825   0.00045
  17         D2        -0.10226   0.09578  -0.00496   0.04122  -0.02196
  18         D3         0.05752  -0.05486  -0.00600  -0.02161   0.02743
 DoSqrt=T IScMMF=    -3 MM Scaling Factor =       0.00000
 En-DIIS/RFO-DIIS/Sim-DIIS IScMMF=       -3 using points:    40   39   38   37
 Iter=   1 RLamda=-4.65770460D-02 Sum=-1.62773048D-07.
 Iter=   2 RLamda=-1.62773048D-07 Sum=-4.20719701D-07.
 Iter=   3 RLamda=-4.20719701D-07 Sum=-4.20711373D-07.
 RFO step:  Lambda=-4.20719701D-07.
 NNeg= 0 NGDIIS= 4 SimSw=  2.50D-01 Rises=F DC= -1.49D-06 SmlDif=  1.00D-05
 NRisDI= 0 DoIntr=F SqrtH=F CThrHd= 10.0 CDAdj=  3.0
 RMS Error=  0.1339232415D-02 NUsed= 4 OKEnD=F EnDIS=F
 Total RFO-DIIS matrix:
                 1             2             3             4             5 
      1   0.000000D+00 -0.100000D+01 -0.100000D+01 -0.100000D+01 -0.100000D+01
      2  -0.100000D+01  0.322838D-04  0.773275D-04  0.204563D-03  0.315178D-03
      3  -0.100000D+01  0.773275D-04  0.208268D-03  0.581378D-03  0.882905D-03
      4  -0.100000D+01  0.204563D-03  0.581378D-03  0.184358D-02  0.308040D-02
      5  -0.100000D+01  0.315178D-03  0.882905D-03  0.308040D-02  0.573049D-02
 InvSVX:  RCond= 3.83D-07 Info=           0 Equed=N FErr=  1.96D-13 BErr=  7.80D-17
 DidBck=F Rises=F RFO-DIIS coefs:    1.85833   -1.03812    0.26110   -0.08131
 Iteration  1 RMS(Cart)=  0.00076349 RMS(Int)=  0.00000082
 Iteration  2 RMS(Cart)=  0.00000088 RMS(Int)=  0.00000042
 ITry= 1 IFail=0 DXMaxC= 1.45D-03 DCOld= 1.00D+10 DXMaxT= 6.47D-01 DXLimC= 3.00D+00 Rises=F
 Variable       Old X    -DE/DX   Delta X   Delta X   Delta X     New X
                                 (Linear)    (Quad)   (Total)
    R1        2.70141  -0.00004   0.00033  -0.00040  -0.00008   2.70134
    R2        2.21023   0.00009   0.00027   0.00000   0.00027   2.21050
    R3        2.08690  -0.00003   0.00042  -0.00035   0.00007   2.08697
    R4        2.08791  -0.00002   0.00005  -0.00013  -0.00008   2.08784
    R5        3.12676   0.00000  -0.00018   0.00028   0.00010   3.12686
    R6        1.85677  -0.00010  -0.00031   0.00011  -0.00020   1.85658
    A1        2.01023   0.00002   0.00056  -0.00022   0.00033   2.01056
    A2        1.86158  -0.00004  -0.00131   0.00076  -0.00056   1.86102
    A3        1.85853  -0.00005  -0.00018   0.00005  -0.00013   1.85840
    A4        1.92656   0.00002   0.00010   0.00005   0.00015   1.92671
    A5        1.92957   0.00000   0.00015  -0.00034  -0.00019   1.92938
    A6        1.87067   0.00004   0.00067  -0.00028   0.00039   1.87106
    A7        2.86043  -0.00003   0.00163  -0.00155   0.00008   2.86051
    A8        1.80760   0.00002  -0.00111   0.00100  -0.00012   1.80749
    A9        2.17954   0.00002   0.00204   0.00070   0.00274   2.18229
    D1       -3.00460   0.00004   0.00205   0.00123   0.00328  -3.00132
    D2        1.16954   0.00006   0.00331   0.00036   0.00367   1.17320
    D3       -0.89725  -0.00001   0.00233   0.00088   0.00321  -0.89404
         Item               Value     Threshold  Converged?
 Maximum Force            0.000102     0.000450     YES
 RMS     Force            0.000045     0.000300     YES
 Maximum Displacement     0.001450     0.001800     YES
 RMS     Displacement     0.000763     0.001200     YES
 Predicted change in Energy=-2.020847D-07
 Optimization completed.
    -- Stationary point found.
                           ----------------------------
                           !   Optimized Parameters   !
                           ! (Angstroms and Degrees)  !
 --------------------------                            --------------------------
 ! Name  Definition              Value          Derivative Info.                !
 --------------------------------------------------------------------------------
 ! R1    R(1,2)                  1.4295         -DE/DX =    0.0                 !
 ! R2    R(2,3)                  1.1696         -DE/DX =    0.0001              !
 ! R3    R(2,4)                  1.1043         -DE/DX =    0.0                 !
 ! R4    R(2,5)                  1.1049         -DE/DX =    0.0                 !
 ! R5    R(3,6)                  1.6546         -DE/DX =    0.0                 !
 ! R6    R(6,7)                  0.9826         -DE/DX =   -0.0001              !
 ! A1    A(1,2,3)              115.1776         -DE/DX =    0.0                 !
 ! A2    A(1,2,4)              106.6606         -DE/DX =    0.0                 !
 ! A3    A(1,2,5)              106.486          -DE/DX =   -0.0001              !
 ! A4    A(3,2,4)              110.3837         -DE/DX =    0.0                 !
 ! A5    A(3,2,5)              110.5562         -DE/DX =    0.0                 !
 ! A6    A(4,2,5)              107.1813         -DE/DX =    0.0                 !
 ! A7    A(2,3,6)              163.8905         -DE/DX =    0.0                 !
 ! A8    L(3,6,7,5,-1)         103.5681         -DE/DX =    0.0                 !
 ! A9    L(3,6,7,5,-2)         124.8787         -DE/DX =    0.0                 !
 ! D1    D(1,2,3,6)           -172.151          -DE/DX =    0.0                 !
 ! D2    D(4,2,3,6)             67.0095         -DE/DX =    0.0001              !
 ! D3    D(5,2,3,6)            -51.4085         -DE/DX =    0.0                 !
 --------------------------------------------------------------------------------
 Lowest energy point so far.  Saving SCF results.
 Largest change from initial coordinates is atom    5       1.252 Angstoms.
 GradGradGradGradGradGradGradGradGradGradGradGradGradGradGradGradGradGrad

 Leave Link  103 at Wed Oct  7 14:51:32 2020, MaxMem=  2684354560 cpu:               3.0 elap:               0.7
 (Enter /udrive/faculty/rpeverati/g16/g16/l202.exe)
                          Input orientation:                          
 ---------------------------------------------------------------------
 Center     Atomic      Atomic             Coordinates (Angstroms)
 Number     Number       Type             X           Y           Z
 ---------------------------------------------------------------------
      1          9           0        1.486534   -0.280157   -0.531576
      2          6           0        0.389236    0.259362    0.208966
      3          1           0       -0.648082   -0.236095   -0.006600
      4          1           0        0.648728    0.159109    1.277693
      5          1           0        0.357985    1.339942   -0.019335
      6          8           0       -2.264452   -0.587612   -0.045551
      7          1           0       -2.423307   -0.058307   -0.857973
 ---------------------------------------------------------------------
                    Distance matrix (angstroms):
                    1          2          3          4          5
     1  F    0.000000
     2  C    1.429526   0.000000
     3  H    2.198665   1.169605   0.000000
     4  H    2.041649   1.104339   1.867434   0.000000
     5  H    2.039787   1.104877   1.869820   1.777970   0.000000
     6  O    3.794818   2.797178   1.654610   3.285602   3.254740
     7  H    3.929709   3.024843   1.976833   3.747765   3.223974
                    6          7
     6  O    0.000000
     7  H    0.982563   0.000000
 Stoichiometry    CH4FO(1-)
 Framework group  C1[X(CH4FO)]
 Deg. of freedom    15
 Full point group                 C1      NOp   1
 RotChk:  IX=3 Diff= 5.49D-15
 Largest Abelian subgroup         C1      NOp   1
 Largest concise Abelian subgroup C1      NOp   1
                         Standard orientation:                         
 ---------------------------------------------------------------------
 Center     Atomic      Atomic             Coordinates (Angstroms)
 Number     Number       Type             X           Y           Z
 ---------------------------------------------------------------------
      1          9           0        1.645350    0.442839   -0.019304
      2          6           0        0.582676   -0.512419    0.022510
      3          1           0       -0.493274   -0.064385   -0.075322
      4          1           0        0.773999   -1.234662   -0.790708
      5          1           0        0.689956   -1.059211    0.976587
      6          8           0       -2.135628    0.132997   -0.113388
      7          1           0       -2.189861    0.383243    0.835224
 ---------------------------------------------------------------------
 Rotational constants (GHZ):          41.1933251           3.6882250           3.5008965
 Leave Link  202 at Wed Oct  7 14:51:33 2020, MaxMem=  2684354560 cpu:               0.9 elap:               0.6
 (Enter /udrive/faculty/rpeverati/g16/g16/l601.exe)
 Copying SCF densities to generalized density rwf, IOpCl= 0 IROHF=0.

 **********************************************************************

            Population analysis using the SCF density.

 **********************************************************************

 Orbital symmetries:
       Occupied  (A) (A) (A) (A) (A) (A) (A) (A) (A) (A) (A) (A)
                 (A) (A)
       Virtual   (A) (A) (A) (A) (A) (A) (A) (A) (A) (A) (A) (A)
                 (A) (A) (A) (A) (A) (A) (A) (A) (A) (A) (A) (A)
                 (A) (A) (A) (A) (A) (A) (A) (A) (A) (A) (A) (A)
 The electronic state is 1-A.
 Alpha  occ. eigenvalues --  -24.37768 -18.67733  -9.95776  -0.93433  -0.54958
 Alpha  occ. eigenvalues --   -0.45421  -0.24214  -0.23833  -0.21670  -0.11224
 Alpha  occ. eigenvalues --   -0.10355  -0.04991   0.09888   0.10215
 Alpha virt. eigenvalues --    0.29539   0.31337   0.34448   0.36762   0.50904
 Alpha virt. eigenvalues --    0.72339   0.75840   0.78371   1.04655   1.07445
 Alpha virt. eigenvalues --    1.10929   1.14608   1.19658   1.26022   1.34514
 Alpha virt. eigenvalues --    1.40236   1.43662   1.44281   1.46526   1.71307
 Alpha virt. eigenvalues --    1.72396   1.77585   2.02217   2.02575   2.09877
 Alpha virt. eigenvalues --    2.11803   2.11834   2.17383   2.20856   2.27294
 Alpha virt. eigenvalues --    2.42582   2.44569   2.57299   2.62345   2.80584
 Alpha virt. eigenvalues --    3.17328
          Condensed to atoms (all electrons):
               1          2          3          4          5          6
     1  F    9.306946   0.179006  -0.006183  -0.033224  -0.034449   0.000305
     2  C    0.179006   5.404341   0.077546   0.305223   0.308966  -0.098309
     3  H   -0.006183   0.077546   0.545506  -0.010005  -0.013226   0.191691
     4  H   -0.033224   0.305223  -0.010005   0.725155  -0.052782   0.003059
     5  H   -0.034449   0.308966  -0.013226  -0.052782   0.731266   0.002757
     6  O    0.000305  -0.098309   0.191691   0.003059   0.002757   8.736187
     7  H   -0.000129   0.017975  -0.040790  -0.000013  -0.000916   0.160548
               7
     1  F   -0.000129
     2  C    0.017975
     3  H   -0.040790
     4  H   -0.000013
     5  H   -0.000916
     6  O    0.160548
     7  H    0.636497
 Mulliken charges:
               1
     1  F   -0.412272
     2  C   -0.194748
     3  H    0.255461
     4  H    0.062587
     5  H    0.058383
     6  O   -0.996239
     7  H    0.226828
 Sum of Mulliken charges =  -1.00000
 Mulliken charges with hydrogens summed into heavy atoms:
               1
     1  F   -0.412272
     2  C    0.181683
     6  O   -0.769411
 Electronic spatial extent (au):  <R**2>=            338.2401
 Charge=             -1.0000 electrons
 Dipole moment (field-independent basis, Debye):
    X=              5.5447    Y=             -0.9044    Z=              1.3066  Tot=              5.7679
 Quadrupole moment (field-independent basis, Debye-Ang):
   XX=            -41.8791   YY=            -20.7784   ZZ=            -19.2053
   XY=             -0.2732   XZ=             -2.9212   YZ=              0.6122
 Traceless Quadrupole moment (field-independent basis, Debye-Ang):
   XX=            -14.5915   YY=              6.5092   ZZ=              8.0823
   XY=             -0.2732   XZ=             -2.9212   YZ=              0.6122
 Octapole moment (field-independent basis, Debye-Ang**2):
  XXX=             42.2754  YYY=              4.7087  ZZZ=              0.1901  XYY=              3.3097
  XXY=             -1.0219  XXZ=              6.4360  XZZ=              1.7491  YZZ=              1.7458
  YYZ=              0.1291  XYZ=             -1.1120
 Hexadecapole moment (field-independent basis, Debye-Ang**3):
 XXXX=           -409.2416 YYYY=            -46.1866 ZZZZ=            -27.1899 XXXY=              6.8373
 XXXZ=            -14.8980 YYYX=              7.3478 YYYZ=              0.3199 ZZZX=             -1.3247
 ZZZY=              0.3672 XXYY=            -62.0361 XXZZ=            -53.0117 YYZZ=            -12.1572
 XXYZ=              2.6703 YYXZ=             -0.7490 ZZXY=              1.7457
 N-N= 6.756003033712D+01 E-N=-6.529470768230D+02  KE= 2.145207876452D+02
 No NMR shielding tensors so no spin-rotation constants.
 Leave Link  601 at Wed Oct  7 14:51:34 2020, MaxMem=  2684354560 cpu:               3.7 elap:               0.6
 (Enter /udrive/faculty/rpeverati/g16/g16/l9999.exe)

 Test job not archived.
 1\1\GINC-NODE60\FOpt\RTPSSh\6-31G(d)\C1H4F1O1(1-)\RPEVERATI\07-Oct-202
 0\0\\#P Opt(MaxCyc=100) TPSSh/6-31G* 5D 7F Integral=UltraFineGrid SCF=
 (NoSymm,XQC,MaxCyc=120) IOp(1/33=1,3/174=1000000,3/175=2238200,3/177=0
 452900,3/178=4655000) EmpiricalDispersion=GD3BJ\\TS search on BH76.\\-
 1,1\F,1.4865337097,-0.2801565706,-0.5315762868\C,0.3892364834,0.259361
 5001,0.2089656075\H,-0.648082201,-0.2360947489,-0.0065997588\H,0.64872
 75695,0.1591094419,1.2776928854\H,0.3579854829,1.3399424059,-0.0193350
 769\O,-2.264452183,-0.5876119664,-0.0455505823\H,-2.4233074402,-0.0583
 070483,-0.8579733236\\Version=ES64L-G16RevA.03\State=1-A\HF=-215.48966
 68\RMSD=2.904e-09\RMSF=9.118e-05\Dipole=2.0869408,0.8717253,-0.1851244
 \Quadrupole=-10.0730171,4.4722537,5.6007634,-3.3084143,2.4773604,-0.27
 00501\PG=C01 [X(C1H4F1O1)]\\@


 The best way to pay for a lovely moment is to enjoy it.
 -- Richard Bach
 Job cpu time:       0 days  0 hours 52 minutes 38.0 seconds.
 Elapsed time:       0 days  0 hours  7 minutes 27.4 seconds.
 File lengths (MBytes):  RWF=      5 Int=      0 D2E=      0 Chk=      1 Scr=      1
 Normal termination of Gaussian 16 at Wed Oct  7 14:51:35 2020.
