 Entering Gaussian System, Link 0=g16
 Input=MN_86_RKT10_BH76_TPSShDBJ_631Gs.in
 Output=MN_86_RKT10_BH76_TPSShDBJ_631Gs.log
 Initial command:
 /udrive/faculty/rpeverati/g16/g16/l1.exe "/udrive/scratch-directories/gaussian09/rpeverati/Gau-29120.inp" -scrdir="/udrive/scratch-directories/gaussian09/rpeverati/"
 Entering Link 1 = /udrive/faculty/rpeverati/g16/g16/l1.exe PID=     29122.
  
 Copyright (c) 1988,1990,1992,1993,1995,1998,2003,2009,2016,
            Gaussian, Inc.  All Rights Reserved.
  
 This is part of the Gaussian(R) 16 program.  It is based on
 the Gaussian(R) 09 system (copyright 2009, Gaussian, Inc.),
 the Gaussian(R) 03 system (copyright 2003, Gaussian, Inc.),
 the Gaussian(R) 98 system (copyright 1998, Gaussian, Inc.),
 the Gaussian(R) 94 system (copyright 1995, Gaussian, Inc.),
 the Gaussian 92(TM) system (copyright 1992, Gaussian, Inc.),
 the Gaussian 90(TM) system (copyright 1990, Gaussian, Inc.),
 the Gaussian 88(TM) system (copyright 1988, Gaussian, Inc.),
 the Gaussian 86(TM) system (copyright 1986, Carnegie Mellon
 University), and the Gaussian 82(TM) system (copyright 1983,
 Carnegie Mellon University). Gaussian is a federally registered
 trademark of Gaussian, Inc.
  
 This software contains proprietary and confidential information,
 including trade secrets, belonging to Gaussian, Inc.
  
 This software is provided under written license and may be
 used, copied, transmitted, or stored only in accord with that
 written license.
  
 The following legend is applicable only to US Government
 contracts under FAR:
  
                    RESTRICTED RIGHTS LEGEND
  
 Use, reproduction and disclosure by the US Government is
 subject to restrictions as set forth in subparagraphs (a)
 and (c) of the Commercial Computer Software - Restricted
 Rights clause in FAR 52.227-19.
  
 Gaussian, Inc.
 340 Quinnipiac St., Bldg. 40, Wallingford CT 06492
  
  
 ---------------------------------------------------------------
 Warning -- This program may not be used in any manner that
 competes with the business of Gaussian, Inc. or will provide
 assistance to any competitor of Gaussian, Inc.  The licensee
 of this program is prohibited from giving any competitor of
 Gaussian, Inc. access to this program.  By using this program,
 the user acknowledges that Gaussian, Inc. is engaged in the
 business of creating and licensing software in the field of
 computational chemistry and represents and warrants to the
 licensee that it is not a competitor of Gaussian, Inc. and that
 it will not use this program in any manner prohibited above.
 ---------------------------------------------------------------
  

 Cite this work as:
 Gaussian 16, Revision A.03,
 M. J. Frisch, G. W. Trucks, H. B. Schlegel, G. E. Scuseria, 
 M. A. Robb, J. R. Cheeseman, G. Scalmani, V. Barone, 
 G. A. Petersson, H. Nakatsuji, X. Li, M. Caricato, A. V. Marenich, 
 J. Bloino, B. G. Janesko, R. Gomperts, B. Mennucci, H. P. Hratchian, 
 J. V. Ortiz, A. F. Izmaylov, J. L. Sonnenberg, D. Williams-Young, 
 F. Ding, F. Lipparini, F. Egidi, J. Goings, B. Peng, A. Petrone, 
 T. Henderson, D. Ranasinghe, V. G. Zakrzewski, J. Gao, N. Rega, 
 G. Zheng, W. Liang, M. Hada, M. Ehara, K. Toyota, R. Fukuda, 
 J. Hasegawa, M. Ishida, T. Nakajima, Y. Honda, O. Kitao, H. Nakai, 
 T. Vreven, K. Throssell, J. A. Montgomery, Jr., J. E. Peralta, 
 F. Ogliaro, M. J. Bearpark, J. J. Heyd, E. N. Brothers, K. N. Kudin, 
 V. N. Staroverov, T. A. Keith, R. Kobayashi, J. Normand, 
 K. Raghavachari, A. P. Rendell, J. C. Burant, S. S. Iyengar, 
 J. Tomasi, M. Cossi, J. M. Millam, M. Klene, C. Adamo, R. Cammi, 
 J. W. Ochterski, R. L. Martin, K. Morokuma, O. Farkas, 
 J. B. Foresman, and D. J. Fox, Gaussian, Inc., Wallingford CT, 2016.
 
 ******************************************
 Gaussian 16:  ES64L-G16RevA.03 25-Dec-2016
                 7-Oct-2020 
 ******************************************
 %NoSave
 %nproc=12
 Will use up to   12 processors via shared memory.
 %mem=20GB
 %chk=MN_86_RKT10_BH76_TPSShDBJ_631Gs
 ----------------------------------------------------------------------
 #P Opt(TS,MaxCyc=50,NoEigenTest,MaxStep=10,AddRedundant) TPSSh/6-31G* 
 5D 7F Integral=UltraFineGrid SCF=(NoSymm,XQC,MaxCyc=120) IOp(1/33=1,3/
 174=1000000,3/175=2238200,3/177=0452900,3/178=4655000) EmpiricalDisper
 sion=GD3BJ
 ----------------------------------------------------------------------
 1/5=1,6=50,8=10,11=1,18=120,26=4,33=1,38=1/1,3;
 2/9=110,12=2,17=6,18=5,40=1/2;
 3/5=1,6=6,7=1,8=11,11=2,25=1,30=1,71=1,74=-35,75=-5,124=41,174=1000000,175=2238200,177=452900,178=4655000/1,2,3;
 4/9=2/1;
 5/5=2,7=120,8=3,13=1,38=5/2,8;
 6/7=2,8=2,9=2,10=2,28=1/1;
 7//1,2,3,16;
 1/5=1,6=50,8=10,11=1,18=20,26=4,33=1/3(2);
 2/9=110/2;
 99//99;
 2/9=110/2;
 3/5=1,6=6,7=1,8=11,11=2,25=1,30=1,71=1,74=-35,75=-5,124=41,174=1000000,175=2238200,177=452900,178=4655000/1,2,3;
 4/5=5,9=2,16=3,69=1/1;
 5/5=2,7=120,8=3,13=1,38=5/2,8;
 7//1,2,3,16;
 1/5=1,6=50,8=10,11=1,18=20,26=4,33=1/3(-5);
 2/9=110/2;
 6/7=2,8=2,9=2,10=2,19=2,28=1/1;
 99/9=1/99;
 Leave Link    1 at Wed Oct  7 14:43:11 2020, MaxMem=  2684354560 cpu:               3.9 elap:               0.4
 (Enter /udrive/faculty/rpeverati/g16/g16/l101.exe)
 ONIOM data not found on unit 2.
 ------------------
 TS search on BH76.
 ------------------
 TstMul:  ICh=     0
 TstMul:  Mul=     2
 TstMul:  ICh=     0
 TstMul:  Mul=     2
 Symbolic Z-matrix:
 Charge =  0 Multiplicity = 2
 H                     0.14657  -1.12839   0. 
 F                     0.        0.33042   0. 
 H                    -0.14657  -1.84541   0. 
 
 RdStrC is calling ZToCFu for IStruc=1 NZ=     3.
 PrtBox:  NBox=     1 Levels=  1 BoxLen=    8.00 SMaxX=        4.11
          Shift=            0.276973            3.487320            0.000000
 Box      1 Number                   0 centers from      1 to      3:
 After GenITR:
 ITRead=  0  0  0
 MicOpt= -1 -1 -1
 Add virtual bond connecting atoms F2         and H1         Dist= 2.77D+00.
 The following ModRedundant input section has been read:
 
 ITRead=  0  0  0
 MicOpt= -1 -1 -1
 NAtoms=      3 NQM=        3 NQMF=       0 NMMI=      0 NMMIF=      0
                NMic=       0 NMicF=      0.
                    Isotopes and Nuclear Properties:
 (Nuclear quadrupole moments (NQMom) in fm**2, nuclear magnetic moments (NMagM)
  in nuclear magnetons)

  Atom         1           2           3
 IAtWgt=           1          19           1
 AtmWgt=   1.0078250  18.9984033   1.0078250
 NucSpn=           1           1           1
 AtZEff=   0.0000000   0.0000000   0.0000000
 NQMom=    0.0000000   0.0000000   0.0000000
 NMagM=    2.7928460   2.6288670   2.7928460
 AtZNuc=   1.0000000   9.0000000   1.0000000
 No MM parameters found.
 Leave Link  101 at Wed Oct  7 14:43:12 2020, MaxMem=  2684354560 cpu:              12.5 elap:               1.2
 (Enter /udrive/faculty/rpeverati/g16/g16/l103.exe)

 GradGradGradGradGradGradGradGradGradGradGradGradGradGradGradGradGradGrad
 Berny optimization.
 Optmz: redundant internal coordinate code flag= 1
 Initialization pass.
                           ----------------------------
                           !    Initial Parameters    !
                           ! (Angstroms and Degrees)  !
 --------------------------                            --------------------------
 ! Name  Definition              Value          Derivative Info.                !
 --------------------------------------------------------------------------------
 ! R1    R(1,2)                  1.4662         estimate D2E/DX2                !
 ! R2    R(1,3)                  0.7746         estimate D2E/DX2                !
 ! A1    A(2,1,3)              152.0267         estimate D2E/DX2                !
 --------------------------------------------------------------------------------
 Maximum allowed force set to 1.00D+20.
 Trust Radius=1.00D-01 FncErr=1.00D-07 GrdErr=1.00D-06 EigMax=2.50D+02 EigMin=1.00D-04
 Number of steps in this run=     50 maximum allowed number of steps=    100.
 Search for a saddle point of order  1.
 GradGradGradGradGradGradGradGradGradGradGradGradGradGradGradGradGradGrad

 Leave Link  103 at Wed Oct  7 14:43:13 2020, MaxMem=  2684354560 cpu:               1.1 elap:               0.4
 (Enter /udrive/faculty/rpeverati/g16/g16/l202.exe)
                          Input orientation:                          
 ---------------------------------------------------------------------
 Center     Atomic      Atomic             Coordinates (Angstroms)
 Number     Number       Type             X           Y           Z
 ---------------------------------------------------------------------
      1          1           0        0.146568   -1.128391    0.000000
      2          9           0        0.000000    0.330422    0.000000
      3          1           0       -0.146568   -1.845410    0.000000
 ---------------------------------------------------------------------
                    Distance matrix (angstroms):
                    1          2          3
     1  H    0.000000
     2  F    1.466157   0.000000
     3  H    0.774626   2.180763   0.000000
 Stoichiometry    FH2(2)
 Framework group  CS[SG(FH2)]
 Deg. of freedom     3
 Full point group                 CS      NOp   2
 Largest Abelian subgroup         CS      NOp   2
 Largest concise Abelian subgroup C1      NOp   1
                         Standard orientation:                         
 ---------------------------------------------------------------------
 Center     Atomic      Atomic             Coordinates (Angstroms)
 Number     Number       Type             X           Y           Z
 ---------------------------------------------------------------------
      1          1           0        0.146568   -1.128391    0.000000
      2          9           0        0.000000    0.330422    0.000000
      3          1           0       -0.146568   -1.845410    0.000000
 ---------------------------------------------------------------------
 Rotational constants (GHZ):       12177.3479630          80.4827750          79.9543391
 Leave Link  202 at Wed Oct  7 14:43:14 2020, MaxMem=  2684354560 cpu:               2.6 elap:               0.6
 (Enter /udrive/faculty/rpeverati/g16/g16/l301.exe)
 Standard basis: 6-31G(d) (5D, 7F)
 Ernie: Thresh=  0.10000D-02 Tol=  0.10000D-05 Strict=F.
 There are    15 symmetry adapted cartesian basis functions of A'  symmetry.
 There are     4 symmetry adapted cartesian basis functions of A"  symmetry.
 There are    14 symmetry adapted basis functions of A'  symmetry.
 There are     4 symmetry adapted basis functions of A"  symmetry.
    18 basis functions,    36 primitive gaussians,    19 cartesian basis functions
     6 alpha electrons        5 beta electrons
       nuclear repulsion energy         6.1154029810 Hartrees.
 IExCor= 2523 DFT=T Ex+Corr=TPSSh ExCW=0 ScaHFX=  0.100000
 ScaDFX=  0.900000  0.900000  1.000000  1.000000 ScalE2=  1.000000  1.000000
 IRadAn=      5 IRanWt=     -1 IRanGd=            0 ICorTp=0 IEmpDi=141
 NAtoms=    3 NActive=    3 NUniq=    3 SFac= 1.00D+00 NAtFMM=   60 NAOKFM=F Big=F
 Integral buffers will be    131072 words long.
 Raffenetti 2 integral format.
 Two-electron integral symmetry is turned on.
 R6DIni: Non-standard D2/D3 S6 parameter, value=     1.000000
 R6DIni: Non-standard D2/D3 S8 parameter, value=     2.238200
 R6DIni: Non-standard D3BJ A1 parameter, value=     0.452900
 R6DIni: Non-standard D3BJ A2 parameter, value=     4.655000
 R6Disp:  Grimme-D3(BJ) Dispersion energy=       -0.0003642765 Hartrees.
 Nuclear repulsion after empirical dispersion term =        6.1150387046 Hartrees.
 Leave Link  301 at Wed Oct  7 14:43:15 2020, MaxMem=  2684354560 cpu:               1.7 elap:               0.7
 (Enter /udrive/faculty/rpeverati/g16/g16/l302.exe)
 NPDir=0 NMtPBC=     1 NCelOv=     1 NCel=       1 NClECP=     1 NCelD=      1
         NCelK=      1 NCelE2=     1 NClLst=     1 CellRange=     0.0.
 One-electron integrals computed using PRISM.
 One-electron integral symmetry used in STVInt
 NBasis=    18 RedAO= T EigKep=  5.99D-02  NBF=    14     4
 NBsUse=    18 1.00D-06 EigRej= -1.00D+00 NBFU=    14     4
 Precomputing XC quadrature grid using
 IXCGrd= 4 IRadAn=           5 IRanWt=          -1 IRanGd=           0 AccXCQ= 0.00D+00.
 Generated NRdTot=       0 NPtTot=           0 NUsed=           0 NTot=          32
 NSgBfM=    19    19    19    19    19 MxSgAt=     3 MxSgA2=     3.
 Leave Link  302 at Wed Oct  7 14:43:17 2020, MaxMem=  2684354560 cpu:               6.1 elap:               1.1
 (Enter /udrive/faculty/rpeverati/g16/g16/l303.exe)
 DipDrv:  MaxL=1.
 Leave Link  303 at Wed Oct  7 14:43:18 2020, MaxMem=  2684354560 cpu:               3.2 elap:               0.7
 (Enter /udrive/faculty/rpeverati/g16/g16/l401.exe)
 SCF N**3 symmetry information disabled.
 ExpMin= 1.61D-01 ExpMax= 7.00D+03 ExpMxC= 1.05D+03 IAcc=3 IRadAn=         5 AccDes= 0.00D+00
 Harris functional with IExCor= 1009 and IRadAn=       5 diagonalized for initial guess.
 HarFok:  IExCor= 1009 AccDes= 0.00D+00 IRadAn=         5 IDoV= 1 UseB2=F ITyADJ=14
 ICtDFT=  3500011 ScaDFX=  1.000000  1.000000  1.000000  1.000000
 FoFCou: FMM=F IPFlag=           0 FMFlag=      100000 FMFlg1=           0
         NFxFlg=           0 DoJE=T BraDBF=F KetDBF=T FulRan=T
         wScrn=  0.000000 ICntrl=       500 IOpCl=  0 I1Cent=   200000004 NGrid=           0
         NMat0=    1 NMatS0=      1 NMatT0=    0 NMatD0=    1 NMtDS0=    0 NMtDT0=    0
 Petite list used in FoFCou.
 Harris En= -100.773901769860    
 JPrj=0 DoOrth=F DoCkMO=F.
 Initial guess orbital symmetries:
 Alpha Orbitals:
       Occupied  (A') (A') (A') (A') (A") (A')
       Virtual   (A') (A') (A') (A") (A') (A') (A') (A") (A') (A")
                 (A') (A')
 Beta  Orbitals:
       Occupied  (A') (A') (A') (A') (A")
       Virtual   (A') (A') (A') (A') (A") (A') (A') (A') (A") (A')
                 (A") (A') (A')
 The electronic state of the initial guess is 2-A'.
 Initial guess <Sx>= 0.0000 <Sy>= 0.0000 <Sz>= 0.5000 <S**2>= 0.7500 S= 0.5000
 Leave Link  401 at Wed Oct  7 14:43:19 2020, MaxMem=  2684354560 cpu:               5.4 elap:               0.9
 (Enter /udrive/faculty/rpeverati/g16/g16/l502.exe)
 Keep R1 and R2 ints in memory in symmetry-blocked form, NReq=10366412.
 FoFCou: FMM=F IPFlag=           0 FMFlag=           0 FMFlg1=           0
         NFxFlg=           0 DoJE=F BraDBF=F KetDBF=F FulRan=T
         wScrn=  0.000000 ICntrl=       600 IOpCl=  0 I1Cent=           0 NGrid=           0
         NMat0=    1 NMatS0=    171 NMatT0=    0 NMatD0=    1 NMtDS0=    0 NMtDT0=    0
 Petite list used in FoFCou.
 UHF open shell SCF:
 Using DIIS extrapolation, IDIIS=  1040.
 NGot=  2684354560 LenX=  2684335872 LenY=  2684334990
 Requested convergence on RMS density matrix=1.00D-08 within 120 cycles.
 Requested convergence on MAX density matrix=1.00D-06.
 Requested convergence on             energy=1.00D-06.
 No special actions if energy rises.
 Integral accuracy reduced to 1.0D-05 until final iterations.

 Cycle   1  Pass 0  IDiag  1:
 E= -100.871917180964    
 DIIS: error= 3.68D-02 at cycle   1 NSaved=   1.
 NSaved= 1 IEnMin= 1 EnMin= -100.871917180964     IErMin= 1 ErrMin= 3.68D-02
 ErrMax= 3.68D-02  0.00D+00 EMaxC= 1.00D-01 BMatC= 5.68D-02 BMatP= 5.68D-02
 IDIUse=3 WtCom= 6.32D-01 WtEn= 3.68D-01
 Coeff-Com:  0.100D+01
 Coeff-En:   0.100D+01
 Coeff:      0.100D+01
 Gap=     0.453 Goal=   None    Shift=    0.000
 Gap=     0.058 Goal=   None    Shift=    0.000
 GapD=    0.058 DampG=0.500 DampE=0.500 DampFc=0.2500 IDamp=-1.
 Damping current iteration by 2.50D-01
 RMSDP=1.22D-02 MaxDP=1.09D-01              OVMax= 2.94D-01

 Cycle   2  Pass 0  IDiag  1:
 E= -100.878467763572     Delta-E=       -0.006550582608 Rises=F Damp=T
 DIIS: error= 1.70D-02 at cycle   2 NSaved=   2.
 NSaved= 2 IEnMin= 2 EnMin= -100.878467763572     IErMin= 2 ErrMin= 1.70D-02
 ErrMax= 1.70D-02  0.00D+00 EMaxC= 1.00D-01 BMatC= 1.22D-02 BMatP= 5.68D-02
 IDIUse=3 WtCom= 8.30D-01 WtEn= 1.70D-01
 Coeff-Com: -0.447D+00 0.145D+01
 Coeff-En:   0.000D+00 0.100D+01
 Coeff:     -0.371D+00 0.137D+01
 Gap=     0.472 Goal=   None    Shift=    0.000
 Gap=     0.106 Goal=   None    Shift=    0.000
 RMSDP=4.53D-03 MaxDP=5.60D-02 DE=-6.55D-03 OVMax= 9.75D-02

 Cycle   3  Pass 0  IDiag  1:
 E= -100.890073550340     Delta-E=       -0.011605786768 Rises=F Damp=F
 DIIS: error= 1.06D-02 at cycle   3 NSaved=   3.
 NSaved= 3 IEnMin= 3 EnMin= -100.890073550340     IErMin= 3 ErrMin= 1.06D-02
 ErrMax= 1.06D-02  0.00D+00 EMaxC= 1.00D-01 BMatC= 4.74D-03 BMatP= 1.22D-02
 IDIUse=3 WtCom= 8.94D-01 WtEn= 1.06D-01
 Coeff-Com:  0.652D+00-0.953D+00 0.130D+01
 Coeff-En:   0.000D+00 0.000D+00 0.100D+01
 Coeff:      0.582D+00-0.852D+00 0.127D+01
 Gap=     0.512 Goal=   None    Shift=    0.000
 Gap=     0.130 Goal=   None    Shift=    0.000
 RMSDP=2.41D-03 MaxDP=1.67D-02 DE=-1.16D-02 OVMax= 2.91D-02

 Cycle   4  Pass 0  IDiag  1:
 E= -100.891083294870     Delta-E=       -0.001009744530 Rises=F Damp=F
 DIIS: error= 2.79D-03 at cycle   4 NSaved=   4.
 NSaved= 4 IEnMin= 4 EnMin= -100.891083294870     IErMin= 4 ErrMin= 2.79D-03
 ErrMax= 2.79D-03  0.00D+00 EMaxC= 1.00D-01 BMatC= 4.74D-04 BMatP= 4.74D-03
 IDIUse=3 WtCom= 9.72D-01 WtEn= 2.79D-02
 Coeff-Com: -0.745D-01 0.676D-01 0.111D+00 0.896D+00
 Coeff-En:   0.000D+00 0.000D+00 0.000D+00 0.100D+01
 Coeff:     -0.724D-01 0.657D-01 0.108D+00 0.898D+00
 Gap=     0.505 Goal=   None    Shift=    0.000
 Gap=     0.126 Goal=   None    Shift=    0.000
 RMSDP=6.07D-04 MaxDP=4.48D-03 DE=-1.01D-03 OVMax= 1.47D-02

 Cycle   5  Pass 0  IDiag  1:
 E= -100.891219306140     Delta-E=       -0.000136011270 Rises=F Damp=F
 DIIS: error= 4.72D-04 at cycle   5 NSaved=   5.
 NSaved= 5 IEnMin= 5 EnMin= -100.891219306140     IErMin= 5 ErrMin= 4.72D-04
 ErrMax= 4.72D-04  0.00D+00 EMaxC= 1.00D-01 BMatC= 1.44D-05 BMatP= 4.74D-04
 IDIUse=3 WtCom= 9.95D-01 WtEn= 4.72D-03
 Coeff-Com: -0.149D-01 0.234D-01-0.746D-01 0.217D-01 0.104D+01
 Coeff-En:   0.000D+00 0.000D+00 0.000D+00 0.000D+00 0.100D+01
 Coeff:     -0.148D-01 0.233D-01-0.742D-01 0.216D-01 0.104D+01
 Gap=     0.507 Goal=   None    Shift=    0.000
 Gap=     0.127 Goal=   None    Shift=    0.000
 RMSDP=1.48D-04 MaxDP=1.18D-03 DE=-1.36D-04 OVMax= 2.71D-03

 Cycle   6  Pass 0  IDiag  1:
 E= -100.891225007577     Delta-E=       -0.000005701437 Rises=F Damp=F
 DIIS: error= 1.20D-04 at cycle   6 NSaved=   6.
 NSaved= 6 IEnMin= 6 EnMin= -100.891225007577     IErMin= 6 ErrMin= 1.20D-04
 ErrMax= 1.20D-04  0.00D+00 EMaxC= 1.00D-01 BMatC= 4.11D-07 BMatP= 1.44D-05
 IDIUse=3 WtCom= 9.99D-01 WtEn= 1.20D-03
 Coeff-Com:  0.677D-02-0.856D-02 0.806D-03-0.387D-01-0.408D-01 0.108D+01
 Coeff-En:   0.000D+00 0.000D+00 0.000D+00 0.000D+00 0.000D+00 0.100D+01
 Coeff:      0.676D-02-0.855D-02 0.805D-03-0.386D-01-0.407D-01 0.108D+01
 Gap=     0.507 Goal=   None    Shift=    0.000
 Gap=     0.127 Goal=   None    Shift=    0.000
 RMSDP=8.69D-05 MaxDP=9.36D-04 DE=-5.70D-06 OVMax= 2.21D-03

 Cycle   7  Pass 0  IDiag  1:
 E= -100.891226120598     Delta-E=       -0.000001113021 Rises=F Damp=F
 DIIS: error= 9.42D-05 at cycle   7 NSaved=   7.
 NSaved= 7 IEnMin= 7 EnMin= -100.891226120598     IErMin= 7 ErrMin= 9.42D-05
 ErrMax= 9.42D-05  0.00D+00 EMaxC= 1.00D-01 BMatC= 2.04D-07 BMatP= 4.11D-07
 IDIUse=1 WtCom= 1.00D+00 WtEn= 0.00D+00
 Coeff-Com:  0.163D-02-0.298D-02 0.208D-01 0.283D-02-0.247D+00-0.367D+00
 Coeff-Com:  0.159D+01
 Coeff:      0.163D-02-0.298D-02 0.208D-01 0.283D-02-0.247D+00-0.367D+00
 Coeff:      0.159D+01
 Gap=     0.507 Goal=   None    Shift=    0.000
 Gap=     0.127 Goal=   None    Shift=    0.000
 RMSDP=1.17D-04 MaxDP=1.26D-03 DE=-1.11D-06 OVMax= 2.98D-03

 Cycle   8  Pass 0  IDiag  1:
 E= -100.891227141342     Delta-E=       -0.000001020744 Rises=F Damp=F
 DIIS: error= 5.72D-05 at cycle   8 NSaved=   8.
 NSaved= 8 IEnMin= 8 EnMin= -100.891227141342     IErMin= 8 ErrMin= 5.72D-05
 ErrMax= 5.72D-05  0.00D+00 EMaxC= 1.00D-01 BMatC= 8.27D-08 BMatP= 2.04D-07
 IDIUse=1 WtCom= 1.00D+00 WtEn= 0.00D+00
 Coeff-Com: -0.403D-02 0.564D-02-0.103D-01 0.259D-01 0.139D+00-0.484D+00
 Coeff-Com: -0.682D+00 0.201D+01
 Coeff:     -0.403D-02 0.564D-02-0.103D-01 0.259D-01 0.139D+00-0.484D+00
 Coeff:     -0.682D+00 0.201D+01
 Gap=     0.507 Goal=   None    Shift=    0.000
 Gap=     0.127 Goal=   None    Shift=    0.000
 RMSDP=1.38D-04 MaxDP=1.50D-03 DE=-1.02D-06 OVMax= 3.55D-03

 Cycle   9  Pass 0  IDiag  1:
 E= -100.891227723252     Delta-E=       -0.000000581910 Rises=F Damp=F
 DIIS: error= 1.98D-05 at cycle   9 NSaved=   9.
 NSaved= 9 IEnMin= 9 EnMin= -100.891227723252     IErMin= 9 ErrMin= 1.98D-05
 ErrMax= 1.98D-05  0.00D+00 EMaxC= 1.00D-01 BMatC= 2.47D-08 BMatP= 8.27D-08
 IDIUse=1 WtCom= 1.00D+00 WtEn= 0.00D+00
 Coeff-Com:  0.736D-03-0.866D-03-0.238D-02-0.249D-02 0.960D-02 0.183D+00
 Coeff-Com: -0.986D-01-0.563D+00 0.147D+01
 Coeff:      0.736D-03-0.866D-03-0.238D-02-0.249D-02 0.960D-02 0.183D+00
 Coeff:     -0.986D-01-0.563D+00 0.147D+01
 Gap=     0.507 Goal=   None    Shift=    0.000
 Gap=     0.127 Goal=   None    Shift=    0.000
 RMSDP=4.11D-05 MaxDP=4.45D-04 DE=-5.82D-07 OVMax= 1.05D-03

 Cycle  10  Pass 0  IDiag  1:
 E= -100.891227768838     Delta-E=       -0.000000045586 Rises=F Damp=F
 DIIS: error= 3.59D-06 at cycle  10 NSaved=  10.
 NSaved=10 IEnMin=10 EnMin= -100.891227768838     IErMin=10 ErrMin= 3.59D-06
 ErrMax= 3.59D-06  0.00D+00 EMaxC= 1.00D-01 BMatC= 4.74D-10 BMatP= 2.47D-08
 IDIUse=1 WtCom= 1.00D+00 WtEn= 0.00D+00
 Coeff-Com:  0.518D-03-0.706D-03 0.131D-02-0.271D-02-0.176D-01 0.614D-01
 Coeff-Com:  0.992D-01-0.295D+00 0.984D-01 0.106D+01
 Coeff:      0.518D-03-0.706D-03 0.131D-02-0.271D-02-0.176D-01 0.614D-01
 Coeff:      0.992D-01-0.295D+00 0.984D-01 0.106D+01
 Gap=     0.507 Goal=   None    Shift=    0.000
 Gap=     0.127 Goal=   None    Shift=    0.000
 RMSDP=5.87D-06 MaxDP=6.22D-05 DE=-4.56D-08 OVMax= 1.48D-04

 Initial convergence to 1.0D-05 achieved.  Increase integral accuracy.
 Cycle  11  Pass 1  IDiag  1:
 E= -100.891225614483     Delta-E=        0.000002154355 Rises=F Damp=F
 DIIS: error= 9.68D-06 at cycle   1 NSaved=   1.
 NSaved= 1 IEnMin= 1 EnMin= -100.891225614483     IErMin= 1 ErrMin= 9.68D-06
 ErrMax= 9.68D-06  0.00D+00 EMaxC= 1.00D-01 BMatC= 5.80D-09 BMatP= 5.80D-09
 IDIUse=1 WtCom= 1.00D+00 WtEn= 0.00D+00
 Coeff-Com:  0.100D+01
 Coeff:      0.100D+01
 Gap=     0.507 Goal=   None    Shift=    0.000
 Gap=     0.127 Goal=   None    Shift=    0.000
 RMSDP=5.87D-06 MaxDP=6.22D-05 DE= 2.15D-06 OVMax= 3.31D-05

 Cycle  12  Pass 1  IDiag  1:
 E= -100.891225616391     Delta-E=       -0.000000001908 Rises=F Damp=F
 DIIS: error= 1.40D-06 at cycle   2 NSaved=   2.
 NSaved= 2 IEnMin= 2 EnMin= -100.891225616391     IErMin= 2 ErrMin= 1.40D-06
 ErrMax= 1.40D-06  0.00D+00 EMaxC= 1.00D-01 BMatC= 1.22D-10 BMatP= 5.80D-09
 IDIUse=1 WtCom= 1.00D+00 WtEn= 0.00D+00
 Coeff-Com: -0.174D-01 0.102D+01
 Coeff:     -0.174D-01 0.102D+01
 Gap=     0.507 Goal=   None    Shift=    0.000
 Gap=     0.127 Goal=   None    Shift=    0.000
 RMSDP=7.03D-07 MaxDP=5.46D-06 DE=-1.91D-09 OVMax= 1.49D-05

 Cycle  13  Pass 1  IDiag  1:
 E= -100.891225616417     Delta-E=       -0.000000000026 Rises=F Damp=F
 DIIS: error= 1.92D-06 at cycle   3 NSaved=   3.
 NSaved= 3 IEnMin= 3 EnMin= -100.891225616417     IErMin= 2 ErrMin= 1.40D-06
 ErrMax= 1.92D-06  0.00D+00 EMaxC= 1.00D-01 BMatC= 2.29D-10 BMatP= 1.22D-10
 IDIUse=1 WtCom= 1.00D+00 WtEn= 0.00D+00
 Coeff-Com: -0.293D-01 0.609D+00 0.420D+00
 Coeff:     -0.293D-01 0.609D+00 0.420D+00
 Gap=     0.507 Goal=   None    Shift=    0.000
 Gap=     0.127 Goal=   None    Shift=    0.000
 RMSDP=2.98D-07 MaxDP=1.67D-06 DE=-2.64D-11 OVMax= 5.07D-06

 Cycle  14  Pass 1  IDiag  1:
 E= -100.891225616468     Delta-E=       -0.000000000051 Rises=F Damp=F
 DIIS: error= 5.56D-07 at cycle   4 NSaved=   4.
 NSaved= 4 IEnMin= 4 EnMin= -100.891225616468     IErMin= 4 ErrMin= 5.56D-07
 ErrMax= 5.56D-07  0.00D+00 EMaxC= 1.00D-01 BMatC= 6.42D-12 BMatP= 1.22D-10
 IDIUse=1 WtCom= 1.00D+00 WtEn= 0.00D+00
 Coeff-Com:  0.912D-02-0.177D+00-0.123D+00 0.129D+01
 Coeff:      0.912D-02-0.177D+00-0.123D+00 0.129D+01
 Gap=     0.507 Goal=   None    Shift=    0.000
 Gap=     0.127 Goal=   None    Shift=    0.000
 RMSDP=4.55D-07 MaxDP=4.89D-06 DE=-5.08D-11 OVMax= 1.17D-05

 Cycle  15  Pass 1  IDiag  1:
 E= -100.891225616494     Delta-E=       -0.000000000025 Rises=F Damp=F
 DIIS: error= 4.13D-07 at cycle   5 NSaved=   5.
 NSaved= 5 IEnMin= 5 EnMin= -100.891225616494     IErMin= 5 ErrMin= 4.13D-07
 ErrMax= 4.13D-07  0.00D+00 EMaxC= 1.00D-01 BMatC= 4.27D-12 BMatP= 6.42D-12
 IDIUse=1 WtCom= 1.00D+00 WtEn= 0.00D+00
 Coeff-Com:  0.131D-01-0.220D+00-0.271D+00-0.804D+00 0.228D+01
 Coeff:      0.131D-01-0.220D+00-0.271D+00-0.804D+00 0.228D+01
 Gap=     0.507 Goal=   None    Shift=    0.000
 Gap=     0.127 Goal=   None    Shift=    0.000
 RMSDP=8.63D-07 MaxDP=9.36D-06 DE=-2.55D-11 OVMax= 2.22D-05

 Cycle  16  Pass 1  IDiag  1:
 E= -100.891225616522     Delta-E=       -0.000000000029 Rises=F Damp=F
 DIIS: error= 1.48D-07 at cycle   6 NSaved=   6.
 NSaved= 6 IEnMin= 6 EnMin= -100.891225616522     IErMin= 6 ErrMin= 1.48D-07
 ErrMax= 1.48D-07  0.00D+00 EMaxC= 1.00D-01 BMatC= 7.36D-13 BMatP= 4.27D-12
 IDIUse=1 WtCom= 1.00D+00 WtEn= 0.00D+00
 Coeff-Com: -0.672D-02 0.140D+00 0.144D+00-0.551D+00-0.162D+00 0.144D+01
 Coeff:     -0.672D-02 0.140D+00 0.144D+00-0.551D+00-0.162D+00 0.144D+01
 Gap=     0.507 Goal=   None    Shift=    0.000
 Gap=     0.127 Goal=   None    Shift=    0.000
 RMSDP=4.08D-07 MaxDP=4.43D-06 DE=-2.85D-11 OVMax= 1.05D-05

 Cycle  17  Pass 1  IDiag  1:
 E= -100.891225616526     Delta-E=       -0.000000000004 Rises=F Damp=F
 DIIS: error= 2.08D-08 at cycle   7 NSaved=   7.
 NSaved= 7 IEnMin= 7 EnMin= -100.891225616526     IErMin= 7 ErrMin= 2.08D-08
 ErrMax= 2.08D-08  0.00D+00 EMaxC= 1.00D-01 BMatC= 2.42D-14 BMatP= 7.36D-13
 IDIUse=1 WtCom= 1.00D+00 WtEn= 0.00D+00
 Coeff-Com:  0.677D-03-0.164D-01-0.126D-01 0.113D+00-0.395D-01-0.345D+00
 Coeff-Com:  0.130D+01
 Coeff:      0.677D-03-0.164D-01-0.126D-01 0.113D+00-0.395D-01-0.345D+00
 Coeff:      0.130D+01
 Gap=     0.507 Goal=   None    Shift=    0.000
 Gap=     0.127 Goal=   None    Shift=    0.000
 RMSDP=5.90D-08 MaxDP=6.34D-07 DE=-4.08D-12 OVMax= 1.50D-06

 Cycle  18  Pass 1  IDiag  1:
 E= -100.891225616526     Delta-E=       -0.000000000000 Rises=F Damp=F
 DIIS: error= 5.93D-09 at cycle   8 NSaved=   8.
 NSaved= 8 IEnMin= 8 EnMin= -100.891225616526     IErMin= 8 ErrMin= 5.93D-09
 ErrMax= 5.93D-09  0.00D+00 EMaxC= 1.00D-01 BMatC= 2.02D-15 BMatP= 2.42D-14
 IDIUse=1 WtCom= 1.00D+00 WtEn= 0.00D+00
 Coeff-Com:  0.514D-03-0.110D-01-0.104D-01 0.466D-01 0.136D-01-0.144D+00
 Coeff-Com:  0.946D-01 0.101D+01
 Coeff:      0.514D-03-0.110D-01-0.104D-01 0.466D-01 0.136D-01-0.144D+00
 Coeff:      0.946D-01 0.101D+01
 Gap=     0.507 Goal=   None    Shift=    0.000
 Gap=     0.127 Goal=   None    Shift=    0.000
 RMSDP=6.63D-09 MaxDP=6.84D-08 DE=-5.68D-14 OVMax= 1.63D-07

 SCF Done:  E(UTPSSh) =  -100.891225617     A.U. after   18 cycles
            NFock= 18  Conv=0.66D-08     -V/T= 2.0043
 <Sx>= 0.0000 <Sy>= 0.0000 <Sz>= 0.5000 <S**2>= 0.7562 S= 0.5031
 <L.S>= 0.000000000000E+00
 KE= 1.004547081798D+02 PE=-2.532841495242D+02 EE= 4.582317702331D+01
 Annihilation of the first spin contaminant:
 S**2 before annihilation     0.7562,   after     0.7500
 Leave Link  502 at Wed Oct  7 14:43:22 2020, MaxMem=  2684354560 cpu:              21.1 elap:               2.5
 (Enter /udrive/faculty/rpeverati/g16/g16/l508.exe)
 QCSCF skips out because SCF is already converged.
 Leave Link  508 at Wed Oct  7 14:43:23 2020, MaxMem=  2684354560 cpu:               0.8 elap:               0.7
 (Enter /udrive/faculty/rpeverati/g16/g16/l601.exe)
 Copying SCF densities to generalized density rwf, IOpCl= 1 IROHF=0.

 **********************************************************************

            Population analysis using the SCF density.

 **********************************************************************

 Orbital symmetries:
 Alpha Orbitals:
       Occupied  (A') (A') (A') (A') (A') (A")
       Virtual   (A') (A') (A') (A") (A') (A') (A') (A") (A') (A')
                 (A") (A')
 Beta  Orbitals:
       Occupied  (A') (A') (A') (A') (A")
       Virtual   (A') (A') (A') (A') (A") (A') (A') (A') (A") (A')
                 (A") (A') (A')
 The electronic state is 2-A'.
 Alpha  occ. eigenvalues --  -24.64243  -1.13987  -0.53131  -0.39165  -0.37675
 Alpha  occ. eigenvalues --   -0.37658
 Alpha virt. eigenvalues --    0.13080   0.59590   0.96929   1.15539   1.16384
 Alpha virt. eigenvalues --    1.24417   1.57148   1.79169   1.79694   1.84190
 Alpha virt. eigenvalues --    1.84192   1.94678
  Beta  occ. eigenvalues --  -24.61600  -1.07107  -0.46078  -0.35442  -0.35421
  Beta virt. eigenvalues --   -0.22693   0.15832   0.62180   1.05062   1.17240
  Beta virt. eigenvalues --    1.18232   1.32506   1.62020   1.83768   1.84397
  Beta virt. eigenvalues --    1.84870   1.84901   2.01800
          Condensed to atoms (all electrons):
               1          2          3
     1  H    0.545332   0.030390   0.327622
     2  F    0.030390   9.134887  -0.018312
     3  H    0.327622  -0.018312   0.640380
          Atomic-Atomic Spin Densities.
               1          2          3
     1  H   -0.080928  -0.030213   0.035635
     2  F   -0.030213   0.851755  -0.031278
     3  H    0.035635  -0.031278   0.280883
 Mulliken charges and spin densities:
               1          2
     1  H    0.096656  -0.075505
     2  F   -0.146966   0.790264
     3  H    0.050310   0.285241
 Sum of Mulliken charges =   0.00000   1.00000
 Mulliken charges and spin densities with hydrogens summed into heavy atoms:
               1          2
     2  F    0.000000   1.000000
 Electronic spatial extent (au):  <R**2>=             33.4821
 Charge=              0.0000 electrons
 Dipole moment (field-independent basis, Debye):
    X=              0.0079    Y=             -1.0600    Z=              0.0000  Tot=              1.0601
 Quadrupole moment (field-independent basis, Debye-Ang):
   XX=             -6.5879   YY=             -4.3955   ZZ=             -6.6519
   XY=              0.1241   XZ=              0.0000   YZ=              0.0000
 Traceless Quadrupole moment (field-independent basis, Debye-Ang):
   XX=             -0.7095   YY=              1.4829   ZZ=             -0.7734
   XY=              0.1241   XZ=              0.0000   YZ=              0.0000
 Octapole moment (field-independent basis, Debye-Ang**2):
  XXX=              0.0127  YYY=              0.7730  ZZZ=              0.0000  XYY=             -0.3667
  XXY=              1.0621  XXZ=              0.0000  XZZ=              0.0040  YZZ=              1.1550
  YYZ=              0.0000  XYZ=              0.0000
 Hexadecapole moment (field-independent basis, Debye-Ang**3):
 XXXX=             -4.3716 YYYY=            -24.6914 ZZZZ=             -4.2013 XXXY=             -0.2528
 XXXZ=              0.0000 YYYX=              0.6842 YYYZ=              0.0000 ZZZX=              0.0000
 ZZZY=              0.0000 XXYY=             -5.9887 XXZZ=             -1.4291 YYZZ=             -6.1139
 XXYZ=              0.0000 YYXZ=              0.0000 ZZXY=             -0.0850
 N-N= 6.115038704568D+00 E-N=-2.532841496092D+02  KE= 1.004547081798D+02
                          Isotropic Fermi Contact Couplings
        Atom                 a.u.       MegaHertz       Gauss      10(-4) cm-1
     1  H(1)              -0.00758     -33.89422     -12.09430     -11.30590
     2  F(19)              0.13923     585.80692     209.03048     195.40416
     3  H(1)               0.11618     519.30585     185.30124     173.22179
 --------------------------------------------------------
       Center         ----  Spin Dipole Couplings  ----
                      3XX-RR        3YY-RR        3ZZ-RR
 --------------------------------------------------------
     1   Atom       -0.069680      0.157873     -0.088194
     2   Atom       -2.407345      4.831397     -2.424052
     3   Atom       -0.009100      0.019692     -0.010592
 --------------------------------------------------------
                        XY            XZ            YZ
 --------------------------------------------------------
     1   Atom        0.029817      0.000000      0.000000
     2   Atom        0.346864      0.000000      0.000000
     3   Atom        0.004318      0.000000      0.000000
 --------------------------------------------------------


 ---------------------------------------------------------------------------------
              Anisotropic Spin Dipole Couplings in Principal Axis System
 ---------------------------------------------------------------------------------

       Atom             a.u.   MegaHertz   Gauss  10(-4) cm-1        Axes

              Baa    -0.0882   -47.056   -16.791   -15.696  0.0000  0.0000  1.0000
     1 H(1)   Bbb    -0.0735   -39.228   -13.997   -13.085  0.9918 -0.1278  0.0000
              Bcc     0.1617    86.284    30.788    28.781  0.1278  0.9918  0.0000
 
              Baa    -2.4241 -1217.421  -434.406  -406.088  0.0000  0.0000  1.0000
     2 F(19)  Bbb    -2.4239 -1217.359  -434.384  -406.067  0.9989 -0.0478  0.0000
              Bcc     4.8480  2434.780   868.790   812.155  0.0478  0.9989  0.0000
 
              Baa    -0.0106    -5.651    -2.017    -1.885  0.0000  0.0000  1.0000
     3 H(1)   Bbb    -0.0097    -5.194    -1.853    -1.732  0.9894 -0.1452  0.0000
              Bcc     0.0203    10.845     3.870     3.617  0.1452  0.9894  0.0000
 

 ---------------------------------------------------------------------------------

 No NMR shielding tensors so no spin-rotation constants.
 Leave Link  601 at Wed Oct  7 14:43:25 2020, MaxMem=  2684354560 cpu:              12.0 elap:               2.2
 (Enter /udrive/faculty/rpeverati/g16/g16/l701.exe)
 ... and contract with generalized density number  0.
 Compute integral first derivatives.
 R6Disp: Adding Grimme-D3(BJ) dispersion energy 1st derivatives to the gradient.
 Leave Link  701 at Wed Oct  7 14:43:27 2020, MaxMem=  2684354560 cpu:               6.1 elap:               1.4
 (Enter /udrive/faculty/rpeverati/g16/g16/l702.exe)
 L702 exits ... SP integral derivatives will be done elsewhere.
 Leave Link  702 at Wed Oct  7 14:43:28 2020, MaxMem=  2684354560 cpu:               1.8 elap:               0.6
 (Enter /udrive/faculty/rpeverati/g16/g16/l703.exe)
 Integral derivatives from FoFJK, PRISM(SPDF).
 Compute integral first derivatives, UseDBF=F ICtDFT=           0.
 Calling FoFJK, ICntrl=      2127 FMM=F ISym2X=1 I1Cent= 0 IOpClX= 1 NMat=1 NMatS=1 NMatT=0.
 FoFJK:  IHMeth= 1 ICntrl=    2127 DoSepK=F KAlg= 0 I1Cent=           0 FoldK=F
 IRaf=         0 NMat=       1 IRICut=       1 DoRegI=T DoRafI=F ISym2E= 1 IDoP0=0 IntGTp=1.
 FoFCou: FMM=F IPFlag=           0 FMFlag=      100000 FMFlg1=         800
         NFxFlg=           0 DoJE=F BraDBF=F KetDBF=F FulRan=T
         wScrn=  0.000000 ICntrl=      2127 IOpCl=  1 I1Cent=           0 NGrid=           0
         NMat0=    1 NMatS0=      1 NMatT0=    0 NMatD0=    1 NMtDS0=    0 NMtDT0=    0
 Petite list used in FoFCou.
 Leave Link  703 at Wed Oct  7 14:43:29 2020, MaxMem=  2684354560 cpu:               7.8 elap:               1.1
 (Enter /udrive/faculty/rpeverati/g16/g16/l716.exe)
 Dipole        = 3.09107739D-03-4.17047931D-01 0.00000000D+00
 ***** Axes restored to original set *****
 -------------------------------------------------------------------
 Center     Atomic                   Forces (Hartrees/Bohr)
 Number     Number              X              Y              Z
 -------------------------------------------------------------------
      1        1           0.000338602    0.005605080   -0.000000000
      2        9           0.000427899   -0.003238477   -0.000000000
      3        1          -0.000766501   -0.002366602   -0.000000000
 -------------------------------------------------------------------
 Cartesian Forces:  Max     0.005605080 RMS     0.002318782
 Leave Link  716 at Wed Oct  7 14:43:30 2020, MaxMem=  2684354560 cpu:               2.2 elap:               0.8
 (Enter /udrive/faculty/rpeverati/g16/g16/l103.exe)

 GradGradGradGradGradGradGradGradGradGradGradGradGradGradGradGradGradGrad
 Berny optimization.
 Optmz: redundant internal coordinate code flag= 1
 FormGI is forming the generalized inverse of G from B-inverse, IUseBI=4.
 Internal  Forces:  Max     0.003264768 RMS     0.002372466
 Search for a saddle point.
 Step number   1 out of a maximum of   50
 All quantities printed in internal units (Hartrees-Bohrs-Radians)
 Swapping is turned off.
 Second derivative matrix not updated -- first step.
 The second derivative matrix:
                          R1        R2        A1
           R1           0.12256
           R2           0.00000   0.34811
           A1           0.00000   0.00000   0.16000
 ITU=  0
 Eigenvectors of the second derivative matrix:
                           1         2         3
     Eigenvalues --     0.12256   0.16000   0.34811
   1         R1        -1.00000   0.00000  -0.00000
   2         R2        -0.00000  -0.00000   1.00000
   3         A1        -0.00000  -1.00000  -0.00000
 Eigenvalue     1 is   1.23D-01 should be less than     0.000000 Eigenvector:
                          R1        A1        R2
   1                   -1.00000  -0.00000  -0.00000
 RLam0= 1.23D-01.
 Iter=   1 RLamda= 0.00000000D+00 Sum=-1.81444741D-05.
 Iter=   2 RLamda=-1.81444741D-05 Sum=-1.81434993D-05.
 RFO step:  Lambda0=1.226437657D-01 Lambda=-1.81444741D-05.
 Linear search not attempted -- option 19 set.
 Iteration  1 RMS(Cart)=  0.00603654 RMS(Int)=  0.00000444
 Iteration  2 RMS(Cart)=  0.00000348 RMS(Int)=  0.00000000
 Iteration  3 RMS(Cart)=  0.00000000 RMS(Int)=  0.00000000
 ITry= 1 IFail=0 DXMaxC= 7.38D-03 DCOld= 1.00D+10 DXMaxT= 1.00D-01 DXLimC= 3.00D+00 Rises=F
 ClnCor:  largest displacement from symmetrization is 0.00D+00 for atom     0.
 Variable       Old X    -DE/DX   Delta X   Delta X   Delta X     New X
                                 (Linear)    (Quad)   (Total)
    R1        2.77064  -0.00326   0.00000   0.00733   0.00733   2.77797
    R2        1.46383   0.00248   0.00000   0.00712   0.00712   1.47095
    A1        2.65337   0.00028   0.00000   0.00172   0.00172   2.65509
         Item               Value     Threshold  Converged?
 Maximum Force            0.003265     0.000450     NO 
 RMS     Force            0.002372     0.000300     NO 
 Maximum Displacement     0.007379     0.001800     NO 
 RMS     Displacement     0.006037     0.001200     NO 
 Predicted change in Energy= 1.814783D-05
 Lowest energy point so far.  Saving SCF results.
 Largest change from initial coordinates is atom    3       0.004 Angstoms.
 GradGradGradGradGradGradGradGradGradGradGradGradGradGradGradGradGradGrad

 Leave Link  103 at Wed Oct  7 14:43:32 2020, MaxMem=  2684354560 cpu:               5.6 elap:               1.0
 (Enter /udrive/faculty/rpeverati/g16/g16/l202.exe)
                          Input orientation:                          
 ---------------------------------------------------------------------
 Center     Atomic      Atomic             Coordinates (Angstroms)
 Number     Number       Type             X           Y           Z
 ---------------------------------------------------------------------
      1          1           0        0.146673   -1.128397    0.000000
      2          9           0        0.000228    0.334326    0.000000
      3          1           0       -0.146900   -1.849309    0.000000
 ---------------------------------------------------------------------
                    Distance matrix (angstroms):
                    1          2          3
     1  H    0.000000
     2  F    1.470036   0.000000
     3  H    0.778396   2.188587   0.000000
 Stoichiometry    FH2(2)
 Framework group  CS[SG(FH2)]
 Deg. of freedom     3
 Full point group                 CS      NOp   2
 RotChk:  IX=0 Diff= 2.65D-04
 Largest Abelian subgroup         CS      NOp   2
 Largest concise Abelian subgroup C1      NOp   1
                         Standard orientation:                         
 ---------------------------------------------------------------------
 Center     Atomic      Atomic             Coordinates (Angstroms)
 Number     Number       Type             X           Y           Z
 ---------------------------------------------------------------------
      1          1           0        0.146719   -1.131209    0.000000
      2          9           0        0.000000    0.331487    0.000000
      3          1           0       -0.146719   -1.852176    0.000000
 ---------------------------------------------------------------------
 Rotational constants (GHZ):       12154.5206686          79.9514817          79.4290039
 Leave Link  202 at Wed Oct  7 14:43:33 2020, MaxMem=  2684354560 cpu:               2.2 elap:               0.6
 (Enter /udrive/faculty/rpeverati/g16/g16/l301.exe)
 Standard basis: 6-31G(d) (5D, 7F)
 Ernie: Thresh=  0.10000D-02 Tol=  0.10000D-05 Strict=F.
 There are    15 symmetry adapted cartesian basis functions of A'  symmetry.
 There are     4 symmetry adapted cartesian basis functions of A"  symmetry.
 There are    14 symmetry adapted basis functions of A'  symmetry.
 There are     4 symmetry adapted basis functions of A"  symmetry.
    18 basis functions,    36 primitive gaussians,    19 cartesian basis functions
     6 alpha electrons        5 beta electrons
       nuclear repulsion energy         6.0957173052 Hartrees.
 IExCor= 2523 DFT=T Ex+Corr=TPSSh ExCW=0 ScaHFX=  0.100000
 ScaDFX=  0.900000  0.900000  1.000000  1.000000 ScalE2=  1.000000  1.000000
 IRadAn=      5 IRanWt=     -1 IRanGd=            0 ICorTp=0 IEmpDi=141
 NAtoms=    3 NActive=    3 NUniq=    3 SFac= 1.00D+00 NAtFMM=   60 NAOKFM=F Big=F
 Integral buffers will be    131072 words long.
 Raffenetti 2 integral format.
 Two-electron integral symmetry is turned on.
 R6DIni: Non-standard D2/D3 S6 parameter, value=     1.000000
 R6DIni: Non-standard D2/D3 S8 parameter, value=     2.238200
 R6DIni: Non-standard D3BJ A1 parameter, value=     0.452900
 R6DIni: Non-standard D3BJ A2 parameter, value=     4.655000
 R6Disp:  Grimme-D3(BJ) Dispersion energy=       -0.0003651231 Hartrees.
 Nuclear repulsion after empirical dispersion term =        6.0953521820 Hartrees.
 Leave Link  301 at Wed Oct  7 14:43:34 2020, MaxMem=  2684354560 cpu:               2.6 elap:               0.7
 (Enter /udrive/faculty/rpeverati/g16/g16/l302.exe)
 NPDir=0 NMtPBC=     1 NCelOv=     1 NCel=       1 NClECP=     1 NCelD=      1
         NCelK=      1 NCelE2=     1 NClLst=     1 CellRange=     0.0.
 One-electron integrals computed using PRISM.
 One-electron integral symmetry used in STVInt
 NBasis=    18 RedAO= T EigKep=  6.04D-02  NBF=    14     4
 NBsUse=    18 1.00D-06 EigRej= -1.00D+00 NBFU=    14     4
 Precomputing XC quadrature grid using
 IXCGrd= 4 IRadAn=           5 IRanWt=          -1 IRanGd=           0 AccXCQ= 0.00D+00.
 Generated NRdTot=       0 NPtTot=           0 NUsed=           0 NTot=          32
 NSgBfM=    19    19    19    19    19 MxSgAt=     3 MxSgA2=     3.
 Leave Link  302 at Wed Oct  7 14:43:35 2020, MaxMem=  2684354560 cpu:               6.9 elap:               1.1
 (Enter /udrive/faculty/rpeverati/g16/g16/l303.exe)
 DipDrv:  MaxL=1.
 Leave Link  303 at Wed Oct  7 14:43:37 2020, MaxMem=  2684354560 cpu:               3.3 elap:               1.3
 (Enter /udrive/faculty/rpeverati/g16/g16/l401.exe)
 Initial guess from the checkpoint file:  "MN_86_RKT10_BH76_TPSShDBJ_631Gs.chk"
 SCF N**3 symmetry information disabled.
 B after Tr=     0.000000    0.000000    0.000000
         Rot=    1.000000    0.000000    0.000000   -0.000041 Ang=  -0.00 deg.
 Guess basis will be translated and rotated to current coordinates.
 JPrj=2 DoOrth=T DoCkMO=T.
 Initial guess orbital symmetries:
 Alpha Orbitals:
       Occupied  (A') (A') (A') (A') (A') (A")
       Virtual   (A') (A') (A') (A") (A') (A') (A') (A") (A') (A')
                 (A") (A')
 Beta  Orbitals:
       Occupied  (A') (A') (A') (A') (A")
       Virtual   (A') (A') (A') (A') (A") (A') (A') (A') (A") (A')
                 (A") (A') (A')
 The electronic state of the initial guess is 2-A'.
 Initial guess <Sx>= 0.0000 <Sy>= 0.0000 <Sz>= 0.5000 <S**2>= 0.7562 S= 0.5031
 Leave Link  401 at Wed Oct  7 14:43:39 2020, MaxMem=  2684354560 cpu:               7.8 elap:               1.3
 (Enter /udrive/faculty/rpeverati/g16/g16/l502.exe)
 Keep R1 and R2 ints in memory in symmetry-blocked form, NReq=10366412.
 FoFCou: FMM=F IPFlag=           0 FMFlag=           0 FMFlg1=           0
         NFxFlg=           0 DoJE=F BraDBF=F KetDBF=F FulRan=T
         wScrn=  0.000000 ICntrl=       600 IOpCl=  0 I1Cent=           0 NGrid=           0
         NMat0=    1 NMatS0=    171 NMatT0=    0 NMatD0=    1 NMtDS0=    0 NMtDT0=    0
 Petite list used in FoFCou.
 UHF open shell SCF:
 Using DIIS extrapolation, IDIIS=  1040.
 NGot=  2684354560 LenX=  2684335872 LenY=  2684334990
 Requested convergence on RMS density matrix=1.00D-08 within 120 cycles.
 Requested convergence on MAX density matrix=1.00D-06.
 Requested convergence on             energy=1.00D-06.
 No special actions if energy rises.

 Cycle   1  Pass 1  IDiag  1:
 E= -100.891206905833    
 DIIS: error= 5.87D-04 at cycle   1 NSaved=   1.
 NSaved= 1 IEnMin= 1 EnMin= -100.891206905833     IErMin= 1 ErrMin= 5.87D-04
 ErrMax= 5.87D-04  0.00D+00 EMaxC= 1.00D-01 BMatC= 7.36D-06 BMatP= 7.36D-06
 IDIUse=3 WtCom= 9.94D-01 WtEn= 5.87D-03
 Coeff-Com:  0.100D+01
 Coeff-En:   0.100D+01
 Coeff:      0.100D+01
 Gap=     0.506 Goal=   None    Shift=    0.000
 Gap=     0.127 Goal=   None    Shift=    0.000
 RMSDP=1.07D-04 MaxDP=6.02D-04              OVMax= 1.13D-03

 Cycle   2  Pass 1  IDiag  1:
 E= -100.891209833040     Delta-E=       -0.000002927207 Rises=F Damp=F
 DIIS: error= 8.00D-05 at cycle   2 NSaved=   2.
 NSaved= 2 IEnMin= 2 EnMin= -100.891209833040     IErMin= 2 ErrMin= 8.00D-05
 ErrMax= 8.00D-05  0.00D+00 EMaxC= 1.00D-01 BMatC= 2.07D-07 BMatP= 7.36D-06
 IDIUse=1 WtCom= 1.00D+00 WtEn= 0.00D+00
 Coeff-Com:  0.822D-01 0.918D+00
 Coeff:      0.822D-01 0.918D+00
 Gap=     0.506 Goal=   None    Shift=    0.000
 Gap=     0.127 Goal=   None    Shift=    0.000
 RMSDP=2.76D-05 MaxDP=2.46D-04 DE=-2.93D-06 OVMax= 8.14D-04

 Cycle   3  Pass 1  IDiag  1:
 E= -100.891209910150     Delta-E=       -0.000000077110 Rises=F Damp=F
 DIIS: error= 7.27D-05 at cycle   3 NSaved=   3.
 NSaved= 3 IEnMin= 3 EnMin= -100.891209910150     IErMin= 3 ErrMin= 7.27D-05
 ErrMax= 7.27D-05  0.00D+00 EMaxC= 1.00D-01 BMatC= 3.87D-07 BMatP= 2.07D-07
 IDIUse=1 WtCom= 1.00D+00 WtEn= 0.00D+00
 Coeff-Com:  0.213D-01 0.608D+00 0.371D+00
 Coeff:      0.213D-01 0.608D+00 0.371D+00
 Gap=     0.506 Goal=   None    Shift=    0.000
 Gap=     0.127 Goal=   None    Shift=    0.000
 RMSDP=1.03D-05 MaxDP=5.97D-05 DE=-7.71D-08 OVMax= 1.68D-04

 Cycle   4  Pass 1  IDiag  1:
 E= -100.891209985317     Delta-E=       -0.000000075168 Rises=F Damp=F
 DIIS: error= 1.64D-05 at cycle   4 NSaved=   4.
 NSaved= 4 IEnMin= 4 EnMin= -100.891209985317     IErMin= 4 ErrMin= 1.64D-05
 ErrMax= 1.64D-05  0.00D+00 EMaxC= 1.00D-01 BMatC= 1.71D-08 BMatP= 2.07D-07
 IDIUse=1 WtCom= 1.00D+00 WtEn= 0.00D+00
 Coeff-Com: -0.119D-01 0.132D+00-0.628D-01 0.943D+00
 Coeff:     -0.119D-01 0.132D+00-0.628D-01 0.943D+00
 Gap=     0.506 Goal=   None    Shift=    0.000
 Gap=     0.127 Goal=   None    Shift=    0.000
 RMSDP=3.53D-06 MaxDP=2.36D-05 DE=-7.52D-08 OVMax= 3.22D-05

 Cycle   5  Pass 1  IDiag  1:
 E= -100.891209990059     Delta-E=       -0.000000004741 Rises=F Damp=F
 DIIS: error= 8.96D-06 at cycle   5 NSaved=   5.
 NSaved= 5 IEnMin= 5 EnMin= -100.891209990059     IErMin= 5 ErrMin= 8.96D-06
 ErrMax= 8.96D-06  0.00D+00 EMaxC= 1.00D-01 BMatC= 3.06D-09 BMatP= 1.71D-08
 IDIUse=1 WtCom= 1.00D+00 WtEn= 0.00D+00
 Coeff-Com: -0.209D-02-0.241D-01-0.104D+00 0.691D-01 0.106D+01
 Coeff:     -0.209D-02-0.241D-01-0.104D+00 0.691D-01 0.106D+01
 Gap=     0.506 Goal=   None    Shift=    0.000
 Gap=     0.127 Goal=   None    Shift=    0.000
 RMSDP=2.14D-06 MaxDP=1.39D-05 DE=-4.74D-09 OVMax= 2.74D-05

 Cycle   6  Pass 1  IDiag  1:
 E= -100.891209990991     Delta-E=       -0.000000000933 Rises=F Damp=F
 DIIS: error= 1.24D-06 at cycle   6 NSaved=   6.
 NSaved= 6 IEnMin= 6 EnMin= -100.891209990991     IErMin= 6 ErrMin= 1.24D-06
 ErrMax= 1.24D-06  0.00D+00 EMaxC= 1.00D-01 BMatC= 7.04D-11 BMatP= 3.06D-09
 IDIUse=1 WtCom= 1.00D+00 WtEn= 0.00D+00
 Coeff-Com:  0.124D-02-0.217D-02 0.102D-01-0.683D-01-0.141D-01 0.107D+01
 Coeff:      0.124D-02-0.217D-02 0.102D-01-0.683D-01-0.141D-01 0.107D+01
 Gap=     0.506 Goal=   None    Shift=    0.000
 Gap=     0.127 Goal=   None    Shift=    0.000
 RMSDP=9.56D-07 MaxDP=9.75D-06 DE=-9.33D-10 OVMax= 2.35D-05

 Cycle   7  Pass 1  IDiag  1:
 E= -100.891209991130     Delta-E=       -0.000000000139 Rises=F Damp=F
 DIIS: error= 9.54D-07 at cycle   7 NSaved=   7.
 NSaved= 7 IEnMin= 7 EnMin= -100.891209991130     IErMin= 7 ErrMin= 9.54D-07
 ErrMax= 9.54D-07  0.00D+00 EMaxC= 1.00D-01 BMatC= 3.15D-11 BMatP= 7.04D-11
 IDIUse=1 WtCom= 1.00D+00 WtEn= 0.00D+00
 Coeff-Com: -0.352D-03 0.459D-02 0.135D-02 0.306D-01-0.138D+00-0.430D+00
 Coeff-Com:  0.153D+01
 Coeff:     -0.352D-03 0.459D-02 0.135D-02 0.306D-01-0.138D+00-0.430D+00
 Coeff:      0.153D+01
 Gap=     0.506 Goal=   None    Shift=    0.000
 Gap=     0.127 Goal=   None    Shift=    0.000
 RMSDP=1.05D-06 MaxDP=1.13D-05 DE=-1.39D-10 OVMax= 2.67D-05

 Cycle   8  Pass 1  IDiag  1:
 E= -100.891209991233     Delta-E=       -0.000000000103 Rises=F Damp=F
 DIIS: error= 6.52D-07 at cycle   8 NSaved=   8.
 NSaved= 8 IEnMin= 8 EnMin= -100.891209991233     IErMin= 8 ErrMin= 6.52D-07
 ErrMax= 6.52D-07  0.00D+00 EMaxC= 1.00D-01 BMatC= 8.79D-12 BMatP= 3.15D-11
 IDIUse=1 WtCom= 1.00D+00 WtEn= 0.00D+00
 Coeff-Com: -0.108D-03-0.626D-03-0.143D-02 0.156D-02 0.655D-01-0.601D-01
 Coeff-Com: -0.782D+00 0.178D+01
 Coeff:     -0.108D-03-0.626D-03-0.143D-02 0.156D-02 0.655D-01-0.601D-01
 Coeff:     -0.782D+00 0.178D+01
 Gap=     0.506 Goal=   None    Shift=    0.000
 Gap=     0.127 Goal=   None    Shift=    0.000
 RMSDP=1.01D-06 MaxDP=1.10D-05 DE=-1.03D-10 OVMax= 2.60D-05

 Cycle   9  Pass 1  IDiag  1:
 E= -100.891209991291     Delta-E=       -0.000000000058 Rises=F Damp=F
 DIIS: error= 3.41D-07 at cycle   9 NSaved=   9.
 NSaved= 9 IEnMin= 9 EnMin= -100.891209991291     IErMin= 9 ErrMin= 3.41D-07
 ErrMax= 3.41D-07  0.00D+00 EMaxC= 1.00D-01 BMatC= 3.14D-12 BMatP= 8.79D-12
 IDIUse=1 WtCom= 1.00D+00 WtEn= 0.00D+00
 Coeff-Com:  0.188D-03-0.238D-02-0.149D-02-0.148D-01 0.459D-01 0.239D+00
 Coeff-Com: -0.651D+00-0.301D+00 0.169D+01
 Coeff:      0.188D-03-0.238D-02-0.149D-02-0.148D-01 0.459D-01 0.239D+00
 Coeff:     -0.651D+00-0.301D+00 0.169D+01
 Gap=     0.506 Goal=   None    Shift=    0.000
 Gap=     0.127 Goal=   None    Shift=    0.000
 RMSDP=9.00D-07 MaxDP=9.78D-06 DE=-5.81D-11 OVMax= 2.31D-05

 Cycle  10  Pass 1  IDiag  1:
 E= -100.891209991313     Delta-E=       -0.000000000022 Rises=F Damp=F
 DIIS: error= 6.68D-08 at cycle  10 NSaved=  10.
 NSaved=10 IEnMin=10 EnMin= -100.891209991313     IErMin=10 ErrMin= 6.68D-08
 ErrMax= 6.68D-08  0.00D+00 EMaxC= 1.00D-01 BMatC= 1.49D-13 BMatP= 3.14D-12
 IDIUse=1 WtCom= 1.00D+00 WtEn= 0.00D+00
 Coeff-Com: -0.905D-05 0.352D-03 0.487D-03 0.169D-02-0.134D-01-0.229D-01
 Coeff-Com:  0.195D+00-0.207D+00-0.276D+00 0.132D+01
 Coeff:     -0.905D-05 0.352D-03 0.487D-03 0.169D-02-0.134D-01-0.229D-01
 Coeff:      0.195D+00-0.207D+00-0.276D+00 0.132D+01
 Gap=     0.506 Goal=   None    Shift=    0.000
 Gap=     0.127 Goal=   None    Shift=    0.000
 RMSDP=2.11D-07 MaxDP=2.29D-06 DE=-2.17D-11 OVMax= 5.42D-06

 Cycle  11  Pass 1  IDiag  1:
 E= -100.891209991314     Delta-E=       -0.000000000001 Rises=F Damp=F
 DIIS: error= 3.39D-09 at cycle  11 NSaved=  11.
 NSaved=11 IEnMin=11 EnMin= -100.891209991314     IErMin=11 ErrMin= 3.39D-09
 ErrMax= 3.39D-09  0.00D+00 EMaxC= 1.00D-01 BMatC= 1.25D-15 BMatP= 1.49D-13
 IDIUse=1 WtCom= 1.00D+00 WtEn= 0.00D+00
 Coeff-Com: -0.435D-05 0.711D-04 0.894D-04 0.437D-03-0.197D-02-0.562D-02
 Coeff-Com:  0.227D-01-0.166D-02-0.477D-01 0.454D-01 0.988D+00
 Coeff:     -0.435D-05 0.711D-04 0.894D-04 0.437D-03-0.197D-02-0.562D-02
 Coeff:      0.227D-01-0.166D-02-0.477D-01 0.454D-01 0.988D+00
 Gap=     0.506 Goal=   None    Shift=    0.000
 Gap=     0.127 Goal=   None    Shift=    0.000
 RMSDP=4.50D-09 MaxDP=4.64D-08 DE=-8.24D-13 OVMax= 1.11D-07

 SCF Done:  E(UTPSSh) =  -100.891209991     A.U. after   11 cycles
            NFock= 11  Conv=0.45D-08     -V/T= 2.0044
 <Sx>= 0.0000 <Sy>= 0.0000 <Sz>= 0.5000 <S**2>= 0.7562 S= 0.5031
 <L.S>= 0.000000000000E+00
 KE= 1.004502473756D+02 PE=-2.532425622348D+02 EE= 4.580575268590D+01
 Annihilation of the first spin contaminant:
 S**2 before annihilation     0.7562,   after     0.7500
 Leave Link  502 at Wed Oct  7 14:43:41 2020, MaxMem=  2684354560 cpu:              16.1 elap:               2.0
 (Enter /udrive/faculty/rpeverati/g16/g16/l508.exe)
 QCSCF skips out because SCF is already converged.
 Leave Link  508 at Wed Oct  7 14:43:42 2020, MaxMem=  2684354560 cpu:               1.0 elap:               0.7
 (Enter /udrive/faculty/rpeverati/g16/g16/l701.exe)
 ... and contract with generalized density number  0.
 Compute integral first derivatives.
 R6Disp: Adding Grimme-D3(BJ) dispersion energy 1st derivatives to the gradient.
 Leave Link  701 at Wed Oct  7 14:43:43 2020, MaxMem=  2684354560 cpu:               3.2 elap:               0.8
 (Enter /udrive/faculty/rpeverati/g16/g16/l702.exe)
 L702 exits ... SP integral derivatives will be done elsewhere.
 Leave Link  702 at Wed Oct  7 14:43:44 2020, MaxMem=  2684354560 cpu:               1.5 elap:               0.7
 (Enter /udrive/faculty/rpeverati/g16/g16/l703.exe)
 Integral derivatives from FoFJK, PRISM(SPDF).
 Compute integral first derivatives, UseDBF=F ICtDFT=           0.
 Calling FoFJK, ICntrl=      2127 FMM=F ISym2X=1 I1Cent= 0 IOpClX= 1 NMat=1 NMatS=1 NMatT=0.
 FoFJK:  IHMeth= 1 ICntrl=    2127 DoSepK=F KAlg= 0 I1Cent=           0 FoldK=F
 IRaf=         0 NMat=       1 IRICut=       1 DoRegI=T DoRafI=F ISym2E= 1 IDoP0=0 IntGTp=1.
 FoFCou: FMM=F IPFlag=           0 FMFlag=      100000 FMFlg1=         800
         NFxFlg=           0 DoJE=F BraDBF=F KetDBF=F FulRan=T
         wScrn=  0.000000 ICntrl=      2127 IOpCl=  1 I1Cent=           0 NGrid=           0
         NMat0=    1 NMatS0=      1 NMatT0=    0 NMatD0=    1 NMtDS0=    0 NMtDT0=    0
 Petite list used in FoFCou.
 Leave Link  703 at Wed Oct  7 14:43:46 2020, MaxMem=  2684354560 cpu:               9.4 elap:               1.6
 (Enter /udrive/faculty/rpeverati/g16/g16/l716.exe)
 Dipole        = 2.95241723D-03-4.17250532D-01 0.00000000D+00
 ***** Axes restored to original set *****
 -------------------------------------------------------------------
 Center     Atomic                   Forces (Hartrees/Bohr)
 Number     Number              X              Y              Z
 -------------------------------------------------------------------
      1        1          -0.000557219    0.003784462   -0.000000000
      2        9           0.000452089   -0.003610479   -0.000000000
      3        1           0.000105130   -0.000173983   -0.000000000
 -------------------------------------------------------------------
 Cartesian Forces:  Max     0.003784462 RMS     0.001761121
 Leave Link  716 at Wed Oct  7 14:43:47 2020, MaxMem=  2684354560 cpu:               1.5 elap:               0.6
 (Enter /udrive/faculty/rpeverati/g16/g16/l103.exe)

 GradGradGradGradGradGradGradGradGradGradGradGradGradGradGradGradGradGrad
 Berny optimization.
 Optmz: redundant internal coordinate code flag= 1
 Red2BG:  D1=  9.40D-01 OD1=  3.44D-03 B2RMS=  0.00D+00 IAprox=0
 FormGI is forming the generalized inverse of G from B-inverse, IUseBI=4.
 Internal  Forces:  Max     0.003637283 RMS     0.002105822
 Search for a saddle point.
 Step number   2 out of a maximum of   50
 All quantities printed in internal units (Hartrees-Bohrs-Radians)
 Swapping is turned off.
 Update second derivatives using D2CorX and points    1    2
 The second derivative matrix:
                          R1        R2        A1
           R1           0.07050
           R2          -0.01463   0.34807
           A1          -0.02323  -0.00778   0.15001
 ITU=  0  0
 Eigenvectors of the second derivative matrix:
                           1         2         3
     Eigenvalues --     0.06329   0.15623   0.34906
   1         R1        -0.96310   0.26451  -0.04965
   2         R2        -0.05666  -0.01891   0.99821
   3         A1        -0.26310  -0.96420  -0.03320
 Eigenvalue     1 is   6.33D-02 should be less than     0.000000 Eigenvector:
                          R1        A1        R2
   1                   -0.96310  -0.26310  -0.05666
 RLam0= 6.35D-02.
 Iter=   1 RLamda= 0.00000000D+00 Sum=-9.44182076D-06.
 Iter=   2 RLamda=-9.44182076D-06 Sum=-9.44125842D-06.
 RFO step:  Lambda0=6.347882821D-02 Lambda=-9.44182076D-06.
 Linear search not attempted -- option 19 set.
 Iteration  1 RMS(Cart)=  0.00586842 RMS(Int)=  0.00002056
 Iteration  2 RMS(Cart)=  0.00001736 RMS(Int)=  0.00000000
 Iteration  3 RMS(Cart)=  0.00000000 RMS(Int)=  0.00000000
 ITry= 1 IFail=0 DXMaxC= 5.72D-03 DCOld= 1.00D+10 DXMaxT= 1.00D-01 DXLimC= 3.00D+00 Rises=F
 ClnCor:  largest displacement from symmetrization is 2.22D-15 for atom     3.
 Variable       Old X    -DE/DX   Delta X   Delta X   Delta X     New X
                                 (Linear)    (Quad)   (Total)
    R1        2.77797  -0.00364   0.00000   0.00536   0.00536   2.78333
    R2        1.47095   0.00012   0.00000   0.00142   0.00142   1.47238
    A1        2.65509   0.00024   0.00000   0.00940   0.00940   2.66449
         Item               Value     Threshold  Converged?
 Maximum Force            0.003637     0.000450     NO 
 RMS     Force            0.002106     0.000300     NO 
 Maximum Displacement     0.005717     0.001800     NO 
 RMS     Displacement     0.005863     0.001200     NO 
 Predicted change in Energy= 2.365174D-05
 Largest change from initial coordinates is atom    3       0.010 Angstoms.
 GradGradGradGradGradGradGradGradGradGradGradGradGradGradGradGradGradGrad

 Leave Link  103 at Wed Oct  7 14:43:50 2020, MaxMem=  2684354560 cpu:               8.6 elap:               1.9
 (Enter /udrive/faculty/rpeverati/g16/g16/l202.exe)
                          Input orientation:                          
 ---------------------------------------------------------------------
 Center     Atomic      Atomic             Coordinates (Angstroms)
 Number     Number       Type             X           Y           Z
 ---------------------------------------------------------------------
      1          1           0        0.143896   -1.128604    0.000000
      2          9           0        0.001320    0.337352    0.000000
      3          1           0       -0.145216   -1.852127    0.000000
 ---------------------------------------------------------------------
                    Distance matrix (angstroms):
                    1          2          3
     1  H    0.000000
     2  F    1.472873   0.000000
     3  H    0.779148   2.194377   0.000000
 Stoichiometry    FH2(2)
 Framework group  CS[SG(FH2)]
 Deg. of freedom     3
 Full point group                 CS      NOp   2
 RotChk:  IX=0 Diff= 1.27D-03
 Largest Abelian subgroup         CS      NOp   2
 Largest concise Abelian subgroup C1      NOp   1
                         Standard orientation:                         
 ---------------------------------------------------------------------
 Center     Atomic      Atomic             Coordinates (Angstroms)
 Number     Number       Type             X           Y           Z
 ---------------------------------------------------------------------
      1          1           0        0.144164   -1.133488    0.000000
      2          9           0        0.000000    0.332312    0.000000
      3          1           0       -0.144164   -1.857324    0.000000
 ---------------------------------------------------------------------
 Rotational constants (GHZ):       12590.5989511          79.5458966          79.0464903
 Leave Link  202 at Wed Oct  7 14:43:50 2020, MaxMem=  2684354560 cpu:               2.1 elap:               0.6
 (Enter /udrive/faculty/rpeverati/g16/g16/l301.exe)
 Standard basis: 6-31G(d) (5D, 7F)
 Ernie: Thresh=  0.10000D-02 Tol=  0.10000D-05 Strict=F.
 There are    15 symmetry adapted cartesian basis functions of A'  symmetry.
 There are     4 symmetry adapted cartesian basis functions of A"  symmetry.
 There are    14 symmetry adapted basis functions of A'  symmetry.
 There are     4 symmetry adapted basis functions of A"  symmetry.
    18 basis functions,    36 primitive gaussians,    19 cartesian basis functions
     6 alpha electrons        5 beta electrons
       nuclear repulsion energy         6.0830779695 Hartrees.
 IExCor= 2523 DFT=T Ex+Corr=TPSSh ExCW=0 ScaHFX=  0.100000
 ScaDFX=  0.900000  0.900000  1.000000  1.000000 ScalE2=  1.000000  1.000000
 IRadAn=      5 IRanWt=     -1 IRanGd=            0 ICorTp=0 IEmpDi=141
 NAtoms=    3 NActive=    3 NUniq=    3 SFac= 1.00D+00 NAtFMM=   60 NAOKFM=F Big=F
 Integral buffers will be    131072 words long.
 Raffenetti 2 integral format.
 Two-electron integral symmetry is turned on.
 R6DIni: Non-standard D2/D3 S6 parameter, value=     1.000000
 R6DIni: Non-standard D2/D3 S8 parameter, value=     2.238200
 R6DIni: Non-standard D3BJ A1 parameter, value=     0.452900
 R6DIni: Non-standard D3BJ A2 parameter, value=     4.655000
 R6Disp:  Grimme-D3(BJ) Dispersion energy=       -0.0003652936 Hartrees.
 Nuclear repulsion after empirical dispersion term =        6.0827126758 Hartrees.
 Leave Link  301 at Wed Oct  7 14:43:51 2020, MaxMem=  2684354560 cpu:               1.7 elap:               0.5
 (Enter /udrive/faculty/rpeverati/g16/g16/l302.exe)
 NPDir=0 NMtPBC=     1 NCelOv=     1 NCel=       1 NClECP=     1 NCelD=      1
         NCelK=      1 NCelE2=     1 NClLst=     1 CellRange=     0.0.
 One-electron integrals computed using PRISM.
 One-electron integral symmetry used in STVInt
 NBasis=    18 RedAO= T EigKep=  6.04D-02  NBF=    14     4
 NBsUse=    18 1.00D-06 EigRej= -1.00D+00 NBFU=    14     4
 Precomputing XC quadrature grid using
 IXCGrd= 4 IRadAn=           5 IRanWt=          -1 IRanGd=           0 AccXCQ= 0.00D+00.
 Generated NRdTot=       0 NPtTot=           0 NUsed=           0 NTot=          32
 NSgBfM=    19    19    19    19    19 MxSgAt=     3 MxSgA2=     3.
 Leave Link  302 at Wed Oct  7 14:43:52 2020, MaxMem=  2684354560 cpu:               6.9 elap:               1.0
 (Enter /udrive/faculty/rpeverati/g16/g16/l303.exe)
 DipDrv:  MaxL=1.
 Leave Link  303 at Wed Oct  7 14:43:53 2020, MaxMem=  2684354560 cpu:               2.4 elap:               0.6
 (Enter /udrive/faculty/rpeverati/g16/g16/l401.exe)
 Initial guess from the checkpoint file:  "MN_86_RKT10_BH76_TPSShDBJ_631Gs.chk"
 SCF N**3 symmetry information disabled.
 B after Tr=     0.000000   -0.000000    0.000000
         Rot=    1.000000    0.000000    0.000000   -0.000197 Ang=  -0.02 deg.
 Guess basis will be translated and rotated to current coordinates.
 JPrj=2 DoOrth=T DoCkMO=T.
 Initial guess orbital symmetries:
 Alpha Orbitals:
       Occupied  (A') (A') (A') (A') (A') (A")
       Virtual   (A') (A') (A') (A") (A') (A') (A') (A") (A') (A')
                 (A") (A')
 Beta  Orbitals:
       Occupied  (A') (A') (A') (A') (A")
       Virtual   (A') (A') (A') (A') (A") (A') (A') (A') (A") (A')
                 (A") (A') (A')
 The electronic state of the initial guess is 2-A'.
 Initial guess <Sx>= 0.0000 <Sy>= 0.0000 <Sz>= 0.5000 <S**2>= 0.7563 S= 0.5031
 Leave Link  401 at Wed Oct  7 14:43:55 2020, MaxMem=  2684354560 cpu:              12.5 elap:               1.6
 (Enter /udrive/faculty/rpeverati/g16/g16/l502.exe)
 Keep R1 and R2 ints in memory in symmetry-blocked form, NReq=10366412.
 FoFCou: FMM=F IPFlag=           0 FMFlag=           0 FMFlg1=           0
         NFxFlg=           0 DoJE=F BraDBF=F KetDBF=F FulRan=T
         wScrn=  0.000000 ICntrl=       600 IOpCl=  0 I1Cent=           0 NGrid=           0
         NMat0=    1 NMatS0=    171 NMatT0=    0 NMatD0=    1 NMtDS0=    0 NMtDT0=    0
 Petite list used in FoFCou.
 UHF open shell SCF:
 Using DIIS extrapolation, IDIIS=  1040.
 NGot=  2684354560 LenX=  2684335872 LenY=  2684334990
 Requested convergence on RMS density matrix=1.00D-08 within 120 cycles.
 Requested convergence on MAX density matrix=1.00D-06.
 Requested convergence on             energy=1.00D-06.
 No special actions if energy rises.

 Cycle   1  Pass 1  IDiag  1:
 E= -100.891190494376    
 DIIS: error= 1.83D-04 at cycle   1 NSaved=   1.
 NSaved= 1 IEnMin= 1 EnMin= -100.891190494376     IErMin= 1 ErrMin= 1.83D-04
 ErrMax= 1.83D-04  0.00D+00 EMaxC= 1.00D-01 BMatC= 2.05D-06 BMatP= 2.05D-06
 IDIUse=3 WtCom= 9.98D-01 WtEn= 1.83D-03
 Coeff-Com:  0.100D+01
 Coeff-En:   0.100D+01
 Coeff:      0.100D+01
 Gap=     0.505 Goal=   None    Shift=    0.000
 Gap=     0.126 Goal=   None    Shift=    0.000
 RMSDP=1.25D-04 MaxDP=7.97D-04              OVMax= 1.39D-03

 Cycle   2  Pass 1  IDiag  1:
 E= -100.891191871733     Delta-E=       -0.000001377357 Rises=F Damp=F
 DIIS: error= 1.00D-04 at cycle   2 NSaved=   2.
 NSaved= 2 IEnMin= 2 EnMin= -100.891191871733     IErMin= 2 ErrMin= 1.00D-04
 ErrMax= 1.00D-04  0.00D+00 EMaxC= 1.00D-01 BMatC= 4.00D-07 BMatP= 2.05D-06
 IDIUse=3 WtCom= 9.99D-01 WtEn= 1.00D-03
 Coeff-Com:  0.102D+00 0.898D+00
 Coeff-En:   0.000D+00 0.100D+01
 Coeff:      0.102D+00 0.898D+00
 Gap=     0.506 Goal=   None    Shift=    0.000
 Gap=     0.127 Goal=   None    Shift=    0.000
 RMSDP=2.96D-05 MaxDP=1.67D-04 DE=-1.38D-06 OVMax= 2.78D-04

 Cycle   3  Pass 1  IDiag  1:
 E= -100.891191875401     Delta-E=       -0.000000003668 Rises=F Damp=F
 DIIS: error= 8.62D-05 at cycle   3 NSaved=   3.
 NSaved= 3 IEnMin= 3 EnMin= -100.891191875401     IErMin= 3 ErrMin= 8.62D-05
 ErrMax= 8.62D-05  0.00D+00 EMaxC= 1.00D-01 BMatC= 4.36D-07 BMatP= 4.00D-07
 IDIUse=1 WtCom= 1.00D+00 WtEn= 0.00D+00
 Coeff-Com: -0.439D-01 0.539D+00 0.505D+00
 Coeff:     -0.439D-01 0.539D+00 0.505D+00
 Gap=     0.506 Goal=   None    Shift=    0.000
 Gap=     0.127 Goal=   None    Shift=    0.000
 RMSDP=1.27D-05 MaxDP=9.72D-05 DE=-3.67D-09 OVMax= 3.12D-04

 Cycle   4  Pass 1  IDiag  1:
 E= -100.891191968277     Delta-E=       -0.000000092876 Rises=F Damp=F
 DIIS: error= 1.10D-05 at cycle   4 NSaved=   4.
 NSaved= 4 IEnMin= 4 EnMin= -100.891191968277     IErMin= 4 ErrMin= 1.10D-05
 ErrMax= 1.10D-05  0.00D+00 EMaxC= 1.00D-01 BMatC= 6.99D-09 BMatP= 4.00D-07
 IDIUse=1 WtCom= 1.00D+00 WtEn= 0.00D+00
 Coeff-Com: -0.761D-02-0.404D-01 0.639D-01 0.984D+00
 Coeff:     -0.761D-02-0.404D-01 0.639D-01 0.984D+00
 Gap=     0.506 Goal=   None    Shift=    0.000
 Gap=     0.127 Goal=   None    Shift=    0.000
 RMSDP=2.62D-06 MaxDP=1.59D-05 DE=-9.29D-08 OVMax= 3.03D-05

 Cycle   5  Pass 1  IDiag  1:
 E= -100.891191970286     Delta-E=       -0.000000002009 Rises=F Damp=F
 DIIS: error= 3.98D-06 at cycle   5 NSaved=   5.
 NSaved= 5 IEnMin= 5 EnMin= -100.891191970286     IErMin= 5 ErrMin= 3.98D-06
 ErrMax= 3.98D-06  0.00D+00 EMaxC= 1.00D-01 BMatC= 5.90D-10 BMatP= 6.99D-09
 IDIUse=1 WtCom= 1.00D+00 WtEn= 0.00D+00
 Coeff-Com:  0.562D-02-0.732D-01-0.306D-01 0.138D+00 0.961D+00
 Coeff:      0.562D-02-0.732D-01-0.306D-01 0.138D+00 0.961D+00
 Gap=     0.506 Goal=   None    Shift=    0.000
 Gap=     0.127 Goal=   None    Shift=    0.000
 RMSDP=1.20D-06 MaxDP=8.27D-06 DE=-2.01D-09 OVMax= 1.36D-05

 Cycle   6  Pass 1  IDiag  1:
 E= -100.891191970557     Delta-E=       -0.000000000271 Rises=F Damp=F
 DIIS: error= 8.61D-07 at cycle   6 NSaved=   6.
 NSaved= 6 IEnMin= 6 EnMin= -100.891191970557     IErMin= 6 ErrMin= 8.61D-07
 ErrMax= 8.61D-07  0.00D+00 EMaxC= 1.00D-01 BMatC= 2.72D-11 BMatP= 5.90D-10
 IDIUse=1 WtCom= 1.00D+00 WtEn= 0.00D+00
 Coeff-Com: -0.102D-02 0.185D-01 0.318D-02-0.985D-01-0.244D+00 0.132D+01
 Coeff:     -0.102D-02 0.185D-01 0.318D-02-0.985D-01-0.244D+00 0.132D+01
 Gap=     0.506 Goal=   None    Shift=    0.000
 Gap=     0.127 Goal=   None    Shift=    0.000
 RMSDP=5.07D-07 MaxDP=4.28D-06 DE=-2.71D-10 OVMax= 1.02D-05

 Cycle   7  Pass 1  IDiag  1:
 E= -100.891191970592     Delta-E=       -0.000000000035 Rises=F Damp=F
 DIIS: error= 3.45D-07 at cycle   7 NSaved=   7.
 NSaved= 7 IEnMin= 7 EnMin= -100.891191970592     IErMin= 7 ErrMin= 3.45D-07
 ErrMax= 3.45D-07  0.00D+00 EMaxC= 1.00D-01 BMatC= 4.80D-12 BMatP= 2.72D-11
 IDIUse=1 WtCom= 1.00D+00 WtEn= 0.00D+00
 Coeff-Com: -0.282D-03 0.474D-02 0.121D-02 0.142D-02-0.478D-01-0.531D-01
 Coeff-Com:  0.109D+01
 Coeff:     -0.282D-03 0.474D-02 0.121D-02 0.142D-02-0.478D-01-0.531D-01
 Coeff:      0.109D+01
 Gap=     0.506 Goal=   None    Shift=    0.000
 Gap=     0.127 Goal=   None    Shift=    0.000
 RMSDP=2.66D-07 MaxDP=2.77D-06 DE=-3.52D-11 OVMax= 6.63D-06

 Cycle   8  Pass 1  IDiag  1:
 E= -100.891191970602     Delta-E=       -0.000000000010 Rises=F Damp=F
 DIIS: error= 2.62D-07 at cycle   8 NSaved=   8.
 NSaved= 8 IEnMin= 8 EnMin= -100.891191970602     IErMin= 8 ErrMin= 2.62D-07
 ErrMax= 2.62D-07  0.00D+00 EMaxC= 1.00D-01 BMatC= 1.91D-12 BMatP= 4.80D-12
 IDIUse=1 WtCom= 1.00D+00 WtEn= 0.00D+00
 Coeff-Com:  0.326D-03-0.700D-02-0.889D-03 0.186D-01 0.761D-01-0.272D+00
 Coeff-Com: -0.369D+00 0.155D+01
 Coeff:      0.326D-03-0.700D-02-0.889D-03 0.186D-01 0.761D-01-0.272D+00
 Coeff:     -0.369D+00 0.155D+01
 Gap=     0.506 Goal=   None    Shift=    0.000
 Gap=     0.127 Goal=   None    Shift=    0.000
 RMSDP=3.13D-07 MaxDP=3.41D-06 DE=-9.76D-12 OVMax= 8.03D-06

 Cycle   9  Pass 1  IDiag  1:
 E= -100.891191970610     Delta-E=       -0.000000000008 Rises=F Damp=F
 DIIS: error= 1.70D-07 at cycle   9 NSaved=   9.
 NSaved= 9 IEnMin= 9 EnMin= -100.891191970610     IErMin= 9 ErrMin= 1.70D-07
 ErrMax= 1.70D-07  0.00D+00 EMaxC= 1.00D-01 BMatC= 5.88D-13 BMatP= 1.91D-12
 IDIUse=1 WtCom= 1.00D+00 WtEn= 0.00D+00
 Coeff-Com: -0.843D-04 0.225D-02 0.113D-03-0.942D-02-0.244D-01 0.192D+00
 Coeff-Com: -0.314D+00-0.135D+01 0.251D+01
 Coeff:     -0.843D-04 0.225D-02 0.113D-03-0.942D-02-0.244D-01 0.192D+00
 Coeff:     -0.314D+00-0.135D+01 0.251D+01
 Gap=     0.506 Goal=   None    Shift=    0.000
 Gap=     0.127 Goal=   None    Shift=    0.000
 RMSDP=4.81D-07 MaxDP=5.23D-06 DE=-8.00D-12 OVMax= 1.24D-05

 Cycle  10  Pass 1  IDiag  1:
 E= -100.891191970615     Delta-E=       -0.000000000005 Rises=F Damp=F
 DIIS: error= 2.50D-08 at cycle  10 NSaved=  10.
 NSaved=10 IEnMin=10 EnMin= -100.891191970615     IErMin=10 ErrMin= 2.50D-08
 ErrMax= 2.50D-08  0.00D+00 EMaxC= 1.00D-01 BMatC= 2.93D-14 BMatP= 5.88D-13
 IDIUse=1 WtCom= 1.00D+00 WtEn= 0.00D+00
 Coeff-Com: -0.432D-04 0.100D-02 0.158D-03-0.346D-02-0.125D-01 0.542D-01
 Coeff-Com:  0.201D-01-0.315D+00 0.204D+00 0.105D+01
 Coeff:     -0.432D-04 0.100D-02 0.158D-03-0.346D-02-0.125D-01 0.542D-01
 Coeff:      0.201D-01-0.315D+00 0.204D+00 0.105D+01
 Gap=     0.506 Goal=   None    Shift=    0.000
 Gap=     0.127 Goal=   None    Shift=    0.000
 RMSDP=8.04D-08 MaxDP=8.74D-07 DE=-5.40D-12 OVMax= 2.07D-06

 Cycle  11  Pass 1  IDiag  1:
 E= -100.891191970615     Delta-E=       -0.000000000000 Rises=F Damp=F
 DIIS: error= 2.41D-09 at cycle  11 NSaved=  11.
 NSaved=11 IEnMin=11 EnMin= -100.891191970615     IErMin=11 ErrMin= 2.41D-09
 ErrMax= 2.41D-09  0.00D+00 EMaxC= 1.00D-01 BMatC= 3.56D-16 BMatP= 2.93D-14
 IDIUse=1 WtCom= 1.00D+00 WtEn= 0.00D+00
 Coeff-Com:  0.369D-05-0.111D-03-0.122D-04 0.529D-03 0.107D-02-0.814D-02
 Coeff-Com:  0.107D-01 0.586D-01-0.100D+00 0.582D-02 0.103D+01
 Coeff:      0.369D-05-0.111D-03-0.122D-04 0.529D-03 0.107D-02-0.814D-02
 Coeff:      0.107D-01 0.586D-01-0.100D+00 0.582D-02 0.103D+01
 Gap=     0.506 Goal=   None    Shift=    0.000
 Gap=     0.127 Goal=   None    Shift=    0.000
 RMSDP=2.07D-09 MaxDP=2.16D-08 DE=-1.14D-13 OVMax= 5.14D-08

 SCF Done:  E(UTPSSh) =  -100.891191971     A.U. after   11 cycles
            NFock= 11  Conv=0.21D-08     -V/T= 2.0044
 <Sx>= 0.0000 <Sy>= 0.0000 <Sz>= 0.5000 <S**2>= 0.7562 S= 0.5031
 <L.S>= 0.000000000000E+00
 KE= 1.004488761208D+02 PE=-2.532155196857D+02 EE= 4.579273891847D+01
 Annihilation of the first spin contaminant:
 S**2 before annihilation     0.7562,   after     0.7500
 Leave Link  502 at Wed Oct  7 14:43:56 2020, MaxMem=  2684354560 cpu:              13.6 elap:               1.5
 (Enter /udrive/faculty/rpeverati/g16/g16/l508.exe)
 QCSCF skips out because SCF is already converged.
 Leave Link  508 at Wed Oct  7 14:43:57 2020, MaxMem=  2684354560 cpu:               0.7 elap:               0.4
 (Enter /udrive/faculty/rpeverati/g16/g16/l701.exe)
 ... and contract with generalized density number  0.
 Compute integral first derivatives.
 R6Disp: Adding Grimme-D3(BJ) dispersion energy 1st derivatives to the gradient.
 Leave Link  701 at Wed Oct  7 14:43:58 2020, MaxMem=  2684354560 cpu:               4.4 elap:               0.7
 (Enter /udrive/faculty/rpeverati/g16/g16/l702.exe)
 L702 exits ... SP integral derivatives will be done elsewhere.
 Leave Link  702 at Wed Oct  7 14:43:59 2020, MaxMem=  2684354560 cpu:               1.6 elap:               0.5
 (Enter /udrive/faculty/rpeverati/g16/g16/l703.exe)
 Integral derivatives from FoFJK, PRISM(SPDF).
 Compute integral first derivatives, UseDBF=F ICtDFT=           0.
 Calling FoFJK, ICntrl=      2127 FMM=F ISym2X=1 I1Cent= 0 IOpClX= 1 NMat=1 NMatS=1 NMatT=0.
 FoFJK:  IHMeth= 1 ICntrl=    2127 DoSepK=F KAlg= 0 I1Cent=           0 FoldK=F
 IRaf=         0 NMat=       1 IRICut=       1 DoRegI=T DoRafI=F ISym2E= 1 IDoP0=0 IntGTp=1.
 FoFCou: FMM=F IPFlag=           0 FMFlag=      100000 FMFlg1=         800
         NFxFlg=           0 DoJE=F BraDBF=F KetDBF=F FulRan=T
         wScrn=  0.000000 ICntrl=      2127 IOpCl=  1 I1Cent=           0 NGrid=           0
         NMat0=    1 NMatS0=      1 NMatT0=    0 NMatD0=    1 NMtDS0=    0 NMtDT0=    0
 Petite list used in FoFCou.
 Leave Link  703 at Wed Oct  7 14:44:00 2020, MaxMem=  2684354560 cpu:               5.4 elap:               1.0
 (Enter /udrive/faculty/rpeverati/g16/g16/l716.exe)
 Dipole        = 2.61697369D-03-4.16370834D-01 0.00000000D+00
 ***** Axes restored to original set *****
 -------------------------------------------------------------------
 Center     Atomic                   Forces (Hartrees/Bohr)
 Number     Number              X              Y              Z
 -------------------------------------------------------------------
      1        1          -0.000761321    0.003291109   -0.000000000
      2        9           0.000439914   -0.003730020   -0.000000000
      3        1           0.000321407    0.000438910   -0.000000000
 -------------------------------------------------------------------
 Cartesian Forces:  Max     0.003730020 RMS     0.001693567
 Leave Link  716 at Wed Oct  7 14:44:01 2020, MaxMem=  2684354560 cpu:               1.8 elap:               0.7
 (Enter /udrive/faculty/rpeverati/g16/g16/l103.exe)

 GradGradGradGradGradGradGradGradGradGradGradGradGradGradGradGradGradGrad
 Berny optimization.
 Optmz: redundant internal coordinate code flag= 1
 Red2BG:  D1=  9.41D-01 OD1=  4.93D-03 B2RMS=  0.00D+00 IAprox=0
 FormGI is forming the generalized inverse of G from B-inverse, IUseBI=4.
 Internal  Forces:  Max     0.003754736 RMS     0.002192246
 Search for a saddle point.
 Step number   3 out of a maximum of   50
 All quantities printed in internal units (Hartrees-Bohrs-Radians)
 Swapping is turned off.
 Update second derivatives using D2CorX and points    1    2    3
 The second derivative matrix:
                          R1        R2        A1
           R1           0.09193
           R2           0.00795   0.36236
           A1          -0.04114   0.00968   0.02617
 ITU=  0  0  0
 Eigenvectors of the second derivative matrix:
                           1         2         3
     Eigenvalues --     0.00597   0.11168   0.36281
   1         R1        -0.43403  -0.90054   0.02542
   2         R2         0.03412   0.01177   0.99935
   3         A1        -0.90025   0.43462   0.02562
 Eigenvalue     1 is   5.97D-03 should be less than     0.000000 Eigenvector:
                          A1        R1        R2
   1                   -0.90025  -0.43403   0.03412
 RLam0= 6.29D-03.
 Iter=   1 RLamda= 0.00000000D+00 Sum=-1.08474997D-04.
 Iter=   2 RLamda=-1.08474997D-04 Sum=-1.08370440D-04.
 Iter=   3 RLamda=-1.08370440D-04 Sum=-1.08370541D-04.
 RFO step:  Lambda0=6.289385932D-03 Lambda=-1.08370440D-04.
 Linear search not attempted -- option 19 set.
 Iteration  1 RMS(Cart)=  0.01899204 RMS(Int)=  0.00039065
 Iteration  2 RMS(Cart)=  0.00036401 RMS(Int)=  0.00000002
 Iteration  3 RMS(Cart)=  0.00000002 RMS(Int)=  0.00000000
 ITry= 1 IFail=0 DXMaxC= 2.52D-02 DCOld= 1.00D+10 DXMaxT= 1.00D-01 DXLimC= 3.00D+00 Rises=F
 ClnCor:  largest displacement from symmetrization is 2.22D-15 for atom     3.
 Variable       Old X    -DE/DX   Delta X   Delta X   Delta X     New X
                                 (Linear)    (Quad)   (Total)
    R1        2.78333  -0.00375   0.00000  -0.01448  -0.01448   2.76885
    R2        1.47238  -0.00053   0.00000  -0.00239  -0.00239   1.46998
    A1        2.66449   0.00020   0.00000   0.04136   0.04136   2.70585
         Item               Value     Threshold  Converged?
 Maximum Force            0.003755     0.000450     NO 
 RMS     Force            0.002192     0.000300     NO 
 Maximum Displacement     0.025216     0.001800     NO 
 RMS     Displacement     0.018970     0.001200     NO 
 Predicted change in Energy=-7.045796D-06
 Largest change from initial coordinates is atom    3       0.018 Angstoms.
 GradGradGradGradGradGradGradGradGradGradGradGradGradGradGradGradGradGrad

 Leave Link  103 at Wed Oct  7 14:44:02 2020, MaxMem=  2684354560 cpu:               5.5 elap:               1.2
 (Enter /udrive/faculty/rpeverati/g16/g16/l202.exe)
                          Input orientation:                          
 ---------------------------------------------------------------------
 Center     Atomic      Atomic             Coordinates (Angstroms)
 Number     Number       Type             X           Y           Z
 ---------------------------------------------------------------------
      1          1           0        0.130552   -1.124263    0.000000
      2          9           0        0.006191    0.335662    0.000000
      3          1           0       -0.136743   -1.854778    0.000000
 ---------------------------------------------------------------------
                    Distance matrix (angstroms):
                    1          2          3
     1  H    0.000000
     2  F    1.465212   0.000000
     3  H    0.777881   2.195098   0.000000
 Stoichiometry    FH2(2)
 Framework group  CS[SG(FH2)]
 Deg. of freedom     3
 Full point group                 CS      NOp   2
 RotChk:  IX=0 Diff= 5.66D-03
 Largest Abelian subgroup         CS      NOp   2
 Largest concise Abelian subgroup C1      NOp   1
                         Standard orientation:                         
 ---------------------------------------------------------------------
 Center     Atomic      Atomic             Coordinates (Angstroms)
 Number     Number       Type             X           Y           Z
 ---------------------------------------------------------------------
      1          1           0        0.131787   -1.127417    0.000000
      2          9           0        0.000000    0.331856    0.000000
      3          1           0       -0.131787   -1.859283    0.000000
 ---------------------------------------------------------------------
 Rotational constants (GHZ):       15081.6437466          79.6850138          79.2662047
 Leave Link  202 at Wed Oct  7 14:44:03 2020, MaxMem=  2684354560 cpu:               2.9 elap:               0.7
 (Enter /udrive/faculty/rpeverati/g16/g16/l301.exe)
 Standard basis: 6-31G(d) (5D, 7F)
 Ernie: Thresh=  0.10000D-02 Tol=  0.10000D-05 Strict=F.
[...]
              Bcc     0.0258    13.777     4.916     4.596  0.5288  0.8487  0.0000
 

 ---------------------------------------------------------------------------------

 No NMR shielding tensors so no spin-rotation constants.
 Leave Link  601 at Wed Oct  7 14:50:47 2020, MaxMem=  2684354560 cpu:               6.5 elap:               1.1
 (Enter /udrive/faculty/rpeverati/g16/g16/l701.exe)
 ... and contract with generalized density number  0.
 Compute integral second derivatives.
 R6Disp: Adding Grimme-D3(BJ) dispersion energy 2nd derivatives to the Hessian.
 Leave Link  701 at Wed Oct  7 14:50:48 2020, MaxMem=  2684354560 cpu:               6.2 elap:               1.1
 (Enter /udrive/faculty/rpeverati/g16/g16/l702.exe)
 L702 exits ... SP integral derivatives will be done elsewhere.
 Leave Link  702 at Wed Oct  7 14:50:49 2020, MaxMem=  2684354560 cpu:               1.8 elap:               0.7
 (Enter /udrive/faculty/rpeverati/g16/g16/l703.exe)
 Integral derivatives from FoFJK, PRISM(SPDF).
 Compute integral second derivatives, UseDBF=F ICtDFT=           0.
 Calling FoFJK, ICntrl=    100127 FMM=F ISym2X=1 I1Cent= 0 IOpClX= 1 NMat=1 NMatS=1 NMatT=0.
 FoFJK:  IHMeth= 1 ICntrl=  100127 DoSepK=F KAlg= 0 I1Cent=           0 FoldK=F
 IRaf=         0 NMat=       1 IRICut=       1 DoRegI=T DoRafI=F ISym2E= 1 IDoP0=0 IntGTp=1.
 FoFCou: FMM=F IPFlag=           0 FMFlag=      100000 FMFlg1=         800
         NFxFlg=           0 DoJE=F BraDBF=F KetDBF=F FulRan=T
         wScrn=  0.000000 ICntrl=    100127 IOpCl=  1 I1Cent=           0 NGrid=           0
         NMat0=    1 NMatS0=      1 NMatT0=    0 NMatD0=    1 NMtDS0=    0 NMtDT0=    0
 Petite list used in FoFCou.
 Leave Link  703 at Wed Oct  7 14:50:51 2020, MaxMem=  2684354560 cpu:              13.6 elap:               1.8
 (Enter /udrive/faculty/rpeverati/g16/g16/l716.exe)
 Dipole        =-6.90052567D-06-2.90575909D-01-5.49487843D-33
 Polarizability= 7.35978550D+00-1.97237749D-03 1.17905625D+01
                -3.44855295D-16-5.80298125D-17 1.52795521D+00
 Full mass-weighted force constant matrix:
 Low frequencies --- -217.5013 -108.7152  -12.6532   -0.0008    0.0025    0.0027
 Low frequencies ---   12.9048  378.5425 4248.0544
 ******    1 imaginary frequencies (negative Signs) ****** 
 Diagonal vibrational polarizability:
        0.0141652       8.3146048       0.0000000
 Harmonic frequencies (cm**-1), IR intensities (KM/Mole), Raman scattering
 activities (A**4/AMU), depolarization ratios for plane and unpolarized
 incident light, reduced masses (AMU), force constants (mDyne/A),
 and normal coordinates:
                      1                      2                      3
                     A'                     A'                     A'
 Frequencies --   -217.0194               378.5425              4248.0544
 Red. masses --      1.0119                 1.1085                 1.0079
 Frc consts  --      0.0281                 0.0936                10.7160
 IR Inten    --      0.0248                43.4028               109.5747
  Atom  AN      X      Y      Z        X      Y      Z        X      Y      Z
     1   1    -0.14   0.69   0.00     0.01   0.70   0.00    -0.71   0.01   0.00
     2   9     0.01  -0.00   0.00    -0.00  -0.07  -0.00    -0.00  -0.00  -0.00
     3   1    -0.14  -0.69  -0.00    -0.01   0.71   0.00     0.71   0.01   0.00

 -------------------
 - Thermochemistry -
 -------------------
 Temperature   298.150 Kelvin.  Pressure   1.00000 Atm.
 Atom     1 has atomic number  1 and mass   1.00783
 Atom     2 has atomic number  9 and mass  18.99840
 Atom     3 has atomic number  1 and mass   1.00783
 Molecular mass:    21.01405 amu.
 Principal axes and moments of inertia in atomic units:
                           1         2         3
     Eigenvalues --     1.01912  22.24436  23.26348
           X           -0.00002   1.00000   0.00000
           Y            1.00000   0.00002   0.00000
           Z           -0.00000   0.00000   1.00000
 This molecule is an asymmetric top.
 Rotational symmetry number  1.
 Rotational temperatures (Kelvin)     84.98907     3.89375     3.72317
 Rotational constants (GHZ):        1770.88484    81.13251    77.57829
    1 imaginary frequencies ignored.
 Zero-point vibrational energy      27673.2 (Joules/Mol)
                                    6.61405 (Kcal/Mol)
 Warning -- explicit consideration of   1 degrees of freedom as
           vibrations may cause significant error
 Vibrational temperatures:    544.64  6112.00
          (Kelvin)
 
 Zero-point correction=                           0.010540 (Hartree/Particle)
 Thermal correction to Energy=                    0.013704
 Thermal correction to Enthalpy=                  0.014648
 Thermal correction to Gibbs Free Energy=        -0.009832
 Sum of electronic and zero-point Energies=           -100.879459
 Sum of electronic and thermal Energies=              -100.876296
 Sum of electronic and thermal Enthalpies=            -100.875351
 Sum of electronic and thermal Free Energies=         -100.899831
 
                     E (Thermal)             CV                S
                      KCal/Mol        Cal/Mol-Kelvin    Cal/Mol-Kelvin
 Total                    8.599              7.477             51.521
 Electronic               0.000              0.000              1.377
 Translational            0.889              2.981             35.068
 Rotational               0.889              2.981             14.031
 Vibrational              6.822              1.516              1.045
 Vibration     1          0.749              1.516              1.045
                       Q            Log10(Q)             Ln(Q)
 Total Bot       0.332833D+05          4.522227         10.412811
 Total V=0       0.234618D+10          9.370361         21.576053
 Vib (Bot)       0.169072D-04         -4.771927        -10.987769
 Vib (Bot)    1  0.478122D+00         -0.320462         -0.737890
 Vib (V=0)       0.119181D+01          0.076207          0.175473
 Vib (V=0)    1  0.119181D+01          0.076207          0.175473
 Electronic      0.200000D+01          0.301030          0.693147
 Translational   0.378633D+07          6.578219         15.146908
 Rotational      0.259959D+03          2.414905          5.560525
 
                                                          TS search on BH76.
                                                             IR Spectrum
 
     4                                                                                                                               
     2                                                                                                                   3           
     4                                                                                                                   7           
     8                                                                                                                   9           
 
     X                                                                                                                   X           
     X                                                                                                                   X           
     X                                                                                                                   X           
     X                                                                                                                   X           
     X                                                                                                                   X           
     X                                                                                                                   X           
     X                                                                                                                   X           
     X                                                                                                                   X           
     X                                                                                                                               
     X                                                                                                                               
     X                                                                                                                               
     X                                                                                                                               
     X                                                                                                                               
     X                                                                                                                               
     X                                                                                                                               
     X                                                                                                                               
     X                                                                                                                               
     X                                                                                                                               
     X                                                                                                                               
     X                                                                                                                               
 
 ***** Axes restored to original set *****
 -------------------------------------------------------------------
 Center     Atomic                   Forces (Hartrees/Bohr)
 Number     Number              X              Y              Z
 -------------------------------------------------------------------
      1        1          -0.000004428   -0.000000483   -0.000000000
      2        9           0.000000025   -0.000001191   -0.000000000
      3        1           0.000004403    0.000001674    0.000000000
 -------------------------------------------------------------------
 Cartesian Forces:  Max     0.000004428 RMS     0.000002197
 Force constants in Cartesian coordinates: 
                1             2             3             4             5 
      1  0.339615D+00
      2  0.389283D-01  0.607473D-02
      3  0.000000D+00  0.000000D+00 -0.222601D-03
      4 -0.172164D-02  0.222865D-03  0.000000D+00  0.107095D-03
      5  0.133670D-01 -0.342654D-02  0.000000D+00 -0.137880D-02  0.101844D-01
      6  0.000000D+00  0.000000D+00 -0.565625D-05  0.000000D+00  0.000000D+00
      7 -0.337894D+00 -0.391511D-01  0.000000D+00  0.161454D-02 -0.119882D-01
      8 -0.522953D-01 -0.264819D-02  0.000000D+00  0.115594D-02 -0.675788D-02
      9  0.000000D+00  0.000000D+00  0.228257D-03  0.000000D+00  0.000000D+00
                6             7             8             9 
      6  0.114846D-04
      7  0.000000D+00  0.336279D+00
      8  0.000000D+00  0.511393D-01  0.940607D-02
      9 -0.582834D-05  0.000000D+00  0.000000D+00 -0.222429D-03
 FormGI is forming the generalized inverse of G from B-inverse, IUseBI=4.
 Force constants in internal coordinates: 
                1             2             3 
      1  0.995185D-02
      2  0.126533D-01  0.343961D+00
      3  0.732099D-02  0.893917D-02  0.357515D-02
 Leave Link  716 at Wed Oct  7 14:50:53 2020, MaxMem=  2684354560 cpu:               4.0 elap:               1.0
 (Enter /udrive/faculty/rpeverati/g16/g16/l103.exe)

 GradGradGradGradGradGradGradGradGradGradGradGradGradGradGradGradGradGrad
 Berny optimization.
 Optmz: redundant internal coordinate code flag= 1
 Red2BG:  D1=  6.84D-01 OD1=  9.13D-15 B2RMS=  0.00D+00 IAprox=1
 Red2BG is reusing G-inverse.
 Internal  Forces:  Max     0.000004614 RMS     0.000002876
 Search for a local minimum.
 Step number   1 out of a maximum of    2
 All quantities printed in internal units (Hartrees-Bohrs-Radians)
 Second derivative matrix not updated -- analytic derivatives used.
 The second derivative matrix:
                          R1        R2        A1
           R1           0.00995
           R2           0.01265   0.34396
           A1           0.00732   0.00894   0.00358
 ITU=  0
 Eigenvectors of the second derivative matrix:
                           1         2         3
     Eigenvalues --    -0.00122   0.01402   0.34469
   1         R1        -0.54671  -0.83644  -0.03835
   2         R2        -0.00164   0.04687  -0.99890
   3         A1         0.83732  -0.54605  -0.02700
 Eigenvalue     1 is  -1.22D-03 should be greater than     0.000000 Eigenvector:
                          A1        R1        R2
   1                    0.83732  -0.54671  -0.00164
 Angle between quadratic step and forces=  77.69 degrees.
 Linear search not attempted -- first point.
 Iteration  1 RMS(Cart)=  0.00028968 RMS(Int)=  0.00000008
 Iteration  2 RMS(Cart)=  0.00000006 RMS(Int)=  0.00000000
 ITry= 1 IFail=0 DXMaxC= 3.83D-04 DCOld= 1.00D+10 DXMaxT= 3.00D-01 DXLimC= 3.00D+00 Rises=F
 ClnCor:  largest displacement from symmetrization is 8.88D-16 for atom     1.
 Variable       Old X    -DE/DX   Delta X   Delta X   Delta X     New X
                                 (Linear)    (Quad)   (Total)
    R1        3.56570  -0.00000   0.00000   0.00019   0.00019   3.56589
    R2        1.42212  -0.00000   0.00000  -0.00001  -0.00001   1.42211
    A1        1.36965  -0.00000   0.00000  -0.00050  -0.00050   1.36915
         Item               Value     Threshold  Converged?
 Maximum Force            0.000005     0.000450     YES
 RMS     Force            0.000003     0.000300     YES
 Maximum Displacement     0.000383     0.001800     YES
 RMS     Displacement     0.000290     0.001200     YES
 Predicted change in Energy=-6.164170D-10
 Optimization completed.
    -- Stationary point found.
                           ----------------------------
                           !   Optimized Parameters   !
                           ! (Angstroms and Degrees)  !
 --------------------------                            --------------------------
 ! Name  Definition              Value          Derivative Info.                !
 --------------------------------------------------------------------------------
 ! R1    R(1,2)                  1.8869         -DE/DX =    0.0                 !
 ! R2    R(1,3)                  0.7526         -DE/DX =    0.0                 !
 ! A1    A(2,1,3)               78.475          -DE/DX =    0.0                 !
 --------------------------------------------------------------------------------
 GradGradGradGradGradGradGradGradGradGradGradGradGradGradGradGradGradGrad

 Leave Link  103 at Wed Oct  7 14:50:54 2020, MaxMem=  2684354560 cpu:               7.0 elap:               1.2
 (Enter /udrive/faculty/rpeverati/g16/g16/l9999.exe)

 ----------------------------------------------------------------------

 Electric dipole moment (input orientation):
 (Debye = 10**-18 statcoulomb cm , SI units = C m)
                  (au)            (Debye)         (10**-30 SI)
   Tot        0.290576D+00      0.738570D+00      0.246361D+01
   x          0.386766D-01      0.983062D-01      0.327914D+00
   y         -0.287990D+00     -0.731999D+00     -0.244168D+01
   z          0.000000D+00      0.000000D+00      0.000000D+00

 Dipole polarizability, Alpha (input orientation).
 (esu units = cm**3 , SI units = C**2 m**2 J**-1)
 Alpha(0;0):
               (au)            (10**-24 esu)      (10**-40 SI)
   iso        0.689277D+01      0.102140D+01      0.113646D+01
   aniso      0.891524D+01      0.132110D+01      0.146993D+01
   xx         0.743883D+01      0.110232D+01      0.122650D+01
   yx        -0.586508D+00     -0.869115D-01     -0.967021D-01
   yy         0.117115D+02      0.173547D+01      0.193097D+01
   zx         0.000000D+00      0.000000D+00      0.000000D+00
   zy         0.000000D+00      0.000000D+00      0.000000D+00
   zz         0.152796D+01      0.226420D+00      0.251926D+00

 ----------------------------------------------------------------------

 Dipole orientation:
     1          0.48510131          0.06514830          2.81513281
     9         -0.21971159         -0.02950690         -0.67893207
     1         -0.92436001         -0.12414001          2.81461520

 Electric dipole moment (dipole orientation):
 (Debye = 10**-18 statcoulomb cm , SI units = C m)
                  (au)            (Debye)         (10**-30 SI)
   Tot        0.290576D+00      0.738570D+00      0.246361D+01
   x          0.000000D+00      0.000000D+00      0.000000D+00
   y          0.000000D+00      0.000000D+00      0.000000D+00
   z          0.290576D+00      0.738570D+00      0.246361D+01

 Dipole polarizability, Alpha (dipole orientation).
 (esu units = cm**3 , SI units = C**2 m**2 J**-1)
 Alpha(0;0):
               (au)            (10**-24 esu)      (10**-40 SI)
   iso        0.689277D+01      0.102140D+01      0.113646D+01
   aniso      0.891524D+01      0.132110D+01      0.146993D+01
   xx         0.725647D+01      0.107530D+01      0.119643D+01
   yx         0.769329D+00      0.114003D+00      0.126845D+00
   yy         0.163127D+01      0.241730D+00      0.268961D+00
   zx         0.205911D-02      0.305129D-03      0.339502D-03
   zy         0.276535D-03      0.409783D-04      0.455945D-04
   zz         0.117906D+02      0.174718D+01      0.194400D+01

 ----------------------------------------------------------------------

 Test job not archived.
 1\1\GINC-NODE62\Freq\UTPSSh\6-31G(d)\F1H2(2)\RPEVERATI\07-Oct-2020\0\\
 #P Freq TPSSh/6-31G* 5D 7F Integral=UltraFineGrid SCF=(NoSymm,XQC,MaxC
 yc=120) IOp(1/33=1,3/174=1000000,3/175=2238200,3/177=0452900,3/178=465
 5000) EmpiricalDispersion=GD3BJ Geom=Check Guess=Read\\TS search on BH
 76.\\0,2\H,0.454989198,-1.4419739883,0.\F,-0.1640871277,0.3404642227,0
 .\H,-0.2909020703,-1.541869576,0.\\Version=ES64L-G16RevA.03\State=2-A'
 \HF=-100.8899992\S2=0.751355\S2-1=0.\S2A=0.750001\RMSD=0.000e+00\RMSF=
 2.197e-06\ZeroPoint=0.0105402\Thermal=0.0137035\Dipole=0.0386766,-0.28
 79904,0.\DipoleDeriv=0.0661383,-0.2135377,0.,0.0398445,-0.1647746,0.,0
 .,0.,0.0416027,-0.0720235,-0.0467034,0.,-0.0466839,0.2695157,0.,0.,0.,
 -0.0832152,0.0058852,0.2602411,0.,0.0068394,-0.1047411,0.,0.,0.,0.0416
 124\Polar=7.4388316,-0.5865078,11.7115164,0.,0.,1.5279552\Quadrupole=-
 0.1905983,0.7126233,-0.5220249,-0.1236502,0.,0.\PG=CS [SG(F1H2)]\NImag
 =1\\0.33961545,0.03892826,0.00607473,0.,0.,-0.00022260,-0.00172164,0.0
 0022287,0.,0.00010710,0.01336701,-0.00342654,0.,-0.00137880,0.01018442
 ,0.,0.,-0.00000566,0.,0.,0.00001148,-0.33789382,-0.03915112,0.,0.00161
 454,-0.01198821,0.,0.33627928,-0.05229526,-0.00264819,0.,0.00115594,-0
 .00675788,0.,0.05113933,0.00940607,0.,0.,0.00022826,0.,0.,-0.00000583,
 0.,0.,-0.00022243\\0.00000443,0.00000048,0.,-0.00000002,0.00000119,0.,
 -0.00000440,-0.00000167,0.\\\@


 10 WHATSOEVER THY HAND FINDETH TO DO, DO IT WITH THY  
 MIGHT. FOR THERE IS NO WORK, NOR DEVICE, NOR KNOWLEDGE, NOR  
 WISDOM, IN THE GRAVE, WHITHER THOU GOEST.                    
 11 I RETURNED AND SAW UNDER THE SUN, THAT THE RACE IS NOT TO 
 THE SWIFT, NOR THE BATTLE TO THE STRONG, NEITHER YET BREAD TO
 THE WISE, NOR YET RICHES TO MEN OF UNDERSTANDING, NOR YET    
 FAVOR TO MEN OF SKILL. BUT TIME AND CHANCE HAPPEN TO THEM ALL.
 12 FOR MAN ALSO KNOWETH NOT HIS TIME. AS THE FISHES   
 THAT ARE TAKEN IN AN EVIL NET, AND AS THE BIRDS THAT ARE     
 CAUGHT IN THE SNARE. SO ARE THE SONS OF MEN SNARED IN AN EVIL
 TIME, WHEN IT FALLETH SUDDENLY UPON THEM.
                                         ECCLESIASTES 9
 Job cpu time:       0 days  0 hours  2 minutes 28.0 seconds.
 Elapsed time:       0 days  0 hours  0 minutes 24.1 seconds.
 File lengths (MBytes):  RWF=      5 Int=      0 D2E=      0 Chk=      1 Scr=      1
 Normal termination of Gaussian 16 at Wed Oct  7 14:50:56 2020.
